----- GAMESS execution script -----

          ******************************************************
          *         GAMESS VERSION =  5 DEC 2014 (R1)          *
          *             FROM IOWA STATE UNIVERSITY             *
          * M.W.SCHMIDT, K.K.BALDRIDGE, J.A.BOATZ, S.T.ELBERT, *
          *   M.S.GORDON, J.H.JENSEN, S.KOSEKI, N.MATSUNAGA,   *
          *          K.A.NGUYEN, S.J.SU, T.L.WINDUS,           *
          *       TOGETHER WITH M.DUPUIS, J.A.MONTGOMERY       *
          *         J.COMPUT.CHEM.  14, 1347-1363(1993)        *
          **************** 64 BIT LINUX VERSION ****************

 EXECUTION OF GAMESS BEGUN Wed Nov 23 23:03:52 2016

            ECHO OF THE FIRST FEW INPUT CARDS -
 INPUT CARD>! SELECT RESTRICTED HARTREE-FOCK AS DEFAULT                                     
 INPUT CARD>$contrl scftyp=rhf $end                                                         
 INPUT CARD>                                                                                
 INPUT CARD>! THEORY: HF OR DFT                                                             
 INPUT CARD> $contrl mplevl=0 $end                                                          
 INPUT CARD>                                                                                
 INPUT CARD> $system timlim=10000 mwords=20 $end                                            
 INPUT CARD> $SCF DIRSCF=.TRUE. $end                                                        
 INPUT CARD>                                                                                
 INPUT CARD>                                                                                
 INPUT CARD>! BASIS SETS                                                                    
 INPUT CARD>! 6-311G(d,p)                                                                   
 INPUT CARD> $BASIS GBASIS=N311 NGAUSS=6 NDFUNC=1 NPFUNC=1 $END                             
 INPUT CARD>                                                                                
 INPUT CARD>! One of the following                                                          
 INPUT CARD> $guess guess=HUCKEL $end                                                       
 INPUT CARD>                                                                                
 INPUT CARD> $statpt projct=.FALSE. $end                                                    
 INPUT CARD> $STATPT IFREEZ(1)=1,2,3 $END                                                   
 INPUT CARD>                                                                                
 INPUT CARD>! Optimize the geometry with COSMO effects                                      
 INPUT CARD> $statpt opttol=0.0005 nstep=50 $end                                            
 INPUT CARD> $contrl nzvar=1 $end                                                           
 INPUT CARD> $zmat dlc=.t. auto=.t. $end                                                    
 INPUT CARD> $contrl runtyp=OPTIMIZE maxit=200 $end                                         
 INPUT CARD>                                                                                
 INPUT CARD>! Run COSMO on perfect conductor                                                
 INPUT CARD> $COSGMS PRFCND=.TRUE. $end                                                     
 INPUT CARD>                                                                                
 INPUT CARD>! Specifying RSOLV                                                              
 INPUT CARD> $COSGMS COSRAD = 1.4 $end                                                      
 INPUT CARD>                                                                                
 INPUT CARD>! available memory                                                              
 INPUT CARD> $SYSTEM MWORDS=40 $END                                                         
 INPUT CARD>                                                                                
 INPUT CARD> $DATA                                                                          
 INPUT CARD>Di-n-propyl ether, ID: C111433                                                  
 INPUT CARD>C1                                                                              
 INPUT CARD>C      6.0      1.7229000000    2.4489000000    4.4972000000                    
 INPUT CARD>O      8.0      1.4863000000    1.4871000000    3.4909000000                    
 INPUT CARD>C      6.0      1.0768000000    2.0380000000    2.2439000000                    
 INPUT CARD>C      6.0      2.8875000000    3.3932000000    4.2003000000                    
 INPUT CARD>C      6.0      1.3388000000    1.0002000000    1.1568000000                    
 INPUT CARD>C      6.0      4.2267000000    2.6962000000    4.2450000000                    
 INPUT CARD>C      6.0      2.7967000000    0.9418000000    0.7591000000                    
 INPUT CARD>H      1.0      0.7971000000    3.0237000000    4.6928000000                    
 INPUT CARD>H      1.0      1.9219000000    1.8057000000    5.3718000000                    
 INPUT CARD>H      1.0      0.0000000000    2.2825000000    2.3132000000                    
 INPUT CARD>H      1.0      1.6236000000    2.9855000000    2.0364000000                    
 INPUT CARD>H      1.0      2.7302000000    3.8538000000    3.1987000000                    
   40000000 WORDS OF MEMORY AVAILABLE

     BASIS OPTIONS
     -------------
     GBASIS=N311         IGAUSS=       6      POLAR=POPN311 
     NDFUNC=       1     NFFUNC=       0     DIFFSP=       F
     NPFUNC=       1      DIFFS=       F     BASNAM=        


     RUN TITLE
     ---------
 Di-n-propyl ether, ID: C111433                                                  

 THE POINT GROUP OF THE MOLECULE IS C1      
 THE ORDER OF THE PRINCIPAL AXIS IS     0

 ATOM      ATOMIC                      COORDINATES (BOHR)
           CHARGE         X                   Y                   Z
 C           6.0     3.2558089042        4.6277499713        8.4984757120
 O           8.0     2.8086997356        2.8102115163        6.5968444505
 C           6.0     2.0348569436        3.8512615630        4.2403561438
 C           6.0     5.4565837895        6.4122182215        7.9374160662
 C           6.0     2.5299651524        1.8901039329        2.1860350226
 C           6.0     7.9873048323        5.0950792081        8.0218868179
 C           6.0     5.2849966699        1.7797439352        1.4344909973
 H           1.0     1.5063005848        5.7139644691        8.8681061152
 H           1.0     3.6318643758        3.4122782160       10.1512300608
 H           1.0     0.0000000000        4.3132995670        4.3713141548
 H           1.0     3.0681591137        5.6417769363        3.8482380014
 H           1.0     5.1593298917        7.2826260115        6.0446665169
 H           1.0     5.4182223520        7.9856040789        9.3144593935
 H           1.0     1.8836788646        0.0000000000        2.8149358313
 H           1.0     1.3564453140        2.3625354298        0.5181628658
 H           1.0     9.5382029504        6.4222337693        7.6541461407
 H           1.0     8.1069244873        3.5857550617        6.5998680121
 H           1.0     8.3378490030        4.2288288153        9.8747631488
 H           1.0     5.6138089917        0.3186078015        0.0000000000
 H           1.0     5.9371411082        3.5853771165        0.6449634796
 H           1.0     6.5042478771        1.3456738759        3.0581435659

          INTERNUCLEAR DISTANCES (ANGS.)




     $CONTRL OPTIONS
     ---------------
 SCFTYP=RHF          RUNTYP=OPTIMIZE     EXETYP=RUN     
 MPLEVL=       0     CITYP =NONE         CCTYP =NONE         VBTYP =NONE    
 DFTTYP=NONE         TDDFT =NONE    
 MULT  =       1     ICHARG=       0     NZVAR =       1     COORD =UNIQUE  
 PP    =NONE         RELWFN=NONE         LOCAL =NONE         NUMGRD=       F
 ISPHER=      -1     NOSYM =       0     MAXIT =     200     UNITS =ANGS    
 PLTORB=       F     MOLPLT=       F     AIMPAC=       F     FRIEND=        
 NPRINT=       7     IREST =       0     GEOM  =INPUT   
 NORMF =       0     NORMP =       0     ITOL  =      20     ICUT  =       9
 INTTYP=BEST         GRDTYP=BEST         QMTTOL= 1.0E-06

     $SYSTEM OPTIONS
     ---------------
  REPLICATED MEMORY=    40000000 WORDS (ON EVERY NODE).
 DISTRIBUTED MEMDDI=           0 MILLION WORDS IN AGGREGATE,
 MEMDDI DISTRIBUTED OVER   1 PROCESSORS IS           0 WORDS/PROCESSOR.
 TOTAL MEMORY REQUESTED ON EACH PROCESSOR=    40000000 WORDS.
 TIMLIM=       10000.00 MINUTES, OR       6.9 DAYS.
 PARALL= F  BALTYP=  DLB     KDIAG=    0  COREFL= F
 MXSEQ2=     300 MXSEQ3=     150  mem10=         0

     $COSGMS OPTIONS
     ---------------
     EPSI  =   INFTY     NSPA  =      92     COSRAD=    1.40
     DISEX =   10.00     OUTCHG=DBLCAV       COSBUG=       F
     COSWRT=       F     DCOSMO=       F

     SYMMETRY COORDINATES WILL NOT BE USED FOR 
     THE COSMO CALCULATION, EVEN IF SPECIFIED:
         -- SWITCHING TO C1 POINT GROUP --


     DEFINITION OF CAVITY
     ---------------------------
     ATOM         COORDINATES           RADIUS 
     1    3.2558    4.6277    8.4985    2.0000
     2    2.8087    2.8102    6.5968    1.7200
     3    2.0349    3.8513    4.2404    2.0000
     4    5.4566    6.4122    7.9374    2.0000
     5    2.5300    1.8901    2.1860    2.0000
     6    7.9873    5.0951    8.0219    2.0000
     7    5.2850    1.7797    1.4345    2.0000
     8    1.5063    5.7140    8.8681    1.3000
     9    3.6319    3.4123   10.1512    1.3000
    10    0.0000    4.3133    4.3713    1.3000
    11    3.0682    5.6418    3.8482    1.3000
    12    5.1593    7.2826    6.0447    1.3000
    13    5.4182    7.9856    9.3145    1.3000
    14    1.8837    0.0000    2.8149    1.3000
    15    1.3564    2.3625    0.5182    1.3000
    16    9.5382    6.4222    7.6541    1.3000
    17    8.1069    3.5858    6.5999    1.3000
    18    8.3378    4.2288    9.8748    1.3000
    19    5.6138    0.3186    0.0000    1.3000
    20    5.9371    3.5854    0.6450    1.3000
    21    6.5042    1.3457    3.0581    1.3000

          ----------------
          PROPERTIES INPUT
          ----------------

     MOMENTS            FIELD           POTENTIAL          DENSITY
 IEMOM =       1   IEFLD =       0   IEPOT =       0   IEDEN =       0
 WHERE =COMASS     WHERE =NUCLEI     WHERE =NUCLEI     WHERE =NUCLEI  
 OUTPUT=BOTH       OUTPUT=BOTH       OUTPUT=BOTH       OUTPUT=BOTH    
 IEMINT=       0   IEFINT=       0                     IEDINT=       0
                                                       MORB  =       0
          EXTRAPOLATION IN EFFECT
          SOSCF IN EFFECT
 ORBITAL PRINTING OPTION: NPREO=     1   217     2     1

     -------------------------------
     INTEGRAL TRANSFORMATION OPTIONS
     -------------------------------
     NWORD  =            0
     CUTOFF = 1.0E-09     MPTRAN =       0
     DIRTRF =       T     AOINTS =DUP     

          ----------------------
          INTEGRAL INPUT OPTIONS
          ----------------------
 NOPK  =       1 NORDER=       0 SCHWRZ=       T


 -----------------------------------------------
  STATISTICS ON AUTOMATIC COORDINATE GENERATION 
 -----------------------------------------------
  NUMBER OF USER SPECIFIED BONDS                             0
  NUMBER OF BONDS                                           20
  NUMBER OF ANGLES                                          37
  NUMBER OF TORSIONS                                        42
  NUMBER OF EXTRA COORD.                                     0
  NUMBER OF EXTRA COORD. FOR CONSTRAINTS                     0
  NUMBER OF CONSTRAINED COORD.                               0

  TOTAL NUMBER OF PRIMITIVES                                99
 -----------------------------------------------

   --- ENCODED Z MATRIX ---
 COORD  TYPE   I   J   K   L   M   N
    1      1    1   9
    2      1    1   8
    3      1    1   4
    4      1    1   2
    5      1    2   3
    6      1    3  11
    7      1    3  10
    8      1    3   5
    9      1    4  13
   10      1    4  12
   11      1    4   6
   12      1    5  15
   13      1    5  14
   14      1    5   7
   15      1    6  16
   16      1    6  18
   17      1    6  17
   18      1    7  21
   19      1    7  20
   20      1    7  19
   21      2    1   2   3
   22      2    1   4  13
   23      2    1   4  12
   24      2    1   4   6
   25      2    2   1   9
   26      2    2   3  11
   27      2    2   3  10
   28      2    2   1   8
   29      2    2   1   4
   30      2    2   3   5
   31      2    3   5  14
   32      2    3   5   7
   33      2    3   5  15
   34      2    4   6  17
   35      2    4   6  18
   36      2    4   6  16
   37      2    4   1   9
   38      2    4   1   8
   39      2    5   3  11
   40      2    5   7  21
   41      2    5   7  20
   42      2    5   3  10
   43      2    5   7  19
   44      2    6   4  12
   45      2    6   4  13
   46      2    7   5  14
   47      2    7   5  15
   48      2    8   1   9
   49      2   10   3  11
   50      2   12   4  13
   51      2   14   5  15
   52      2   16   6  17
   53      2   16   6  18
   54      2   17   6  18
   55      2   19   7  20
   56      2   19   7  21
   57      2   20   7  21
   58      3    1   2   3   5
   59      3    1   2   3  10
   60      3    1   4   6  18
   61      3    1   2   3  11
   62      3    1   4   6  17
   63      3    1   4   6  16
   64      3    2   1   4   6
   65      3    2   3   5   7
   66      3    2   3   5  14
   67      3    2   3   5  15
   68      3    2   1   4  12
   69      3    2   1   4  13
   70      3    3   2   1   4
   71      3    3   5   7  19
   72      3    3   5   7  20
   73      3    3   5   7  21
   74      3    3   2   1   9
   75      3    3   2   1   8
   76      3    6   4   1   8
   77      3    6   4   1   9
   78      3    7   5   3  10
   79      3    7   5   3  11
   80      3    8   1   4  12
   81      3    8   1   4  13
   82      3    9   1   4  13
   83      3    9   1   4  12
   84      3   10   3   5  15
   85      3   10   3   5  14
   86      3   11   3   5  15
   87      3   11   3   5  14
   88      3   12   4   6  16
   89      3   12   4   6  18
   90      3   12   4   6  17
   91      3   13   4   6  16
   92      3   13   4   6  18
   93      3   13   4   6  17
   94      3   14   5   7  21
   95      3   14   5   7  19
   96      3   14   5   7  20
   97      3   15   5   7  21
   98      3   15   5   7  19
   99      3   15   5   7  20

          INDEP./SYM. INTERNAL COORDINATES
          --------------------------------
 CRD  1=  -0.1555 (  4) -0.1189 (  8) -0.2029 ( 21) -0.1517 ( 24)  0.1469 ( 25)
           0.2271 ( 28) -0.5432 ( 29) -0.1755 ( 30) -0.3208 ( 32)  0.1103 ( 37)
           0.1302 ( 38)  0.1865 ( 42) -0.3355 ( 58) -0.1816 ( 59) -0.1416 ( 61)
           0.1033 ( 76)
 CRD  2=  -0.6227 ( 21) -0.1011 ( 24)  0.1490 ( 25) -0.1596 ( 26) -0.2159 ( 27)
          -0.1277 ( 29)  0.5079 ( 30)  0.1311 ( 32) -0.1015 ( 39) -0.1003 ( 42)
          -0.1432 ( 64) -0.1119 ( 68) -0.1161 ( 70) -0.1013 ( 74) -0.1426 ( 75)
 CRD  3=   0.3723 ( 21)  0.1102 ( 22)  0.1306 ( 23) -0.3336 ( 24)  0.1282 ( 26)
          -0.1212 ( 27)  0.1085 ( 29) -0.1148 ( 32) -0.2213 ( 37)  0.1310 ( 38)
           0.1136 ( 44) -0.1573 ( 58) -0.1574 ( 59) -0.1426 ( 61) -0.1911 ( 65)
          -0.1372 ( 66) -0.1158 ( 67) -0.4400 ( 70) -0.2384 ( 74) -0.2409 ( 75)
 CRD  4=   0.1780 (  3) -0.1636 (  8)  0.1259 ( 11) -0.1338 ( 14) -0.2136 ( 21)
          -0.1085 ( 22)  0.3469 ( 24) -0.2022 ( 28)  0.2980 ( 29)  0.1673 ( 31)
          -0.4806 ( 32)  0.1309 ( 33)  0.1320 ( 34) -0.1101 ( 40) -0.1630 ( 45)
           0.1306 ( 46)  0.1683 ( 47) -0.1047 ( 58) -0.1590 ( 64) -0.1064 ( 69)
          -0.1127 ( 70) -0.1415 ( 74)
 CRD  5=   0.1315 (  3)  0.3188 (  4)  0.2399 (  5)  0.2487 (  8)  0.1353 ( 11)
           0.3242 ( 21) -0.1623 ( 23)  0.3517 ( 24)  0.1805 ( 28) -0.2282 ( 29)
           0.3347 ( 30)  0.1508 ( 35) -0.1827 ( 39) -0.1129 ( 44) -0.1136 ( 45)
          -0.1783 ( 58) -0.1155 ( 61)
 CRD  6=  -0.2080 (  4)  0.1779 ( 11) -0.1700 ( 23)  0.3515 ( 24)  0.1019 ( 25)
           0.1991 ( 26) -0.1856 ( 29) -0.3022 ( 30) -0.2270 ( 31)  0.3060 ( 32)
           0.1660 ( 34)  0.1239 ( 38)  0.1410 ( 40) -0.1467 ( 45) -0.1666 ( 47)
          -0.1009 ( 59) -0.1129 ( 64) -0.1761 ( 65) -0.1135 ( 66) -0.1562 ( 67)
          -0.1009 ( 69) -0.1368 ( 70) -0.1173 ( 72) -0.1622 ( 74) -0.1405 ( 75)
 CRD  7=   0.2652 (  3) -0.1110 (  4) -0.3689 (  5)  0.1428 ( 11)  0.1867 ( 14)
          -0.1210 ( 21) -0.1496 ( 22)  0.1828 ( 23) -0.1869 ( 25)  0.1765 ( 29)
           0.1776 ( 32) -0.1537 ( 33)  0.1285 ( 35) -0.2034 ( 44)  0.1219 ( 45)
          -0.1280 ( 46) -0.2236 ( 58) -0.1187 ( 59)  0.1331 ( 60) -0.2111 ( 61)
           0.1358 ( 62)  0.2239 ( 64)  0.1292 ( 68)  0.1404 ( 69) -0.1510 ( 70)
          -0.1206 ( 74)  0.1069 ( 76)  0.1013 ( 77)
 CRD  8=   0.1661 (  3)  0.1212 (  4)  0.1686 (  5)  0.1362 (  7)  0.1435 (  8)
           0.1668 ( 14)  0.1427 ( 22) -0.1263 ( 24)  0.1063 ( 25)  0.1646 ( 27)
          -0.1452 ( 30)  0.1514 ( 32)  0.1149 ( 34) -0.1652 ( 35)  0.1201 ( 36)
          -0.1304 ( 37)  0.1202 ( 38) -0.1943 ( 40)  0.3443 ( 41)  0.1549 ( 44)
          -0.2141 ( 46)  0.1013 ( 47) -0.1109 ( 55) -0.1416 ( 58) -0.1094 ( 59)
          -0.1299 ( 61) -0.1583 ( 64)  0.2888 ( 65)  0.1344 ( 66)  0.1240 ( 67)
          -0.1213 ( 76) -0.1178 ( 77)  0.1676 ( 78)  0.1787 ( 79)
 CRD  9=  -0.2525 (  3)  0.2807 (  8) -0.3264 ( 11)  0.4645 ( 14) -0.1033 ( 27)
           0.1026 ( 34) -0.1165 ( 35) -0.2540 ( 36) -0.1655 ( 38)  0.2166 ( 42)
           0.3085 ( 43)  0.1638 ( 53) -0.1700 ( 55) -0.1712 ( 56)
 CRD 10=  -0.2339 (  3) -0.2709 (  8) -0.3517 ( 11) -0.2201 ( 14)  0.1057 ( 28)
           0.1003 ( 32) -0.1317 ( 33) -0.3442 ( 36) -0.1105 ( 38) -0.1276 ( 39)
           0.1832 ( 41) -0.3262 ( 43) -0.1648 ( 46)  0.1341 ( 52)  0.1715 ( 53)
           0.1530 ( 56) -0.1402 ( 58) -0.1894 ( 59)  0.1036 ( 73) -0.1403 ( 75)
 CRD 11=  -0.4018 (  3)  0.1648 (  8)  0.2731 ( 11) -0.1149 ( 14) -0.2121 ( 22)
           0.1582 ( 25)  0.3583 ( 35) -0.2211 ( 37) -0.3331 ( 40)  0.1879 ( 41)
           0.2216 ( 45) -0.1240 ( 53) -0.1529 ( 54)  0.1159 ( 56) -0.1023 ( 71)
           0.1081 ( 77)
 CRD 12=  -0.2495 (  3) -0.3451 (  8)  0.3243 ( 11)  0.2958 ( 14) -0.1163 ( 22)
           0.1009 ( 26) -0.2140 ( 33)  0.2284 ( 34)  0.1276 ( 36) -0.2129 ( 39)
           0.1806 ( 40) -0.1044 ( 42)  0.1368 ( 44)  0.1778 ( 47) -0.1594 ( 52)
          -0.1051 ( 56) -0.1245 ( 57)  0.1646 ( 61)  0.1134 ( 71)  0.1084 ( 72)
           0.1016 ( 73)  0.1146 ( 74)  0.1137 ( 87)
 CRD 13=  -0.1138 (  3) -0.1063 (  5)  0.2911 (  8)  0.1622 ( 11) -0.2792 ( 14)
           0.1033 ( 17) -0.1084 ( 22)  0.1537 ( 28)  0.1027 ( 31)  0.4314 ( 34)
          -0.3448 ( 35) -0.1286 ( 38) -0.2189 ( 41)  0.1047 ( 42) -0.1023 ( 43)
          -0.1066 ( 46) -0.1341 ( 47) -0.2041 ( 52)  0.1035 ( 53)  0.1449 ( 55)
          -0.1142 ( 61)  0.1432 ( 63)  0.1059 ( 67)  0.1150 ( 68)
 CRD 14=  -0.1057 (  3)  0.1277 (  5)  0.1387 (  7)  0.1275 ( 18) -0.1065 ( 19)
           0.1597 ( 25)  0.2227 ( 27) -0.1295 ( 30) -0.1695 ( 34)  0.2609 ( 35)
          -0.2519 ( 37)  0.1082 ( 39)  0.4581 ( 40) -0.3450 ( 41)  0.1135 ( 52)
           0.1857 ( 55) -0.1619 ( 56)  0.1210 ( 65)  0.1502 ( 66)  0.1715 ( 67)
           0.1466 ( 74)
 CRD 15=  -0.1248 (  3) -0.1156 ( 20) -0.1531 ( 23) -0.1220 ( 27)  0.1185 ( 29)
           0.1568 ( 33) -0.2909 ( 34)  0.3349 ( 36) -0.2284 ( 38) -0.1539 ( 39)
           0.1769 ( 40)  0.2546 ( 41)  0.2428 ( 42) -0.3915 ( 43) -0.1213 ( 53)
           0.1565 ( 54) -0.1923 ( 57) -0.1193 ( 58)
 CRD 16=  -0.1125 (  1) -0.1320 (  4) -0.1846 (  5)  0.1168 (  8)  0.2214 ( 22)
          -0.2327 ( 23) -0.1548 ( 25)  0.1354 ( 26) -0.1237 ( 27)  0.2593 ( 31)
          -0.2228 ( 33)  0.1978 ( 35)  0.1355 ( 37) -0.1296 ( 41)  0.1784 ( 42)
           0.2200 ( 44) -0.1464 ( 45) -0.2546 ( 46)  0.1653 ( 47)  0.1154 ( 59)
          -0.1673 ( 60) -0.1592 ( 62) -0.1614 ( 63) -0.1068 ( 66)  0.1534 ( 71)
           0.1683 ( 72)  0.1624 ( 73) -0.1061 ( 74) -0.1259 ( 77)  0.1028 ( 79)
 CRD 17=  -0.1710 (  3) -0.1105 (  9) -0.1103 ( 11)  0.1179 ( 15)  0.1077 ( 20)
          -0.1103 ( 22) -0.1084 ( 23)  0.1460 ( 24)  0.1177 ( 27)  0.1172 ( 28)
           0.1403 ( 32) -0.1251 ( 33) -0.2861 ( 34) -0.1767 ( 35)  0.3550 ( 36)
          -0.1899 ( 38)  0.1210 ( 39) -0.1778 ( 40) -0.2178 ( 41) -0.1633 ( 42)
           0.3115 ( 43)  0.2172 ( 54)  0.1871 ( 57) -0.2078 ( 59) -0.1574 ( 61)
          -0.1904 ( 75)
 CRD 18=  -0.1662 (  5) -0.1196 (  6) -0.1120 (  8)  0.1003 (  9)  0.1045 ( 11)
           0.1942 ( 22) -0.1535 ( 23) -0.1125 ( 24) -0.1992 ( 25) -0.2334 ( 26)
           0.1027 ( 27)  0.1564 ( 28)  0.1049 ( 29) -0.2011 ( 31)  0.1422 ( 33)
           0.1773 ( 35) -0.1611 ( 36)  0.1244 ( 37) -0.2631 ( 38)  0.2031 ( 39)
          -0.1912 ( 42)  0.2265 ( 44)  0.1849 ( 46) -0.1094 ( 47) -0.1356 ( 54)
          -0.1783 ( 59) -0.1146 ( 60) -0.1782 ( 61) -0.1043 ( 62) -0.1003 ( 63)
           0.1175 ( 68) -0.1063 ( 71) -0.1117 ( 72) -0.1148 ( 73) -0.1087 ( 75)
          -0.1139 ( 79)
 CRD 19=   0.2526 (  6) -0.2186 (  7)  0.1444 (  8)  0.1425 ( 12)  0.2174 ( 13)
          -0.1533 ( 26) -0.1115 ( 29)  0.1831 ( 31) -0.2184 ( 32)  0.1002 ( 38)
           0.3910 ( 39)  0.1454 ( 40)  0.1406 ( 41) -0.2887 ( 42) -0.1717 ( 43)
           0.2169 ( 47) -0.1315 ( 51) -0.1539 ( 57)  0.2393 ( 58) -0.1599 ( 61)
          -0.1398 ( 67) -0.1134 ( 70)
 CRD 20=   0.3720 (  1) -0.2488 (  2)  0.1145 (  3)  0.2323 (  5)  0.1530 (  6)
           0.2129 ( 10) -0.1065 ( 22)  0.1924 ( 23) -0.1406 ( 24)  0.1141 ( 28)
           0.3411 ( 37) -0.2824 ( 38)  0.2045 ( 45) -0.1260 ( 68) -0.1862 ( 69)
           0.1098 ( 70) -0.2437 ( 74) -0.1862 ( 75) -0.1003 ( 81)
 CRD 21=  -0.1305 (  7)  0.2165 (  9) -0.2407 ( 10)  0.3890 ( 12) -0.4100 ( 13)
           0.1503 ( 18) -0.1457 ( 19) -0.1480 ( 27)  0.1290 ( 40) -0.1419 ( 41)
          -0.1128 ( 46)  0.1466 ( 47)  0.1086 ( 55) -0.1049 ( 56) -0.1136 ( 63)
           0.1348 ( 65) -0.2070 ( 71) -0.1630 ( 72) -0.1631 ( 73)  0.1233 ( 76)
           0.1001 ( 77)  0.2484 ( 78)  0.1791 ( 79)
 CRD 22=   0.2215 (  2) -0.1600 (  7) -0.4085 (  9)  0.3924 ( 10)  0.2135 ( 12)
          -0.2030 ( 13)  0.1314 ( 16) -0.1492 ( 17) -0.1043 ( 27)  0.1488 ( 28)
          -0.1015 ( 29) -0.1208 ( 34)  0.1148 ( 35)  0.1204 ( 44) -0.1656 ( 45)
          -0.1031 ( 53)  0.1559 ( 60)  0.1601 ( 62)  0.1999 ( 63) -0.1075 ( 64)
           0.1067 ( 69) -0.1075 ( 71) -0.2346 ( 76) -0.1650 ( 77)  0.1344 ( 78)
 CRD 23=  -0.1638 ( 14)  0.1604 ( 15)  0.1687 ( 16)  0.1669 ( 17) -0.4734 ( 18)
          -0.4751 ( 19) -0.4529 ( 20)  0.1671 ( 40)  0.1667 ( 41)  0.1830 ( 43)
          -0.1882 ( 55) -0.1885 ( 56) -0.1773 ( 57)
 CRD 24=   0.1640 ( 11)  0.4534 ( 15)  0.4758 ( 16)  0.4727 ( 17)  0.1678 ( 18)
           0.1679 ( 19)  0.1605 ( 20) -0.1672 ( 34) -0.1663 ( 35) -0.1832 ( 36)
           0.1885 ( 52)  0.1881 ( 53)  0.1765 ( 54)
 CRD 25=   0.4657 (  1)  0.5099 (  2)  0.2683 (  4) -0.2386 (  7)  0.1662 (  9)
          -0.1371 ( 12) -0.1040 ( 21) -0.1250 ( 30) -0.1715 ( 37) -0.1736 ( 38)
           0.1004 ( 39)  0.1265 ( 42)  0.2379 ( 48) -0.1490 ( 49)  0.1590 ( 74)
          -0.1663 ( 75)
 CRD 26=  -0.1264 (  1) -0.2739 (  2) -0.6024 (  6) -0.4935 (  7)  0.1222 ( 39)
           0.1171 ( 42) -0.1300 ( 48) -0.2749 ( 49)  0.1653 ( 59) -0.1420 ( 61)
          -0.1195 ( 78) -0.1074 ( 84)
 CRD 27=   0.1887 (  9)  0.1840 ( 10) -0.6260 ( 15)  0.3105 ( 16)  0.2724 ( 17)
          -0.1690 ( 52) -0.1471 ( 53)  0.3260 ( 54) -0.1603 ( 60)  0.1799 ( 62)
          -0.1397 ( 89)  0.2006 ( 90) -0.1724 ( 92)  0.1679 ( 93)
 CRD 28=   0.1722 ( 12)  0.1735 ( 13)  0.3282 ( 18)  0.2581 ( 19) -0.6302 ( 20)
          -0.1767 ( 55) -0.1406 ( 56)  0.3275 ( 57) -0.1726 ( 72)  0.1698 ( 73)
           0.1872 ( 94) -0.1552 ( 96)  0.1572 ( 97) -0.1852 ( 99)
 CRD 29=   0.2603 ( 16) -0.2585 ( 17)  0.4557 ( 18) -0.4922 ( 19) -0.1369 ( 52)
           0.1368 ( 53) -0.2415 ( 55)  0.2604 ( 56) -0.1188 ( 63)  0.2130 ( 71)
          -0.1230 ( 88) -0.1196 ( 91)  0.2135 ( 95)  0.2099 ( 98)
 CRD 30=  -0.4670 ( 16)  0.4776 ( 17)  0.2441 ( 18) -0.2791 ( 19)  0.2467 ( 52)
          -0.2535 ( 53) -0.1308 ( 55)  0.1483 ( 56)  0.2116 ( 63)  0.1150 ( 71)
           0.2156 ( 88)  0.2099 ( 91)  0.1132 ( 95)  0.1111 ( 98)
 CRD 31=   0.1398 (  1) -0.2634 (  2)  0.3921 (  9)  0.3837 ( 10)  0.1422 ( 15)
          -0.1855 ( 17) -0.1565 ( 23)  0.1278 ( 25) -0.1532 ( 45)  0.1493 ( 50)
           0.1367 ( 60)  0.1380 ( 69)  0.1127 ( 76)  0.1352 ( 77)  0.1079 ( 80)
           0.2318 ( 81)  0.2543 ( 82)  0.1304 ( 83)  0.1542 ( 88)  0.2615 ( 89)
           0.1771 ( 90)  0.1371 ( 92)
 CRD 32=  -0.1972 (  7)  0.1119 (  9)  0.4718 ( 12)  0.4725 ( 13) -0.1693 ( 18)
           0.1359 ( 20)  0.1066 ( 26) -0.1503 ( 31) -0.1488 ( 47)  0.1889 ( 51)
           0.1537 ( 67)  0.1200 ( 72)  0.1139 ( 79)  0.2099 ( 84)  0.2436 ( 86)
           0.1660 ( 94)  0.1598 ( 95)  0.2495 ( 96)
 CRD 33=   0.3482 (  1) -0.1080 (  2) -0.1546 (  4) -0.1829 (  6) -0.3937 (  9)
          -0.3514 ( 10)  0.2210 ( 12)  0.1454 ( 13)  0.1321 ( 16)  0.1102 ( 22)
          -0.1361 ( 28)  0.1250 ( 44) -0.1448 ( 50)  0.1035 ( 68)  0.1494 ( 76)
           0.2544 ( 80)  0.1169 ( 81)  0.1623 ( 83) -0.1237 ( 85) -0.1141 ( 87)
           0.1222 ( 91)  0.1358 ( 92)  0.1979 ( 93)
 CRD 34=  -0.1217 (  1)  0.1823 (  2) -0.2534 (  6)  0.2496 (  7)  0.1512 (  9)
           0.1581 ( 10)  0.2949 ( 12)  0.2706 ( 13)  0.1029 ( 27) -0.1332 ( 33)
          -0.1408 ( 46)  0.1134 ( 51) -0.1191 ( 66) -0.1144 ( 73) -0.1225 ( 78)
          -0.1370 ( 79) -0.1237 ( 80) -0.1449 ( 83) -0.1273 ( 84) -0.2316 ( 85)
          -0.1418 ( 86) -0.2462 ( 87) -0.1055 ( 92) -0.1284 ( 93) -0.1298 ( 94)
          -0.2243 ( 97) -0.1599 ( 98) -0.1808 ( 99)
 CRD 35=   0.3190 (  1)  0.1647 (  2) -0.1362 (  3) -0.4836 (  4) -0.2336 (  6)
           0.1135 (  8)  0.1969 ( 10) -0.1862 ( 13)  0.2187 ( 21) -0.1055 ( 25)
          -0.1107 ( 26) -0.1592 ( 28)  0.1619 ( 30) -0.1075 ( 42)  0.1411 ( 48)
           0.1111 ( 66)  0.1222 ( 76) -0.1449 ( 77)  0.1218 ( 81) -0.1453 ( 82)
          -0.1932 ( 83) -0.1066 ( 91) -0.1039 ( 92) -0.1208 ( 93)  0.1347 ( 97)
           0.1144 ( 98)  0.1223 ( 99)
 CRD 36=  -0.2304 (  1)  0.2373 (  2) -0.2152 (  4)  0.3688 (  5)  0.2159 (  9)
          -0.2080 ( 10)  0.1304 ( 12) -0.1456 ( 13) -0.1360 ( 21) -0.1711 ( 25)
           0.1390 ( 27) -0.1072 ( 49)  0.1420 ( 60)  0.1386 ( 62)  0.1455 ( 63)
          -0.1510 ( 78) -0.1045 ( 82) -0.1055 ( 83) -0.1528 ( 84) -0.1559 ( 85)
           0.1945 ( 88)  0.1910 ( 89)  0.1876 ( 90)  0.2024 ( 91)  0.1990 ( 92)
           0.1956 ( 93)
 CRD 37=  -0.2616 (  4)  0.2385 (  5)  0.1843 (  6) -0.3475 (  7) -0.2053 ( 12)
           0.1754 ( 13) -0.1048 ( 25)  0.1085 ( 29) -0.1338 ( 39)  0.1500 ( 48)
          -0.1265 ( 58) -0.1568 ( 59) -0.1662 ( 71) -0.1626 ( 72) -0.1501 ( 73)
           0.1456 ( 74)  0.1016 ( 79)  0.1402 ( 86)  0.1122 ( 87) -0.2212 ( 94)
          -0.2374 ( 95) -0.2338 ( 96) -0.1786 ( 97) -0.1948 ( 98) -0.1912 ( 99)
 CRD 38=   0.1141 (  1) -0.1560 (  5) -0.1306 (  6)  0.1408 (  7)  0.1967 (  9)
          -0.1924 ( 10) -0.2394 ( 12)  0.2430 ( 13)  0.1470 ( 21) -0.1184 ( 29)
           0.1054 ( 37) -0.1297 ( 48)  0.1107 ( 60)  0.1056 ( 62)  0.1315 ( 63)
           0.1225 ( 65)  0.1530 ( 66)  0.1318 ( 67) -0.1240 ( 68) -0.1230 ( 69)
          -0.1060 ( 71) -0.1451 ( 74) -0.1101 ( 76)  0.1805 ( 78) -0.1385 ( 80)
          -0.1375 ( 81) -0.1006 ( 83)  0.1898 ( 84)  0.2110 ( 85)  0.1863 ( 88)
           0.1654 ( 89)  0.1603 ( 90)  0.1405 ( 91)  0.1197 ( 92)  0.1146 ( 93)
          -0.1106 ( 95) -0.1308 ( 98)
 CRD 39=  -0.1289 (  1)  0.2711 (  2)  0.1028 (  4)  0.3185 (  5) -0.1541 (  6)
           0.2899 (  7) -0.1722 (  9)  0.1884 ( 10)  0.1146 ( 13) -0.1414 ( 21)
          -0.1133 ( 25)  0.1557 ( 37) -0.1319 ( 49)  0.1146 ( 58)  0.1269 ( 59)
           0.1557 ( 64)  0.1047 ( 66)  0.1730 ( 68)  0.1594 ( 69) -0.1484 ( 70)
          -0.2614 ( 74) -0.1229 ( 75)  0.1502 ( 76)  0.1146 ( 77)  0.1457 ( 79)
           0.1676 ( 80)  0.1539 ( 81)  0.1184 ( 82)  0.1320 ( 83)  0.1213 ( 86)
           0.1794 ( 87)
 CRD 40=  -0.1709 (  2) -0.1248 (  4)  0.1497 (  7)  0.2540 ( 15)  0.1490 ( 16)
           0.1385 ( 17) -0.1000 ( 18) -0.1231 ( 19) -0.1901 ( 20)  0.1546 ( 22)
           0.1558 ( 23)  0.1183 ( 28) -0.1141 ( 31) -0.1051 ( 33)  0.1543 ( 34)
           0.1569 ( 35)  0.1909 ( 36) -0.1046 ( 38) -0.1173 ( 40) -0.1213 ( 41)
          -0.1441 ( 43) -0.1642 ( 44) -0.1723 ( 45)  0.1283 ( 46)  0.1296 ( 47)
           0.1131 ( 48) -0.2042 ( 52) -0.2121 ( 53) -0.1214 ( 54)  0.1670 ( 55)
           0.1484 ( 56)  0.1426 ( 69)  0.1235 ( 74) -0.1162 ( 80) -0.1365 ( 83)
           0.1189 ( 87) -0.1148 ( 89)
 CRD 41=  -0.1424 (  3) -0.1382 ( 11) -0.1645 ( 14)  0.2003 ( 15)  0.1332 ( 16)
           0.1506 ( 17)  0.1702 ( 18)  0.1563 ( 19)  0.2568 ( 20)  0.1014 ( 22)
           0.1377 ( 31)  0.1468 ( 33)  0.1476 ( 34)  0.1469 ( 35)  0.1647 ( 36)
           0.1743 ( 40)  0.1746 ( 41)  0.2033 ( 43) -0.1087 ( 44) -0.1125 ( 45)
          -0.1370 ( 46) -0.1372 ( 47) -0.1865 ( 52) -0.1718 ( 53) -0.1333 ( 54)
          -0.2162 ( 55) -0.2280 ( 56) -0.1480 ( 57)  0.1083 ( 58)  0.1327 ( 61)
           0.1090 ( 67)  0.1106 ( 69)  0.1022 ( 82)  0.1094 ( 86)
 CRD 42=   0.2465 (  5)  0.2309 (  6) -0.2079 (  8) -0.1040 ( 12) -0.2481 ( 14)
           0.1670 ( 18)  0.1565 ( 19)  0.1358 ( 21) -0.2447 ( 26) -0.1768 ( 27)
           0.1473 ( 30) -0.1141 ( 31) -0.1247 ( 33)  0.1908 ( 39)  0.1223 ( 40)
           0.1135 ( 41)  0.2455 ( 42) -0.1768 ( 49)  0.1710 ( 51) -0.1958 ( 57)
           0.2054 ( 59) -0.2509 ( 61) -0.1135 ( 87)  0.1395 ( 95)  0.1849 ( 96)
          -0.1570 ( 97) -0.1145 ( 98)
 CRD 43=  -0.1156 (  1) -0.1101 (  2)  0.1399 (  3) -0.2548 (  4) -0.1945 (  6)
           0.1743 (  7)  0.1156 (  9)  0.2951 ( 11) -0.1871 ( 14) -0.1526 ( 16)
          -0.1909 ( 17)  0.1241 ( 18)  0.1025 ( 22)  0.1115 ( 23)  0.1640 ( 25)
           0.2017 ( 28) -0.1077 ( 29) -0.1327 ( 34) -0.1229 ( 35) -0.1086 ( 36)
          -0.1664 ( 37) -0.1807 ( 38)  0.1343 ( 48) -0.1299 ( 50)  0.1052 ( 52)
           0.2079 ( 54) -0.1179 ( 56)  0.1569 ( 58)  0.1287 ( 74) -0.1809 ( 75)
          -0.1282 ( 88) -0.1883 ( 89)  0.1225 ( 93)
 CRD 44=   0.1976 (  1) -0.1159 (  4) -0.1135 (  5)  0.2069 (  9) -0.2536 ( 10)
           0.1781 ( 12) -0.1970 ( 13)  0.1735 ( 16) -0.1662 ( 17)  0.1832 ( 19)
          -0.1503 ( 48) -0.1432 ( 49)  0.1415 ( 52) -0.1144 ( 53) -0.1071 ( 55)
           0.1273 ( 63)  0.1115 ( 66)  0.1423 ( 68)  0.1697 ( 69) -0.1306 ( 76)
          -0.1067 ( 78)  0.1713 ( 82)  0.1439 ( 83)  0.1700 ( 86)  0.1933 ( 87)
          -0.1354 ( 89) -0.1529 ( 90) -0.1807 ( 92) -0.1981 ( 93) -0.1349 ( 94)
          -0.1902 ( 97) -0.1379 ( 99)
 CRD 45=   0.1384 (  3) -0.1681 (  4)  0.2096 (  5)  0.1665 (  9) -0.2026 ( 10)
          -0.1807 ( 11) -0.2098 ( 12)  0.2094 ( 13)  0.2363 ( 16)  0.1435 ( 18)
          -0.1874 ( 19) -0.1342 ( 22)  0.1095 ( 44)  0.1113 ( 49) -0.1239 ( 53)
          -0.1185 ( 54)  0.1261 ( 55) -0.1230 ( 56)  0.1177 ( 63) -0.1129 ( 66)
           0.1211 ( 68) -0.1302 ( 71)  0.1327 ( 82)  0.1751 ( 83) -0.1594 ( 86)
          -0.1769 ( 87) -0.1294 ( 90) -0.1459 ( 92) -0.2393 ( 93)  0.1618 ( 94)
           0.1373 ( 96)  0.1753 ( 97)  0.1508 ( 99)
 CRD 46=   0.1864 (  1) -0.3107 (  3)  0.1455 (  5)  0.1269 (  6) -0.2644 (  8)
           0.3269 ( 11)  0.2641 ( 14) -0.1904 ( 17) -0.1477 ( 19)  0.1253 ( 23)
          -0.1599 ( 25) -0.1226 ( 26)  0.1025 ( 33) -0.1208 ( 45)  0.1812 ( 54)
           0.1607 ( 57)  0.1062 ( 59)  0.1750 ( 69) -0.1237 ( 87) -0.1664 ( 89)
           0.1481 ( 97)
 CRD 47=   0.1839 (  1) -0.1450 (  2) -0.1502 (  3)  0.2105 (  4) -0.1102 (  6)
           0.3412 (  8)  0.2268 ( 11) -0.1039 ( 12) -0.1982 ( 14)  0.2214 ( 18)
          -0.1327 ( 20) -0.1932 ( 21) -0.1871 ( 25)  0.1396 ( 26) -0.1398 ( 31)
           0.1065 ( 38) -0.1242 ( 39) -0.1018 ( 42)  0.1002 ( 49)  0.1258 ( 50)
          -0.1696 ( 57) -0.1510 ( 59) -0.1034 ( 67)  0.1603 ( 69)  0.1008 ( 72)
           0.1326 ( 75) -0.1049 ( 80) -0.1854 ( 83)  0.2260 ( 96)
 CRD 48=  -0.2396 (  2)  0.2222 (  3)  0.1548 (  7) -0.1757 (  8) -0.1649 (  9)
           0.1030 ( 11) -0.2571 ( 15)  0.1326 ( 17)  0.1751 ( 20)  0.1071 ( 28)
           0.1099 ( 48)  0.2052 ( 50) -0.1327 ( 51)  0.1336 ( 53) -0.1578 ( 54)
           0.1152 ( 57)  0.1324 ( 60) -0.1271 ( 62)  0.1476 ( 69)  0.1497 ( 74)
          -0.1259 ( 80) -0.1970 ( 83)  0.1158 ( 87)  0.2599 ( 89) -0.1081 ( 91)
          -0.2055 ( 93) -0.1744 ( 96)  0.1479 ( 97)
 CRD 49=  -0.1032 (  3)  0.1580 (  4) -0.1243 ( 11)  0.1096 ( 12)  0.1304 ( 13)
          -0.2980 ( 14)  0.1801 ( 15) -0.1412 ( 17)  0.2421 ( 20) -0.1266 ( 28)
           0.1136 ( 38)  0.1407 ( 46)  0.1378 ( 47) -0.1841 ( 51) -0.1386 ( 53)
           0.1021 ( 54) -0.1117 ( 55) -0.1347 ( 56)  0.1023 ( 57) -0.1301 ( 58)
          -0.1152 ( 59) -0.1048 ( 60) -0.1543 ( 61) -0.2015 ( 67) -0.1224 ( 72)
           0.1197 ( 73)  0.1443 ( 75)  0.1313 ( 80) -0.1329 ( 82) -0.1500 ( 84)
           0.1336 ( 85) -0.1163 ( 86)  0.1673 ( 87) -0.1417 ( 89) -0.1165 ( 92)
          -0.1423 ( 96)  0.1616 ( 97)
 CRD 50=   0.1780 (  1) -0.1827 (  4) -0.1562 (  5)  0.1564 (  6) -0.2091 ( 16)
           0.1725 ( 17)  0.1474 ( 18) -0.1923 ( 19)  0.1084 ( 35) -0.1711 ( 48)
          -0.1609 ( 49) -0.1689 ( 52)  0.1162 ( 53)  0.1025 ( 55) -0.1514 ( 56)
          -0.2108 ( 63) -0.1879 ( 71)  0.1074 ( 75) -0.2086 ( 76) -0.1855 ( 78)
          -0.1524 ( 80) -0.2009 ( 81)  0.1125 ( 83) -0.1716 ( 84) -0.1434 ( 85)
          -0.1693 ( 88)  0.1038 ( 90) -0.1815 ( 91) -0.1506 ( 95) -0.1605 ( 98)
 CRD 51=  -0.1591 (  1)  0.1513 (  4) -0.2536 (  5)  0.1475 (  6)  0.1056 (  7)
           0.1012 ( 14)  0.1655 ( 16) -0.1332 ( 17)  0.1912 ( 18) -0.1700 ( 19)
          -0.1053 ( 29) -0.1172 ( 40) -0.1214 ( 47)  0.1611 ( 48) -0.1876 ( 49)
           0.1207 ( 52) -0.1023 ( 53)  0.1651 ( 55) -0.1046 ( 56)  0.1152 ( 59)
           0.1605 ( 63) -0.1959 ( 71) -0.1320 ( 75)  0.1763 ( 76) -0.2015 ( 78)
           0.1378 ( 80)  0.1215 ( 81) -0.1031 ( 84) -0.1976 ( 85)  0.1767 ( 86)
           0.1422 ( 88)  0.1621 ( 91) -0.1891 ( 95) -0.1729 ( 98)
 CRD 52=  -0.1125 (  1)  0.1914 (  2) -0.1770 (  3)  0.1023 (  6) -0.1376 (  7)
           0.1434 (  8)  0.1777 ( 11) -0.1431 ( 14) -0.2077 ( 15)  0.1605 ( 20)
           0.1324 ( 22)  0.1345 ( 23) -0.1097 ( 31)  0.1050 ( 36)  0.1059 ( 37)
          -0.1356 ( 44) -0.1302 ( 45)  0.1168 ( 46)  0.1062 ( 52) -0.1198 ( 54)
          -0.1065 ( 58)  0.1252 ( 60) -0.1412 ( 62) -0.1095 ( 64)  0.1402 ( 66)
          -0.1824 ( 68)  0.1102 ( 73) -0.1304 ( 74)  0.1115 ( 77)  0.1086 ( 81)
           0.1788 ( 82) -0.1069 ( 84) -0.1212 ( 86) -0.2213 ( 90)  0.2065 ( 92)
           0.1688 ( 94) -0.1564 ( 99)
 CRD 53=   0.2319 (  3) -0.1251 (  7)  0.2272 (  8) -0.1088 ( 12) -0.1202 ( 13)
           0.1278 ( 15)  0.1615 ( 20)  0.1038 ( 27) -0.1149 ( 32) -0.1089 ( 36)
          -0.1477 ( 43)  0.1097 ( 50)  0.1715 ( 51)  0.1249 ( 57)  0.1006 ( 58)
           0.1218 ( 59) -0.1111 ( 60)  0.2196 ( 61)  0.1315 ( 67) -0.1407 ( 70)
          -0.1292 ( 72)  0.1264 ( 73) -0.1848 ( 75)  0.1328 ( 88)  0.2005 ( 90)
          -0.2046 ( 92)  0.2632 ( 94)  0.1412 ( 95) -0.1396 ( 98) -0.2732 ( 99)
 CRD 54=  -0.1014 (  2) -0.1480 (  3)  0.1155 (  8)  0.1485 (  9)  0.1249 ( 10)
          -0.1321 ( 11) -0.1247 ( 12) -0.1129 ( 13)  0.1188 ( 14) -0.1049 ( 15)
           0.1900 ( 24) -0.1649 ( 32)  0.1273 ( 36)  0.1349 ( 38) -0.1130 ( 42)
          -0.1075 ( 43) -0.2049 ( 50)  0.1772 ( 51)  0.1108 ( 60) -0.1903 ( 66)
           0.2151 ( 68)  0.1022 ( 75)  0.1031 ( 80) -0.1416 ( 81) -0.2017 ( 82)
           0.1375 ( 84)  0.1708 ( 86) -0.1453 ( 88) -0.2193 ( 90)  0.1075 ( 91)
           0.2218 ( 92)  0.1822 ( 94)  0.1245 ( 95) -0.1898 ( 99)
 CRD 55=   0.1659 (  2) -0.1405 (  6)  0.1924 (  7)  0.1360 ( 11)  0.1131 ( 14)
          -0.1411 ( 24)  0.1235 ( 26) -0.1323 ( 27) -0.1089 ( 28)  0.1049 ( 29)
          -0.1496 ( 32)  0.1030 ( 37)  0.1215 ( 39) -0.1271 ( 42)  0.1380 ( 50)
           0.1240 ( 51) -0.2104 ( 59) -0.2630 ( 61) -0.1227 ( 64) -0.1597 ( 65)
          -0.2474 ( 66) -0.2248 ( 68)  0.2969 ( 70)  0.1727 ( 75)  0.1185 ( 81)
           0.2006 ( 82)  0.1581 ( 84)  0.2076 ( 86)  0.1083 ( 90) -0.1087 ( 92)
           0.1020 ( 94) -0.1068 ( 99)
 CRD 56=  -0.1352 (  5) -0.1039 (  9)  0.1049 ( 10) -0.1869 ( 12)  0.1782 ( 13)
          -0.1237 ( 18)  0.1271 ( 19)  0.1383 ( 30) -0.1331 ( 31)  0.1360 ( 33)
           0.1244 ( 40) -0.1287 ( 41) -0.1372 ( 46)  0.1375 ( 47) -0.1073 ( 49)
          -0.1411 ( 60) -0.1385 ( 62)  0.1156 ( 64)  0.1943 ( 65) -0.2406 ( 72)
          -0.2466 ( 73)  0.1592 ( 77)  0.2758 ( 79) -0.1234 ( 80) -0.1227 ( 81)
          -0.2133 ( 84) -0.2259 ( 85)  0.1299 ( 88)  0.1320 ( 91)  0.2330 ( 95)
           0.2244 ( 98)
 CRD 57=   0.1190 (  1) -0.1248 (  4)  0.1071 (  5) -0.1681 (  9)  0.1906 ( 10)
           0.1023 ( 12)  0.1257 ( 16) -0.1223 ( 17)  0.1304 ( 22) -0.1349 ( 23)
           0.1358 ( 29)  0.1236 ( 34) -0.1259 ( 35) -0.1070 ( 37) -0.1332 ( 44)
           0.1369 ( 45) -0.1069 ( 48) -0.2405 ( 60) -0.2448 ( 62)  0.2344 ( 64)
          -0.1132 ( 65)  0.1346 ( 72)  0.1385 ( 73)  0.2632 ( 77) -0.1529 ( 79)
          -0.2106 ( 80) -0.2334 ( 81)  0.1267 ( 84)  0.1309 ( 85)  0.2141 ( 88)
           0.2329 ( 91) -0.1268 ( 95) -0.1229 ( 98)

 THE DETERMINANT OF THE G MATRIX IS 10**(   -21)


                     --------------------
                     INTERNAL COORDINATES
                     --------------------

                 - - ATOMS - -         COORDINATE      COORDINATE
 NO.   TYPE    I  J  K  L  M  N        (BOHR,RAD)       (ANG,DEG)
 ----------------------------------------------------------------
   1 STRETCH   1  9                     2.0857580       1.1037357
   2 STRETCH   1  8                     2.0921921       1.1071405
   3 STRETCH   1  4                     2.8883429       1.5284454
   4 STRETCH   1  2                     2.6682493       1.4119768
   5 STRETCH   2  3                     2.6899173       1.4234430
   6 STRETCH   3 11                     2.1041424       1.1134643
   7 STRETCH   3 10                     2.0907587       1.1063819
   8 STRETCH   3  5                     2.8829684       1.5256013
   9 STRETCH   4 13                     2.0912348       1.1066339
  10 STRETCH   4 12                     2.1043931       1.1135970
  11 STRETCH   4  6                     2.8542143       1.5103853
  12 STRETCH   5 15                     2.0933556       1.1077562
  13 STRETCH   5 14                     2.0942051       1.1082057
  14 STRETCH   5  7                     2.8578307       1.5122990
  15 STRETCH   6 16                     2.0740919       1.0975623
  16 STRETCH   6 18                     2.0751920       1.0981444
  17 STRETCH   6 17                     2.0771388       1.0991746
  18 STRETCH   7 21                     2.0763521       1.0987583
  19 STRETCH   7 20                     2.0758028       1.0984676
  20 STRETCH   7 19                     2.0738372       1.0974275
  21 BEND      1  2  3                  1.9920735     114.1374068
  22 BEND      1  4 13                  1.8996316     108.8408726
  23 BEND      1  4 12                  1.8992960     108.8216422
  24 BEND      1  4  6                  1.9657204     112.6274809
  25 BEND      2  1  9                  1.7701073     101.4196796
  26 BEND      2  3 11                  1.9297702     110.5676860
  27 BEND      2  3 10                  1.8866689     108.0981647
  28 BEND      2  1  8                  1.9171170     109.8427126
  29 BEND      2  1  4                  1.9933360     114.2097416
  30 BEND      2  3  5                  1.8876379     108.1536838
  31 BEND      3  5 14                  1.9251357     110.3021500
  32 BEND      3  5  7                  1.9597466     112.2852089
  33 BEND      3  5 15                  1.8943558     108.5385939
  34 BEND      4  6 17                  1.9456353     111.4766905
  35 BEND      4  6 18                  1.9485499     111.6436839
  36 BEND      4  6 16                  1.9417118     111.2518911
  37 BEND      4  1  9                  1.9568960     112.1218817
  38 BEND      4  1  8                  1.9291279     110.5308892
  39 BEND      5  3 11                  1.9409249     111.2068041
  40 BEND      5  7 21                  1.9482103     111.6242251
  41 BEND      5  7 20                  1.9490479     111.6722211
  42 BEND      5  3 10                  1.9413237     111.2296565
  43 BEND      5  7 19                  1.9411665     111.2206453
  44 BEND      6  4 12                  1.9206225     110.0435622
  45 BEND      6  4 13                  1.9219435     110.1192488
  46 BEND      7  5 14                  1.9194431     109.9759900
  47 BEND      7  5 15                  1.9173057     109.8535265
  48 BEND      8  1  9                  1.8894832     108.2594117
  49 BEND     10  3 11                  1.8771361     107.5519789
  50 BEND     12  4 13                  1.8530024     106.1692157
  51 BEND     14  5 15                  1.8441381     105.6613302
  52 BEND     16  6 17                  1.8760247     107.4882949
  53 BEND     16  6 18                  1.8745456     107.4035538
  54 BEND     17  6 18                  1.8736174     107.3503679
  55 BEND     19  7 20                  1.8754426     107.4549455
  56 BEND     19  7 21                  1.8760173     107.4878718
  57 BEND     20  7 21                  1.8700292     107.1447805
  58 TORSION   1  2  3  5               2.7931350     160.0348492
  59 TORSION   1  2  3 10              -1.3863128     -79.4298724
  60 TORSION   1  4  6 18              -1.0261308     -58.7929630
  61 TORSION   1  2  3 11               0.6641677      38.0540042
  62 TORSION   1  4  6 17               1.0692973      61.2662241
  63 TORSION   1  4  6 16              -3.1200561    -178.7660481
  64 TORSION   2  1  4  6              -1.2033137     -68.9447956
  65 TORSION   2  3  5  7              -1.3645586     -78.1834489
  66 TORSION   2  3  5 14               0.7829564      44.8600945
  67 TORSION   2  3  5 15               2.7956409     160.1784237
  68 TORSION   2  1  4 12               0.9312412      53.3561915
  69 TORSION   2  1  4 13               2.9433974     168.6442493
  70 TORSION   3  2  1  4              -1.1264657     -64.5417309
  71 TORSION   3  5  7 19               3.1101195     178.1967221
  72 TORSION   3  5  7 20              -1.0780344     -61.7668232
  73 TORSION   3  5  7 21               1.0149253      58.1509387
  74 TORSION   3  2  1  9               3.0483521     174.6577120
  75 TORSION   3  2  1  8               1.0521221      60.2821564
  76 TORSION   6  4  1  8               2.9076755     166.5975353
  77 TORSION   6  4  1  9               0.7977460      45.7074805
  78 TORSION   7  5  3 10               2.8493468     163.2555433
  79 TORSION   7  5  3 11               0.7575391      43.4037907
  80 TORSION   8  1  4 12              -1.2409549     -71.1014775
  81 TORSION   8  1  4 13               0.7712013      44.1865803
  82 TORSION   9  1  4 13              -1.3387282     -76.7034745
  83 TORSION   9  1  4 12               2.9323009     168.0084677
  84 TORSION  10  3  5 15               0.7263609      41.6174160
  85 TORSION  10  3  5 14              -1.2863236     -73.7009133
  86 TORSION  11  3  5 15              -1.3654468     -78.2343367
  87 TORSION  11  3  5 14               2.9050540     166.4473340
  88 TORSION  12  4  6 16               1.0406362      59.6240624
  89 TORSION  12  4  6 18               3.1345616     179.5971476
  90 TORSION  12  4  6 17              -1.0531956     -60.3436654
  91 TORSION  13  4  6 16              -0.9961882     -57.0773805
  92 TORSION  13  4  6 18               1.0977371      62.8957046
  93 TORSION  13  4  6 17              -3.0900201    -177.0451084
  94 TORSION  14  5  7 21              -1.1357877     -65.0758402
  95 TORSION  14  5  7 19               0.9594065      54.9699432
  96 TORSION  14  5  7 20               3.0544379     175.0063978
  97 TORSION  15  5  7 21               3.1247490     179.0349302
  98 TORSION  15  5  7 19              -1.0632421     -60.9192864
  99 TORSION  15  5  7 20               1.0317892      59.1171683

     ------------------------------------------
     THE POINT GROUP IS C1 , NAXIS= 1, ORDER= 1
     ------------------------------------------

     DIMENSIONS OF THE SYMMETRY SUBSPACES ARE
 A   =  217

 ..... DONE SETTING UP THE RUN .....
 STEP CPU TIME =     0.02 TOTAL CPU TIME =        0.0 (    0.0 MIN)
 TOTAL WALL CLOCK TIME=        0.0 SECONDS, CPU UTILIZATION IS 100.00%


          -----------------------------
          STATIONARY POINT LOCATION RUN
          -----------------------------

 OBTAINING INITIAL HESSIAN, HESS=GUESS   
 DIAGONAL GUESS HESSIAN IN INTERNAL COORDS IS
     1  0.3372     2  0.3350     3  0.3683     4  0.3729     5  0.3647
     6  0.3309     7  0.3355     8  0.3703     9  0.3353    10  0.3308
    11  0.3814    12  0.3346    13  0.3343    14  0.3800    15  0.3413
    16  0.3409    17  0.3402    18  0.3405    19  0.3407    20  0.3414
    21  0.2392    22  0.2232    23  0.2228    24  0.2500    25  0.2196
    26  0.2184    27  0.2188    28  0.2194    29  0.2443    30  0.2437
    31  0.2233    32  0.2500    33  0.2233    34  0.2247    35  0.2248
    36  0.2248    37  0.2234    38  0.2232    39  0.2229    40  0.2246
    41  0.2246    42  0.2234    43  0.2247    44  0.2238    45  0.2243
    46  0.2240    47  0.2241    48  0.2019    49  0.2014    50  0.2014
    51  0.2016    52  0.2026    53  0.2026    54  0.2025    55  0.2026
    56  0.2026    57  0.2025    58  0.2500    59  0.2500    60  0.2500
    61  0.2500    62  0.2500    63  0.2500    64  0.2500    65  0.2500
    66  0.2500    67  0.2500    68  0.2500    69  0.2500    70  0.2500
    71  0.2500    72  0.2500    73  0.2500    74  0.2500    75  0.2500
    76  0.2500    77  0.2500    78  0.2500    79  0.2500    80  0.2500
    81  0.2500    82  0.2500    83  0.2500    84  0.2500    85  0.2500
    86  0.2500    87  0.2500    88  0.2500    89  0.2500    90  0.2500
    91  0.2500    92  0.2500    93  0.2500    94  0.2500    95  0.2500
    96  0.2500    97  0.2500    98  0.2500    99  0.2500
 TRANSFORMING HESSIAN TO SYMMETRY COORDINATES

          PARAMETERS CONTROLLING GEOMETRY SEARCH ARE
          METHOD =QA                  UPHESS =BFGS    
          NNEG   =         0          NFRZ   =         3
          NSTEP  =        50          IFOLOW =         1
          HESS   =GUESS               RESTAR =         F
          IHREP  =         0          HSSEND =         F
          NPRT   =         0          NPUN   =         0
          OPTTOL = 5.000E-04          RMIN   = 1.500E-03
          RMAX   = 1.000E-01          RLIM   = 7.000E-02
          DXMAX  = 3.000E-01          PURIFY =         F
          MOVIE  =         F          TRUPD  =         T
          TRMAX  = 5.000E-01          TRMIN  = 5.000E-02
          ITBMAT =         5          STPT   =         F
          STSTEP = 1.000E-02          PROJCT=          F
          FROZEN COORD(S)=   1   2   3


      ***** EQUILIBRIUM GEOMETRY LOCATED *****
            (SUBJECT TO   3 CONSTRAINT(S))
 COORDINATES OF ALL ATOMS ARE (ANGS)
   ATOM   CHARGE       X              Y              Z
 ------------------------------------------------------------
 C           6.0   1.7102040057   2.4793403210   4.4581432343
 O           8.0   1.5965312355   1.5149842805   3.4393010750
 C           6.0   0.9933710019   1.9731605652   2.2550926203
 C           6.0   2.8994907224   3.4142886523   4.2613609489
 C           6.0   1.3006743031   1.0174974343   1.1161299631
 C           6.0   4.2446050752   2.6897327334   4.2579599084
 C           6.0   2.7929147253   0.9114203502   0.8035803571
 H           1.0   0.7869935806   3.0513220668   4.5338767074
 H           1.0   1.8289832086   1.9268832636   5.3844454360
 H           1.0  -0.0830065828   2.0518220653   2.4038288811
 H           1.0   1.3605788596   2.9642835938   2.0024901135
 H           1.0   2.7818530206   3.9653697381   3.3323477393
 H           1.0   2.8769476688   4.1528772664   5.0595833301
 H           1.0   0.9045993544   0.0340758028   1.3593576139
 H           1.0   0.7617935645   1.3677080883   0.2387731859
 H           1.0   5.0589328006   3.3866790121   4.0822628826
 H           1.0   4.2772844070   1.9362549820   3.4788458332
 H           1.0   4.4252724628   2.1949996220   5.2091531216
 H           1.0   2.9665330276   0.2580625763  -0.0462484295
 H           1.0   3.2124795236   1.8866709928   0.5677267203
 H           1.0   3.3375123293   0.5107050095   1.6512201286


                     --------------------
                     INTERNAL COORDINATES
                     --------------------

                 - - ATOMS - -         COORDINATE      COORDINATE
 NO.   TYPE    I  J  K  L  M  N        (BOHR,RAD)       (ANG,DEG)
 ----------------------------------------------------------------
   1 STRETCH   1  9                     2.0504642       1.0850590
   2 STRETCH   1  8                     2.0573000       1.0886763
   3 STRETCH   1  4                     2.8828416       1.5255342
   4 STRETCH   1  2                     2.6597136       1.4074599
   5 STRETCH   2  3                     2.6564449       1.4057302
   6 STRETCH   3 11                     2.0536153       1.0867265
   7 STRETCH   3 10                     2.0587598       1.0894489
   8 STRETCH   3  5                     2.8690019       1.5182105
   9 STRETCH   4 13                     2.0555323       1.0877409
  10 STRETCH   4 12                     2.0532849       1.0865517
  11 STRETCH   4  6                     2.8872178       1.5278499
  12 STRETCH   5 15                     2.0551974       1.0875637
  13 STRETCH   5 14                     2.0555087       1.0877284
  14 STRETCH   5  7                     2.8880807       1.5283066
  15 STRETCH   6 16                     2.0525358       1.0861552
  16 STRETCH   6 18                     2.0546546       1.0872765
  17 STRETCH   6 17                     2.0491248       1.0843502
  18 STRETCH   7 21                     2.0489829       1.0842751
  19 STRETCH   7 20                     2.0551805       1.0875548
  20 STRETCH   7 19                     2.0520968       1.0859230
  21 BEND      1  2  3                  2.0055038     114.9069030
  22 BEND      1  4 13                  1.8810786     107.7778627
  23 BEND      1  4 12                  1.9142297     109.6772809
  24 BEND      1  4  6                  1.9779444     113.3278680
  25 BEND      2  1  9                  1.8524649     106.1384207
  26 BEND      2  3 11                  1.9263294     110.3705440
  27 BEND      2  3 10                  1.9096942     109.4174156
  28 BEND      2  1  8                  1.9196844     109.9898132
  29 BEND      2  1  4                  1.9708931     112.9238568
  30 BEND      2  3  5                  1.9176772     109.8748125
  31 BEND      3  5 14                  1.9046089     109.1260541
  32 BEND      3  5  7                  1.9765882     113.2501611
  33 BEND      3  5 15                  1.8778060     107.5903567
  34 BEND      4  6 17                  1.9365572     110.9565558
  35 BEND      4  6 18                  1.9392028     111.1081356
  36 BEND      4  6 16                  1.9349152     110.8624754
  37 BEND      4  1  9                  1.9143337     109.6832421
  38 BEND      4  1  8                  1.9263158     110.3697677
  39 BEND      5  3 11                  1.9084938     109.3486415
  40 BEND      5  7 21                  1.9349860     110.8665288
  41 BEND      5  7 20                  1.9377707     111.0260802
  42 BEND      5  3 10                  1.9260765     110.3560523
  43 BEND      5  7 19                  1.9368279     110.9720615
  44 BEND      6  4 12                  1.9112741     109.5079409
  45 BEND      6  4 13                  1.9197223     109.9919863
  46 BEND      7  5 14                  1.9161345     109.7864192
  47 BEND      7  5 15                  1.9189591     109.9482555
  48 BEND      8  1  9                  1.8764813     107.5144592
  49 BEND     10  3 11                  1.8752077     107.4414891
  50 BEND     12  4 13                  1.8554338     106.3085237
  51 BEND     14  5 15                  1.8661739     106.9238871
  52 BEND     16  6 17                  1.8828869     107.8814731
  53 BEND     16  6 18                  1.8848379     107.9932573
  54 BEND     17  6 18                  1.8832492     107.9022283
  55 BEND     19  7 20                  1.8840289     107.9469036
  56 BEND     19  7 21                  1.8850783     108.0070278
  57 BEND     20  7 21                  1.8830189     107.8890365
  58 TORSION   1  2  3  5               2.8414289     162.8018860
  59 TORSION   1  2  3 10              -1.3245558     -75.8914574
  60 TORSION   1  4  6 18              -1.0786450     -61.8018084
  61 TORSION   1  2  3 11               0.7354131      42.1360693
  62 TORSION   1  4  6 17               1.0165470      58.2438514
  63 TORSION   1  4  6 16               3.1084398     178.1004826
  64 TORSION   2  1  4  6              -1.0651091     -61.0262571
  65 TORSION   2  3  5  7              -1.0849382     -62.1623825
  66 TORSION   2  3  5 14               1.0550546      60.4501760
  67 TORSION   2  3  5 15               3.0738536     176.1188384
  68 TORSION   2  1  4 12               1.0766406      61.6869627
  69 TORSION   2  1  4 13               3.0895403     177.0176217
  70 TORSION   3  2  1  4              -1.4048871     -80.4941041
  71 TORSION   3  5  7 19              -3.0927033    -177.1988480
  72 TORSION   3  5  7 20              -0.9973004     -57.1411033
  73 TORSION   3  5  7 21               1.0956063      62.7736197
  74 TORSION   3  2  1  9               2.7803459     159.3020860
  75 TORSION   3  2  1  8               0.7554670      43.2850714
  76 TORSION   6  4  1  8               3.0613801     175.4041581
  77 TORSION   6  4  1  9               0.9970242      57.1252763
  78 TORSION   7  5  3 10               3.0908997     177.0955073
  79 TORSION   7  5  3 11               1.0318106      59.1183936
  80 TORSION   8  1  4 12              -1.0800555     -61.8826221
  81 TORSION   8  1  4 13               0.9328442      53.4480369
  82 TORSION   9  1  4 13              -1.1315117     -64.8308449
  83 TORSION   9  1  4 12               3.1387739     179.8384961
  84 TORSION  10  3  5 15               0.9665062      55.3767282
  85 TORSION  10  3  5 14              -1.0522928     -60.2919341
  86 TORSION  11  3  5 15              -1.0925828     -62.6003855
  87 TORSION  11  3  5 14              -3.1113818    -178.2690479
  88 TORSION  12  4  6 16               0.9650552      55.2935915
  89 TORSION  12  4  6 18               3.0611557     175.3913005
  90 TORSION  12  4  6 17              -1.1268376     -64.5630398
  91 TORSION  13  4  6 16              -1.0679244     -61.1875623
  92 TORSION  13  4  6 18               1.0281760      58.9101466
  93 TORSION  13  4  6 17               3.1233680     178.9558064
  94 TORSION  14  5  7 21              -1.0379780     -59.4717560
  95 TORSION  14  5  7 19               1.0568977      60.5557763
  96 TORSION  14  5  7 20              -3.1308847    -179.3864790
  97 TORSION  15  5  7 21              -3.0864138    -176.8384836
  98 TORSION  15  5  7 19              -0.9915382     -56.8109513
  99 TORSION  15  5  7 20               1.1038648      63.2467934

          INTERNUCLEAR DISTANCES (ANGS.)


 =====================================================
   GAMESS/COSab RESULTS
 =====================================================

   Dielectric Constant                  = INFTY
   Basic Grid Size                      =                 1082
   Number of Segments                   =                   92
   Number of Segments located on spheres=                  261
   Number of Segments of the cavity     =                  709
   Solvent Radius (rsolv)               = 1.40
   Outlying Charge Error Method         = double cavity

 =====================================================

  Total solvated Energy (a.u.)          =  -310.2968995214
  Total Energy corrected (a.u.)         =  -310.2967169955

  Outlying charge effect (a.u.)         =     0.0001825260
  Outlying charge effect (kcal/mol)     =     0.1145368756

  Dielectric Energy (a.u.)              =    -0.0059302231
  Dielectric energy corr. (a.u.)        =    -0.0057476971

  Sum of polarization charges           =     0.0277145084
  Sum of polarization charges(cor.)     =    -0.0277145084

  Total surface area of cavity (A**2)   =  158.72
  Total volume of cavity (A**3)         =  157.40

 =====================================================
 NPS=                   709
NR.  ATOM  (X, Y, Z)(a.u.)                  CHARGE(e)  AREA(A**2) SIGMA(e/A**2)
   1   1   0.212017   2.774724   9.655451   0.000251   0.232280   0.001080
   2   1   1.750470   5.331399  11.841144   0.000569   0.418105   0.001362
   3   1   1.029243   5.708492  11.320503   0.000386   0.278737   0.001385
   4   1  -0.259114   3.739493   9.521530   0.000474   0.371649   0.001275
   5   1  -0.170526   3.087004   8.816868   0.000239   0.232280   0.001030
   6   1   0.412771   3.434820  10.609513   0.000894   0.371649   0.002406
   7   1   0.932886   4.415015  11.412320   0.000917   0.325193   0.002821
   8   1   2.149182   6.578053  11.511650  -0.000246   0.464561  -0.000529
   9   1   0.636013   2.185301   9.563164   0.000532   0.185824   0.002861
  10   1   0.828274   2.529554  10.389375   0.000202   0.232280   0.000869
  11   1   3.011371   5.820819  12.022740  -0.000407   0.325193  -0.001252
  12   1   4.825158   1.446216   9.544520   0.000021   0.046456   0.000452
  13   1   1.901763   7.342530  10.760073  -0.000352   0.185824  -0.001894
  14   1   0.299843   4.276333  10.774239   0.000697   0.278737   0.002501
  15   1   1.315703   1.741857   9.820752   0.000102   0.232280   0.000441
  16   2   1.726162   0.039729   7.462704   0.005400   0.274871   0.019645
  17   2   4.732883   0.190315   7.190508   0.003722   0.171795   0.021665
  18   2   1.859347  -0.161761   6.774845   0.002977   0.137436   0.021661
  19   2   2.805343  -0.298839   7.222704   0.005974   0.309230   0.019317
  20   2   3.964800  -0.190450   7.085342   0.004830   0.240512   0.020084
  21   2   0.910460   0.463468   7.107476   0.004696   0.240512   0.019524
  22   2   2.550832   0.159002   8.241822   0.006435   0.343589   0.018728
  23   2   4.287696   0.449369   8.267065   0.002349   0.137436   0.017095
  24   2   4.568859   0.306858   7.773328   0.003182   0.171795   0.018520
  25   2   0.729913   1.207442   8.109706   0.000943   0.103077   0.009146
  26   2   1.013701   0.714155   7.890127   0.003845   0.206154   0.018653
  27   2   3.442240  -0.357817   6.603376   0.004014   0.171795   0.023366
  28   2   3.522944   0.089528   8.117077   0.005371   0.309230   0.017369
  29   2   0.304501   1.454379   7.605236   0.002951   0.206154   0.014313
  30   2   1.682903   0.547643   8.349846   0.003881   0.206154   0.018825
  31   3   0.041865   6.707769   2.832832   0.000522   0.418105   0.001248
  32   3  -0.702899   6.322386   3.312667   0.000483   0.278737   0.001731
  33   3  -0.647496   2.112671   6.563375   0.000171   0.092912   0.001843
  34   3  -0.899459   1.274477   5.003893   0.000092   0.185824   0.000498
  35   3  -0.353551   1.001793   5.629680   0.000340   0.185824   0.001830
  36   3   0.177502   7.023996   4.993971   0.000377   0.185824   0.002031
  37   3   0.019462   7.018026   4.144941   0.001171   0.371649   0.003152
  38   3  -0.461554   5.761231   2.097386  -0.000315   0.418105  -0.000753
  39   3   0.661807   6.239134   1.711033  -0.000426   0.325193  -0.001309
  40   3  -1.054878   4.821967   2.142067  -0.000294   0.185824  -0.001583
  41   3  -0.457453   6.625738   4.925588   0.000341   0.139368   0.002447
  42   3  -0.650818   1.568785   6.058197   0.000358   0.139368   0.002569
  43   4   2.938227   9.236970   7.784712   0.000708   0.325193   0.002179
  44   4   6.278510  10.145098   7.969363   0.001316   0.325193   0.004048
  45   4   5.755208   6.102590  11.805941   0.000044   0.092912   0.000477
  46   4   5.236703   6.455169  11.824476  -0.000027   0.046456  -0.000571
  47   4   5.855447  10.094415   7.116838   0.001176   0.278737   0.004220
  48   4   3.248755   9.321484   7.015658   0.000664   0.278737   0.002381
  49   4   3.775894   9.822211   8.211086   0.000832   0.232280   0.003580
  50   4   5.044364  10.203092   7.894723   0.001530   0.325193   0.004706
  51   4   7.225020   9.713459   7.278326   0.001339   0.464561   0.002882
  52   4   3.089217   9.239482   8.948595   0.000489   0.278737   0.001753
  53   4   7.367406   9.691662   8.526219   0.000797   0.325193   0.002452
  54   4   6.037233   6.381160  11.790175   0.000061   0.046456   0.001312
  55   4   7.378893   9.215422   6.309414   0.000318   0.185824   0.001712
  56   4   4.195869   9.954633   7.445121   0.001205   0.278737   0.004322
  57   5  -1.258375   1.296349   1.824596   0.000582   0.232280   0.002508
  58   5   0.653757  -0.063727  -0.552203   0.001331   0.325193   0.004094
  59   5   2.679836   5.114039   0.096470   0.000037   0.092912   0.000396
  60   5   0.416230  -0.613074   0.189518   0.001178   0.278737   0.004228
  61   5  -1.048848   0.562365   2.478061   0.000683   0.325193   0.002101
  62   5   3.461151  -1.009327   4.272606   0.000049   0.046456   0.001057
  63   5  -1.051472   1.006174   1.046996   0.001111   0.278737   0.003986
  64   5  -0.311631   0.249415   0.156328   0.001588   0.325193   0.004882
  65   5   1.553899  -0.725346  -0.431355   0.001096   0.371649   0.002950
  66   5   2.317742  -0.952308  -0.339972   0.000273   0.139368   0.001956
  67   5  -1.218602   2.194811   1.276430   0.000502   0.278737   0.001802
  68   5   1.740207   0.249209  -1.202652   0.000787   0.325193   0.002420
  69   5   2.711697   4.884210  -0.225323   0.000052   0.046456   0.001121
  70   5   2.186806  -1.386121   0.303139   0.000322   0.185824   0.001735
  71   5  -0.764220   0.262549   1.038830   0.001184   0.278737   0.004249
  72   6  10.571910   5.719446  10.761629   0.001131   0.232280   0.004871
  73   6  11.379564   3.445332   7.477324   0.000976   0.371649   0.002626
  74   6   9.833468   5.219038   4.732576   0.001062   0.232280   0.004572
  75   6   7.354775   1.540580   9.183227   0.000919   0.232280   0.003955
  76   6   8.745382   7.941075   5.681974   0.000114   0.092912   0.001229
  77   6  10.271161   5.702493   5.073531   0.001039   0.232280   0.004475
  78   6  11.695318   4.528746   7.355208   0.001310   0.418105   0.003134
  79   6  10.766821   6.390808  10.290209   0.001776   0.371649   0.004778
  80   6   9.201059   8.217172   9.797985   0.000562   0.232280   0.002419
  81   6   8.903875   1.483617   8.788323   0.001691   0.325193   0.005199
  82   6   8.550632   1.341298   8.114319   0.001044   0.232280   0.004494
  83   6   9.134032   7.386623  10.828171   0.001036   0.325193   0.003186
  84   6   9.762393   6.521998  11.076420   0.001430   0.325193   0.004396
  85   6  11.266265   4.980369   9.981046   0.002501   0.511017   0.004895
  86   6  11.596616   4.030674   8.673425   0.001274   0.418105   0.003048
  87   6  11.073472   3.717243   6.284927   0.001694   0.418105   0.004051
  88   6  10.526463   4.593847   5.259160   0.001702   0.325193   0.005235
  89   6   9.298341   6.430743   4.754521   0.001180   0.325193   0.003629
  90   6   8.640827   7.076106   4.895617   0.000177   0.092912   0.001907
  91   6   7.769366   6.113254  11.673923   0.000166   0.092912   0.001792
  92   6  10.200712   2.128188   8.942848   0.001360   0.371649   0.003660
  93   6  11.006850   2.792846   8.400886   0.001292   0.464561   0.002781
  94   6  10.744603   2.633448   7.115005   0.001000   0.325193   0.003074
  95   6   7.736969   1.337937   8.469504   0.001150   0.232280   0.004949
  96   6   9.108059   7.216613   5.122332   0.000342   0.139368   0.002454
  97   6  11.178491   4.671320   6.010173   0.001441   0.325193   0.004430
  98   6  11.679604   4.939754   8.984181   0.001019   0.278737   0.003655
  99   6   9.932519   7.392579  10.347699   0.000845   0.232280   0.003639
 100   6   9.990727   1.860707   7.895536   0.001689   0.418105   0.004040
 101   6   8.647747   6.502428  11.492593   0.000991   0.325193   0.003047
 102   6  11.105370   3.479762   9.530255   0.001109   0.371649   0.002984
 103   7   5.083193  -2.034858   1.879014   0.000862   0.278737   0.003092
 104   7   4.485095   3.043684  -1.932516   0.000698   0.232280   0.003006
 105   7   7.947531   2.648927  -0.991127   0.001850   0.418105   0.004425
 106   7   8.474380  -0.291425   1.624560   0.001505   0.371649   0.004049
 107   7   8.008452  -0.778205   0.759992   0.001589   0.371649   0.004275
 108   7   7.593900   1.884061  -1.463736   0.001143   0.278737   0.004102
 109   7   5.078368   2.410377  -2.192393   0.001198   0.325193   0.003685
 110   7   5.449398  -2.024239   1.051550   0.000597   0.185824   0.003211
 111   7   4.047648   1.842853  -2.053058   0.000584   0.232280   0.002515
 112   7   5.621417   3.398572  -1.851384   0.001410   0.325193   0.004336
 113   7   6.883011   2.952260  -1.674412   0.001758   0.325193   0.005406
 114   7   8.519127   1.568282  -0.419142   0.001480   0.464561   0.003185
 115   7   8.768157   0.512679   0.719326   0.001402   0.464561   0.003018
 116   7   7.498334  -1.330438   1.703820   0.001979   0.371649   0.005326
 117   7   5.920213  -1.966506   2.032497   0.000904   0.232280   0.003893
 118   7   5.227335  -1.753879   3.001011   0.001191   0.371649   0.003204
 119   7   4.648116   3.881954  -1.518511   0.000835   0.278737   0.002995
 120   7   8.683637   2.705472   0.207715   0.001241   0.418105   0.002967
 121   7   8.884203   2.851782   1.571275   0.001353   0.371649   0.003642
 122   7   9.007237   1.820810   2.123696   0.000851   0.278737   0.003055
 123   7   8.914841   0.786696   1.944137   0.000963   0.325193   0.002963
 124   7   8.411253   0.490841  -0.198859   0.000781   0.278737   0.002803
 125   7   6.156893   2.563208  -2.059787   0.001320   0.278737   0.004736
 126   7   4.546313  -1.944265   0.966064   0.000622   0.232280   0.002677
 127   7   6.614148  -1.800821   1.225295   0.001497   0.325193   0.004604
 128   7   4.790835  -1.246691   3.805905   0.000115   0.092912   0.001234
 129   7   4.372941   4.441030  -0.946015   0.000304   0.139368   0.002182
 130   7   9.007296   1.742852   0.906137   0.001007   0.418105   0.002408
 131   7   6.509710  -1.744528   2.383239   0.001004   0.232280   0.004321
 132   8  -0.561615   7.070159   8.938027  -0.001842   0.333671  -0.005519
 133   8   0.579337   7.865808   7.672040  -0.001220   0.314043  -0.003884
 134   8   0.839012   7.925411   9.543804  -0.001526   0.333671  -0.004572
 135   8  -0.103555   6.193213  10.390497  -0.001017   0.333671  -0.003049
 136   8  -0.829831   5.150374   9.103807  -0.001222   0.333671  -0.003664
 137   8  -0.331234   7.271937   7.888779  -0.002057   0.353299  -0.005823
 138   8   0.447207   7.990314   8.649456  -0.001613   0.353299  -0.004565
 139   8  -0.093101   7.264252   9.705112  -0.001662   0.314043  -0.005293
 140   8  -0.649036   5.864239   9.776930  -0.001473   0.392554  -0.003752
 141   8  -0.918878   6.260476   8.528090  -0.002184   0.353299  -0.006181
 142   8   0.594464   7.177594  10.369458  -0.000855   0.294415  -0.002904
 143   9   3.260215   2.405159  12.289041  -0.003109   0.510320  -0.006093
 144   9   4.425590   1.461968  10.763411  -0.001639   0.333671  -0.004913
 145   9   2.659102   1.486464  11.044800  -0.001573   0.392554  -0.004008
 146   9   2.076921   3.248963  12.169758  -0.001298   0.372926  -0.003481
 147   9   3.867183   4.330891  12.496916  -0.001920   0.431809  -0.004446
 148   9   4.470344   2.124361  11.820024  -0.002719   0.431809  -0.006296
 149   9   3.568223   1.418890  11.216039  -0.001894   0.372926  -0.005078
 150   9   2.058399   2.245773  11.635800  -0.001535   0.412182  -0.003723
 151   9   2.808543   3.808019  12.538967  -0.001646   0.412182  -0.003994
 152   9   4.277360   3.305390  12.465997  -0.002847   0.451437  -0.006306
 153  10  -2.587893   4.040928   4.856220  -0.002172   0.412182  -0.005269
 154  10  -1.745439   2.881580   6.129978  -0.001236   0.412182  -0.002999
 155  10  -1.972745   2.234066   4.735297  -0.001147   0.392554  -0.002923
 156  10  -2.132445   3.869961   3.082408  -0.001349   0.333671  -0.004042
 157  10  -1.844897   5.634089   4.227026  -0.000978   0.372926  -0.002622
 158  10  -2.310377   2.935789   5.257291  -0.001443   0.333671  -0.004323
 159  10  -2.364645   3.072719   3.826146  -0.001859   0.471065  -0.003946
 160  10  -2.453690   4.556430   3.996203  -0.001646   0.333671  -0.004933
 161  10  -1.919255   5.424377   5.274568  -0.002133   0.510320  -0.004179
 162  10  -2.198922   4.151475   5.880445  -0.002298   0.431809  -0.005322
 163  10  -1.921354   4.990587   3.245497  -0.000790   0.314043  -0.002517
 164  11   2.586044   7.894684   2.902695  -0.002120   0.353299  -0.006001
 165  11   1.465933   7.752491   3.350966  -0.000695   0.255160  -0.002725
 166  11   1.998542   7.114759   1.935425  -0.000987   0.274788  -0.003591
 167  11   3.531476   7.387268   2.396912  -0.001705   0.274788  -0.006204
 168  11   1.716896   7.886917   4.072391  -0.000987   0.215905  -0.004573
 169  11   1.640064   7.548141   2.609637  -0.000789   0.235532  -0.003349
 170  11   2.820593   7.062777   1.825072  -0.001407   0.294415  -0.004779
 171  12   5.394084   8.890258   4.280976  -0.002263   0.372926  -0.006068
 172  12   6.686081   8.959189   4.939175  -0.000763   0.333671  -0.002286
 173  12   5.008068   9.873805   5.742998  -0.000638   0.353299  -0.001806
 174  12   3.828600   9.383915   5.648243  -0.001032   0.353299  -0.002921
 175  12   6.321659   8.355305   4.257939  -0.001885   0.333671  -0.005648
 176  12   5.987664   9.624114   5.316673  -0.001085   0.412182  -0.002632
 177  12   4.579324   9.388343   4.888185  -0.001521   0.333671  -0.004559
 178  13   5.388375   9.570662  11.311793  -0.003018   0.549575  -0.005492
 179  13   6.652828   8.527760  11.584499  -0.001149   0.333671  -0.003444
 180  13   5.068407   7.720861  11.986784  -0.000812   0.353299  -0.002297
 181  13   3.704404   9.101139  10.770992  -0.001276   0.372926  -0.003421
 182  13   4.877757  10.238862   9.635788  -0.000727   0.372926  -0.001949
 183  13   6.859677   9.803683   9.990896  -0.000819   0.353299  -0.002318
 184  13   5.886274   8.173362  11.954321  -0.001636   0.431809  -0.003789
 185  13   4.410620   8.705332  11.622040  -0.001792   0.471065  -0.003804
 186  13   4.233879   9.827498  10.379284  -0.001501   0.431809  -0.003476
 187  13   5.825856  10.217584  10.078661  -0.001662   0.471065  -0.003529
 188  13   6.772818   9.351220  10.971710  -0.001720   0.490692  -0.003506
 189  14   0.785196  -2.169804   3.003867  -0.002781   0.549575  -0.005060
 190  14   2.438144  -1.807061   3.983662  -0.001066   0.372926  -0.002858
 191  14   2.024037  -2.228804   1.745768  -0.001106   0.372926  -0.002966
 192  14   0.209235  -1.489872   1.398877  -0.000604   0.372926  -0.001620
 193  14  -0.532844  -0.784574   3.104096  -0.001022   0.412182  -0.002480
 194  14   1.301237  -1.750556   4.173330  -0.001933   0.451437  -0.004282
 195  14   2.222548  -2.311652   2.924162  -0.001560   0.490692  -0.003179
 196  14   1.064759  -2.095802   1.592563  -0.001321   0.431809  -0.003059
 197  14  -0.240031  -1.409739   2.320598  -0.001409   0.451437  -0.003122
 198  14   0.178342  -1.235782   3.983174  -0.001781   0.471065  -0.003780
 199  15   0.191099   3.307059  -1.537364  -0.003058   0.549575  -0.005565
 200  15   1.814226   3.582289  -1.762230  -0.001175   0.333671  -0.003523
 201  15   1.124405   4.790137  -0.583858  -0.001144   0.353299  -0.003239
 202  15  -0.770167   3.539243  -0.039494  -0.001288   0.353299  -0.003645
 203  15  -0.548357   1.776869  -0.744937  -0.000727   0.372926  -0.001951
 204  15   1.215751   1.619904  -1.796970  -0.000845   0.353299  -0.002392
 205  15   1.448319   4.297421  -1.309824  -0.001652   0.431809  -0.003826
 206  15   0.002344   4.265976  -0.617634  -0.001874   0.471065  -0.003979
 207  15  -0.796245   2.774105  -0.548928  -0.001475   0.412182  -0.003578
 208  15   0.159959   1.847980  -1.512213  -0.001698   0.471065  -0.003604
 209  15   1.397229   2.668052  -2.003641  -0.001763   0.490692  -0.003593
 210  16  11.414152   7.942585   7.248142  -0.003298   0.588831  -0.005601
 211  16  11.313577   7.302269   9.179207  -0.000638   0.372926  -0.001711
 212  16  10.082869   8.646683   8.559128  -0.000865   0.353299  -0.002447
 213  16   9.893425   8.350107   6.258121  -0.001018   0.353299  -0.002883
 214  16  11.115539   6.744549   5.844420  -0.000717   0.372926  -0.001922
 215  16  11.999406   6.138774   7.586885  -0.000888   0.412182  -0.002154
 216  16  10.951418   8.191159   8.657981  -0.001852   0.490692  -0.003775
 217  16  10.195175   8.742247   7.333506  -0.001841   0.490692  -0.003751
 218  16  10.660094   7.748001   5.980130  -0.001641   0.471065  -0.003484
 219  16  11.764947   6.644508   6.659123  -0.001683   0.471065  -0.003574
 220  16  11.871007   6.939711   8.349151  -0.001742   0.490692  -0.003551
 221  17   9.364555   1.567555   6.438610  -0.000511   0.176649  -0.002895
 222  17   9.921081   3.067610   5.055383  -0.000478   0.176649  -0.002705
 223  17   8.475583   1.252867   6.876542  -0.000365   0.137394  -0.002660
 224  17   9.858737   2.174691   5.750464  -0.000897   0.294415  -0.003048
 225  18   9.137742   2.998081  11.871667  -0.002396   0.471065  -0.005086
 226  18   8.029720   1.842816  10.625306  -0.000848   0.372926  -0.002273
 227  18   7.895938   4.629397  12.207254  -0.001266   0.372926  -0.003396
 228  18   9.958239   4.531516  11.671919  -0.000692   0.372926  -0.001856
 229  18  10.197570   2.752012  10.691892  -0.000873   0.412182  -0.002119
 230  18   8.057505   2.435210  11.578384  -0.002114   0.431809  -0.004895
 231  18   8.020442   3.509591  12.191325  -0.002133   0.412182  -0.005175
 232  18   8.982463   4.603558  12.176944  -0.001457   0.471065  -0.003092
 233  18  10.149196   3.572911  11.428900  -0.001385   0.431809  -0.003207
 234  18   9.247214   2.018791  10.691879  -0.001391   0.510320  -0.002726
 235  19   6.070864  -1.013535  -1.975618  -0.003452   0.608459  -0.005674
 236  19   4.467239  -1.127132  -1.547163  -0.001216   0.353299  -0.003441
 237  19   5.811822  -1.952106  -0.288036  -0.000641   0.333671  -0.001921
 238  19   7.477120  -0.946680  -0.777664  -0.000755   0.353299  -0.002137
 239  19   6.956380   0.693648  -2.129211  -0.000734   0.372926  -0.001967
 240  19   4.919776   0.680804  -2.438353  -0.000693   0.353299  -0.001961
 241  19   5.003045  -1.731252  -0.952299  -0.001678   0.490692  -0.003421
 242  19   6.670852  -1.624682  -0.750033  -0.001672   0.490692  -0.003407
 243  19   7.343374  -0.273812  -1.648359  -0.001794   0.510320  -0.003515
 244  19   6.014165   0.423061  -2.509029  -0.001763   0.490692  -0.003593
 245  19   4.708852  -0.357805  -2.212377  -0.001790   0.490692  -0.003649
 246  20   7.255089   5.486581   0.102823  -0.001895   0.392554  -0.004827
 247  20   5.313967   5.471219  -0.279883  -0.001023   0.333671  -0.003064
 248  20   7.015307   4.588372  -0.951030  -0.000732   0.372926  -0.001962
 249  20   8.373225   4.261085   0.573525  -0.000550   0.314043  -0.001751
 250  20   7.130961   5.781104   1.106324  -0.002161   0.333671  -0.006475
 251  20   6.088092   5.959104   0.521072  -0.002438   0.412182  -0.005915
 252  20   6.186816   5.231138  -0.728968  -0.001303   0.431809  -0.003019
 253  20   7.855104   4.509927  -0.326662  -0.001081   0.392554  -0.002754
 254  20   8.086215   4.969164   1.116746  -0.001810   0.392554  -0.004612
 255  21   7.540652  -0.577471   4.581050  -0.001844   0.314043  -0.005872
 256  21   8.641735   0.247749   3.383945  -0.000821   0.274788  -0.002986
 257  21   8.003246  -0.788880   3.405623  -0.000634   0.314043  -0.002019
 258  21   6.080555  -1.187457   4.282384  -0.000731   0.294415  -0.002482
 259  21   8.273964  -0.176195   4.049630  -0.000976   0.215905  -0.004521
 260  21   7.111408  -1.271192   3.742458  -0.000725   0.353299  -0.002051
 261  21   6.621482  -0.689989   4.908327  -0.001718   0.314043  -0.005470
 262   1  -0.025206   2.626648   7.966009   0.000529   0.056631   0.009349
 263   2  -0.010152   2.319241   7.610746   0.000916   0.056631   0.016166
 264   3  -0.261484   2.459815   7.240017   0.000548   0.056631   0.009678
 265   1   5.288871   1.496261   8.955871   0.000360   0.112725   0.003198
 266   2   5.188477   1.265645   8.555757   0.001308   0.112725   0.011600
 267   6   6.114135   1.641283   8.861977   0.000464   0.112725   0.004120
 268   1   4.268989   1.188848   9.429558   0.000044   0.015410   0.002842
 269   2   4.184762   0.973257   9.021723   0.000261   0.015410   0.016949
 270   9   4.223300   1.252891   9.721113  -0.000027   0.015410  -0.001743
 271   1   2.540731   1.170197   9.640039   0.000125   0.015410   0.008093
 272   2   2.529185   0.955389   9.223352   0.000319   0.015410   0.020721
 273   9   2.653681   1.235952   9.912274  -0.000005   0.015410  -0.000293
 274   2   4.574986   0.874974   8.585118   0.001488   0.105437   0.014113
 275   1   4.567009   1.194764   9.199332   0.000502   0.115373   0.004354
 276   2   2.058243   0.862065   8.878138   0.002350   0.159725   0.014713
 277   2   0.735396   1.625766   8.302870   0.005185   0.330195   0.015701
 278   1   1.516146   1.503981   9.247045   0.002628   0.343242   0.007656
 279   1   0.228181   2.370002   8.571036   0.001043   0.174758   0.005968
 280   1  -0.287648   2.940360   7.675426   0.000329   0.053034   0.006206
 281   3  -0.589786   2.737102   6.985581   0.000114   0.053034   0.002147
 282  10  -0.815700   2.873944   6.832881  -0.000050   0.053034  -0.000940
 283   3  -0.512956   2.539166   7.124684   0.000165   0.043777   0.003760
 284   1  -0.192439   2.806668   8.158370   0.000178   0.043777   0.004064
 285   1   4.506377   5.381763  11.922260  -0.000141   0.027449  -0.005153
 286   4   4.888332   5.682249  11.816336  -0.000105   0.027449  -0.003816
 287   9   4.462520   5.094939  12.007119  -0.000184   0.027449  -0.006707
 288   1   4.426026   6.180109  11.805528  -0.000094   0.029848  -0.003137
 289   4   4.815330   6.488936  11.782262  -0.000068   0.029848  -0.002278
 290  13   4.846095   6.790634  11.798361  -0.000097   0.029848  -0.003262
 291   4   4.916211   6.193695  11.833423  -0.000036   0.080912  -0.000441
 292   1   4.420744   5.680467  11.927915  -0.000163   0.080912  -0.002012
 293   1   5.313982   1.735965   9.670990  -0.000083   0.067071  -0.001241
 294   6   6.137089   1.885213   9.578175   0.000082   0.067071   0.001222
 295   9   5.217062   1.769983   9.957047  -0.000237   0.067071  -0.003532
 296   6   6.585216   1.655106   9.324883   0.000247   0.110203   0.002241
 297   1   5.387827   1.530576   9.344213   0.000184   0.110203   0.001671
 298   1  -0.563977   4.103011   8.146578  -0.000186   0.089134  -0.002086
 299   8  -0.651869   4.396996   8.162802  -0.000326   0.089134  -0.003660
 300  10  -0.942060   3.999712   7.230683  -0.000136   0.089134  -0.001530
 301   1   2.215886   7.930226  10.111077  -0.000119   0.029786  -0.003999
 302   8   1.941190   7.892675   9.987420  -0.000190   0.029786  -0.006384
 303  13   2.838244   8.322814  10.186107  -0.000101   0.029786  -0.003388
 304   8  -0.618669   4.560358   8.919926  -0.000276   0.075617  -0.003644
 305   8  -0.265649   4.988229   9.991698  -0.000551   0.171090  -0.003221
[...]
 450   4   5.879654   5.180057  11.667900  -0.000245   0.168026  -0.001456
 451   9   5.395221   4.615702  11.793902  -0.000586   0.168026  -0.003486
 452  18   6.492817   4.728846  11.718529  -0.000291   0.168026  -0.001730
 453   9   4.713213   4.713875  12.071193  -0.000581   0.126466  -0.004593
 454   4   5.298762   5.648856  11.862843  -0.000012   0.178328  -0.000067
 455   4   2.867216   8.410126   5.971720  -0.000296   0.079624  -0.003719
 456  11   2.466521   7.992543   5.155313  -0.000423   0.079624  -0.005307
 457  12   3.006591   8.477865   5.708291  -0.000340   0.079624  -0.004271
 458  11   1.912162   7.826943   4.966280  -0.000283   0.095965  -0.002954
 459   4   2.564170   8.426152   6.148731   0.000214   0.136327   0.001567
 460  12   3.332099   8.995309   6.049660  -0.000203   0.072674  -0.002790
 461  12   4.245862   9.664145   6.330704  -0.000290   0.163125  -0.001775
 462  12   5.638284   9.857576   6.269132  -0.000302   0.163125  -0.001850
 463  12   6.798275   9.245627   5.759246  -0.000442   0.163125  -0.002708
 464   4   3.521465   9.254323   6.571376  -0.000275   0.157668  -0.001742
 465   4   4.942279   9.912869   6.782112   0.000086   0.157668   0.000545
 466   4   6.464866   9.663212   6.441221  -0.000118   0.157668  -0.000749
 467   4   7.353968   8.915971   5.885382  -0.000019   0.088787  -0.000213
 468  13   5.303487   7.066423  11.887124  -0.000166   0.068299  -0.002437
 469  13   6.148103   7.171367  11.813861  -0.000134   0.068299  -0.001968
 470   4   5.768681   6.715459  11.767018  -0.000341   0.150213  -0.002270
 471  13   7.338217   9.386662   9.797636  -0.000127   0.067768  -0.001875
 472  13   6.573323   9.946945   9.257612  -0.000331   0.149720  -0.002210
 473  13   5.299642  10.184285   9.002046  -0.000238   0.149720  -0.001591
 474  13   4.070578   9.812949   9.310949  -0.000323   0.149720  -0.002155
 475  13   3.393484   9.175463   9.881704  -0.000179   0.067768  -0.002645
 476   4   7.275120   9.512266   9.221647  -0.000259   0.149273  -0.001735
 477   4   6.039765  10.097797   8.644981   0.000011   0.149273   0.000074
 478   4   4.558480  10.018489   8.676549   0.000031   0.149273   0.000205
 479   4   3.418290   9.305773   9.303841  -0.000234   0.149273  -0.001569
 480  16   9.081438   8.472390   6.416491  -0.000271   0.202600  -0.001336
 481  16   9.202924   8.765837   7.835974  -0.001192   0.414919  -0.002873
 482   4   8.068129   8.980714   6.924990   0.000600   0.554675   0.001081
 483   4   8.206330   9.161617   8.563348   0.000538   0.285332   0.001885
 484  18   7.317045   5.144821  11.893002  -0.000275   0.163366  -0.001685
 485   4   6.346427   5.728440  11.776947   0.000245   0.230154   0.001063
 486   5   3.630227  -1.141886   4.000242   0.000027   0.027551   0.000969
 487   7   4.111843  -1.143036   3.872344   0.000068   0.027551   0.002482
 488  14   3.377258  -1.294851   3.931132  -0.000006   0.027551  -0.000224
 489   5   2.946077  -1.632985   0.900543   0.000016   0.027551   0.000573
 490   7   3.436647  -1.627709   0.813212   0.000070   0.027551   0.002527
 491  14   2.754434  -1.741930   1.109281  -0.000017   0.027551  -0.000601
 492   5   2.629165   1.392702  -1.636710  -0.000006   0.027333  -0.000236
 493   7   3.123063   1.366219  -1.697296   0.000031   0.027333   0.001117
 494  15   2.404068   1.590262  -1.685837  -0.000042   0.027333  -0.001553
 495   5   3.042691   4.409704  -0.686421   0.000004   0.027333   0.000152
 496   7   3.531163   4.343632  -0.759475   0.000056   0.027333   0.002043
 497  15   2.780512   4.336722  -0.820762  -0.000033   0.027333  -0.001200
 498   5   3.291380  -1.384677   0.242275   0.000063   0.025857   0.002433
 499   7   3.769741  -1.458704   0.124134   0.000025   0.025857   0.000958
 500  19   3.956724  -1.454216  -0.113816  -0.000012   0.025857  -0.000477
 501   5   3.070622   0.964913  -1.609213   0.000029   0.025857   0.001117
 502   7   3.546000   0.922641  -1.752376   0.000012   0.025857   0.000460
 503  19   3.753093   0.713081  -1.821656  -0.000014   0.025857  -0.000535
 504   5   3.655791   4.860507  -0.139237   0.000004   0.025911   0.000149
 505   7   4.137583   4.861077  -0.266289  -0.000002   0.025911  -0.000075
 506  20   4.398116   5.003182  -0.203011  -0.000038   0.025911  -0.001483
 507   7   4.503807  -1.031774   4.072464   0.000132   0.057418   0.002301
 508   5   3.792437  -1.025471   4.166718   0.000141   0.057418   0.002450
 509   7   3.707810  -1.612079   0.469045   0.000176   0.076395   0.002306
 510   5   2.995333  -1.527852   0.531562   0.000148   0.076395   0.001936
 511   7   3.428554   1.103317  -1.785900   0.000074   0.038554   0.001920
 512   5   2.732471   1.198310  -1.648761   0.000062   0.038554   0.001602
 513   7   3.922223   4.594703  -0.613992   0.000160   0.107108   0.001496
 514   5   3.250723   4.725205  -0.371538   0.000109   0.107108   0.001020
 515   5  -1.041647   3.240090   1.446162  -0.000072   0.035151  -0.002063
 516  10  -1.270528   3.564577   2.083450  -0.000119   0.035151  -0.003375
 517  15  -0.957476   3.285771   1.158438  -0.000143   0.035151  -0.004080
 518  10  -1.682573   3.422778   2.627223  -0.000708   0.200190  -0.003538
 519  10  -1.663701   2.304048   3.546104  -0.001698   0.409999  -0.004142
 520   5  -1.307126   2.357226   2.128341  -0.000163   0.548180  -0.000298
 521   5  -1.168524   1.154106   3.243661   0.000301   0.282034   0.001068
 522   5   3.411386   5.375093   0.682992  -0.000249   0.167155  -0.001489
 523  11   3.386906   5.892287   1.226453  -0.000546   0.167155  -0.003264
 524  20   4.169330   5.435809   0.621655  -0.000290   0.167155  -0.001734
 525  11   2.719152   6.287078   1.381177  -0.000714   0.160664  -0.004442
 526   5   2.545008   5.503580   0.598576  -0.000055   0.226542  -0.000243
 527  14   2.999652  -1.377495   4.112522  -0.000051   0.033367  -0.001521
 528   5   3.301503  -1.090816   4.260157   0.000002   0.040765   0.000046
 529  14  -0.627546  -0.116683   3.303722  -0.000129   0.069391  -0.001855
 530  14  -0.625066  -0.385478   2.220963  -0.000249   0.154052  -0.001616
 531  14   0.023426  -0.908934   1.160518  -0.000185   0.154052  -0.001198
 532  14   1.193464  -1.470830   0.793942  -0.000262   0.154052  -0.001704
 533  14   2.217931  -1.814948   1.070845  -0.000099   0.069391  -0.001431
 534   5  -0.773859   0.192223   2.811432  -0.000209   0.152137  -0.001373
 535   5  -0.473462  -0.277221   1.402533   0.000111   0.152137   0.000729
 536   5   0.605481  -0.921166   0.555875   0.000057   0.152137   0.000376
 537   5   2.015199  -1.472369   0.622827  -0.000148   0.152137  -0.000971
 538  15   1.874278   1.500113  -1.710657  -0.000134   0.068068  -0.001971
 539  15   0.955043   1.041133  -1.329260  -0.000343   0.150533  -0.002279
 540  15  -0.156040   1.130992  -0.610950  -0.000234   0.150533  -0.001557
 541  15  -0.862615   1.954243   0.151650  -0.000326   0.150533  -0.002166
 542  15  -0.986513   2.937246   0.620131  -0.000175   0.068068  -0.002572
 543   5   1.774187   0.980848  -1.440001  -0.000267   0.149789  -0.001785
 544   5   0.481985   0.631705  -0.785680   0.000026   0.149789   0.000174
 545   5  -0.594341   1.172402   0.091241   0.000045   0.149789   0.000300
 546   5  -1.024241   2.386652   0.839978  -0.000235   0.149789  -0.001571
 547  15   1.731758   4.920114  -0.257974  -0.000146   0.066837  -0.002182
 548  15   2.295869   4.549565  -0.752368  -0.000138   0.066837  -0.002072
 549   5   2.313660   4.830470  -0.234717  -0.000366   0.147598  -0.002482
 550  19   3.944322  -1.311259  -0.551463  -0.000250   0.201459  -0.001241
 551  19   3.790603  -0.218345  -1.485821  -0.001162   0.412412  -0.002817
 552   5   2.824292  -0.775067  -0.530764   0.000531   0.551719   0.000963
 553   5   2.746580   0.546850  -1.505813   0.000525   0.283719   0.001850
 554  20   4.539476   5.229117  -0.046400  -0.000184   0.105787  -0.001735
 555   5   3.422826   5.145761   0.125559   0.000164   0.149105   0.001099
 556   6   9.340350   4.079508   4.447370  -0.000191   0.073950  -0.002581
 557   7   8.726456   3.451336   3.335870   0.000351   0.073950   0.004747
 558  17   9.249583   3.813598   4.335182  -0.000175   0.073950  -0.002371
 559   6   8.719289   4.365667   3.775811   0.000420   0.138999   0.003023
 560   7   8.420631   3.812994   2.508421   0.000332   0.138999   0.002386
 561  20   8.324382   4.075338   2.375462   0.000135   0.138999   0.000969
 562   7   8.788490   3.593699   2.543172   0.000609   0.188918   0.003226
 563   6   9.543370   4.407627   4.290916   0.000430   0.188918   0.002275
 564   6   6.724861   1.998049   9.938318   0.000014   0.087910   0.000163
 565   9   5.774199   2.033383  10.249287  -0.000077   0.087910  -0.000874
 566  18   6.874744   2.060773  10.198041  -0.000074   0.087910  -0.000844
 567   9   5.197354   1.701089  10.228780  -0.000082   0.069343  -0.001183
 568   6   6.601196   1.758047   9.770095   0.000257   0.098524   0.002611
 569   6   7.543473   6.461175   4.324858   0.000620   0.369638   0.001679
 570  12   6.902631   6.866479   4.203438  -0.000323   0.369638  -0.000875
 571  20   6.987842   5.839194   3.084016   0.000747   0.369638   0.002022
 572  12   7.214153   8.191114   5.045013  -0.000965   0.317985  -0.003035
 573   6   8.113694   7.470531   5.065214   0.000615   0.447217   0.001374
 574  13   6.804094   7.441371  11.597638  -0.000342   0.211076  -0.001619
 575  13   7.418449   8.503555  10.707069  -0.001474   0.433641  -0.003400
 576   6   7.952805   7.193037  11.178690   0.000708   0.576608   0.001228
 577   6   8.536649   8.357442  10.049490   0.000630   0.297310   0.002120
 578  16   9.605424   8.507830   8.974941  -0.000091   0.068997  -0.001317
 579  16  10.305473   7.822697   9.501810  -0.000216   0.153151  -0.001412
 580  16  11.172929   6.796360   9.451127  -0.000208   0.153151  -0.001360
 581  16  11.740299   5.919795   8.603694  -0.000210   0.153151  -0.001372
 582  16  11.773126   5.555227   7.309697  -0.000284   0.153151  -0.001852
 583  16  11.257846   5.853305   6.103856  -0.000148   0.153151  -0.000967
 584  16  10.407389   6.690856   5.484463  -0.000255   0.153151  -0.001662
 585  16   9.573190   7.721776   5.707471  -0.000348   0.153151  -0.002270
 586   6   9.548138   8.177565   9.469734  -0.000136   0.151284  -0.000901
 587   6  10.542607   7.122717   9.894637   0.000017   0.151284   0.000110
 588   6  11.393699   5.993978   9.361904   0.000129   0.151284   0.000851
 589   6  11.749717   5.257778   8.091677  -0.000060   0.151284  -0.000399
 590   6  11.463542   5.218339   6.608854   0.000025   0.151284   0.000167
 591   6  10.653430   5.891957   5.526185   0.000112   0.151284   0.000743
 592   6   9.654147   7.000274   5.291063  -0.000059   0.151284  -0.000392
 593   6   8.963694   7.916906   5.726965   0.000001   0.084295   0.000014
 594   6   7.494996   1.299189   7.052028  -0.000122   0.047051  -0.002593
 595  17   7.535449   1.220958   6.763818  -0.000122   0.047051  -0.002585
 596  21   7.136586   0.756784   5.913961  -0.000013   0.047051  -0.000267
 597  17   9.786647   3.845572   4.813056  -0.000095   0.067369  -0.001416
 598  17  10.182566   3.123562   5.527924  -0.000261   0.148972  -0.001750
 599  17   9.977126   2.182243   6.429671  -0.000282   0.148972  -0.001894
 600  17   9.032921   1.500081   7.049806  -0.000216   0.148972  -0.001449
 601  17   7.975475   1.287907   7.210660  -0.000034   0.067369  -0.000498
 602   6  10.188053   3.897690   5.243723  -0.000013   0.148236  -0.000089
 603   6  10.430489   2.851341   6.265828   0.000020   0.148236   0.000134
 604   6   9.749948   1.890309   7.166718   0.000036   0.148236   0.000245
 605   6   8.416954   1.396615   7.588279   0.000133   0.148236   0.000900
 606  18   7.594655   1.831398  10.133752  -0.000064   0.067606  -0.000948
 607  18   8.655196   1.759787   9.895076  -0.000107   0.149333  -0.000714
 608  18   9.869096   2.273324   9.931616  -0.000220   0.149333  -0.001471
 609  18  10.565068   3.315545  10.341502  -0.000261   0.149333  -0.001749
 610  18  10.468047   4.474538  10.962735  -0.000146   0.149333  -0.000976
 611  18   9.616378   5.292239  11.549790  -0.000190   0.149333  -0.001273
 612  18   8.346663   5.445472  11.870647  -0.000309   0.149333  -0.002071
 613   6   7.876186   1.701812   9.629104   0.000137   0.148942   0.000923
 614   6   9.335498   1.876642   9.442867   0.000168   0.148942   0.001125
 615   6  10.465726   2.797312   9.707053  -0.000021   0.148942  -0.000144
 616   6  10.820175   4.099951  10.317251   0.000047   0.148942   0.000313
 617   6  10.258757   5.269722  11.032295   0.000182   0.148942   0.001223
 618   6   9.003360   5.844304  11.569581   0.000002   0.148942   0.000013
 619   6   7.817905   5.776048  11.759235  -0.000009   0.082596  -0.000110
 620  20   7.533242   5.599201   2.124239  -0.000138   0.238188  -0.000579
 621  20   8.187519   4.825143   2.109690   0.000263   0.475717   0.000552
 622   6   8.603974   6.020492   4.058073   0.001701   0.727891   0.002337
 623   6   9.307985   5.063443   4.069437   0.000918   0.366149   0.002507
 624  21   6.880788   0.186503   5.638558  -0.000077   0.047026  -0.001634
 625   6   7.374018   1.069254   7.296463   0.000258   0.069968   0.003690
 626  14   2.777990  -1.936516   1.553450  -0.000308   0.212790  -0.001450
 627  14   3.139476  -1.778881   3.030471  -0.001273   0.437465  -0.002910
 628   7   3.995374  -1.816258   1.804055   0.000735   0.581025   0.001266
 629   7   4.332108  -1.481772   3.476151   0.000685   0.299735   0.002285
 630  15   2.628527   4.044181  -1.172748  -0.000375   0.211355  -0.001776
 631  15   2.457759   2.630937  -1.700382  -0.001520   0.434261  -0.003500
 632   7   3.685793   3.439721  -1.444837   0.000612   0.577329   0.001060
 633   7   3.438800   1.790159  -1.889272   0.000554   0.297704   0.001860
 634   7   8.769703   1.656291   3.269695   0.000002   0.088586   0.000022
 635  17   9.020563   2.133435   4.328953  -0.000128   0.088586  -0.001447
 636  21   8.747346   1.505795   3.533664  -0.000224   0.088586  -0.002529
 637  17   9.433011   2.914288   4.514567  -0.001069   0.461573  -0.002317
 638   7   8.950829   2.610784   2.835560   0.001932   0.671314   0.002879
 639  19   4.216488   0.762300  -2.094400  -0.000094   0.069091  -0.001357
 640  19   5.171354   1.294637  -2.308587  -0.000298   0.153425  -0.001940
 641  19   6.500547   1.403550  -2.120765  -0.000149   0.153425  -0.000970
 642  19   7.537178   0.837355  -1.473685  -0.000276   0.153425  -0.001801
 643  19   7.851321  -0.169128  -0.635712  -0.000303   0.153425  -0.001974
 644  19   7.312690  -1.198477   0.045618  -0.000187   0.153425  -0.001222
 645  19   6.144674  -1.823786   0.287736  -0.000223   0.153425  -0.001452
 646  19   4.831689  -1.785718  -0.009775  -0.000342   0.153425  -0.002226
 647   7   4.366354   1.341061  -2.081012  -0.000162   0.151424  -0.001072
 648   7   5.790049   1.844026  -2.176835   0.000078   0.151424   0.000512
 649   7   7.193653   1.572729  -1.681501   0.000068   0.151424   0.000450
 650   7   7.995045   0.639684  -0.800444  -0.000065   0.151424  -0.000430
 651   7   7.861861  -0.568141   0.100934  -0.000030   0.151424  -0.000195
 652   7   6.849335  -1.549823   0.648800   0.000092   0.151424   0.000608
 653   7   5.377398  -1.898223   0.615937  -0.000122   0.151424  -0.000807
 654   7   4.240336  -1.669540   0.207820   0.000015   0.084409   0.000179
 655  20   8.465206   3.944091   1.460256  -0.000099   0.071382  -0.001389
 656  20   8.349279   3.723507   0.341891  -0.000344   0.159463  -0.002155
 657  20   7.560867   3.788263  -0.792875  -0.000206   0.159463  -0.001290
 658  20   6.318173   4.219312  -1.221113  -0.000232   0.159463  -0.001453
 659  20   5.166550   4.827490  -0.754890  -0.000371   0.159463  -0.002326
 660   7   8.559663   3.447449   1.123785  -0.000079   0.155573  -0.000508
 661   7   8.097496   3.289613  -0.351053  -0.000021   0.155573  -0.000134
 662   7   6.888672   3.584694  -1.281283   0.000066   0.155573   0.000427
 663   7   5.463680   4.203196  -1.258676   0.000020   0.155573   0.000127
 664   7   4.535746   4.760487  -0.604948  -0.000022   0.087208  -0.000248
 665  21   5.442980  -1.036977   4.247582  -0.000104   0.071159  -0.001456
 666  21   6.275866  -1.394676   3.543361  -0.000277   0.159213  -0.001742
 667  21   7.473746  -1.118287   2.904391  -0.000169   0.159213  -0.001059
 668  21   8.419250  -0.114314   2.771525  -0.000272   0.159213  -0.001711
 669  21   8.760666   0.944860   3.052877  -0.000150   0.071159  -0.002103
 670   7   5.440619  -1.296626   3.699750  -0.000127   0.154824  -0.000823
 671   7   6.701866  -1.473515   2.805786   0.000015   0.154824   0.000096
 672   7   7.978107  -0.711146   2.346210   0.000107   0.154824   0.000688
 673   7   8.704742   0.653215   2.524334  -0.000093   0.154824  -0.000599
 674  10  -1.468812   4.131520   6.863685  -0.000182   0.231969  -0.000785
 675  10  -1.518936   5.103091   6.428261  -0.000603   0.463813  -0.001300
 676  10  -1.177114   5.956158   5.888360   0.000156   0.231969   0.000674
 677   8  -0.990011   5.104342   7.985602  -0.000872   0.463813  -0.001880
 678   8  -0.807957   6.243135   7.376882  -0.001060   0.463813  -0.002286
 679  11   1.463848   7.649817   5.177759   0.000093   0.031034   0.002989
 680   8   1.134211   7.708470   6.706109   0.000079   0.031034   0.002547
 681  13   2.991626   8.769065  10.158393   0.000186   0.109362   0.001704
 682   8   1.743041   8.077209   9.900873   0.000071   0.109362   0.000648
 683  18   6.801888   4.272379  12.037925  -0.000021   0.243389  -0.000084
 684  18   6.897372   3.219271  11.841396  -0.000592   0.486558  -0.001217
 685  18   6.941672   2.227101  10.979973  -0.000155   0.486558  -0.000319
 686   9   5.275306   3.704762  12.095133  -0.000960   0.486558  -0.001972
 687   9   5.367090   2.491074  11.598191  -0.000904   0.486558  -0.001858
 688   9   5.376880   1.837734  10.743891  -0.000102   0.243389  -0.000417
 689  15  -1.061484   3.413788   0.963148   0.000154   0.058648   0.002619
 690  10  -1.557395   3.856586   2.252818   0.000105   0.058648   0.001785
 691  11   4.665882   6.787718   2.804925  -0.001542   0.316904  -0.004866
 692  12   5.231614   7.143102   3.442440  -0.000965   0.316904  -0.003046
 693  20   5.411704   6.205565   2.256394  -0.000185   0.316904  -0.000584
 694  12   5.036438   8.082087   3.757687  -0.001045   0.250859  -0.004166
 695  12   4.058467   8.648812   4.376264  -0.002425   0.502422  -0.004826
 696  12   3.160327   8.698377   5.298832  -0.000470   0.250859  -0.001873
 697  11   3.816989   7.733360   3.180043  -0.002753   0.502422  -0.005480
 698  11   2.648102   8.117332   4.140233  -0.002419   0.502422  -0.004814
 699  20   4.719128   5.832293   0.609623  -0.000118   0.289241  -0.000408
 700  20   5.395225   6.152942   1.241455  -0.000378   0.289241  -0.001306
 701  11   3.939374   6.612479   1.807078  -0.001391   0.578567  -0.002405
 702  20   6.160884   6.298774   1.778885   0.000001   0.286599   0.000003
 703  20   6.860256   6.100076   2.037221  -0.000034   0.286599  -0.000119
 704  12   6.223814   7.507205   3.690236  -0.000240   0.571774  -0.000420
 705  21   8.862034   1.160628   3.860759  -0.000099   0.279883  -0.000354
 706  21   8.279228   0.437589   4.724402  -0.001697   0.559960  -0.003031
 707  21   7.289027   0.145865   5.461103  -0.000590   0.279883  -0.002109
 708  17   9.232625   1.716342   5.291411  -0.001596   0.559960  -0.002850
 709  17   8.252323   1.083939   6.288749  -0.000998   0.559960  -0.001781
 =====================================================

              4278217  WORDS OF DYNAMIC MEMORY USED
 EXECUTION OF GAMESS TERMINATED NORMALLY Wed Nov 23 23:42:53 2016
 DDI: 263640 bytes (0.3 MB / 0 MWords) used by master data server.

 ----------------------------------------
 CPU timing information for all processes
 ========================================
 0: 2338.212 + 0.824 = 2339.36
 ----------------------------------------
 ddikick.x: exited gracefully.
