----- GAMESS execution script -----

          ******************************************************
          *         GAMESS VERSION =  5 DEC 2014 (R1)          *
          *             FROM IOWA STATE UNIVERSITY             *
          * M.W.SCHMIDT, K.K.BALDRIDGE, J.A.BOATZ, S.T.ELBERT, *
          *   M.S.GORDON, J.H.JENSEN, S.KOSEKI, N.MATSUNAGA,   *
          *          K.A.NGUYEN, S.J.SU, T.L.WINDUS,           *
          *       TOGETHER WITH M.DUPUIS, J.A.MONTGOMERY       *
          *         J.COMPUT.CHEM.  14, 1347-1363(1993)        *
          **************** 64 BIT LINUX VERSION ****************

 EXECUTION OF GAMESS BEGUN Wed Nov 23 22:52:41 2016

            ECHO OF THE FIRST FEW INPUT CARDS -
 INPUT CARD>! SELECT RESTRICTED HARTREE-FOCK AS DEFAULT                                     
 INPUT CARD>$contrl scftyp=rhf $end                                                         
 INPUT CARD>                                                                                
 INPUT CARD>! THEORY: HF OR DFT                                                             
 INPUT CARD> $contrl mplevl=0 $end                                                          
 INPUT CARD>                                                                                
 INPUT CARD> $system timlim=10000 mwords=20 $end                                            
 INPUT CARD> $SCF DIRSCF=.TRUE. $end                                                        
 INPUT CARD>                                                                                
 INPUT CARD>                                                                                
 INPUT CARD>! BASIS SETS                                                                    
 INPUT CARD>! 6-311G(d,p)                                                                   
 INPUT CARD> $BASIS GBASIS=N311 NGAUSS=6 NDFUNC=1 NPFUNC=1 $END                             
 INPUT CARD>                                                                                
 INPUT CARD>! One of the following                                                          
 INPUT CARD> $guess guess=HUCKEL $end                                                       
 INPUT CARD>                                                                                
 INPUT CARD> $statpt projct=.FALSE. $end                                                    
 INPUT CARD> $STATPT IFREEZ(1)=1,2,3 $END                                                   
 INPUT CARD>                                                                                
 INPUT CARD>! Optimize the geometry with COSMO effects                                      
 INPUT CARD> $statpt opttol=0.0005 nstep=50 $end                                            
 INPUT CARD> $contrl nzvar=1 $end                                                           
 INPUT CARD> $zmat dlc=.t. auto=.t. $end                                                    
 INPUT CARD> $contrl runtyp=OPTIMIZE maxit=200 $end                                         
 INPUT CARD>                                                                                
 INPUT CARD>! Run COSMO on perfect conductor                                                
 INPUT CARD> $COSGMS PRFCND=.TRUE. $end                                                     
 INPUT CARD>                                                                                
 INPUT CARD>! Specifying RSOLV                                                              
 INPUT CARD> $COSGMS COSRAD = 1.4 $end                                                      
 INPUT CARD>                                                                                
 INPUT CARD>! available memory                                                              
 INPUT CARD> $SYSTEM MWORDS=40 $END                                                         
 INPUT CARD>                                                                                
 INPUT CARD> $DATA                                                                          
 INPUT CARD>12743                                                                           
 INPUT CARD>C1                                                                              
 INPUT CARD>O      8.0     -0.2481000000   -0.3509000000    0.0000000000                    
 INPUT CARD>C      6.0      1.6635000000   -1.8721000000   -0.0000000000                    
 INPUT CARD>C      6.0     -2.3195000000    0.9443000000    0.0000000000                    
 INPUT CARD>C      6.0      3.2093000000   -1.9480000000   -0.0000000000                    
 INPUT CARD>C      6.0     -2.9063000000    2.3764000000    0.0000000000                    
 INPUT CARD>C      6.0      1.1835000000   -0.4069000000    0.0000000000                    
 INPUT CARD>C      6.0     -0.7781000000    0.9802000000   -0.0000000000                    
 INPUT CARD>C      6.0      3.7795000000   -3.3850000000    0.0000000000                    
 INPUT CARD>C      6.0     -4.4513000000    2.4350000000    0.0000000000                    
 INPUT CARD>C      6.0      5.3220000000   -3.4021000000    0.0000000000                    
 INPUT CARD>C      6.0     -4.9815000000    3.8836000000   -0.0000000000                    
 INPUT CARD>H      1.0      1.2652000000   -2.3765000000    0.8836000000                    
   40000000 WORDS OF MEMORY AVAILABLE

     BASIS OPTIONS
     -------------
     GBASIS=N311         IGAUSS=       6      POLAR=POPN311 
     NDFUNC=       1     NFFUNC=       0     DIFFSP=       F
     NPFUNC=       1      DIFFS=       F     BASNAM=        


     RUN TITLE
     ---------
 12743                                                                           

 THE POINT GROUP OF THE MOLECULE IS C1      
 THE ORDER OF THE PRINCIPAL AXIS IS     0

 ATOM      ATOMIC                      COORDINATES (BOHR)
           CHARGE         X                   Y                   Z
 O           8.0    -0.4688410176       -0.6631048491        0.0000000000
 C           6.0     3.1435591806       -3.5377560216       -0.0000000000
 C           6.0    -4.3832194285        1.7844682502        0.0000000000
 C           6.0     6.0646976124       -3.6811862241       -0.0000000000
 C           6.0    -5.4921106381        4.4907448372        0.0000000000
 C           6.0     2.2364907065       -0.7689295044        0.0000000000
 C           6.0    -1.4703957910        1.8523094132       -0.0000000000
 C           6.0     7.1422193706       -6.3967224684        0.0000000000
 C           6.0    -8.4117372891        4.6014827801        0.0000000000
 C           6.0    10.0571217067       -6.4290367828        0.0000000000
 C           6.0    -9.4136700078        7.3389398459       -0.0000000000
 H           1.0     2.3908813197       -4.4909338098        1.6697618828
 H           1.0     2.3908813197       -4.4909338098       -1.6697618828
 H           1.0    -5.0310174971        0.7570242307       -1.6697618828
 H           1.0    -5.0310174971        0.7570242307        1.6697618828
 H           1.0     6.7767463646       -2.6879462449       -1.6693839376
 H           1.0     6.7767463646       -2.6879462449        1.6693839376
 H           1.0    -4.7932899679        5.4932444737       -1.6693839376
 H           1.0    -4.7932899679        5.4932444737        1.6693839376
 H           1.0     2.9836883620        0.1806578044       -1.6820451017
 H           1.0     2.9836883620        0.1806578044        1.6820451017
 H           1.0    -0.8241095032        2.8731393917       -1.6820451017
 H           1.0    -0.8241095032        2.8731393917        1.6820451017
 H           1.0     6.4613510972       -7.4048912829        1.6693839376
 H           1.0     6.4613510972       -7.4048912829       -1.6693839376
 H           1.0    -9.1353133698        3.6235495815       -1.6693839376
 H           1.0    -9.1353133698        3.6235495815        1.6693839376
 H           1.0    10.7461158018       -8.3722420160       -0.0000000000
 H           1.0    10.7961935405       -5.4769928302       -1.6758090059
 H           1.0    10.7961935405       -5.4769928302        1.6758090059
 H           1.0   -11.4753610604        7.3408295719        0.0000000000
 H           1.0    -8.7624704325        8.3531557835       -1.6758090059
 H           1.0    -8.7624704325        8.3531557835        1.6758090059

          INTERNUCLEAR DISTANCES (ANGS.)




     $CONTRL OPTIONS
     ---------------
 SCFTYP=RHF          RUNTYP=OPTIMIZE     EXETYP=RUN     
 MPLEVL=       0     CITYP =NONE         CCTYP =NONE         VBTYP =NONE    
 DFTTYP=NONE         TDDFT =NONE    
 MULT  =       1     ICHARG=       0     NZVAR =       1     COORD =UNIQUE  
 PP    =NONE         RELWFN=NONE         LOCAL =NONE         NUMGRD=       F
 ISPHER=      -1     NOSYM =       0     MAXIT =     200     UNITS =ANGS    
 PLTORB=       F     MOLPLT=       F     AIMPAC=       F     FRIEND=        
 NPRINT=       7     IREST =       0     GEOM  =INPUT   
 NORMF =       0     NORMP =       0     ITOL  =      20     ICUT  =       9
 INTTYP=BEST         GRDTYP=BEST         QMTTOL= 1.0E-06

     $SYSTEM OPTIONS
     ---------------
  REPLICATED MEMORY=    40000000 WORDS (ON EVERY NODE).
 DISTRIBUTED MEMDDI=           0 MILLION WORDS IN AGGREGATE,
 MEMDDI DISTRIBUTED OVER   1 PROCESSORS IS           0 WORDS/PROCESSOR.
 TOTAL MEMORY REQUESTED ON EACH PROCESSOR=    40000000 WORDS.
 TIMLIM=       10000.00 MINUTES, OR       6.9 DAYS.
 PARALL= F  BALTYP=  DLB     KDIAG=    0  COREFL= F
 MXSEQ2=     300 MXSEQ3=     150  mem10=         0

     $COSGMS OPTIONS
     ---------------
     EPSI  =   INFTY     NSPA  =      92     COSRAD=    1.40
     DISEX =   10.00     OUTCHG=DBLCAV       COSBUG=       F
     COSWRT=       F     DCOSMO=       F

     SYMMETRY COORDINATES WILL NOT BE USED FOR 
     THE COSMO CALCULATION, EVEN IF SPECIFIED:
         -- SWITCHING TO C1 POINT GROUP --


     DEFINITION OF CAVITY
     ---------------------------
     ATOM         COORDINATES           RADIUS 
     1   -0.4688   -0.6631    0.0000    1.7200
     2    3.1436   -3.5378   -0.0000    2.0000
     3   -4.3832    1.7845    0.0000    2.0000
     4    6.0647   -3.6812   -0.0000    2.0000
     5   -5.4921    4.4907    0.0000    2.0000
     6    2.2365   -0.7689    0.0000    2.0000
     7   -1.4704    1.8523   -0.0000    2.0000
     8    7.1422   -6.3967    0.0000    2.0000
     9   -8.4117    4.6015    0.0000    2.0000
    10   10.0571   -6.4290    0.0000    2.0000
    11   -9.4137    7.3389   -0.0000    2.0000
    12    2.3909   -4.4909    1.6698    1.3000
    13    2.3909   -4.4909   -1.6698    1.3000
    14   -5.0310    0.7570   -1.6698    1.3000
    15   -5.0310    0.7570    1.6698    1.3000
    16    6.7767   -2.6879   -1.6694    1.3000
    17    6.7767   -2.6879    1.6694    1.3000
    18   -4.7933    5.4932   -1.6694    1.3000
    19   -4.7933    5.4932    1.6694    1.3000
    20    2.9837    0.1807   -1.6820    1.3000
    21    2.9837    0.1807    1.6820    1.3000
    22   -0.8241    2.8731   -1.6820    1.3000
    23   -0.8241    2.8731    1.6820    1.3000
    24    6.4614   -7.4049    1.6694    1.3000
    25    6.4614   -7.4049   -1.6694    1.3000
    26   -9.1353    3.6235   -1.6694    1.3000
    27   -9.1353    3.6235    1.6694    1.3000
    28   10.7461   -8.3722   -0.0000    1.3000
    29   10.7962   -5.4770   -1.6758    1.3000
    30   10.7962   -5.4770    1.6758    1.3000
    31  -11.4754    7.3408    0.0000    1.3000
    32   -8.7625    8.3532   -1.6758    1.3000
    33   -8.7625    8.3532    1.6758    1.3000

          ----------------
          PROPERTIES INPUT
          ----------------

     MOMENTS            FIELD           POTENTIAL          DENSITY
 IEMOM =       1   IEFLD =       0   IEPOT =       0   IEDEN =       0
 WHERE =COMASS     WHERE =NUCLEI     WHERE =NUCLEI     WHERE =NUCLEI  
 OUTPUT=BOTH       OUTPUT=BOTH       OUTPUT=BOTH       OUTPUT=BOTH    
 IEMINT=       0   IEFINT=       0                     IEDINT=       0
                                                       MORB  =       0
          EXTRAPOLATION IN EFFECT
          SOSCF IN EFFECT
 ORBITAL PRINTING OPTION: NPREO=     1   341     2     1

     -------------------------------
     INTEGRAL TRANSFORMATION OPTIONS
     -------------------------------
     NWORD  =            0
     CUTOFF = 1.0E-09     MPTRAN =       0
     DIRTRF =       T     AOINTS =DUP     

          ----------------------
          INTEGRAL INPUT OPTIONS
          ----------------------
 NOPK  =       1 NORDER=       0 SCHWRZ=       T


 -----------------------------------------------
  STATISTICS ON AUTOMATIC COORDINATE GENERATION 
 -----------------------------------------------
  NUMBER OF USER SPECIFIED BONDS                             0
  NUMBER OF BONDS                                           32
  NUMBER OF ANGLES                                          61
  NUMBER OF TORSIONS                                        78
  NUMBER OF EXTRA COORD.                                     0
  NUMBER OF EXTRA COORD. FOR CONSTRAINTS                     0
  NUMBER OF CONSTRAINED COORD.                               0

  TOTAL NUMBER OF PRIMITIVES                               171
 -----------------------------------------------

   --- ENCODED Z MATRIX ---
 COORD  TYPE   I   J   K   L   M   N
    1      1    1   7
    2      1    1   6
    3      1    2  13
    4      1    2   6
    5      1    2  12
    6      1    2   4
    7      1    3   7
    8      1    3   5
    9      1    3  14
   10      1    3  15
   11      1    4  16
   12      1    4   8
   13      1    4  17
   14      1    5  19
   15      1    5  18
   16      1    5   9
   17      1    6  21
   18      1    6  20
   19      1    7  23
   20      1    7  22
   21      1    8  25
   22      1    8  24
   23      1    8  10
   24      1    9  27
   25      1    9  26
   26      1    9  11
   27      1   10  30
   28      1   10  29
   29      1   10  28
   30      1   11  32
   31      1   11  31
   32      1   11  33
   33      2    1   7   3
   34      2    1   6  21
   35      2    1   6   2
   36      2    1   7  23
   37      2    1   7  22
   38      2    1   6  20
   39      2    2   4  16
   40      2    2   4  17
   41      2    2   6  21
   42      2    2   6  20
   43      2    2   4   8
   44      2    3   7  22
   45      2    3   5  19
   46      2    3   5   9
   47      2    3   7  23
   48      2    3   5  18
   49      2    4   2   6
   50      2    4   2  12
   51      2    4   8  10
   52      2    4   8  24
   53      2    4   8  25
   54      2    4   2  13
   55      2    5   3  14
   56      2    5   3  15
   57      2    5   9  11
   58      2    5   9  26
   59      2    5   9  27
   60      2    5   3   7
   61      2    6   1   7
   62      2    6   2  12
   63      2    6   2  13
   64      2    7   3  15
   65      2    7   3  14
   66      2    8   4  16
   67      2    8  10  28
   68      2    8  10  29
   69      2    8  10  30
   70      2    8   4  17
   71      2    9  11  31
   72      2    9  11  32
   73      2    9  11  33
   74      2    9   5  18
   75      2    9   5  19
   76      2   10   8  24
   77      2   10   8  25
   78      2   11   9  26
   79      2   11   9  27
   80      2   12   2  13
   81      2   14   3  15
   82      2   16   4  17
   83      2   18   5  19
   84      2   20   6  21
   85      2   22   7  23
   86      2   24   8  25
   87      2   26   9  27
   88      2   28  10  29
   89      2   28  10  30
   90      2   29  10  30
   91      2   31  11  33
   92      2   31  11  32
   93      2   32  11  33
   94      3    1   7   3  14
   95      3    1   6   2  13
   96      3    1   7   3   5
   97      3    1   6   2   4
   98      3    1   7   3  15
   99      3    1   6   2  12
  100      3    2   4   8  10
  101      3    2   4   8  24
  102      3    2   4   8  25
  103      3    2   6   1   7
  104      3    3   5   9  11
  105      3    3   5   9  26
  106      3    3   5   9  27
  107      3    3   7   1   6
  108      3    4   8  10  28
  109      3    4   8  10  29
  110      3    4   8  10  30
  111      3    4   2   6  20
  112      3    4   2   6  21
  113      3    5   3   7  22
  114      3    5   3   7  23
  115      3    5   9  11  33
  116      3    5   9  11  31
  117      3    5   9  11  32
  118      3    6   2   4  16
  119      3    6   2   4   8
  120      3    6   1   7  22
  121      3    6   1   7  23
  122      3    6   2   4  17
  123      3    7   1   6  20
  124      3    7   3   5  18
  125      3    7   1   6  21
  126      3    7   3   5   9
  127      3    7   3   5  19
  128      3    8   4   2  12
  129      3    8   4   2  13
  130      3    9   5   3  15
  131      3    9   5   3  14
  132      3   10   8   4  17
  133      3   10   8   4  16
  134      3   11   9   5  18
  135      3   11   9   5  19
  136      3   12   2   4  16
  137      3   12   2   6  20
  138      3   12   2   6  21
  139      3   12   2   4  17
  140      3   13   2   4  16
  141      3   13   2   6  20
  142      3   13   2   6  21
  143      3   13   2   4  17
  144      3   14   3   5  18
  145      3   14   3   7  23
  146      3   14   3   5  19
  147      3   14   3   7  22
  148      3   15   3   5  18
  149      3   15   3   7  23
  150      3   15   3   5  19
  151      3   15   3   7  22
  152      3   16   4   8  25
  153      3   16   4   8  24
  154      3   17   4   8  25
  155      3   17   4   8  24
  156      3   18   5   9  27
  157      3   18   5   9  26
  158      3   19   5   9  27
  159      3   19   5   9  26
  160      3   24   8  10  30
  161      3   24   8  10  29
  162      3   24   8  10  28
  163      3   25   8  10  30
  164      3   25   8  10  29
  165      3   25   8  10  28
  166      3   26   9  11  33
  167      3   26   9  11  32
  168      3   26   9  11  31
  169      3   27   9  11  33
  170      3   27   9  11  32
  171      3   27   9  11  31

          INDEP./SYM. INTERNAL COORDINATES
          --------------------------------
 CRD  1=   0.3522 ( 33) -0.1102 ( 34)  0.3522 ( 35) -0.1102 ( 36) -0.1102 ( 37)
          -0.1102 ( 38)  0.1981 ( 43)  0.1981 ( 46) -0.2902 ( 49) -0.1038 ( 51)
          -0.1038 ( 57) -0.2902 ( 60) -0.5100 ( 61)
 CRD  2=  -0.1411 ( 41)  0.1411 ( 42)  0.1411 ( 44) -0.1411 ( 47) -0.1576 ( 94)
           0.1576 ( 95) -0.2954 ( 96)  0.2954 ( 97) -0.1576 ( 98)  0.1576 ( 99)
           0.1290 (100) -0.3521 (103) -0.1290 (104)  0.3521 (107) -0.1807 (119)
           0.1214 (120)  0.1214 (121) -0.1214 (123) -0.1214 (125)  0.1807 (126)
 CRD  3=   0.1978 ( 33) -0.1977 ( 35)  0.1062 ( 39)  0.1062 ( 40) -0.3400 ( 43)
          -0.1061 ( 45)  0.3400 ( 46) -0.1061 ( 48)  0.3534 ( 49) -0.1050 ( 50)
           0.2421 ( 51) -0.1050 ( 54)  0.1050 ( 55)  0.1050 ( 56) -0.2421 ( 57)
          -0.3534 ( 60) -0.1082 ( 62) -0.1082 ( 63)  0.1082 ( 64)  0.1082 ( 65)
 CRD  4=  -0.3037 (  1) -0.3037 (  2) -0.2636 (  4) -0.2482 (  6) -0.2636 (  7)
          -0.2482 (  8) -0.1770 ( 12) -0.1770 ( 16) -0.1099 ( 23) -0.1099 ( 26)
          -0.2640 ( 33) -0.2640 ( 35) -0.1952 ( 49) -0.1762 ( 51) -0.1762 ( 57)
          -0.1952 ( 60) -0.1655 ( 61)
 CRD  5=   0.1174 ( 34) -0.1174 ( 36)  0.1174 ( 37) -0.1174 ( 38) -0.1415 ( 41)
           0.1415 ( 42) -0.1415 ( 44)  0.1415 ( 47) -0.1507 ( 96) -0.1507 ( 97)
          -0.1100 (100) -0.3333 (103) -0.1100 (104) -0.3333 (107) -0.1098 (119)
          -0.2329 (120) -0.2329 (121) -0.2329 (123) -0.2329 (125) -0.1098 (126)
 CRD  6=  -0.1007 (  4) -0.1007 (  7)  0.1297 ( 33)  0.1297 ( 35) -0.3646 ( 43)
          -0.3647 ( 46)  0.3169 ( 51) -0.1138 ( 52) -0.1138 ( 53)  0.3169 ( 57)
          -0.1138 ( 58) -0.1138 ( 59) -0.4324 ( 61)  0.1236 ( 66)  0.1236 ( 70)
           0.1236 ( 74)  0.1236 ( 75)
 CRD  7=  -0.2381 ( 96) -0.2381 ( 97) -0.2395 (100) -0.1302 (101) -0.1302 (102)
           0.1611 (103) -0.2395 (104) -0.1302 (105) -0.1302 (106)  0.1611 (107)
           0.1103 (108) -0.1265 (111) -0.1265 (112) -0.1265 (113) -0.1265 (114)
           0.1103 (116)  0.1273 (118)  0.2648 (119)  0.1273 (122)  0.1273 (124)
           0.2649 (126)  0.1273 (127)  0.1137 (128)  0.1137 (129)  0.1138 (130)
           0.1138 (131)
 CRD  8=   0.1080 (  4)  0.1902 (  6) -0.1080 (  7) -0.1902 (  8)  0.1908 ( 12)
          -0.1908 ( 16)  0.1886 ( 23) -0.1886 ( 26) -0.2042 ( 33)  0.2042 ( 35)
           0.1171 ( 43) -0.1172 ( 46)  0.4102 ( 51) -0.1126 ( 52) -0.1126 ( 53)
          -0.4102 ( 57)  0.1126 ( 58)  0.1126 ( 59) -0.1371 ( 76) -0.1371 ( 77)
           0.1371 ( 78)  0.1371 ( 79)
 CRD  9=  -0.1605 (  4) -0.1919 (  6)  0.1605 (  7)  0.1919 (  8) -0.1954 ( 12)
           0.1954 ( 16) -0.1432 ( 33)  0.1432 ( 35) -0.3185 ( 43)  0.3185 ( 46)
          -0.3082 ( 49)  0.1372 ( 51) -0.1371 ( 57)  0.3082 ( 60)  0.1256 ( 62)
           0.1256 ( 63) -0.1256 ( 64) -0.1256 ( 65)  0.1207 ( 66)  0.1207 ( 70)
          -0.1207 ( 74) -0.1207 ( 75)
 CRD 10=   0.1097 (  1)  0.1097 (  2) -0.1336 ( 12) -0.1336 ( 16) -0.1821 ( 23)
          -0.1821 ( 26)  0.1616 ( 33)  0.1615 ( 35)  0.1110 ( 39)  0.1110 ( 40)
          -0.2056 ( 43)  0.1110 ( 45) -0.2055 ( 46)  0.1110 ( 48)  0.2393 ( 49)
          -0.1145 ( 50) -0.3434 ( 51) -0.1145 ( 54) -0.1145 ( 55) -0.1145 ( 56)
          -0.3434 ( 57)  0.2394 ( 60) -0.1105 ( 61)  0.1137 ( 76)  0.1137 ( 77)
           0.1137 ( 78)  0.1137 ( 79)
 CRD 11=   0.2437 (  1)  0.2437 (  2) -0.1249 (  6) -0.1249 (  8) -0.1614 ( 12)
          -0.1614 ( 16)  0.1272 ( 33)  0.1272 ( 35) -0.1404 ( 41) -0.1404 ( 42)
          -0.1758 ( 43) -0.1404 ( 44) -0.1758 ( 46) -0.1404 ( 47) -0.2820 ( 49)
          -0.2820 ( 60)  0.4865 ( 61)  0.1263 ( 62)  0.1263 ( 63)  0.1263 ( 64)
           0.1263 ( 65)
 CRD 12=  -0.1411 ( 39)  0.1411 ( 40)  0.1411 ( 45) -0.1411 ( 48)  0.1201 ( 50)
          -0.1164 ( 52)  0.1164 ( 53) -0.1201 ( 54) -0.1201 ( 55)  0.1201 ( 56)
           0.1164 ( 58) -0.1164 ( 59) -0.1164 ( 62)  0.1164 ( 63) -0.1164 ( 64)
           0.1164 ( 65)  0.1337 ( 66) -0.1359 ( 68)  0.1359 ( 69) -0.1337 ( 70)
          -0.1360 ( 72)  0.1360 ( 73)  0.1337 ( 74) -0.1337 ( 75)  0.1255 ( 76)
          -0.1255 ( 77) -0.1256 ( 78)  0.1256 ( 79) -0.2034 (100) -0.1249 (101)
          -0.1249 (102)  0.2034 (104)  0.1249 (105)  0.1249 (106) -0.1089 (118)
          -0.1767 (119) -0.1089 (122)  0.1089 (124)  0.1767 (126)  0.1089 (127)
          -0.1103 (128) -0.1103 (129)  0.1103 (130)  0.1103 (131) -0.1205 (132)
          -0.1205 (133)  0.1206 (134)  0.1206 (135)
 CRD 13=   0.1008 (  1) -0.1008 (  2)  0.2569 (  4) -0.2569 (  7) -0.3968 ( 33)
          -0.1947 ( 34)  0.3968 ( 35)  0.1947 ( 36)  0.1947 ( 37) -0.1947 ( 38)
          -0.1543 ( 43)  0.1543 ( 46)  0.1753 ( 49) -0.1079 ( 50) -0.1261 ( 51)
          -0.1079 ( 54)  0.1079 ( 55)  0.1079 ( 56)  0.1261 ( 57) -0.1753 ( 60)
 CRD 14=   0.2106 ( 68) -0.2106 ( 69)  0.2106 ( 72) -0.2106 ( 73)  0.1056 ( 94)
          -0.1056 ( 95)  0.1005 ( 96) -0.1005 ( 97)  0.1056 ( 98) -0.1056 ( 99)
           0.2125 (100)  0.1602 (103) -0.2125 (104) -0.1602 (107) -0.1821 (108)
          -0.1125 (109) -0.1125 (110)  0.1125 (115)  0.1821 (116)  0.1125 (117)
          -0.2004 (119) -0.1080 (120) -0.1080 (121)  0.1080 (123)  0.1080 (125)
           0.2004 (126) -0.1313 (128) -0.1313 (129)  0.1313 (130)  0.1313 (131)
           0.1193 (132)  0.1193 (133) -0.1193 (134) -0.1193 (135)
 CRD 15=  -0.1038 ( 39)  0.1038 ( 40) -0.1038 ( 45)  0.1038 ( 48) -0.1442 ( 52)
           0.1442 ( 53) -0.1442 ( 58)  0.1442 ( 59)  0.1417 ( 66) -0.1418 ( 68)
           0.1418 ( 69) -0.1417 ( 70)  0.1418 ( 72) -0.1418 ( 73) -0.1417 ( 74)
           0.1417 ( 75)  0.1331 ( 76) -0.1331 ( 77)  0.1331 ( 78) -0.1331 ( 79)
          -0.1366 (100)  0.1719 (103) -0.1366 (104)  0.1719 (107) -0.1191 (109)
          -0.1191 (110) -0.1191 (115) -0.1191 (117) -0.1706 (119)  0.1771 (120)
           0.1771 (121)  0.1771 (123)  0.1771 (125) -0.1706 (126) -0.1309 (128)
          -0.1309 (129) -0.1309 (130) -0.1309 (131) -0.1078 (132) -0.1078 (133)
          -0.1078 (134) -0.1078 (135)
 CRD 16=   0.1028 ( 50) -0.1028 ( 54)  0.1028 ( 55) -0.1028 ( 56)  0.3186 ( 68)
          -0.3186 ( 69) -0.3186 ( 72)  0.3186 ( 73) -0.1089 ( 88)  0.1089 ( 89)
          -0.1088 ( 91)  0.1088 ( 92) -0.1842 ( 96) -0.1842 ( 97)  0.1491 (103)
           0.1490 (107) -0.1501 (108) -0.1169 (111) -0.1169 (112) -0.1169 (113)
          -0.1169 (114) -0.1501 (116)
 CRD 17=  -0.4508 ( 23)  0.4060 ( 26)  0.1169 ( 43) -0.1058 ( 46) -0.3539 ( 67)
           0.3193 ( 71) -0.1386 ( 76) -0.1386 ( 77)  0.1249 ( 78)  0.1249 ( 79)
           0.1750 ( 88)  0.1750 ( 89) -0.1577 ( 91) -0.1577 ( 92)
 CRD 18=   0.1075 (  7) -0.4081 ( 23) -0.4527 ( 26)  0.1013 ( 43)  0.1129 ( 46)
          -0.3151 ( 67) -0.3501 ( 71) -0.1247 ( 76) -0.1247 ( 77) -0.1384 ( 78)
          -0.1384 ( 79)  0.1574 ( 88)  0.1574 ( 89)  0.1748 ( 91)  0.1748 ( 92)
 CRD 19=   0.1334 (  4) -0.2992 (  6) -0.1317 (  7)  0.2963 (  8)  0.3473 ( 12)
          -0.3438 ( 16)  0.1298 ( 66)  0.2274 ( 67) -0.1215 ( 68) -0.1215 ( 69)
           0.1298 ( 70) -0.2249 ( 71)  0.1202 ( 72)  0.1202 ( 73) -0.1285 ( 74)
          -0.1285 ( 75)  0.1064 ( 90) -0.1052 ( 93)
 CRD 20=   0.1604 (  4) -0.2711 (  6)  0.1618 (  7) -0.2742 (  8)  0.3448 ( 12)
           0.3484 ( 16)  0.1288 ( 66)  0.2342 ( 67) -0.1276 ( 68) -0.1276 ( 69)
           0.1288 ( 70)  0.2365 ( 71) -0.1288 ( 72) -0.1288 ( 73)  0.1302 ( 74)
           0.1302 ( 75)  0.1114 ( 90)  0.1125 ( 93)
 CRD 21=   0.2987 (  4) -0.2553 (  6) -0.2961 (  7)  0.2535 (  8) -0.2062 ( 12)
           0.2046 ( 16)  0.1722 ( 23) -0.1708 ( 26)  0.1246 ( 41)  0.1246 ( 42)
          -0.1237 ( 44) -0.1237 ( 47) -0.1628 ( 67)  0.1615 ( 68)  0.1615 ( 69)
           0.1617 ( 71) -0.1603 ( 72) -0.1603 ( 73) -0.1000 ( 84) -0.1503 ( 90)
           0.1492 ( 93)
 CRD 22=   0.3376 (  4) -0.2285 (  6)  0.3399 (  7) -0.2305 (  8) -0.2004 ( 12)
          -0.2020 ( 16)  0.1626 ( 23)  0.1640 ( 26)  0.1180 ( 41)  0.1180 ( 42)
           0.1190 ( 44)  0.1190 ( 47) -0.1511 ( 67)  0.1513 ( 68)  0.1513 ( 69)
          -0.1524 ( 71)  0.1526 ( 72)  0.1526 ( 73) -0.1414 ( 90) -0.1426 ( 93)
 CRD 23=   0.1770 ( 50)  0.1721 ( 52) -0.1721 ( 53) -0.1770 ( 54) -0.1770 ( 55)
           0.1770 ( 56) -0.1721 ( 58)  0.1721 ( 59) -0.1462 ( 62)  0.1462 ( 63)
          -0.1462 ( 64)  0.1462 ( 65)  0.1957 ( 68) -0.1957 ( 69)  0.1956 ( 72)
          -0.1956 ( 73) -0.1415 ( 76)  0.1415 ( 77)  0.1415 ( 78) -0.1415 ( 79)
          -0.1126 (101) -0.1126 (102) -0.1177 (103)  0.1126 (105)  0.1126 (106)
           0.1177 (107)  0.1306 (109)  0.1306 (110) -0.1310 (111) -0.1310 (112)
           0.1310 (113)  0.1310 (114) -0.1306 (115) -0.1306 (117)
 CRD 24=   0.1228 ( 34)  0.1228 ( 36) -0.1228 ( 37) -0.1228 ( 38)  0.1000 ( 39)
          -0.1000 ( 40) -0.1346 ( 41)  0.1346 ( 42)  0.1346 ( 44) -0.1346 ( 47)
           0.1110 ( 52) -0.1110 ( 53) -0.1111 ( 58)  0.1111 ( 59) -0.2653 ( 68)
           0.2653 ( 69) -0.2653 ( 72)  0.2653 ( 73)  0.1202 ( 88) -0.1202 ( 89)
          -0.1202 ( 91)  0.1202 ( 92)  0.1153 (100) -0.1153 (104)  0.1043 (108)
          -0.1043 (116) -0.1105 (118) -0.1171 (120) -0.1171 (121) -0.1105 (122)
           0.1171 (123)  0.1105 (124)  0.1171 (125)  0.1105 (127)
 CRD 25=  -0.1536 ( 50) -0.2092 ( 52)  0.2092 ( 53)  0.1536 ( 54) -0.1536 ( 55)
           0.1536 ( 56) -0.2092 ( 58)  0.2092 ( 59)  0.1744 ( 62) -0.1744 ( 63)
          -0.1744 ( 64)  0.1744 ( 65)  0.1771 ( 76) -0.1771 ( 77)  0.1771 ( 78)
          -0.1771 ( 79) -0.1406 (108) -0.1486 (109) -0.1486 (110) -0.1486 (115)
          -0.1407 (116) -0.1486 (117)  0.1292 (118) -0.1485 (120) -0.1485 (121)
           0.1292 (122) -0.1485 (123)  0.1292 (124) -0.1485 (125)  0.1292 (127)
 CRD 26=   0.1284 (  3)  0.2477 (  4)  0.1284 (  5)  0.2630 (  6)  0.2474 (  7)
           0.2627 (  8)  0.1282 (  9)  0.1282 ( 10) -0.1613 ( 12) -0.1610 ( 16)
           0.1096 ( 41)  0.1096 ( 42)  0.1094 ( 44)  0.1094 ( 47) -0.1461 ( 49)
          -0.1459 ( 60)  0.2042 ( 67) -0.1514 ( 68) -0.1514 ( 69)  0.2039 ( 71)
          -0.1512 ( 72) -0.1512 ( 73)  0.1392 ( 90)  0.1390 ( 93)
 CRD 27=   0.1215 (  3)  0.2416 (  4)  0.1215 (  5)  0.2130 (  6) -0.2420 (  7)
          -0.2134 (  8) -0.1217 (  9) -0.1217 ( 10) -0.1827 ( 12)  0.1829 ( 16)
           0.1469 ( 33) -0.1468 ( 35)  0.1134 ( 41)  0.1134 ( 42) -0.1135 ( 44)
          -0.1135 ( 47) -0.1462 ( 49)  0.1041 ( 51) -0.1042 ( 57)  0.1464 ( 60)
           0.2114 ( 67) -0.1545 ( 68) -0.1545 ( 69) -0.2117 ( 71)  0.1547 ( 72)
           0.1547 ( 73) -0.1040 ( 84)  0.1042 ( 85)  0.1428 ( 90) -0.1430 ( 93)
 CRD 28=   0.1958 ( 34) -0.1958 ( 36)  0.1958 ( 37) -0.1958 ( 38)  0.1534 ( 39)
          -0.1534 ( 40) -0.2237 ( 41)  0.2237 ( 42) -0.2236 ( 44)  0.1531 ( 45)
           0.2236 ( 47) -0.1531 ( 48) -0.1128 ( 66)  0.1128 ( 70)  0.1125 ( 74)
          -0.1125 ( 75) -0.1099 ( 94) -0.1098 ( 95) -0.1099 ( 98) -0.1098 ( 99)
           0.1208 (101)  0.1208 (102)  0.1207 (105)  0.1207 (106)  0.2033 (120)
           0.2033 (121)  0.2033 (123)  0.2033 (125)
 CRD 29=   0.1455 ( 34) -0.1454 ( 36)  0.1454 ( 37) -0.1455 ( 38) -0.1736 ( 39)
           0.1736 ( 40) -0.1757 ( 41)  0.1757 ( 42) -0.1756 ( 44) -0.1731 ( 45)
           0.1756 ( 47)  0.1731 ( 48) -0.1682 ( 50)  0.1682 ( 54) -0.1680 ( 55)
           0.1680 ( 56)  0.1694 ( 62) -0.1694 ( 63) -0.1691 ( 64)  0.1691 ( 65)
           0.1815 ( 66) -0.1815 ( 70) -0.1810 ( 74)  0.1810 ( 75)  0.1030 (111)
           0.1030 (112)  0.1028 (113)  0.1028 (114)  0.1021 (118)  0.1071 (120)
           0.1071 (121)  0.1021 (122)  0.1071 (123)  0.1019 (124)  0.1071 (125)
           0.1019 (127) -0.1044 (128) -0.1044 (129) -0.1041 (130) -0.1041 (131)
 CRD 30=   0.2143 ( 39) -0.2143 ( 40) -0.2149 ( 45)  0.2149 ( 48)  0.1051 ( 50)
          -0.1420 ( 52)  0.1420 ( 53) -0.1051 ( 54) -0.1055 ( 55)  0.1055 ( 56)
           0.1423 ( 58) -0.1423 ( 59) -0.1200 ( 62)  0.1200 ( 63) -0.1205 ( 64)
           0.1205 ( 65) -0.2271 ( 66)  0.2271 ( 70) -0.2276 ( 74)  0.2276 ( 75)
           0.1652 ( 76) -0.1652 ( 77) -0.1655 ( 78)  0.1655 ( 79)  0.1070 (101)
           0.1070 (102) -0.1073 (105) -0.1073 (106)  0.1391 (128)  0.1391 (129)
          -0.1394 (130) -0.1394 (131) -0.1121 (132) -0.1121 (133)  0.1122 (134)
           0.1122 (135)
 CRD 31=   0.2260 ( 34)  0.2261 ( 36) -0.2261 ( 37) -0.2260 ( 38) -0.2890 ( 41)
           0.2890 ( 42)  0.2888 ( 44) -0.2888 ( 47) -0.1241 ( 50)  0.1241 ( 54)
           0.1242 ( 55) -0.1242 ( 56)  0.1039 ( 62) -0.1039 ( 63)  0.1041 ( 64)
          -0.1041 ( 65)  0.1000 ( 68) -0.1000 ( 69)  0.1030 (111)  0.1030 (112)
          -0.1030 (113) -0.1030 (114) -0.1469 (120) -0.1469 (121)  0.1471 (123)
           0.1471 (125)
 CRD 32=  -0.1238 ( 11)  0.1238 ( 13) -0.1239 ( 14)  0.1239 ( 15) -0.1245 ( 17)
           0.1245 ( 18)  0.1248 ( 19) -0.1248 ( 20) -0.1009 ( 21)  0.1009 ( 22)
          -0.1010 ( 24)  0.1010 ( 25) -0.1188 ( 27)  0.1188 ( 28) -0.1189 ( 30)
           0.1189 ( 32) -0.1574 ( 41)  0.1574 ( 42) -0.1581 ( 44)  0.1581 ( 47)
           0.2124 ( 68) -0.2124 ( 69) -0.2127 ( 72)  0.2127 ( 73) -0.1167 ( 88)
           0.1167 ( 89) -0.1168 ( 91)  0.1168 ( 92)  0.1144 ( 94)  0.1146 ( 95)
           0.1245 ( 96)  0.1245 ( 97)  0.1144 ( 98)  0.1146 ( 99) -0.1627 (100)
          -0.1629 (104)  0.1103 (120)  0.1103 (121)  0.1099 (123)  0.1099 (125)
           0.1040 (128)  0.1040 (129)  0.1040 (130)  0.1040 (131) -0.1208 (132)
          -0.1208 (133) -0.1209 (134) -0.1209 (135)
 CRD 33=   0.2207 (  6)  0.2209 (  8)  0.1439 ( 11)  0.2472 ( 12)  0.1439 ( 13)
           0.1440 ( 14)  0.1440 ( 15)  0.2473 ( 16)  0.1201 ( 21)  0.1201 ( 22)
           0.1202 ( 24)  0.1202 ( 25) -0.1926 ( 43) -0.1927 ( 46) -0.1437 ( 49)
          -0.1780 ( 51)  0.1041 ( 52)  0.1041 ( 53) -0.1781 ( 57)  0.1042 ( 58)
           0.1042 ( 59) -0.1438 ( 60) -0.1725 ( 67)  0.1184 ( 68)  0.1184 ( 69)
          -0.1727 ( 71)  0.1185 ( 72)  0.1185 ( 73) -0.1101 ( 82) -0.1101 ( 83)
          -0.1160 ( 90) -0.1160 ( 93)
 CRD 34=   0.1090 (  3)  0.1126 (  4)  0.1090 (  5)  0.2222 (  6) -0.1126 (  7)
          -0.2221 (  8) -0.1090 (  9) -0.1090 ( 10)  0.1425 ( 11)  0.2326 ( 12)
           0.1425 ( 13) -0.1424 ( 14) -0.1424 ( 15) -0.2324 ( 16)  0.1138 ( 21)
           0.1138 ( 22) -0.1137 ( 24) -0.1137 ( 25) -0.1918 ( 43)  0.1917 ( 46)
          -0.1613 ( 49) -0.1691 ( 51)  0.1690 ( 57)  0.1612 ( 60) -0.1593 ( 67)
           0.1092 ( 68)  0.1092 ( 69)  0.1592 ( 71) -0.1091 ( 72) -0.1091 ( 73)
          -0.1090 ( 82)  0.1089 ( 83) -0.1073 ( 90)  0.1073 ( 93)
 CRD 35=  -0.2211 (  3)  0.2211 (  5) -0.2211 (  9)  0.2211 ( 10) -0.1392 ( 17)
           0.1392 ( 18) -0.1392 ( 19)  0.1392 ( 20)  0.2325 ( 21) -0.2325 ( 22)
          -0.2325 ( 24)  0.2325 ( 25) -0.1186 (108)  0.1186 (116)  0.1204 (118)
           0.1031 (119)  0.1204 (122) -0.1204 (124) -0.1031 (126) -0.1204 (127)
           0.1264 (132)  0.1264 (133) -0.1264 (134) -0.1264 (135)
 CRD 36=   0.1495 (  3) -0.1495 (  5) -0.1494 (  9)  0.1494 ( 10)  0.1072 ( 11)
          -0.1072 ( 13)  0.1072 ( 14) -0.1072 ( 15)  0.2196 ( 17) -0.2196 ( 18)
          -0.2196 ( 19)  0.2196 ( 20) -0.2257 ( 21)  0.2257 ( 22) -0.2257 ( 24)
           0.2257 ( 25) -0.1229 ( 94) -0.1229 ( 95) -0.1229 ( 98) -0.1229 ( 99)
           0.1027 (108)  0.1027 (116) -0.1102 (132) -0.1102 (133) -0.1102 (134)
          -0.1102 (135)
 CRD 37=   0.1754 ( 26)  0.5071 ( 30)  0.4830 ( 31)  0.5071 ( 32) -0.1903 ( 71)
          -0.1743 ( 72) -0.1743 ( 73)  0.1896 ( 91)  0.1896 ( 92)  0.1796 ( 93)
 CRD 38=  -0.1754 ( 23) -0.5071 ( 27) -0.5071 ( 28) -0.4830 ( 29)  0.1903 ( 67)
           0.1743 ( 68)  0.1743 ( 69) -0.1896 ( 88) -0.1896 ( 89) -0.1796 ( 90)
 CRD 39=  -0.2356 (  3)  0.2356 (  5) -0.2357 (  9)  0.2357 ( 10)  0.2939 ( 11)
          -0.2939 ( 13) -0.2939 ( 14)  0.2939 ( 15) -0.2151 ( 21)  0.2151 ( 22)
           0.2151 ( 24) -0.2151 ( 25)
 CRD 40=  -0.2414 (  3)  0.2414 (  5)  0.2414 (  9) -0.2414 ( 10)  0.2753 ( 11)
          -0.2753 ( 13)  0.2752 ( 14) -0.2752 ( 15) -0.1522 ( 17)  0.1522 ( 18)
           0.1522 ( 19) -0.1522 ( 20) -0.1977 ( 21)  0.1977 ( 22) -0.1976 ( 24)
           0.1976 ( 25)
 CRD 41=   0.3152 (  1) -0.3152 (  2) -0.1118 (  4)  0.1118 (  7) -0.3524 ( 17)
          -0.3524 ( 18)  0.3525 ( 19)  0.3525 ( 20)  0.1710 ( 41)  0.1710 ( 42)
          -0.1710 ( 44) -0.1710 ( 47) -0.1482 ( 84)  0.1483 ( 85)  0.1237 (120)
          -0.1237 (121)  0.1237 (123) -0.1237 (125)
 CRD 42=   0.1110 ( 39) -0.1110 ( 40) -0.1104 ( 45)  0.1104 ( 48)  0.1110 ( 62)
          -0.1110 ( 63)  0.1104 ( 64) -0.1104 ( 65) -0.1072 ( 66)  0.1072 ( 70)
          -0.1066 ( 74)  0.1066 ( 75) -0.1161 ( 76)  0.1161 ( 77)  0.1155 ( 78)
          -0.1155 ( 79) -0.1478 (136) -0.1478 (139) -0.1478 (140) -0.1478 (143)
           0.1470 (144)  0.1470 (146)  0.1470 (148)  0.1470 (150) -0.1550 (152)
          -0.1550 (153) -0.1550 (154) -0.1550 (155)  0.1541 (156)  0.1541 (157)
           0.1541 (158)  0.1541 (159)
 CRD 43=  -0.1084 (  3)  0.1084 (  5)  0.1089 (  9) -0.1089 ( 10) -0.1252 ( 17)
           0.1252 ( 18)  0.1257 ( 19) -0.1257 ( 20)  0.1082 ( 39) -0.1082 ( 40)
           0.1088 ( 45) -0.1088 ( 48)  0.1021 ( 62) -0.1021 ( 63) -0.1027 ( 64)
           0.1027 ( 65) -0.1013 ( 66)  0.1013 ( 70)  0.1020 ( 74) -0.1020 ( 75)
          -0.1140 ( 76)  0.1140 ( 77) -0.1147 ( 78)  0.1147 ( 79) -0.1407 (136)
          -0.1407 (139) -0.1407 (140) -0.1407 (143) -0.1416 (144) -0.1416 (146)
          -0.1416 (148) -0.1416 (150) -0.1543 (152) -0.1543 (153) -0.1543 (154)
          -0.1543 (155) -0.1552 (156) -0.1552 (157) -0.1552 (158) -0.1552 (159)
 CRD 44=  -0.4488 ( 17) -0.4488 ( 18) -0.4488 ( 19) -0.4488 ( 20)  0.1324 ( 61)
          -0.1597 ( 84) -0.1597 ( 85) -0.1087 (120)  0.1087 (121)  0.1087 (123)
          -0.1087 (125)
 CRD 45=  -0.1956 ( 24) -0.1956 ( 25) -0.2873 ( 30)  0.6294 ( 31) -0.2873 ( 32)
           0.1571 ( 91)  0.1571 ( 92) -0.3264 ( 93)  0.1679 (115) -0.1679 (117)
           0.1478 (166) -0.1880 (167)  0.1880 (169) -0.1478 (170)
 CRD 46=   0.1956 ( 21)  0.1956 ( 22)  0.2873 ( 27)  0.2873 ( 28) -0.6293 ( 29)
          -0.1571 ( 88) -0.1571 ( 89)  0.3264 ( 90) -0.1679 (109)  0.1679 (110)
           0.1880 (160) -0.1478 (161)  0.1478 (163) -0.1880 (164)
 CRD 47=  -0.5024 ( 27)  0.5024 ( 28)  0.2204 ( 30) -0.2204 ( 32)  0.2717 ( 88)
          -0.2717 ( 89) -0.1192 ( 91)  0.1192 ( 92) -0.2088 (108) -0.2003 (162)
          -0.2003 (165)
 CRD 48=  -0.2205 ( 27)  0.2205 ( 28) -0.5024 ( 30)  0.5024 ( 32)  0.1192 ( 88)
          -0.1192 ( 89)  0.2717 ( 91) -0.2717 ( 92) -0.2087 (116) -0.2001 (168)
          -0.2001 (171)
 CRD 49=  -0.3032 (  3) -0.3032 (  5)  0.3032 (  9)  0.3032 ( 10)  0.2830 ( 11)
           0.2830 ( 13) -0.2834 ( 14) -0.2834 ( 15) -0.1660 ( 21) -0.1660 ( 22)
           0.1663 ( 24)  0.1663 ( 25) -0.1052 ( 80)  0.1052 ( 81)
 CRD 50=  -0.2913 (  3) -0.2913 (  5) -0.2908 (  9) -0.2908 ( 10)  0.2911 ( 11)
           0.2911 ( 13)  0.2911 ( 14)  0.2911 ( 15) -0.1731 ( 21) -0.1731 ( 22)
          -0.1731 ( 24) -0.1731 ( 25) -0.1006 ( 80) -0.1005 ( 81)
 CRD 51=   0.2745 (  3)  0.2745 (  5) -0.2750 (  9) -0.2750 ( 10) -0.3082 ( 21)
          -0.3082 ( 22)  0.3083 ( 24)  0.3083 ( 25)  0.1113 ( 80) -0.1115 ( 81)
          -0.1155 ( 86)  0.1155 ( 87)
 CRD 52=   0.2791 (  3)  0.2791 (  5)  0.2791 (  9)  0.2791 ( 10) -0.3104 ( 21)
          -0.3104 ( 22) -0.3100 ( 24) -0.3100 ( 25)  0.1126 ( 80)  0.1126 ( 81)
          -0.1172 ( 86) -0.1170 ( 87)
 CRD 53=   0.1499 (  3)  0.1499 (  5) -0.1519 (  9) -0.1519 ( 10)  0.3126 ( 11)
           0.3126 ( 13) -0.3162 ( 14) -0.3162 ( 15)  0.2210 ( 21)  0.2210 ( 22)
          -0.2236 ( 24) -0.2236 ( 25)  0.1406 ( 82) -0.1423 ( 83)  0.1019 ( 86)
          -0.1031 ( 87)
 CRD 54=   0.1672 (  3)  0.1672 (  5)  0.1655 (  9)  0.1655 ( 10)  0.3155 ( 11)
           0.3155 ( 13)  0.3118 ( 14)  0.3118 ( 15)  0.2156 ( 21)  0.2156 ( 22)
           0.2130 ( 24)  0.2130 ( 25)  0.1427 ( 82)  0.1410 ( 83)  0.1000 ( 86)
 CRD 55=  -0.4151 (  1)  0.4150 (  2)  0.1084 (  4) -0.1084 (  7) -0.2527 ( 17)
          -0.2527 ( 18)  0.2528 ( 19)  0.2528 ( 20)  0.1133 ( 34) -0.1133 ( 36)
          -0.1133 ( 37)  0.1133 ( 38) -0.1509 ( 84)  0.1509 ( 85) -0.1308 (111)
           0.1308 (112) -0.1308 (113)  0.1308 (114) -0.1658 (137)  0.1658 (142)
           0.1658 (145) -0.1658 (151)
 CRD 56=   0.1027 (  3) -0.1027 (  5)  0.1024 (  9) -0.1024 ( 10) -0.1053 ( 11)
           0.1053 ( 13)  0.1049 ( 14) -0.1049 ( 15) -0.2082 ( 17)  0.2082 ( 18)
          -0.2077 ( 19)  0.2077 ( 20) -0.1118 (111) -0.1118 (112)  0.1114 (113)
           0.1114 (114) -0.1720 (137) -0.1720 (138) -0.1720 (141) -0.1720 (142)
           0.1714 (145)  0.1714 (147)  0.1714 (149)  0.1714 (151)  0.1003 (152)
           0.1003 (153)  0.1003 (154)  0.1003 (155)  0.1137 (160)  0.1137 (161)
           0.1137 (163)  0.1137 (164) -0.1133 (166) -0.1133 (167) -0.1133 (169)
          -0.1133 (170)
 CRD 57=  -0.1205 ( 11)  0.1205 ( 13) -0.1208 ( 14)  0.1208 ( 15) -0.1404 ( 17)
           0.1404 ( 18)  0.1411 ( 19) -0.1411 ( 20) -0.1152 (111) -0.1152 (112)
          -0.1156 (113) -0.1156 (114) -0.1707 (137) -0.1707 (138) -0.1707 (141)
          -0.1707 (142) -0.1713 (145) -0.1713 (147) -0.1713 (149) -0.1713 (151)
           0.1041 (152)  0.1041 (153)  0.1041 (154)  0.1041 (155)  0.1044 (156)
           0.1044 (157)  0.1044 (158)  0.1044 (159)  0.1253 (160)  0.1253 (161)
           0.1101 (162)  0.1253 (163)  0.1253 (164)  0.1101 (165)  0.1257 (166)
           0.1257 (167)  0.1104 (168)  0.1257 (169)  0.1257 (170)  0.1104 (171)
 CRD 58=  -0.4664 (  1) -0.4665 (  2)  0.2103 ( 33) -0.1402 ( 34)  0.2103 ( 35)
          -0.1402 ( 36) -0.1402 ( 37) -0.1402 ( 38)  0.3995 ( 61)  0.2168 ( 84)
           0.2168 ( 85) -0.1012 (138)  0.1012 (141) -0.1012 (147)  0.1012 (149)
 CRD 59=  -0.2337 (  3)  0.2337 (  5) -0.2336 (  9)  0.2336 ( 10) -0.1918 ( 11)
           0.1918 ( 13)  0.1917 ( 14) -0.1917 ( 15)  0.2165 ( 17) -0.2165 ( 18)
           0.2164 ( 19) -0.2164 ( 20) -0.1510 (136) -0.1510 (139) -0.1510 (140)
          -0.1510 (143)  0.1509 (144)  0.1509 (146)  0.1509 (148)  0.1509 (150)
 CRD 60=   0.2639 (  3) -0.2639 (  5) -0.2640 (  9)  0.2640 ( 10)  0.2224 ( 11)
          -0.2224 ( 13)  0.2225 ( 14) -0.2225 ( 15) -0.1364 ( 17)  0.1364 ( 18)
           0.1365 ( 19) -0.1365 ( 20)  0.1411 (136) -0.1047 (137) -0.1047 (138)
           0.1411 (139)  0.1411 (140) -0.1047 (141) -0.1047 (142)  0.1411 (143)
           0.1412 (144) -0.1048 (145)  0.1412 (146) -0.1048 (147)  0.1412 (148)
          -0.1048 (149)  0.1412 (150) -0.1048 (151)
 CRD 61=   0.1697 ( 11) -0.1697 ( 13) -0.1696 ( 14)  0.1696 ( 15)  0.2634 ( 21)
          -0.2634 ( 22) -0.2631 ( 24)  0.2631 ( 25)  0.1149 (108)  0.1018 (109)
           0.1018 (110) -0.1017 (115) -0.1148 (116) -0.1017 (117) -0.1053 (152)
          -0.1053 (153) -0.1053 (154) -0.1053 (155)  0.1052 (156)  0.1052 (157)
           0.1052 (158)  0.1052 (159)  0.1634 (160)  0.1634 (161)  0.1764 (162)
           0.1634 (163)  0.1634 (164)  0.1764 (165) -0.1632 (166) -0.1632 (167)
          -0.1762 (168) -0.1632 (169) -0.1632 (170) -0.1762 (171)
 CRD 62=   0.1218 ( 11) -0.1218 ( 13)  0.1220 ( 14) -0.1220 ( 15)  0.2487 ( 21)
          -0.2487 ( 22)  0.2489 ( 24) -0.2489 ( 25)  0.1227 (108)  0.1102 (109)
           0.1102 (110)  0.1103 (115)  0.1229 (116)  0.1103 (117)  0.1706 (160)
           0.1706 (161)  0.1831 (162)  0.1706 (163)  0.1706 (164)  0.1831 (165)
           0.1708 (166)  0.1708 (167)  0.1833 (168)  0.1708 (169)  0.1708 (170)
           0.1833 (171)
 CRD 63=   0.2656 ( 17) -0.2656 ( 18)  0.2656 ( 19) -0.2656 ( 20)  0.1618 ( 94)
          -0.1618 ( 95)  0.1232 ( 96) -0.1232 ( 97)  0.1618 ( 98) -0.1618 ( 99)
          -0.2087 (103)  0.2087 (107) -0.1149 (111) -0.1149 (112)  0.1149 (113)
           0.1149 (114)  0.1461 (120)  0.1461 (121) -0.1461 (123) -0.1461 (125)
          -0.1535 (137) -0.1535 (138) -0.1535 (141) -0.1535 (142)  0.1535 (145)
           0.1535 (147)  0.1535 (149)  0.1535 (151)
 CRD 64=  -0.1514 ( 29) -0.1511 ( 31) -0.1277 ( 39) -0.1277 ( 40) -0.1275 ( 45)
          -0.1275 ( 48)  0.1034 ( 50) -0.1073 ( 52) -0.1073 ( 53)  0.1034 ( 54)
           0.1033 ( 55)  0.1033 ( 56) -0.1071 ( 58) -0.1071 ( 59) -0.1172 ( 62)
          -0.1172 ( 63) -0.1171 ( 64) -0.1171 ( 65)  0.1258 ( 66) -0.1150 ( 67)
           0.1258 ( 70) -0.1148 ( 71)  0.1256 ( 74)  0.1256 ( 75)  0.1323 ( 76)
           0.1323 ( 77)  0.1321 ( 78)  0.1321 ( 79)  0.1191 ( 88)  0.1191 ( 89)
           0.1189 ( 91)  0.1189 ( 92)  0.1381 (136)  0.1019 (137) -0.1019 (142)
          -0.1381 (143)  0.1019 (145)  0.1379 (146) -0.1379 (148) -0.1019 (151)
           0.1494 (153) -0.1494 (154) -0.1491 (156)  0.1491 (159)
 CRD 65=   0.1364 (  1) -0.1362 (  2)  0.1751 ( 29) -0.1753 ( 31)  0.1280 ( 39)
           0.1280 ( 40) -0.1282 ( 45) -0.1282 ( 48)  0.1189 ( 52)  0.1189 ( 53)
          -0.1191 ( 58) -0.1191 ( 59) -0.1194 ( 66)  0.1350 ( 67)  0.1032 ( 68)
           0.1032 ( 69) -0.1194 ( 70) -0.1352 ( 71) -0.1033 ( 72) -0.1033 ( 73)
           0.1197 ( 74)  0.1197 ( 75) -0.1450 ( 76) -0.1450 ( 77)  0.1452 ( 78)
           0.1452 ( 79) -0.1405 ( 88) -0.1405 ( 89)  0.1406 ( 91)  0.1406 ( 92)
          -0.1218 (136)  0.1218 (143)  0.1220 (146) -0.1220 (148) -0.1580 (153)
           0.1580 (154) -0.1583 (156)  0.1583 (159)
 CRD 66=  -0.1089 (  1) -0.1091 (  2)  0.1011 (  6)  0.1011 (  8)  0.1224 ( 12)
           0.1224 ( 16)  0.1632 ( 23)  0.1631 ( 26) -0.1280 ( 27) -0.1280 ( 28)
          -0.1629 ( 29) -0.1280 ( 30) -0.1629 ( 31) -0.1280 ( 32)  0.1338 ( 34)
           0.1337 ( 36)  0.1337 ( 37)  0.1338 ( 38) -0.1108 ( 41) -0.1108 ( 42)
          -0.1108 ( 44) -0.1108 ( 47) -0.1358 ( 61) -0.1482 ( 67) -0.1365 ( 68)
          -0.1365 ( 69) -0.1482 ( 71) -0.1364 ( 72) -0.1364 ( 73)  0.1549 ( 88)
           0.1549 ( 89)  0.1271 ( 90)  0.1549 ( 91)  0.1549 ( 92)  0.1271 ( 93)
          -0.1009 (137)  0.1009 (142) -0.1009 (145)  0.1009 (151)
 CRD 67=  -0.2209 (  1)  0.2209 (  2) -0.1318 ( 12)  0.1319 ( 16) -0.1926 ( 23)
           0.1927 ( 26)  0.1276 ( 27)  0.1276 ( 28)  0.1385 ( 29) -0.1277 ( 30)
          -0.1386 ( 31) -0.1277 ( 32)  0.1013 ( 50)  0.1013 ( 54) -0.1014 ( 55)
          -0.1014 ( 56) -0.1172 ( 62) -0.1172 ( 63)  0.1172 ( 64)  0.1172 ( 65)
           0.1371 ( 67)  0.1322 ( 68)  0.1322 ( 69) -0.1372 ( 71) -0.1323 ( 72)
          -0.1323 ( 73) -0.1417 ( 88) -0.1417 ( 89) -0.1332 ( 90)  0.1418 ( 91)
           0.1418 ( 92)  0.1333 ( 93)  0.1008 (120) -0.1008 (121)  0.1008 (123)
          -0.1008 (125)  0.1185 (136) -0.1185 (143) -0.1185 (146)  0.1185 (148)
 CRD 68=   0.1915 (  4)  0.1539 (  6)  0.1910 (  7)  0.1535 (  8) -0.2697 ( 23)
          -0.2690 ( 26)  0.1248 ( 27)  0.1248 ( 28)  0.1245 ( 30)  0.1245 ( 32)
           0.1236 ( 34)  0.1233 ( 36)  0.1233 ( 37)  0.1236 ( 38) -0.1120 ( 39)
          -0.1120 ( 40) -0.1259 ( 41) -0.1259 ( 42) -0.1255 ( 44) -0.1118 ( 45)
          -0.1255 ( 47) -0.1118 ( 48) -0.1507 ( 61)  0.1026 ( 66)  0.1026 ( 70)
           0.1024 ( 74)  0.1024 ( 75) -0.1547 ( 90) -0.1543 ( 93)  0.1145 (120)
          -0.1145 (121) -0.1150 (123)  0.1150 (125)
 CRD 69=   0.1889 (  1) -0.1887 (  2)  0.1979 (  4)  0.1335 (  6) -0.1984 (  7)
          -0.1339 (  8) -0.1000 ( 17) -0.1000 ( 18)  0.1002 ( 19)  0.1002 ( 20)
          -0.2378 ( 23)  0.2385 ( 26)  0.1090 ( 27)  0.1090 ( 28) -0.1094 ( 30)
          -0.1094 ( 32)  0.1013 ( 33)  0.1136 ( 34) -0.1012 ( 35) -0.1139 ( 36)
          -0.1139 ( 37)  0.1136 ( 38) -0.1004 ( 39) -0.1004 ( 40) -0.1318 ( 41)
          -0.1318 ( 42)  0.1321 ( 44)  0.1007 ( 45)  0.1321 ( 47)  0.1007 ( 48)
           0.1363 ( 84) -0.1365 ( 85) -0.1362 ( 90)  0.1366 ( 93) -0.1557 (120)
           0.1557 (121) -0.1554 (123)  0.1554 (125)
 CRD 70=  -0.1871 (  3)  0.1871 (  5)  0.1872 (  9) -0.1872 ( 10)  0.2272 ( 17)
          -0.2272 ( 18) -0.2272 ( 19)  0.2272 ( 20) -0.1234 ( 34)  0.1234 ( 36)
          -0.1234 ( 37)  0.1234 ( 38)  0.1306 ( 96)  0.1306 ( 97)  0.1087 (136)
          -0.1688 (137) -0.1688 (138)  0.1087 (139)  0.1087 (140) -0.1688 (141)
          -0.1688 (142)  0.1087 (143)  0.1087 (144) -0.1688 (145)  0.1087 (146)
          -0.1688 (147)  0.1087 (148) -0.1688 (149)  0.1087 (150) -0.1688 (151)
 CRD 71=  -0.1489 ( 11)  0.1489 ( 13) -0.1491 ( 14)  0.1491 ( 15) -0.1964 ( 21)
           0.1964 ( 22) -0.1967 ( 24)  0.1967 ( 25)  0.1463 ( 27) -0.1463 ( 28)
           0.1465 ( 30) -0.1465 ( 32)  0.1120 ( 88) -0.1120 ( 89)  0.1121 ( 91)
          -0.1121 ( 92) -0.1058 (108) -0.1060 (116)  0.1031 (136)  0.1031 (139)
           0.1031 (140)  0.1031 (143)  0.1032 (144)  0.1032 (146)  0.1032 (148)
           0.1032 (150) -0.1588 (152) -0.1588 (153) -0.1588 (154) -0.1588 (155)
          -0.1590 (156) -0.1590 (157) -0.1590 (158) -0.1590 (159)  0.1450 (160)
           0.1450 (161)  0.1450 (163)  0.1450 (164)  0.1452 (166)  0.1452 (167)
           0.1452 (169)  0.1452 (170)
 CRD 72=  -0.1501 ( 11)  0.1501 ( 13)  0.1500 ( 14) -0.1500 ( 15) -0.1934 ( 21)
           0.1934 ( 22)  0.1932 ( 24) -0.1932 ( 25)  0.1432 ( 27) -0.1432 ( 28)
          -0.1431 ( 30)  0.1431 ( 32)  0.1096 ( 88) -0.1096 ( 89) -0.1094 ( 91)
           0.1094 ( 92) -0.1023 (108)  0.1021 (116)  0.1076 (136)  0.1076 (139)
           0.1076 (140)  0.1076 (143) -0.1075 (144) -0.1075 (146) -0.1075 (148)
          -0.1075 (150) -0.1585 (152) -0.1585 (153) -0.1585 (154) -0.1585 (155)
           0.1583 (156)  0.1583 (157)  0.1583 (158)  0.1583 (159)  0.1428 (160)
           0.1428 (161)  0.1428 (163)  0.1428 (164) -0.1426 (166) -0.1426 (167)
          -0.1426 (169) -0.1426 (170)
 CRD 73=  -0.2112 (  4)  0.1029 (  6)  0.2111 (  7) -0.1029 (  8)  0.1807 ( 12)
          -0.1806 ( 16)  0.1100 ( 17)  0.1100 ( 18) -0.1100 ( 19) -0.1100 ( 20)
          -0.1454 ( 23)  0.1453 ( 26)  0.1026 ( 27)  0.1026 ( 28) -0.1181 ( 29)
          -0.1026 ( 30)  0.1180 ( 31) -0.1026 ( 32) -0.1096 ( 52) -0.1096 ( 53)
           0.1096 ( 58)  0.1096 ( 59) -0.1616 ( 84)  0.1616 ( 85) -0.1472 ( 90)
           0.1472 ( 93)  0.1091 (120) -0.1091 (121)  0.1092 (123) -0.1092 (125)
          -0.1403 (137)  0.1403 (142)  0.1403 (145) -0.1403 (151)  0.1634 (161)
          -0.1634 (163) -0.1634 (166)  0.1634 (170)
 CRD 74=  -0.2190 (  4) -0.2191 (  7)  0.2032 ( 12)  0.2033 ( 16) -0.1200 ( 23)
          -0.1200 ( 26)  0.1034 ( 27)  0.1034 ( 28) -0.1389 ( 29)  0.1035 ( 30)
          -0.1389 ( 31)  0.1035 ( 32) -0.1099 ( 52) -0.1099 ( 53) -0.1099 ( 58)
          -0.1099 ( 59)  0.1428 ( 61) -0.1245 ( 84) -0.1246 ( 85)  0.1075 ( 86)
           0.1075 ( 87) -0.1509 ( 90) -0.1509 ( 93) -0.1098 (120)  0.1098 (121)
           0.1098 (123) -0.1098 (125) -0.1005 (137)  0.1005 (142) -0.1005 (145)
           0.1005 (151)  0.1745 (161) -0.1745 (163)  0.1746 (166) -0.1746 (170)
 CRD 75=  -0.1890 (  3)  0.1890 (  5) -0.1890 (  9)  0.1890 ( 10) -0.1225 ( 11)
           0.1225 ( 13)  0.1225 ( 14) -0.1225 ( 15) -0.1578 ( 27)  0.1578 ( 28)
           0.1578 ( 30) -0.1578 ( 32) -0.1221 ( 88)  0.1221 ( 89)  0.1221 ( 91)
          -0.1221 ( 92)  0.1018 (103) -0.1019 (107)  0.1806 (108) -0.1806 (116)
          -0.1226 (119)  0.1226 (126)  0.1271 (136)  0.1271 (139)  0.1271 (140)
           0.1271 (143) -0.1271 (144) -0.1271 (146) -0.1271 (148) -0.1271 (150)
           0.1047 (162)  0.1047 (165) -0.1047 (168) -0.1047 (171)
 CRD 76=  -0.1742 (  1) -0.1755 (  2) -0.1099 (  3) -0.1099 (  5)  0.1471 (  6)
           0.1455 (  8) -0.1094 (  9) -0.1094 ( 10) -0.1833 ( 12) -0.1820 ( 16)
           0.1125 ( 17)  0.1125 ( 18)  0.1118 ( 19)  0.1118 ( 20)  0.1021 ( 29)
           0.1009 ( 31)  0.1832 ( 80)  0.1824 ( 81) -0.1738 ( 84) -0.1727 ( 85)
          -0.1036 (111)  0.1036 (112)  0.1029 (113) -0.1029 (114)  0.1473 (136)
          -0.1920 (137)  0.1920 (142) -0.1473 (143) -0.1909 (145)  0.1469 (146)
          -0.1469 (148)  0.1909 (151)
 CRD 77=  -0.1832 (  1)  0.1820 (  2) -0.2212 (  6)  0.2222 (  8)  0.1750 ( 12)
          -0.1763 ( 16) -0.1716 ( 29)  0.1723 ( 31) -0.1135 ( 80)  0.1148 ( 81)
           0.1506 ( 84) -0.1518 ( 85)  0.1112 ( 86) -0.1113 ( 87) -0.1184 ( 90)
           0.1190 ( 93)  0.1627 (137) -0.1627 (142) -0.1641 (145)  0.1641 (151)
           0.1456 (161) -0.1456 (163) -0.1462 (166)  0.1462 (170)
 CRD 78=  -0.2130 (  4)  0.1783 (  6) -0.2117 (  7)  0.1780 (  8) -0.2006 ( 23)
          -0.1994 ( 26)  0.1429 ( 29)  0.1425 ( 31)  0.1631 ( 82)  0.1619 ( 83)
          -0.1546 ( 86) -0.1538 ( 87) -0.1261 (136)  0.1261 (143) -0.1250 (146)
           0.1250 (148)  0.1827 (153) -0.1827 (154) -0.1817 (156)  0.1817 (159)
          -0.1097 (161)  0.1097 (163) -0.1094 (166)  0.1094 (170)
 CRD 79=  -0.1215 (  1)  0.1215 (  2) -0.2001 (  4)  0.2015 (  7) -0.1155 ( 11)
           0.1160 ( 12) -0.1155 ( 13)  0.1162 ( 14)  0.1162 ( 15) -0.1161 ( 16)
          -0.1940 ( 23)  0.1953 ( 26) -0.1319 ( 80)  0.1323 ( 81)  0.1907 ( 82)
          -0.1918 ( 83) -0.1228 ( 86)  0.1237 ( 87) -0.1786 (136)  0.1786 (143)
           0.1794 (146) -0.1794 (148)  0.1688 (153) -0.1688 (154)  0.1700 (156)
          -0.1700 (159)
 CRD 80=  -0.1445 ( 11)  0.1445 ( 13) -0.1445 ( 14)  0.1445 ( 15) -0.1527 ( 17)
           0.1527 ( 18)  0.1527 ( 19) -0.1527 ( 20) -0.1729 ( 27)  0.1729 ( 28)
          -0.1728 ( 30)  0.1728 ( 32) -0.1324 ( 88)  0.1324 ( 89) -0.1324 ( 91)
           0.1324 ( 92) -0.1157 ( 94) -0.1157 ( 95) -0.1157 ( 98) -0.1157 ( 99)
           0.1016 (100)  0.1322 (103)  0.1016 (104)  0.1322 (107)  0.1775 (108)
           0.1775 (116) -0.1336 (119) -0.1336 (126)  0.1560 (162)  0.1560 (165)
           0.1560 (168)  0.1560 (171)
 CRD 81=  -0.1497 (  1) -0.1521 (  2)  0.1710 (  4) -0.1687 (  6)  0.1700 (  7)
          -0.1685 (  8)  0.1591 ( 12)  0.1592 ( 16) -0.1035 ( 23) -0.1044 ( 26)
           0.1140 ( 50)  0.1140 ( 54)  0.1131 ( 55)  0.1131 ( 56) -0.1212 ( 62)
          -0.1212 ( 63) -0.1202 ( 64) -0.1202 ( 65) -0.1028 ( 84) -0.1012 ( 85)
          -0.1042 (118)  0.1042 (122)  0.1032 (124) -0.1032 (127)  0.1481 (138)
           0.1913 (139) -0.1913 (140) -0.1481 (141)  0.1899 (144)  0.1460 (147)
          -0.1460 (149) -0.1899 (150)
 CRD 82=   0.1110 (  6) -0.1094 (  8) -0.1232 ( 12)  0.1216 ( 16)  0.1598 ( 23)
          -0.1589 ( 26) -0.1762 ( 29)  0.1767 ( 31)  0.1076 ( 52)  0.1076 ( 53)
          -0.1074 ( 58) -0.1074 ( 59) -0.1125 ( 76) -0.1125 ( 77)  0.1123 ( 78)
           0.1123 ( 79)  0.1223 ( 82) -0.1234 ( 83) -0.1024 ( 90)  0.1030 ( 93)
           0.1084 (109) -0.1084 (110) -0.1088 (115)  0.1088 (117) -0.1039 (132)
           0.1039 (133)  0.1040 (134) -0.1040 (135)  0.1004 (138) -0.1004 (141)
          -0.1020 (147)  0.1020 (149)  0.1754 (152) -0.1754 (155)  0.1751 (157)
          -0.1751 (158) -0.1633 (160)  0.1633 (164)  0.1640 (167) -0.1640 (169)
 CRD 83=   0.1296 (  6)  0.1395 (  8) -0.1312 ( 12) -0.1402 ( 16)  0.1600 ( 23)
           0.1663 ( 26) -0.1745 ( 29) -0.1732 ( 31)  0.1090 ( 52)  0.1090 ( 53)
           0.1107 ( 58)  0.1107 ( 59) -0.1129 ( 76) -0.1129 ( 77) -0.1151 ( 78)
          -0.1151 ( 79)  0.1208 ( 82)  0.1164 ( 83) -0.1012 ( 90)  0.1076 (109)
          -0.1076 (110)  0.1063 (115) -0.1063 (117) -0.1052 (132)  0.1052 (133)
          -0.1056 (134)  0.1056 (135)  0.1765 (152) -0.1765 (155) -0.1803 (157)
           0.1803 (158) -0.1637 (160)  0.1637 (164) -0.1613 (167)  0.1613 (169)
 CRD 84=   0.1816 (  1) -0.1765 (  2)  0.1944 (  4) -0.1799 (  6) -0.1911 (  7)
           0.1736 (  8)  0.1644 ( 12) -0.1580 ( 16) -0.1170 ( 23)  0.1086 ( 26)
           0.1105 ( 50)  0.1105 ( 54) -0.1112 ( 55) -0.1112 ( 56) -0.1213 ( 62)
          -0.1213 ( 63)  0.1217 ( 64)  0.1217 ( 65) -0.1016 ( 66) -0.1016 ( 70)
           0.1367 (138)  0.1851 (139) -0.1851 (140) -0.1367 (141) -0.1860 (144)
          -0.1424 (147)  0.1424 (149)  0.1860 (150)
 CRD 85=   0.1103 (  3) -0.1103 (  5)  0.1102 (  9) -0.1102 ( 10) -0.1454 ( 27)
           0.1454 ( 28)  0.1454 ( 30) -0.1454 ( 32) -0.1101 ( 88)  0.1101 ( 89)
           0.1100 ( 91) -0.1100 ( 92)  0.1567 ( 96) -0.1567 ( 97)  0.1651 (100)
          -0.1651 (104)  0.1652 (120)  0.1652 (121) -0.1652 (123) -0.1652 (125)
           0.1807 (162)  0.1807 (165) -0.1807 (168) -0.1807 (171)
 CRD 86=   0.1041 (  1) -0.1046 (  2) -0.1015 (  6)  0.1011 (  8)  0.1067 ( 29)
          -0.1063 ( 31)  0.1128 ( 49) -0.1110 ( 51)  0.1105 ( 57) -0.1123 ( 60)
          -0.1044 ( 67)  0.1040 ( 71) -0.1519 ( 80)  0.1512 ( 81)  0.1500 ( 86)
          -0.1494 ( 87)  0.1803 (138) -0.1803 (141) -0.1795 (147)  0.1795 (149)
           0.1867 (160)  0.1011 (162) -0.1867 (164) -0.1011 (165) -0.1860 (167)
          -0.1007 (168)  0.1860 (169)  0.1007 (171)
 CRD 87=  -0.1029 (  1) -0.1024 (  2)  0.1004 ( 12)  0.1009 ( 16)  0.1039 ( 29)
           0.1044 ( 31)  0.1095 ( 33)  0.1091 ( 35)  0.1089 ( 49) -0.1130 ( 51)
          -0.1135 ( 57)  0.1094 ( 60) -0.1033 ( 67) -0.1038 ( 71) -0.1466 ( 80)
          -0.1472 ( 81) -0.1029 ( 84) -0.1034 ( 85)  0.1508 ( 86)  0.1514 ( 87)
           0.1776 (138) -0.1776 (141)  0.1783 (147) -0.1783 (149)  0.1845 (160)
           0.1005 (162) -0.1845 (164) -0.1005 (165)  0.1853 (167)  0.1010 (168)
          -0.1853 (169) -0.1010 (171)
 CRD 88=  -0.1220 (  3)  0.1220 (  5)  0.1220 (  9) -0.1220 ( 10)  0.1195 ( 21)
          -0.1195 ( 22)  0.1195 ( 24) -0.1195 ( 25)  0.1123 ( 27) -0.1123 ( 28)
           0.1123 ( 30) -0.1123 ( 32) -0.1309 ( 94) -0.1309 ( 95) -0.1309 ( 98)
          -0.1309 ( 99) -0.1407 (100)  0.1276 (103) -0.1407 (104)  0.1276 (107)
           0.1352 (109)  0.1352 (110)  0.1280 (111)  0.1280 (112)  0.1280 (113)
           0.1280 (114)  0.1352 (115)  0.1352 (117) -0.1134 (118) -0.1315 (119)
          -0.1134 (122) -0.1134 (124) -0.1316 (126) -0.1134 (127) -0.1161 (132)
          -0.1161 (133) -0.1161 (134) -0.1161 (135) -0.1704 (162) -0.1704 (165)
          -0.1704 (168) -0.1704 (171)
 CRD 89=   0.1406 (  6) -0.1402 (  8)  0.1447 ( 12) -0.1443 ( 16) -0.1499 ( 43)
           0.1495 ( 46) -0.1239 ( 49) -0.1269 ( 51)  0.1265 ( 57)  0.1235 ( 60)
           0.1246 ( 80) -0.1243 ( 81)  0.1501 ( 82) -0.1497 ( 83)  0.1272 ( 86)
          -0.1269 ( 87) -0.1120 (138)  0.1748 (139) -0.1748 (140)  0.1120 (141)
          -0.1744 (144)  0.1117 (147) -0.1117 (149)  0.1744 (150)  0.1739 (152)
          -0.1739 (155)  0.1734 (157) -0.1734 (158)  0.1203 (160) -0.1203 (164)
          -0.1200 (167)  0.1200 (169)
 CRD 90=   0.1407 (  6)  0.1411 (  8)  0.1422 ( 12)  0.1426 ( 16) -0.1486 ( 43)
          -0.1489 ( 46) -0.1256 ( 49) -0.1243 ( 51) -0.1246 ( 57) -0.1259 ( 60)
           0.1263 ( 80)  0.1267 ( 81)  0.1482 ( 82)  0.1486 ( 83)  0.1242 ( 86)
           0.1245 ( 87) -0.1159 (138)  0.1747 (139) -0.1747 (140)  0.1159 (141)
           0.1752 (144) -0.1162 (147)  0.1162 (149) -0.1752 (150)  0.1709 (152)
          -0.1709 (155) -0.1713 (157)  0.1713 (158)  0.1172 (160) -0.1172 (164)
           0.1175 (167) -0.1175 (169)
 CRD 91=  -0.1456 ( 17)  0.1456 ( 18) -0.1455 ( 19)  0.1455 ( 20)  0.1228 ( 34)
           0.1227 ( 36) -0.1227 ( 37) -0.1228 ( 38)  0.1741 ( 94) -0.1742 ( 95)
           0.1129 ( 96) -0.1129 ( 97)  0.1741 ( 98) -0.1742 ( 99)  0.1109 (109)
           0.1109 (110) -0.1108 (115) -0.1108 (117) -0.1337 (119)  0.2403 (120)
           0.2403 (121) -0.2403 (123) -0.2403 (125)  0.1337 (126) -0.1075 (132)
          -0.1075 (133)  0.1074 (134)  0.1074 (135) -0.1093 (162) -0.1093 (165)
           0.1093 (168)  0.1093 (171)
 CRD 92=   0.1210 ( 11) -0.1210 ( 13)  0.1220 ( 14) -0.1220 ( 15) -0.1771 (101)
          -0.1771 (102) -0.1785 (105) -0.1785 (106) -0.1332 (109) -0.1332 (110)
           0.1314 (111)  0.1314 (112)  0.1326 (113)  0.1326 (114) -0.1342 (115)
          -0.1342 (117) -0.1457 (118) -0.1457 (122) -0.1469 (124) -0.1469 (127)
           0.1773 (128)  0.1773 (129)  0.1787 (130)  0.1787 (131)  0.1474 (132)
           0.1474 (133)  0.1485 (134)  0.1485 (135)
 CRD 93=  -0.1163 ( 11)  0.1163 ( 13)  0.1153 ( 14) -0.1153 ( 15) -0.1082 ( 94)
           0.1088 ( 95) -0.1082 ( 98)  0.1088 ( 99)  0.1707 (101)  0.1707 (102)
          -0.1692 (105) -0.1692 (106)  0.1258 (109)  0.1258 (110) -0.1420 (111)
          -0.1420 (112)  0.1409 (113)  0.1409 (114) -0.1247 (115) -0.1247 (117)
           0.1516 (118)  0.1516 (122) -0.1504 (124) -0.1504 (127) -0.1724 (128)
          -0.1724 (129)  0.1709 (130)  0.1709 (131) -0.1398 (132) -0.1398 (133)
           0.1385 (134)  0.1385 (135)

 THE DETERMINANT OF THE G MATRIX IS 10**(   -37)


                     --------------------
                     INTERNAL COORDINATES
                     --------------------

                 - - ATOMS - -         COORDINATE      COORDINATE
 NO.   TYPE    I  J  K  L  M  N        (BOHR,RAD)       (ANG,DEG)
 ----------------------------------------------------------------
   1 STRETCH   1  7                     2.7074750       1.4327342
   2 STRETCH   1  6                     2.7074007       1.4326949
   3 STRETCH   2 13                     2.0647461       1.0926167
   4 STRETCH   2  6                     2.9136186       1.5418207
   5 STRETCH   2 12                     2.0647461       1.0926167
   6 STRETCH   2  4                     2.9246576       1.5476623
   7 STRETCH   3  7                     2.9136136       1.5418180
   8 STRETCH   3  5                     2.9246492       1.5476578
   9 STRETCH   3 14                     2.0647974       1.0926438
  10 STRETCH   3 15                     2.0647974       1.0926438
  11 STRETCH   4 16                     2.0689084       1.0948192
  12 STRETCH   4  8                     2.9215048       1.5459939
  13 STRETCH   4 17                     2.0689084       1.0948192
  14 STRETCH   5 19                     2.0688641       1.0947958
  15 STRETCH   5 18                     2.0688641       1.0947958
  16 STRETCH   5  9                     2.9217260       1.5461109
  17 STRETCH   6 21                     2.0710616       1.0959587
  18 STRETCH   6 20                     2.0710616       1.0959587
  19 STRETCH   7 23                     2.0710035       1.0959279
  20 STRETCH   7 22                     2.0710035       1.0959279
  21 STRETCH   8 25                     2.0656303       1.0930846
  22 STRETCH   8 24                     2.0656303       1.0930846
  23 STRETCH   8 10                     2.9150814       1.5425948
  24 STRETCH   9 27                     2.0656133       1.0930756
  25 STRETCH   9 26                     2.0656133       1.0930756
  26 STRETCH   9 11                     2.9150541       1.5425803
  27 STRETCH  10 30                     2.0642070       1.0923314
  28 STRETCH  10 29                     2.0642070       1.0923314
  29 STRETCH  10 28                     2.0617370       1.0910243
  30 STRETCH  11 32                     2.0642264       1.0923417
  31 STRETCH  11 31                     2.0616919       1.0910005
  32 STRETCH  11 33                     2.0642264       1.0923417
  33 BEND      1  7  3                  1.9264352     110.3766046
  34 BEND      1  6 21                  1.9204609     110.0343071
  35 BEND      1  6  2                  1.9264755     110.3789138
  36 BEND      1  7 23                  1.9203836     110.0298757
  37 BEND      1  7 22                  1.9203836     110.0298757
  38 BEND      1  6 20                  1.9204609     110.0343071
  39 BEND      2  4 16                  1.8967458     108.6755269
  40 BEND      2  4 17                  1.8967458     108.6755269
  41 BEND      2  6 21                  1.9001160     108.8686251
  42 BEND      2  6 20                  1.9001160     108.8686251
  43 BEND      2  4  8                  1.9976015     114.4541333
  44 BEND      3  7 22                  1.9001768     108.8721102
  45 BEND      3  5 19                  1.8968574     108.6819230
  46 BEND      3  5  9                  1.9975884     114.4533827
  47 BEND      3  7 23                  1.9001768     108.8721102
  48 BEND      3  5 18                  1.8968574     108.6819230
  49 BEND      4  2  6                  1.9364397     110.9498232
  50 BEND      4  2 12                  1.9192654     109.9658060
  51 BEND      4  8 10                  1.9596255     112.2782721
  52 BEND      4  8 24                  1.9093128     109.3955665
  53 BEND      4  8 25                  1.9093128     109.3955665
  54 BEND      4  2 13                  1.9192654     109.9658060
  55 BEND      5  3 14                  1.9193012     109.9678564
  56 BEND      5  3 15                  1.9193012     109.9678564
  57 BEND      5  9 11                  1.9595715     112.2751774
  58 BEND      5  9 26                  1.9093258     109.3963103
  59 BEND      5  9 27                  1.9093258     109.3963103
  60 BEND      5  3  7                  1.9363914     110.9470566
  61 BEND      6  1  7                  1.9888186     113.9509126
  62 BEND      6  2 12                  1.9020351     108.9785836
  63 BEND      6  2 13                  1.9020351     108.9785836
  64 BEND      7  3 15                  1.9020572     108.9798503
  65 BEND      7  3 14                  1.9020572     108.9798503
  66 BEND      8  4 16                  1.8957832     108.6203765
  67 BEND      8 10 28                  1.9226183     110.1579144
  68 BEND      8 10 29                  1.9314724     110.6652146
  69 BEND      8 10 30                  1.9314724     110.6652146
  70 BEND      8  4 17                  1.8957832     108.6203765
  71 BEND      9 11 31                  1.9225775     110.1555750
  72 BEND      9 11 32                  1.9315357     110.6688462
  73 BEND      9 11 33                  1.9315357     110.6688462
  74 BEND      9  5 18                  1.8956514     108.6128226
  75 BEND      9  5 19                  1.8956514     108.6128226
  76 BEND     10  8 24                  1.9009486     108.9163317
  77 BEND     10  8 25                  1.9009486     108.9163317
  78 BEND     11  9 26                  1.9009528     108.9165707
  79 BEND     11  9 27                  1.9009528     108.9165707
  80 BEND     12  2 13                  1.8838802     107.9383821
  81 BEND     14  3 15                  1.8838119     107.9344709
  82 BEND     16  4 17                  1.8777402     107.5865904
  83 BEND     18  5 19                  1.8777987     107.5899409
  84 BEND     20  6 21                  1.8957091     108.6161300
  85 BEND     22  7 23                  1.8957872     108.6206039
  86 BEND     24  8 25                  1.8820822     107.8353643
  87 BEND     26  9 27                  1.8821048     107.8366593
  88 BEND     28 10 29                  1.8913043     108.3637540
  89 BEND     28 10 30                  1.8913043     108.3637540
  90 BEND     29 10 30                  1.8945984     108.5524928
  91 BEND     31 11 33                  1.8912726     108.3619357
  92 BEND     31 11 32                  1.8912726     108.3619357
  93 BEND     32 11 33                  1.8945723     108.5509973
  94 TORSION   1  7  3 14              -1.0258864     -58.7789596
  95 TORSION   1  6  2 13               1.0259148      58.7805878
  96 TORSION   1  7  3  5               3.1415927     180.0000000
  97 TORSION   1  6  2  4               3.1415927     180.0000000
  98 TORSION   1  7  3 15               1.0258864      58.7789596
  99 TORSION   1  6  2 12              -1.0259148     -58.7805878
 100 TORSION   2  4  8 10               3.1415927     180.0000000
 101 TORSION   2  4  8 24              -1.0290243     -58.9587496
 102 TORSION   2  4  8 25               1.0290243      58.9587496
 103 TORSION   2  6  1  7               3.1415927     180.0000000
 104 TORSION   3  5  9 11               3.1415927     180.0000000
 105 TORSION   3  5  9 26              -1.0290456     -58.9599688
 106 TORSION   3  5  9 27               1.0290456      58.9599688
 107 TORSION   3  7  1  6               3.1415927     180.0000000
 108 TORSION   4  8 10 28               3.1415927     180.0000000
 109 TORSION   4  8 10 29              -1.0504935     -60.1888441
 110 TORSION   4  8 10 30               1.0504935      60.1888441
 111 TORSION   4  2  6 20               1.0319238      59.1248796
 112 TORSION   4  2  6 21              -1.0319238     -59.1248796
 113 TORSION   5  3  7 22              -1.0320055     -59.1295599
 114 TORSION   5  3  7 23               1.0320055      59.1295599
 115 TORSION   5  9 11 33              -1.0505188     -60.1902963
 116 TORSION   5  9 11 31               3.1415927     180.0000000
 117 TORSION   5  9 11 32               1.0505188      60.1902963
 118 TORSION   6  2  4 16              -1.0192927     -58.4011682
 119 TORSION   6  2  4  8               3.1415927     180.0000000
 120 TORSION   6  1  7 22               1.0441091      59.8230462
 121 TORSION   6  1  7 23              -1.0441091     -59.8230462
 122 TORSION   6  2  4 17               1.0192927      58.4011682
 123 TORSION   7  1  6 20              -1.0441094     -59.8230614
 124 TORSION   7  3  5 18               1.0193888      58.4066773
 125 TORSION   7  1  6 21               1.0441094      59.8230614
 126 TORSION   7  3  5  9               3.1415927     180.0000000
 127 TORSION   7  3  5 19              -1.0193888     -58.4066773
 128 TORSION   8  4  2 12               1.0360829      59.3631761
 129 TORSION   8  4  2 13              -1.0360829     -59.3631761
 130 TORSION   9  5  3 15              -1.0360629     -59.3620321
 131 TORSION   9  5  3 14               1.0360629      59.3620321
 132 TORSION  10  8  4 17              -1.0187650     -58.3709321
 133 TORSION  10  8  4 16               1.0187650      58.3709321
 134 TORSION  11  9  5 18              -1.0187276     -58.3687918
 135 TORSION  11  9  5 19               1.0187276      58.3687918
 136 TORSION  12  2  4 16              -3.1248024    -179.0379921
 137 TORSION  12  2  6 20              -3.1355836    -179.6557081
 138 TORSION  12  2  6 21               1.0837540      62.0945326
 139 TORSION  12  2  4 17              -1.0862171     -62.2356557
 140 TORSION  13  2  4 16               1.0862171      62.2356557
 141 TORSION  13  2  6 20              -1.0837540     -62.0945326
 142 TORSION  13  2  6 21               3.1355836     179.6557081
 143 TORSION  13  2  4 17               3.1248024     179.0379921
 144 TORSION  14  3  5 18              -1.0861409     -62.2312906
 145 TORSION  14  3  7 23              -3.1354735    -179.6493996
 146 TORSION  14  3  5 19              -3.1249186    -179.0446452
 147 TORSION  14  3  7 22               1.0837008      62.0914805
 148 TORSION  15  3  5 18               3.1249186     179.0446452
 149 TORSION  15  3  7 23              -1.0837008     -62.0914805
 150 TORSION  15  3  5 19               1.0861409      62.2312906
 151 TORSION  15  3  7 22               3.1354735     179.6493996
 152 TORSION  16  4  8 25              -1.0938034     -62.6703183
 153 TORSION  16  4  8 24               3.1313333     179.4121825
 154 TORSION  17  4  8 25              -3.1313333    -179.4121825
 155 TORSION  17  4  8 24               1.0938034      62.6703183
 156 TORSION  18  5  9 27              -3.1312747    -179.4088230
 157 TORSION  18  5  9 26               1.0938195      62.6712394
 158 TORSION  19  5  9 27              -1.0938195     -62.6712394
 159 TORSION  19  5  9 26               3.1312747     179.4088230
 160 TORSION  24  8 10 30              -1.0668765     -61.1275185
 161 TORSION  24  8 10 29               3.1153218     178.4947933
 162 TORSION  24  8 10 28               1.0242227      58.6836374
 163 TORSION  25  8 10 30              -3.1153218    -178.4947933
 164 TORSION  25  8 10 29               1.0668765      61.1275185
 165 TORSION  25  8 10 28              -1.0242227     -58.6836374
 166 TORSION  26  9 11 33               3.1153124     178.4942512
 167 TORSION  26  9 11 32              -1.0668352     -61.1251561
 168 TORSION  26  9 11 31               1.0242386      58.6845476
 169 TORSION  27  9 11 33               1.0668352      61.1251561
 170 TORSION  27  9 11 32              -3.1153124    -178.4942512
 171 TORSION  27  9 11 31              -1.0242386     -58.6845476

     ------------------------------------------
     THE POINT GROUP IS C1 , NAXIS= 1, ORDER= 1
     ------------------------------------------

     DIMENSIONS OF THE SYMMETRY SUBSPACES ARE
 A   =  341

 ..... DONE SETTING UP THE RUN .....
 STEP CPU TIME =     0.04 TOTAL CPU TIME =        0.0 (    0.0 MIN)
 TOTAL WALL CLOCK TIME=        0.0 SECONDS, CPU UTILIZATION IS 100.00%


          -----------------------------
          STATIONARY POINT LOCATION RUN
          -----------------------------

 OBTAINING INITIAL HESSIAN, HESS=GUESS   
 DIAGONAL GUESS HESSIAN IN INTERNAL COORDS IS
     1  0.3582     2  0.3582     3  0.3446     4  0.3588     5  0.3446
     6  0.3548     7  0.3588     8  0.3548     9  0.3446    10  0.3446
    11  0.3431    12  0.3559    13  0.3431    14  0.3432    15  0.3432
    16  0.3558    17  0.3424    18  0.3424    19  0.3424    20  0.3424
    21  0.3443    22  0.3443    23  0.3583    24  0.3443    25  0.3443
    26  0.3583    27  0.3448    28  0.3448    29  0.3457    30  0.3448
    31  0.3457    32  0.3448    33  0.2419    34  0.2189    35  0.2419
    36  0.2189    37  0.2189    38  0.2189    39  0.2227    40  0.2227
    41  0.2230    42  0.2230    43  0.2461    44  0.2230    45  0.2227
    46  0.2461    47  0.2230    48  0.2227    49  0.2464    50  0.2229
    51  0.2465    52  0.2229    53  0.2229    54  0.2229    55  0.2229
    56  0.2229    57  0.2465    58  0.2229    59  0.2229    60  0.2464
    61  0.2372    62  0.2232    63  0.2232    64  0.2232    65  0.2232
    66  0.2228    67  0.2233    68  0.2232    69  0.2232    70  0.2228
    71  0.2233    72  0.2232    73  0.2232    74  0.2228    75  0.2228
    76  0.2231    77  0.2231    78  0.2231    79  0.2231    80  0.2031
    81  0.2031    82  0.2029    83  0.2029    84  0.2028    85  0.2028
    86  0.2031    87  0.2031    88  0.2032    89  0.2032    90  0.2032
    91  0.2032    92  0.2032    93  0.2032    94  0.2500    95  0.2500
    96  0.2500    97  0.2500    98  0.2500    99  0.2500   100  0.2500
   101  0.2500   102  0.2500   103  0.2500   104  0.2500   105  0.2500
   106  0.2500   107  0.2500   108  0.2500   109  0.2500   110  0.2500
   111  0.2500   112  0.2500   113  0.2500   114  0.2500   115  0.2500
   116  0.2500   117  0.2500   118  0.2500   119  0.2500   120  0.2500
   121  0.2500   122  0.2500   123  0.2500   124  0.2500   125  0.2500
   126  0.2500   127  0.2500   128  0.2500   129  0.2500   130  0.2500
   131  0.2500   132  0.2500   133  0.2500   134  0.2500   135  0.2500
   136  0.2500   137  0.2500   138  0.2500   139  0.2500   140  0.2500
   141  0.2500   142  0.2500   143  0.2500   144  0.2500   145  0.2500
   146  0.2500   147  0.2500   148  0.2500   149  0.2500   150  0.2500
   151  0.2500   152  0.2500   153  0.2500   154  0.2500   155  0.2500
   156  0.2500   157  0.2500   158  0.2500   159  0.2500   160  0.2500
   161  0.2500   162  0.2500   163  0.2500   164  0.2500   165  0.2500
   166  0.2500   167  0.2500   168  0.2500   169  0.2500   170  0.2500
   171  0.2500
 TRANSFORMING HESSIAN TO SYMMETRY COORDINATES

          PARAMETERS CONTROLLING GEOMETRY SEARCH ARE
          METHOD =QA                  UPHESS =BFGS    
          NNEG   =         0          NFRZ   =         3
          NSTEP  =        50          IFOLOW =         1
          HESS   =GUESS               RESTAR =         F
          IHREP  =         0          HSSEND =         F
          NPRT   =         0          NPUN   =         0
          OPTTOL = 5.000E-04          RMIN   = 1.500E-03
          RMAX   = 1.000E-01          RLIM   = 7.000E-02
          DXMAX  = 3.000E-01          PURIFY =         F
          MOVIE  =         F          TRUPD  =         T
          TRMAX  = 5.000E-01          TRMIN  = 5.000E-02
          ITBMAT =         5          STPT   =         F
          STSTEP = 1.000E-02          PROJCT=          F
          FROZEN COORD(S)=   1   2   3


      ***** EQUILIBRIUM GEOMETRY LOCATED *****
            (SUBJECT TO   3 CONSTRAINT(S))
 COORDINATES OF ALL ATOMS ARE (ANGS)
   ATOM   CHARGE       X              Y              Z
 ------------------------------------------------------------
 O           8.0  -0.2520474011  -0.3564670543  -0.0000010896
 C           6.0   1.6353780411  -1.8368409575  -0.0000654415
 C           6.0  -2.2769153782   0.9295401282   0.0000659303
 C           6.0   3.1633955102  -1.9079609833  -0.0000364275
 C           6.0  -2.8532970340   2.3464690818   0.0000368269
 C           6.0   1.1509465979  -0.3989181837  -0.0000538967
 C           6.0  -0.7597526640   0.9521184037   0.0000483269
 C           6.0   3.7192132361  -3.3319393177  -0.0000127163
 C           6.0  -4.3811070706   2.3958540496   0.0000151677
 C           6.0   5.2474173160  -3.3638665790   0.0000594685
 C           6.0  -4.9205935908   3.8260236893  -0.0000570942
 H           1.0   1.2373448265  -2.3454327356   0.8755328708
 H           1.0   1.2373155316  -2.3453875896  -0.8756793114
 H           1.0  -2.6237305864   0.3847320675  -0.8755295990
 H           1.0  -2.6236907742   0.3847262477   0.8756782423
 H           1.0   3.5453505302  -1.3791932777  -0.8725177431
 H           1.0   3.5452962694  -1.3791921041   0.8724690724
 H           1.0  -2.4820586942   2.8827717238  -0.8724692414
 H           1.0  -2.4820681650   2.8828325767   0.8725116998
 H           1.0   1.5300330831   0.1231090533  -0.8783303166
 H           1.0   1.5300583272   0.1230809086   0.8782295789
 H           1.0  -0.3939863331   1.4835885088  -0.8782183635
 H           1.0  -0.3939529871   1.4835501666   0.8783315953
 H           1.0   3.3460884720  -3.8649323490   0.8727082922
 H           1.0   3.3461534505  -3.8649688888  -0.8727355116
 H           1.0  -4.7592446247   1.8664059815  -0.8727040396
 H           1.0  -4.7593030771   1.8664586014   0.8727387768
 H           1.0   5.6216088468  -4.3837705758   0.0000513750
 H           1.0   5.6478048352  -2.8625533486  -0.8780567433
 H           1.0   5.6477020305  -2.8625436111   0.8782193079
 H           1.0  -6.0068965368   3.8388601894  -0.0000677262
 H           1.0  -4.5813652733   4.3705277224  -0.8782021622
 H           1.0  -4.5813965970   4.3706051719   0.8780555233


                     --------------------
                     INTERNAL COORDINATES
                     --------------------

                 - - ATOMS - -         COORDINATE      COORDINATE
 NO.   TYPE    I  J  K  L  M  N        (BOHR,RAD)       (ANG,DEG)
 ----------------------------------------------------------------
   1 STRETCH   1  7                     2.6524649       1.4036241
   2 STRETCH   1  6                     2.6524876       1.4036361
   3 STRETCH   2 13                     2.0560471       1.0880134
   4 STRETCH   2  6                     2.8673413       1.5173318
   5 STRETCH   2 12                     2.0560431       1.0880112
   6 STRETCH   2  4                     2.8906603       1.5296717
   7 STRETCH   3  7                     2.8673393       1.5173307
   8 STRETCH   3  5                     2.8906653       1.5296743
   9 STRETCH   3 14                     2.0560394       1.0880093
  10 STRETCH   3 15                     2.0560464       1.0880130
  11 STRETCH   4 16                     2.0585948       1.0893615
  12 STRETCH   4  8                     2.8886535       1.5286097
  13 STRETCH   4 17                     2.0585965       1.0893625
  14 STRETCH   5 19                     2.0585953       1.0893618
  15 STRETCH   5 18                     2.0585920       1.0893600
  16 STRETCH   5  9                     2.8886502       1.5286080
  17 STRETCH   6 21                     2.0593597       1.0897663
  18 STRETCH   6 20                     2.0593579       1.0897653
  19 STRETCH   7 23                     2.0593771       1.0897755
  20 STRETCH   7 22                     2.0593660       1.0897696
  21 STRETCH   8 25                     2.0570596       1.0885491
  22 STRETCH   8 24                     2.0570651       1.0885521
  23 STRETCH   8 10                     2.8885171       1.5285376
  24 STRETCH   9 27                     2.0570588       1.0885487
  25 STRETCH   9 26                     2.0570621       1.0885504
  26 STRETCH   9 11                     2.8885195       1.5285388
  27 STRETCH  10 30                     2.0551300       1.0875281
  28 STRETCH  10 29                     2.0551265       1.0875262
  29 STRETCH  10 28                     2.0529622       1.0863809
  30 STRETCH  11 32                     2.0551144       1.0875198
  31 STRETCH  11 31                     2.0529582       1.0863788
  32 STRETCH  11 33                     2.0551197       1.0875226
  33 BEND      1  7  3                  1.9260173     110.3526601
  34 BEND      1  6 21                  1.9104996     109.4635614
  35 BEND      1  6  2                  1.9259988     110.3516013
  36 BEND      1  7 23                  1.9105434     109.4660752
  37 BEND      1  7 22                  1.9105317     109.4654014
  38 BEND      1  6 20                  1.9105388     109.4658103
  39 BEND      2  4 16                  1.9046230     109.1268570
  40 BEND      2  4 17                  1.9046021     109.1256625
  41 BEND      2  6 21                  1.9207684     110.0519237
  42 BEND      2  6 20                  1.9207896     110.0531385
  43 BEND      2  4  8                  1.9894469     113.9869136
  44 BEND      3  7 22                  1.9207620     110.0515537
  45 BEND      3  5 19                  1.9046168     109.1265060
  46 BEND      3  5  9                  1.9894486     113.9870084
  47 BEND      3  7 23                  1.9207721     110.0521350
  48 BEND      3  5 18                  1.9045914     109.1250495
  49 BEND      4  2  6                  1.9422609     111.2833523
  50 BEND      4  2 12                  1.9216410     110.1019217
  51 BEND      4  8 10                  1.9638255     112.5189129
  52 BEND      4  8 24                  1.9086864     109.3596764
  53 BEND      4  8 25                  1.9087172     109.3614375
  54 BEND      4  2 13                  1.9217035     110.1055020
  55 BEND      5  3 14                  1.9216575     110.1028648
[...]
 896  32  -8.530792   6.733986  -3.696892  -0.000032   0.025941  -0.001242
 897   9  -8.452395   5.985990   3.600478   0.000038   0.025941   0.001453
 898  11  -8.626038   6.451077   3.643861   0.000009   0.025941   0.000337
 899  33  -8.530893   6.734301   3.696751  -0.000026   0.025941  -0.001007
 900  11 -11.971538   5.060086   1.690659   0.000099   0.051459   0.001924
 901   9 -11.692395   4.401850   1.745320   0.000116   0.051459   0.002254
 902  11  -8.952242   6.199128   3.672698   0.000173   0.085316   0.002025
 903   9  -8.604308   5.566839   3.672414   0.000171   0.085316   0.002008
 904  11  -8.856264   6.234979  -3.672494   0.000144   0.085277   0.001686
 905   9  -8.699865   5.530439  -3.672781   0.000133   0.085277   0.001562
 906  11 -11.944439   5.070142  -1.745472   0.000140   0.051490   0.002711
 907   9 -11.719313   4.391530  -1.690778   0.000129   0.051490   0.002500
 908   9  -7.312133   5.928146  -3.459970   0.000042   0.167741   0.000252
 909  18  -6.569407   6.048144  -3.492440  -0.000168   0.167741  -0.000999
 910  32  -7.456002   6.676563  -3.493412  -0.000103   0.167741  -0.000614
 911  18  -6.056602   5.360676  -3.751308  -0.000206   0.145797  -0.001412
 912   9  -7.171786   5.272578  -3.656559   0.000321   0.205572   0.001564
 913   9  -7.312203   5.928442   3.459926   0.000041   0.167741   0.000247
 914  19  -6.569472   6.048432   3.492403  -0.000119   0.167741  -0.000710
 915  33  -7.456074   6.676859   3.493297  -0.000156   0.167741  -0.000930
 916  19  -6.085509   5.505703   3.733333  -0.000242   0.145792  -0.001659
 917   9  -7.145611   5.141111   3.672987   0.000344   0.205564   0.001672
 918  26  -8.781482   4.588282  -3.853146  -0.000082   0.071160  -0.001148
 919  26  -8.058831   4.072230  -3.853183  -0.000093   0.071160  -0.001301
 920   9  -8.191714   4.650146  -3.726245  -0.000224   0.155300  -0.001443
 921  26  -9.468572   1.123841  -1.453684  -0.000013   0.068246  -0.000188
 922  26 -10.436609   1.627289  -1.339680  -0.000085   0.150912  -0.000560
 923  26 -11.234156   2.651875  -1.615703  -0.000229   0.150912  -0.001520
 924  26 -11.403488   3.609574  -2.123339  -0.000082   0.068246  -0.001198
 925   9  -9.792840   1.254296  -0.972364   0.000205   0.150200   0.001362
 926   9 -10.982570   2.153117  -1.002165   0.000153   0.150200   0.001016
 927   9 -11.492910   3.438329  -1.560741  -0.000066   0.150200  -0.000437
 928  27  -8.059004   4.072326   3.853256  -0.000083   0.071173  -0.001162
 929  27  -8.781766   4.588496   3.853157  -0.000081   0.071173  -0.001132
 930   9  -8.191929   4.650280   3.726276  -0.000198   0.155324  -0.001273
 931  27 -11.403650   3.609708   2.123217  -0.000062   0.068247  -0.000902
 932  27 -11.234277   2.651964   1.615641  -0.000176   0.150916  -0.001165
 933  27 -10.436689   1.627350   1.339739  -0.000080   0.150916  -0.000532
 934  27  -9.468638   1.123913   1.453859  -0.000072   0.068247  -0.001053
 935   9 -11.493028   3.438426   1.560617  -0.000121   0.150203  -0.000805
 936   9 -10.982633   2.153162   1.002148   0.000182   0.150203   0.001213
 937   9  -9.792872   1.254337   0.972500   0.000169   0.150203   0.001126
 938  31 -12.548299   5.298623  -0.982976  -0.000234   0.198159  -0.001178
 939  31 -12.596002   5.244959   0.436253  -0.001053   0.405169  -0.002599
 940   9 -12.035006   4.276577  -0.502233   0.000805   0.543163   0.001482
 941   9 -11.991585   4.325592   1.112531   0.000639   0.279048   0.002291
 942  32  -8.106664   6.951936  -3.736957  -0.000203   0.135963  -0.001493
 943   9  -8.067641   5.819063  -3.672699   0.000316   0.191597   0.001648
 944  33  -8.240734   6.930861   3.754363  -0.000216   0.135967  -0.001588
 945   9  -7.945674   5.838871   3.656653   0.000312   0.191602   0.001631
 946  10  10.326324  -2.761724  -1.301217   0.000069   0.087985   0.000780
 947  16   9.493537  -2.289255  -1.569853   0.000145   0.087985   0.001648
 948  29  10.425419  -2.840609  -1.580365  -0.000034   0.087985  -0.000385
 949  16   9.164117  -1.760992  -1.539503   0.000026   0.032848   0.000789
 950  10  10.342184  -2.543715  -1.146780   0.000199   0.046643   0.004273
 951  10  10.326214  -2.761699   1.301397   0.000091   0.087987   0.001032
 952  17   9.493411  -2.289229   1.569965   0.000163   0.087987   0.001858
 953  30  10.425273  -2.840575   1.580569  -0.000107   0.087987  -0.001214
 954  17   9.167488  -1.768451   1.563388   0.000052   0.032839   0.001596
 955  10  10.338853  -2.536758   1.124848   0.000217   0.046629   0.004652
 956  24   7.670568  -9.171739   2.576680  -0.000214   0.216176  -0.000992
 957  24   7.738776  -7.894873   3.458456  -0.001244   0.445039  -0.002795
 958  10   8.808408  -8.682225   2.751778   0.000910   0.589750   0.001543
 959  10   8.802619  -7.145424   3.621581   0.000697   0.304522   0.002287
 960  25   7.708990  -7.344084  -3.709225  -0.000196   0.216172  -0.000905
 961  25   7.722130  -8.703213  -2.957522  -0.001179   0.445030  -0.002649
 962  10   8.828063  -7.752774  -3.327632   0.000871   0.589740   0.001477
 963  10   8.759625  -9.214529  -2.339298   0.000702   0.304517   0.002304
 964  28   9.614690  -9.913411  -1.536430  -0.000092   0.069551  -0.001326
 965  28  10.558965  -9.566964  -2.029598  -0.000307   0.154618  -0.001985
 966  28  11.825248  -9.102381  -1.911779  -0.000151   0.154618  -0.000974
 967  28  12.758280  -8.760070  -0.992289  -0.000283   0.154618  -0.001830
 968  28  12.966828  -8.683565   0.343318  -0.000315   0.154618  -0.002036
 969  28  12.363444  -8.904947   1.535000  -0.000200   0.154618  -0.001292
 970  28  11.201136  -9.331388   2.083069  -0.000231   0.154618  -0.001497
 971  28   9.967278  -9.784073   1.757710  -0.000338   0.154618  -0.002188
 972  10   9.720909  -9.517527  -1.974417  -0.000169   0.152274  -0.001108
 973  10  11.106961  -9.008999  -2.339764   0.000070   0.152274   0.000462
 974  10  12.412557  -8.529996  -1.723978   0.000070   0.152274   0.000459
 975  10  13.090242  -8.281370  -0.385267  -0.000073   0.152274  -0.000479
 976  10  12.855853  -8.367375   1.115027  -0.000044   0.152274  -0.000292
 977  10  11.807671  -8.751947   2.147809   0.000085   0.152274   0.000556
 978  10  10.385217  -9.273829   2.280018  -0.000123   0.152274  -0.000809
 979  10   9.336763  -9.658491   1.749553   0.000037   0.084971   0.000438
 980  29  11.157237  -3.003561  -1.525693  -0.000043   0.067456  -0.000636
 981  29  12.111604  -3.500966  -1.374507  -0.000116   0.148914  -0.000777
 982  29  12.909790  -4.523326  -1.594227  -0.000224   0.148914  -0.001505
 983  29  12.999299  -5.680289  -2.213921  -0.000265   0.148914  -0.001777
 984  29  12.344944  -6.517039  -2.989979  -0.000145   0.148914  -0.000977
 985  29  11.203960  -6.704639  -3.617322  -0.000200   0.148914  -0.001342
 986  29  10.024883  -6.169340  -3.849333  -0.000322   0.148914  -0.002163
 987  10  11.466150  -3.118295  -1.034310   0.000061   0.148698   0.000409
 988  10  12.644226  -4.010584  -1.006559   0.000028   0.148698   0.000189
 989  10  13.169405  -5.299916  -1.503174  -0.000027   0.148698  -0.000180
 990  10  12.835230  -6.479437  -2.328929  -0.000006   0.148698  -0.000043
 991  10  11.773071  -7.085463  -3.159209   0.000027   0.148698   0.000184
 992  10  10.400476  -6.879757  -3.667620   0.000028   0.148698   0.000190
 993  10   9.402747  -6.218323  -3.744934  -0.000001   0.082413  -0.000014
 994  30   9.689544  -5.912210   3.855413  -0.000109   0.067456  -0.001614
 995  30  10.587978  -6.520458   3.793134  -0.000259   0.148913  -0.001738
 996  30  11.809613  -6.703432   3.340756  -0.000122   0.148913  -0.000819
 997  30  12.754954  -6.164020   2.601917  -0.000254   0.148913  -0.001708
 998  30  13.052401  -5.114256   1.867044  -0.000255   0.148913  -0.001715
 999  30  12.585033  -3.966786   1.425005  -0.000188   0.148913  -0.001263
1000  30  11.536565  -3.172665   1.449558  -0.000146   0.148913  -0.000980
1001  10   9.767177  -6.485452   3.731255  -0.000123   0.148699  -0.000828
1002  10  11.092022  -7.086780   3.470663   0.000132   0.148699   0.000889
1003  10  12.374044  -6.875905   2.765917   0.000126   0.148699   0.000846
1004  10  13.109300  -5.935719   1.894042  -0.000058   0.148699  -0.000392
1005  10  13.008772  -4.635796   1.197760  -0.000081   0.148699  -0.000541
1006  10  12.111975  -3.487116   0.950767   0.000170   0.148699   0.001141
1007  10  11.063087  -2.927104   1.109162   0.000169   0.082413   0.002054
1008  11  -6.045762   8.815047  -1.301392   0.000089   0.087986   0.001017
1009  18  -5.322717   8.187357  -1.569959   0.000164   0.087986   0.001863
1010  32  -6.153151   8.882156  -1.580557  -0.000107   0.087986  -0.001219
1011  18  -4.723083   8.053660  -1.563395   0.000054   0.032832   0.001633
1012  11  -5.837901   8.901939  -1.124863   0.000215   0.046619   0.004621
1013  11  -6.045785   8.815128   1.301151   0.000062   0.087986   0.000708
1014  19  -5.322743   8.187451   1.569789   0.000144   0.087986   0.001631
1015  33  -6.153183   8.882261   1.580304  -0.000037   0.087986  -0.000421
1016  19  -4.714911   8.052955   1.539504   0.000024   0.032813   0.000745
1017  11  -5.845553   8.902752   1.146766   0.000196   0.046593   0.004198
1018  26 -11.203996   4.174643  -2.576709  -0.000214   0.216177  -0.000990
1019  26 -10.022872   4.664565  -3.458472  -0.001247   0.445041  -0.002803
1020  11 -11.121743   5.410581  -2.751804   0.000931   0.589752   0.001579
1021  11  -9.670882   5.917379  -3.621589   0.000683   0.304523   0.002242
1022  27  -9.493716   4.820092   3.709240  -0.000195   0.216175  -0.000904
1023  27 -10.779511   4.379442   2.957521  -0.001182   0.445036  -0.002656
1024  11 -10.252050   5.738935   3.327633   0.000877   0.589746   0.001487
1025  11 -11.607407   5.187161   2.339280   0.000736   0.304520   0.002418
1026  31 -12.551345   5.760359   1.536350  -0.000092   0.069550  -0.001323
1027  31 -12.539467   6.766110   2.029527  -0.000230   0.154617  -0.001488
1028  31 -12.523528   8.114836   1.911718  -0.000220   0.154617  -0.001423
1029  31 -12.511773   9.108617   0.992231  -0.000223   0.154617  -0.001444
1030  31 -12.509130   9.330744  -0.343376  -0.000302   0.154617  -0.001954
1031  31 -12.516708   8.688075  -1.535061  -0.000163   0.154617  -0.001055
1032  31 -12.531329   7.450092  -2.083130  -0.000251   0.154617  -0.001622
1033  31 -12.546862   6.135903  -1.757768  -0.000338   0.154617  -0.002184
1034  11 -12.213515   5.992458   1.974345  -0.000151   0.152274  -0.000994
1035  11 -12.196076   7.468748   2.339705   0.000007   0.152274   0.000045
1036  11 -12.179635   8.859349   1.723927   0.000121   0.152274   0.000793
1037  11 -12.171088   9.581159   0.385217  -0.000076   0.152274  -0.000499
1038  11 -12.174017   9.331509  -1.115080   0.000011   0.152274   0.000070
1039  11 -12.187195   8.215082  -2.147864   0.000103   0.152274   0.000676
1040  11 -12.205096   6.700016  -2.280071  -0.000051   0.152274  -0.000335
1041  11 -12.218299   5.583304  -1.749602   0.000012   0.084971   0.000138
1042  32  -8.803747   7.164684  -3.855392  -0.000111   0.067457  -0.001647
1043  32  -9.676736   7.808952  -3.793134  -0.000280   0.148914  -0.001883
1044  32 -10.256522   8.899719  -3.340753  -0.000127   0.148914  -0.000851
1045  32 -10.063112   9.970812  -2.601886  -0.000233   0.148914  -0.001567
1046  32  -9.172536  10.601182  -1.866984  -0.000258   0.148914  -0.001735
1047  32  -7.934882  10.543028  -1.424939  -0.000164   0.148914  -0.001099
1048  32  -6.836675   9.819212  -1.449521  -0.000147   0.148914  -0.000988
1049  11  -9.370083   7.046774  -3.731255  -0.000123   0.148699  -0.000824
1050  11 -10.378707   8.095375  -3.470678   0.000027   0.148699   0.000183
1051  11 -10.607295   9.374373  -2.765912   0.000028   0.148699   0.000186
1052  11  -9.965988  10.380991  -1.894002   0.000019   0.148699   0.000131
1053  11  -8.706885  10.719526  -1.197697   0.000032   0.148699   0.000215
1054  11  -7.324945  10.256897  -0.950718   0.000175   0.148699   0.001175
1055  11  -6.447327   9.454649  -1.109146   0.000149   0.082413   0.001803
1056  33  -6.550747   9.517911   1.525634  -0.000048   0.067456  -0.000709
1057  33  -7.337815  10.251898   1.374467  -0.000100   0.148913  -0.000669
1058  33  -8.567745  10.663666   1.594208  -0.000227   0.148913  -0.001527
1059  33  -9.688366  10.362432   2.213913  -0.000268   0.148913  -0.001801
1060  33 -10.259157   9.466612   2.989974  -0.000152   0.148913  -0.001024
1061  33 -10.055739   8.328356   3.617319  -0.000190   0.148913  -0.001277
1062  33  -9.158077   7.395116   3.849335  -0.000324   0.148913  -0.002179
1063  11  -6.761896   9.770912   1.034254   0.000148   0.148698   0.000997
1064  11  -7.995824  10.584194   1.006529   0.000148   0.148698   0.000995
1065  11  -9.386456  10.649588   1.503161  -0.000040   0.148698  -0.000270
1066  11 -10.387129   9.941388   2.328924   0.000034   0.148698   0.000231
1067  11 -10.604474   8.737989   3.159206   0.000174   0.148698   0.001170
1068  11  -9.953054   7.512451   3.667621   0.000005   0.148698   0.000030
1069  11  -8.996912   6.792225   3.744941  -0.000006   0.082413  -0.000078
1070  24   4.990853  -6.295037   3.758271   0.000111   0.251776   0.000440
1071  24   4.370016  -7.155986   3.414810  -0.000344   0.503371  -0.000684
1072  24   3.853314  -7.871127   2.378466   0.000031   0.503371   0.000061
1073  12   3.478266  -5.715400   3.656514  -0.000325   0.503371  -0.000645
1074  12   2.789213  -6.670387   2.974149  -0.000415   0.503371  -0.000824
1075  12   2.479647  -7.098168   1.991393   0.000304   0.251776   0.001209
1076  25   3.750202  -8.013604  -1.989974   0.000277   0.251768   0.001101
1077  25   4.059824  -7.585830  -2.972636  -0.000295   0.503354  -0.000586
1078  25   4.748879  -6.630906  -3.654925  -0.000230   0.503354  -0.000457
1079  13   2.582916  -6.955595  -2.380494  -0.000068   0.503354  -0.000135
1080  13   3.099661  -6.240487  -3.416733  -0.000487   0.503354  -0.000968
1081  13   3.720480  -5.379600  -3.760153   0.000058   0.251768   0.000229
1082  26  -7.598591   2.607042  -3.758268   0.000111   0.251776   0.000440
1083  26  -8.203369   1.734737  -3.414812  -0.000344   0.503371  -0.000684
1084  26  -8.705393   1.009212  -2.378474   0.000031   0.503371   0.000061
1085  14  -6.547923   1.374157  -3.656506  -0.000325   0.503371  -0.000645
1086  14  -7.218625   0.406193  -2.974147  -0.000415   0.503371  -0.000824
1087  14  -7.518765  -0.028259  -1.991395   0.000304   0.251776   0.001208
1088  27  -8.805378   0.864517   1.989987   0.000277   0.251768   0.001101
1089  27  -8.505268   1.299013   2.972646  -0.000295   0.503355  -0.000586
1090  27  -7.834632   2.266955   3.654934  -0.000230   0.503355  -0.000457
1091  15  -7.418781   0.116637   2.380496  -0.000068   0.503355  -0.000135
1092  15  -6.916808   0.842185   3.416731  -0.000487   0.503355  -0.000968
1093  15  -6.312087   1.714450   3.760152   0.000058   0.251768   0.000230
1094  20   5.449555   0.952248  -1.966239  -0.000181   0.253657  -0.000715
1095  20   5.128508   0.517623  -2.987440  -0.001209   0.507268  -0.002384
1096  20   4.398560  -0.464281  -3.682508  -0.001055   0.507268  -0.002080
1097  16   6.553557  -0.094149  -2.367535  -0.000472   0.507268  -0.000931
1098  16   6.010711  -0.826512  -3.439469  -0.000804   0.507268  -0.001586
1099  16   5.351387  -1.712303  -3.779303  -0.000077   0.253657  -0.000305
1100  29   9.279180  -4.502782  -3.769480   0.000021   0.250226   0.000085
1101  29   9.895569  -3.630383  -3.436918  -0.000491   0.500302  -0.000982
1102  29  10.414229  -2.899096  -2.407896  -0.000049   0.500302  -0.000099
1103  16   8.253982  -3.269936  -3.667026  -0.000329   0.500302  -0.000658
1104  16   8.940313  -2.299666  -2.996057  -0.000368   0.500302  -0.000736
1105  16   9.253827  -1.858958  -2.016722   0.000225   0.250226   0.000900
1106  21   4.140970  -0.810189   3.782646  -0.000267   0.253667  -0.001053
1107  21   4.800366   0.075656   3.442826  -0.001231   0.507288  -0.002426
1108  21   5.343274   0.808044   2.370820  -0.000986   0.507288  -0.001943
1109  17   5.608738  -1.366559   3.678922  -0.000712   0.507288  -0.001404
1110  17   6.338768  -0.384600   2.983833  -0.000713   0.507288  -0.001405
1111  17   6.659850   0.050025   1.962554   0.000088   0.253667   0.000347
1112  30  10.519023  -2.751699   2.020273   0.000290   0.250229   0.001160
1113  30  10.205416  -3.192395   2.999618  -0.000362   0.500309  -0.000723
1114  30   9.519004  -4.162680   3.670553  -0.000378   0.500309  -0.000756
1115  17   9.148641  -2.006280   2.404666  -0.000077   0.500309  -0.000153
1116  17   8.629876  -2.737564   3.433682  -0.000467   0.500309  -0.000934
1117  17   8.013437  -3.609982   3.766202   0.000063   0.250229   0.000251
1118  22  -2.144177   3.634055  -3.782640  -0.000268   0.253673  -0.001055
1119  22  -1.528771   4.551054  -3.442797  -0.001231   0.507302  -0.002427
1120  22  -1.019241   5.307045  -2.370726  -0.000985   0.507302  -0.001942
1121  18  -3.157952   4.832421  -3.678913  -0.000713   0.507302  -0.001405
1122  18  -2.475479   5.848049  -2.983779  -0.000712   0.507302  -0.001404
1123  18  -2.172750   6.295629  -1.962440   0.000090   0.253673   0.000356
1124  32  -6.100610   9.000175  -2.020255   0.000290   0.250228   0.001160
1125  32  -6.411575   8.557615  -2.999590  -0.000361   0.500307  -0.000722
1126  32  -7.097570   7.587050  -3.670522  -0.000378   0.500307  -0.000756
1127  18  -4.941031   7.956622  -2.404653  -0.000075   0.500307  -0.000150
1128  18  -5.457579   7.223780  -3.433660  -0.000467   0.500307  -0.000933
1129  18  -6.074628   6.351807  -3.766182   0.000063   0.250228   0.000251
1130  23  -0.918707   5.455301   1.966124  -0.000182   0.253664  -0.000717
1131  23  -1.221458   5.007760   2.987393  -0.001210   0.507282  -0.002385
1132  23  -1.903920   3.992227   3.682512  -0.001056   0.507282  -0.002081
1133  19  -2.273224   6.147356   2.367434  -0.000471   0.507282  -0.000929
1134  19  -2.782766   5.391436   3.439444  -0.000804   0.507282  -0.001586
1135  19  -3.398153   4.474519   3.779302  -0.000078   0.253664  -0.000306
1136  33  -7.338206   7.247548   3.769469   0.000021   0.250228   0.000086
1137  33  -6.721153   8.119481   3.436888  -0.000491   0.500305  -0.000981
1138  33  -6.204581   8.852225   2.407842  -0.000050   0.500305  -0.000099
1139  19  -5.834142   6.691917   3.667001  -0.000329   0.500305  -0.000658
1140  19  -5.148133   7.662411   2.996008  -0.000369   0.500305  -0.000737
1141  19  -4.837143   8.104883   2.016655   0.000223   0.250228   0.000893
1142  22   1.744496   3.686646  -1.917101  -0.000084   0.219606  -0.000384
1143  22   1.489528   3.326143  -2.891090  -0.000863   0.439215  -0.001966
1144  22   0.880455   2.464839  -3.665924  -0.001018   0.439215  -0.002318
1145  22   0.267611   1.598150  -3.795922  -0.000120   0.219606  -0.000545
1146  20   2.810744   2.755708  -2.298820  -0.000688   0.439215  -0.001565
1147  20   2.370205   2.132773  -3.362332  -0.001040   0.439215  -0.002367
1148  20   1.652524   1.117844  -3.772251  -0.000866   0.439215  -0.001971
1149  23   0.267823   1.597966   3.795996  -0.000109   0.219610  -0.000498
1150  23   0.880667   2.464677   3.666001  -0.001043   0.439223  -0.002376
1151  23   1.489689   3.326034   2.891150  -0.000963   0.439223  -0.002193
1152  23   1.744580   3.686584   1.917139  -0.000020   0.219610  -0.000090
1153  21   1.652739   1.117668   3.772197  -0.000856   0.439223  -0.001948
1154  21   2.370400   2.132636   3.362274  -0.000966   0.439223  -0.002199
1155  21   2.810859   2.755630   2.298737  -0.000680   0.439223  -0.001548
 =====================================================

             10388927  WORDS OF DYNAMIC MEMORY USED
 EXECUTION OF GAMESS TERMINATED NORMALLY Wed Nov 23 23:34:48 2016
 DDI: 263640 bytes (0.3 MB / 0 MWords) used by master data server.

 ----------------------------------------
 CPU timing information for all processes
 ========================================
 0: 2524.588 + 0.696 = 2525.284
 ----------------------------------------
 ddikick.x: exited gracefully.
