----- GAMESS execution script -----

          ******************************************************
          *         GAMESS VERSION =  5 DEC 2014 (R1)          *
          *             FROM IOWA STATE UNIVERSITY             *
          * M.W.SCHMIDT, K.K.BALDRIDGE, J.A.BOATZ, S.T.ELBERT, *
          *   M.S.GORDON, J.H.JENSEN, S.KOSEKI, N.MATSUNAGA,   *
          *          K.A.NGUYEN, S.J.SU, T.L.WINDUS,           *
          *       TOGETHER WITH M.DUPUIS, J.A.MONTGOMERY       *
          *         J.COMPUT.CHEM.  14, 1347-1363(1993)        *
          **************** 64 BIT LINUX VERSION ****************

 EXECUTION OF GAMESS BEGUN Wed Nov 23 23:10:40 2016

            ECHO OF THE FIRST FEW INPUT CARDS -
 INPUT CARD>! SELECT RESTRICTED HARTREE-FOCK AS DEFAULT                                     
 INPUT CARD>$contrl scftyp=rhf $end                                                         
 INPUT CARD>                                                                                
 INPUT CARD>! THEORY: HF OR DFT                                                             
 INPUT CARD> $contrl mplevl=0 $end                                                          
 INPUT CARD>                                                                                
 INPUT CARD> $system timlim=10000 mwords=20 $end                                            
 INPUT CARD> $SCF DIRSCF=.TRUE. $end                                                        
 INPUT CARD>                                                                                
 INPUT CARD>                                                                                
 INPUT CARD>! BASIS SETS                                                                    
 INPUT CARD>! 6-311G(d,p)                                                                   
 INPUT CARD> $BASIS GBASIS=N311 NGAUSS=6 NDFUNC=1 NPFUNC=1 $END                             
 INPUT CARD>                                                                                
 INPUT CARD>! One of the following                                                          
 INPUT CARD> $guess guess=HUCKEL $end                                                       
 INPUT CARD>                                                                                
 INPUT CARD> $statpt projct=.FALSE. $end                                                    
 INPUT CARD> $STATPT IFREEZ(1)=1,2,3 $END                                                   
 INPUT CARD>                                                                                
 INPUT CARD>! Optimize the geometry with COSMO effects                                      
 INPUT CARD> $statpt opttol=0.0005 nstep=50 $end                                            
 INPUT CARD> $contrl nzvar=1 $end                                                           
 INPUT CARD> $zmat dlc=.t. auto=.t. $end                                                    
 INPUT CARD> $contrl runtyp=OPTIMIZE maxit=200 $end                                         
 INPUT CARD>                                                                                
 INPUT CARD>! Run COSMO on perfect conductor                                                
 INPUT CARD> $COSGMS PRFCND=.TRUE. $end                                                     
 INPUT CARD>                                                                                
 INPUT CARD>! Specifying RSOLV                                                              
 INPUT CARD> $COSGMS COSRAD = 1.4 $end                                                      
 INPUT CARD>                                                                                
 INPUT CARD>! available memory                                                              
 INPUT CARD> $SYSTEM MWORDS=40 $END                                                         
 INPUT CARD>                                                                                
 INPUT CARD> $DATA                                                                          
 INPUT CARD>Methylene chloride, ID: C75092                                                  
 INPUT CARD>C1                                                                              
 INPUT CARD>Cl    17.0      0.5990000000    0.0000000000    2.3008000000                    
 INPUT CARD>C      6.0      0.6717000000    1.0711000000    0.9090000000                    
 INPUT CARD>Cl    17.0      2.3321000000    1.6217000000    0.7366000000                    
 INPUT CARD>H      1.0      0.3535000000    0.5346000000    0.0000000000                    
 INPUT CARD>H      1.0      0.0000000000    1.9325000000    1.0576000000                    
 INPUT CARD> $END                                                                           
 INPUT CARD>                                                                                
 INPUT CARD>                                                                                
   40000000 WORDS OF MEMORY AVAILABLE

     BASIS OPTIONS
     -------------
     GBASIS=N311         IGAUSS=       6      POLAR=POPN311 
     NDFUNC=       1     NFFUNC=       0     DIFFSP=       F
     NPFUNC=       1      DIFFS=       F     BASNAM=        


     RUN TITLE
     ---------
 Methylene chloride, ID: C75092                                                  

 THE POINT GROUP OF THE MOLECULE IS C1      
 THE ORDER OF THE PRINCIPAL AXIS IS     0

 ATOM      ATOMIC                      COORDINATES (BOHR)
           CHARGE         X                   Y                   Z
 CL         17.0     1.1319458666        0.0000000000        4.3478815526
 C           6.0     1.2693289460        2.0240855054        1.7177609228
 CL         17.0     4.4070299760        3.0645686343        1.3919721626
 H           1.0     0.6680181367        1.0102475130        0.0000000000
 H           1.0     0.0000000000        3.6518954713        1.9985742046

          INTERNUCLEAR DISTANCES (ANGS.)




     $CONTRL OPTIONS
     ---------------
 SCFTYP=RHF          RUNTYP=OPTIMIZE     EXETYP=RUN     
 MPLEVL=       0     CITYP =NONE         CCTYP =NONE         VBTYP =NONE    
 DFTTYP=NONE         TDDFT =NONE    
 MULT  =       1     ICHARG=       0     NZVAR =       1     COORD =UNIQUE  
 PP    =NONE         RELWFN=NONE         LOCAL =NONE         NUMGRD=       F
 ISPHER=      -1     NOSYM =       0     MAXIT =     200     UNITS =ANGS    
 PLTORB=       F     MOLPLT=       F     AIMPAC=       F     FRIEND=        
 NPRINT=       7     IREST =       0     GEOM  =INPUT   
 NORMF =       0     NORMP =       0     ITOL  =      20     ICUT  =       9
 INTTYP=BEST         GRDTYP=BEST         QMTTOL= 1.0E-06

     $SYSTEM OPTIONS
     ---------------
  REPLICATED MEMORY=    40000000 WORDS (ON EVERY NODE).
 DISTRIBUTED MEMDDI=           0 MILLION WORDS IN AGGREGATE,
 MEMDDI DISTRIBUTED OVER   1 PROCESSORS IS           0 WORDS/PROCESSOR.
 TOTAL MEMORY REQUESTED ON EACH PROCESSOR=    40000000 WORDS.
 TIMLIM=       10000.00 MINUTES, OR       6.9 DAYS.
 PARALL= F  BALTYP=  DLB     KDIAG=    0  COREFL= F
 MXSEQ2=     300 MXSEQ3=     150  mem10=         0

     $COSGMS OPTIONS
     ---------------
     EPSI  =   INFTY     NSPA  =      92     COSRAD=    1.40
     DISEX =   10.00     OUTCHG=DBLCAV       COSBUG=       F
     COSWRT=       F     DCOSMO=       F

     SYMMETRY COORDINATES WILL NOT BE USED FOR 
     THE COSMO CALCULATION, EVEN IF SPECIFIED:
         -- SWITCHING TO C1 POINT GROUP --


     DEFINITION OF CAVITY
     ---------------------------
     ATOM         COORDINATES           RADIUS 
     1    1.1319    0.0000    4.3479    2.0500
     2    1.2693    2.0241    1.7178    2.0000
     3    4.4070    3.0646    1.3920    2.0500
     4    0.6680    1.0102    0.0000    1.3000
     5    0.0000    3.6519    1.9986    1.3000

          ----------------
          PROPERTIES INPUT
          ----------------

     MOMENTS            FIELD           POTENTIAL          DENSITY
 IEMOM =       1   IEFLD =       0   IEPOT =       0   IEDEN =       0
 WHERE =COMASS     WHERE =NUCLEI     WHERE =NUCLEI     WHERE =NUCLEI  
 OUTPUT=BOTH       OUTPUT=BOTH       OUTPUT=BOTH       OUTPUT=BOTH    
 IEMINT=       0   IEFINT=       0                     IEDINT=       0
                                                       MORB  =       0
          EXTRAPOLATION IN EFFECT
          SOSCF IN EFFECT
 ORBITAL PRINTING OPTION: NPREO=     1    85     2     1

     -------------------------------
     INTEGRAL TRANSFORMATION OPTIONS
     -------------------------------
     NWORD  =            0
     CUTOFF = 1.0E-09     MPTRAN =       0
     DIRTRF =       T     AOINTS =DUP     

          ----------------------
          INTEGRAL INPUT OPTIONS
          ----------------------
 NOPK  =       1 NORDER=       0 SCHWRZ=       T


 -----------------------------------------------
  STATISTICS ON AUTOMATIC COORDINATE GENERATION 
 -----------------------------------------------
  NUMBER OF USER SPECIFIED BONDS                             0
  NUMBER OF BONDS                                            4
  NUMBER OF ANGLES                                           6
  NUMBER OF TORSIONS                                         0
  NUMBER OF EXTRA COORD.                                     0
  NUMBER OF EXTRA COORD. FOR CONSTRAINTS                     0
  NUMBER OF CONSTRAINED COORD.                               0

  TOTAL NUMBER OF PRIMITIVES                                10
 -----------------------------------------------

   --- ENCODED Z MATRIX ---
 COORD  TYPE   I   J   K   L   M   N
    1      1    1   2
    2      1    2   4
    3      1    2   5
    4      1    2   3
    5      2    1   2   3
    6      2    1   2   4
    7      2    1   2   5
    8      2    3   2   5
    9      2    3   2   4
   10      2    4   2   5

          INDEP./SYM. INTERNAL COORDINATES
          --------------------------------
 CRD  1=   0.1060 (  1) -0.1053 (  2) -0.1054 (  3)  0.1060 (  4)  0.8762 (  5)
          -0.2164 (  6) -0.2165 (  7) -0.2165 (  8) -0.2163 (  9)
 CRD  2=   0.3133 (  2) -0.3134 (  3)  0.4476 (  6) -0.4476 (  7) -0.4488 (  8)
           0.4489 (  9)
 CRD  3=   0.5004 (  6) -0.5006 (  7)  0.4995 (  8) -0.4994 (  9)
 CRD  4=   0.3974 (  1) -0.3978 (  4)  0.4134 (  6)  0.4132 (  7) -0.4136 (  8)
          -0.4137 (  9)
 CRD  5=  -0.2438 (  1)  0.2422 (  2)  0.2421 (  3) -0.2432 (  4) -0.1873 (  6)
          -0.1874 (  7) -0.1869 (  8) -0.1868 (  9)  0.7883 ( 10)
 CRD  6=   0.4986 (  1)  0.5015 (  2)  0.5014 (  3)  0.4985 (  4)
 CRD  7=   0.6335 (  2) -0.6342 (  3) -0.2216 (  6)  0.2216 (  7)  0.2215 (  8)
          -0.2216 (  9)
 CRD  8=   0.4206 (  1) -0.4233 (  2) -0.4224 (  3)  0.4300 (  4) -0.2483 (  5)
           0.4555 ( 10)
 CRD  9=   0.5881 (  1) -0.5814 (  4) -0.2816 (  6) -0.2815 (  7)  0.2807 (  8)
           0.2807 (  9)

 THE DETERMINANT OF THE G MATRIX IS 10**(    -6)


                     --------------------
                     INTERNAL COORDINATES
                     --------------------

                 - - ATOMS - -         COORDINATE      COORDINATE
 NO.   TYPE    I  J  K  L  M  N        (BOHR,RAD)       (ANG,DEG)
 ----------------------------------------------------------------
   1 STRETCH   1  2                     3.3216458       1.7577394
   2 STRETCH   2  4                     2.0833014       1.1024357
   3 STRETCH   2  5                     2.0832228       1.1023941
   4 STRETCH   2  3                     3.3217332       1.7577856
   5 BEND      1  2  3                  1.8834675     107.9147408
   6 BEND      1  2  4                  1.9223912     110.1449039
   7 BEND      1  2  5                  1.9221981     110.1338410
   8 BEND      3  2  5                  1.9219857     110.1216686
   9 BEND      3  2  4                  1.9221929     110.1335389
  10 BEND      4  2  5                  1.8918237     108.3935112

     ------------------------------------------
     THE POINT GROUP IS C1 , NAXIS= 1, ORDER= 1
     ------------------------------------------

     DIMENSIONS OF THE SYMMETRY SUBSPACES ARE
 A   =   85

 ..... DONE SETTING UP THE RUN .....
 STEP CPU TIME =     0.01 TOTAL CPU TIME =        0.0 (    0.0 MIN)
 TOTAL WALL CLOCK TIME=        0.0 SECONDS, CPU UTILIZATION IS 100.00%


          -----------------------------
          STATIONARY POINT LOCATION RUN
          -----------------------------

 OBTAINING INITIAL HESSIAN, HESS=GUESS   
 DIAGONAL GUESS HESSIAN IN INTERNAL COORDS IS
     1  0.3617     2  0.3381     3  0.3381     4  0.3617     5  0.2662
     6  0.2306     7  0.2306     8  0.2306     9  0.2306    10  0.2022
 TRANSFORMING HESSIAN TO SYMMETRY COORDINATES

          PARAMETERS CONTROLLING GEOMETRY SEARCH ARE
          METHOD =QA                  UPHESS =BFGS    
          NNEG   =         0          NFRZ   =         3
          NSTEP  =        50          IFOLOW =         1
          HESS   =GUESS               RESTAR =         F
          IHREP  =         0          HSSEND =         F
          NPRT   =         0          NPUN   =         0
          OPTTOL = 5.000E-04          RMIN   = 1.500E-03
          RMAX   = 1.000E-01          RLIM   = 7.000E-02
          DXMAX  = 3.000E-01          PURIFY =         F
          MOVIE  =         F          TRUPD  =         T
          TRMAX  = 5.000E-01          TRMIN  = 5.000E-02
          ITBMAT =         5          STPT   =         F
          STSTEP = 1.000E-02          PROJCT=          F
          FROZEN COORD(S)=   1   2   3


      ***** EQUILIBRIUM GEOMETRY LOCATED *****
            (SUBJECT TO   3 CONSTRAINT(S))
 COORDINATES OF ALL ATOMS ARE (ANGS)
   ATOM   CHARGE       X              Y              Z
 ------------------------------------------------------------
 CL         17.0   0.6005047196  -0.0026489531   2.3048051122
 C           6.0   0.6517393175   1.0776627150   0.8936527819
 CL         17.0   2.3370183016   1.6222425642   0.7375277026
 H           1.0   0.3598974393   0.5360612050   0.0088114098
 H           1.0   0.0084092233   1.9259837677   1.0603697265


                     --------------------
                     INTERNAL COORDINATES
                     --------------------

                 - - ATOMS - -         COORDINATE      COORDINATE
 NO.   TYPE    I  J  K  L  M  N        (BOHR,RAD)       (ANG,DEG)
 ----------------------------------------------------------------
   1 STRETCH   1  2                     3.3598080       1.7779340
   2 STRETCH   2  4                     2.0365672       1.0777050
   3 STRETCH   2  5                     2.0364520       1.0776441
   4 STRETCH   2  3                     3.3598390       1.7779504
   5 BEND      1  2  3                  1.8578460     106.4467376
   6 BEND      1  2  4                  1.9161182     109.7854874
   7 BEND      1  2  5                  1.9159346     109.7749659
   8 BEND      3  2  5                  1.9159387     109.7752037
   9 BEND      3  2  4                  1.9161366     109.7865427
  10 BEND      4  2  5                  1.9400996     111.1595214

          INTERNUCLEAR DISTANCES (ANGS.)


 =====================================================
   GAMESS/COSab RESULTS
 =====================================================

   Dielectric Constant                  = INFTY
   Basic Grid Size                      =                 1082
   Number of Segments                   =                   92
   Number of Segments located on spheres=                  156
   Number of Segments of the cavity     =                  254
   Solvent Radius (rsolv)               = 1.40
   Outlying Charge Error Method         = double cavity

 =====================================================

  Total solvated Energy (a.u.)          =  -958.0584986683
  Total Energy corrected (a.u.)         =  -958.0587615207

  Outlying charge effect (a.u.)         =    -0.0002628524
  Outlying charge effect (kcal/mol)     =    -0.1649425031

  Dielectric Energy (a.u.)              =    -0.0092163861
  Dielectric energy corr. (a.u.)        =    -0.0094792385

  Sum of polarization charges           =     0.0169752460
  Sum of polarization charges(cor.)     =    -0.0169752460

  Total surface area of cavity (A**2)   =   97.77
  Total volume of cavity (A**3)         =   82.58

 =====================================================
 NPS=                   254
NR.  ATOM  (X, Y, Z)(a.u.)                  CHARGE(e)  AREA(A**2) SIGMA(e/A**2)
   1   1   1.074442  -2.278473   7.491542  -0.002686   0.536887  -0.005004
   2   1  -0.741082   1.309166   7.479768   0.003034   0.488079   0.006216
   3   1   3.095347   0.980587   7.547968   0.002371   0.439271   0.005397
   4   1   4.234378  -2.159817   5.225384   0.002075   0.390463   0.005314
   5   1   0.992226  -3.832331   3.773465   0.002869   0.488079   0.005878
   6   1  -2.291007  -1.662348   5.079670   0.002750   0.439271   0.006261
   7   1   0.169461  -1.238372   7.898653  -0.001597   0.585695  -0.002727
   8   1  -0.373094   0.097452   7.922396   0.001070   0.536887   0.001993
   9   1   1.870286  -1.203528   7.965152  -0.001697   0.585695  -0.002898
  10   1   2.570791  -0.016677   7.953382   0.000880   0.488079   0.001803
  11   1   2.405367  -2.538542   6.996325  -0.001818   0.585695  -0.003105
  12   1   3.419160  -2.642168   6.039033   0.000821   0.536887   0.001530
  13   1   1.080908  -3.255332   6.462551  -0.001764   0.536887  -0.003286
  14   1   0.926321  -3.775903   5.218177   0.000617   0.488079   0.001265
  15   1  -0.253089  -2.566099   6.909263  -0.002029   0.683311  -0.002970
  16   1  -1.438272  -2.292589   6.131310   0.001102   0.585695   0.001881
  17   1   0.535732   1.455325   7.893228   0.003006   0.536887   0.005598
  18   1   1.878290   1.336371   7.912871   0.002689   0.488079   0.005510
  19   1   3.842196  -0.105384   7.124431   0.002225   0.488079   0.004558
  20   1   4.284330  -1.228809   6.250211   0.002195   0.488079   0.004497
  21   1   3.465692  -3.093314   4.547040   0.003255   0.585695   0.005557
  22   1   2.253913  -3.706627   4.125189   0.003132   0.585695   0.005347
  23   1  -0.258853  -3.607636   4.061776   0.002972   0.536887   0.005536
  24   1  -1.530227  -2.805565   4.604349   0.003299   0.585695   0.005632
  25   1  -2.227452  -0.883474   6.067455   0.003665   0.634503   0.005775
  26   1  -1.669817   0.276574   7.012931   0.003559   0.634503   0.005609
  27   1  -0.103467   2.481761   7.055453   0.003812   0.536887   0.007100
  28   1   0.532724   3.331369   6.229866   0.002027   0.488079   0.004152
  29   1   1.881045   3.204612   6.392307   0.001900   0.390463   0.004865
  30   1   2.840856   2.284697   6.973454   0.004235   0.585695   0.007231
  31   1   3.919911   1.253351   6.735999   0.003161   0.488079   0.006477
  32   1   4.741326  -1.281363   4.964758   0.002749   0.390463   0.007042
  33   1   4.276410  -2.199303   3.787334   0.003705   0.536887   0.006900
  34   1   3.602531  -2.288690   2.431255   0.002304   0.439271   0.005245
  35   1   2.381751  -2.543408   1.707980   0.001824   0.488079   0.003736
  36   1   1.810799  -3.409290   2.634596   0.003842   0.536887   0.007155
  37   1   0.062434  -3.299349   2.622010   0.004172   0.585695   0.007123
  38   1  -0.496645  -2.451945   1.833870   0.001548   0.390463   0.003966
  39   1  -1.718269  -1.714779   2.369461   0.002461   0.536887   0.004584
  40   1  -2.284068  -1.704023   3.698071   0.004671   0.634503   0.007362
  41   1  -2.712382  -0.417778   4.545830   0.003765   0.536887   0.007012
  42   1  -2.647765   0.819430   4.214277   0.002206   0.488079   0.004520
  43   1  -2.061304   2.013086   5.203749   0.002460   0.536887   0.004582
  44   1  -1.527951   1.846693   6.474018   0.004176   0.585695   0.007130
  45   1   1.074538   0.037027   8.228682   0.000451   0.585695   0.000771
  46   1   3.293377  -1.412352   7.248072   0.000153   0.683311   0.000224
  47   1   2.280617  -3.492440   5.593318   0.000279   0.585695   0.000477
  48   1  -0.405984  -3.374150   5.487829   0.000807   0.634503   0.001273
  49   1  -1.187133  -1.148833   7.237753   0.000466   0.585695   0.000796
  50   1   1.344626   2.513457   7.291541   0.003835   0.536887   0.007143
  51   1   4.646911  -0.077321   5.988603   0.002688   0.390463   0.006883
  52   1   3.060274  -3.103711   3.052371   0.003488   0.488079   0.007147
  53   1  -1.234163  -2.822216   3.147634   0.004228   0.585695   0.007218
  54   1  -2.430425   0.672294   5.711116   0.004634   0.634503   0.007304
  55   1   0.943522  -2.893635   1.781209   0.002427   0.439271   0.005525
  56   1  -2.521468  -0.408537   3.140408   0.002450   0.488079   0.005020
  57   1  -0.882900   2.896921   5.941343   0.001660   0.390463   0.004251
  58   2  -2.452129   1.210345   1.510351  -0.002205   0.371649  -0.005932
  59   2  -0.817178   3.931473  -0.859915  -0.002483   0.464561  -0.005345
  60   2   1.009923   4.592110   4.464336  -0.001367   0.185824  -0.007356
  61   2  -0.933057   2.884103  -1.291179  -0.001874   0.278737  -0.006725
  62   2  -2.172213   1.000067   0.414354  -0.002084   0.278737  -0.007477
  63   2   2.682057  -0.859787  -0.258580  -0.001031   0.139368  -0.007398
  64   2  -1.917639   0.139669   0.812053  -0.001547   0.232280  -0.006661
  65   2  -2.352841   1.915173   0.496591  -0.001679   0.325193  -0.005163
  66   2  -1.752911   3.170459  -0.333861  -0.001913   0.371649  -0.005147
  67   2   0.154567   3.742091  -1.507355  -0.002589   0.464561  -0.005572
  68   2   1.097725   3.421757  -1.825123  -0.000533   0.185824  -0.002870
  69   2  -2.539793   2.280342   1.724864  -0.001540   0.325193  -0.004734
  70   2   0.075281   4.802211  -0.612958  -0.001972   0.232280  -0.008491
  71   2   0.653345   5.298970  -0.129490  -0.000646   0.139368  -0.004638
  72   2   0.875787   2.875122  -1.979259  -0.001633   0.185824  -0.008787
  73   2  -1.929057   2.191745  -0.377723  -0.001652   0.278737  -0.005928
  74   2   2.341866  -1.182965   0.049614  -0.000372   0.046456  -0.008005
  75   2  -2.439872   2.342171   2.531977  -0.001171   0.139368  -0.008405
  76   2  -2.356248   2.749006   0.738053  -0.001624   0.232280  -0.006992
  77   2   0.759422   4.529105  -1.112693  -0.001612   0.232280  -0.006941
  78   3   8.074923   4.315036   1.146986  -0.002685   0.536887  -0.005002
  79   3   6.802770   2.379729   4.367254   0.002316   0.439271   0.005273
  80   3   5.493791   6.042301   3.626578   0.002953   0.488079   0.006051
  81   3   5.060811   6.491455  -0.296077   0.002912   0.488079   0.005966
  82   3   6.069149   3.044126  -2.109852   0.002878   0.488079   0.005897
  83   3   7.038502   0.272664   0.818283   0.002681   0.439271   0.006104
  84   3   8.141364   3.531105   2.350139  -0.001791   0.585695  -0.003059
  85   3   7.648691   3.001342   3.527983   0.000710   0.488079   0.001455
  86   3   7.590722   5.134960   2.198868  -0.001617   0.585695  -0.002761
  87   3   6.704871   5.684035   3.100669   0.000906   0.488079   0.001857
  88   3   7.376105   5.399161   0.498474  -0.001595   0.585695  -0.002723
  89   3   6.345780   6.010588  -0.222294   0.001035   0.536887   0.001928
  90   3   7.803083   4.035999  -0.217331  -0.001707   0.536887  -0.003179
  91   3   7.175641   3.492418  -1.291665   0.000652   0.488079   0.001337
  92   3   8.235367   2.896042   0.766422  -0.002206   0.683311  -0.003228
  93   3   7.895134   1.493194   0.735837   0.000933   0.585695   0.001594
  94   3   6.621369   3.676096   4.519817   0.002494   0.488079   0.005109
  95   3   6.175665   4.974131   4.269413   0.002942   0.536887   0.005480
  96   3   5.492955   6.623951   2.482896   0.003546   0.634503   0.005588
  97   3   5.321801   6.806438   0.953822   0.003197   0.585695   0.005458
  98   3   5.421171   5.560273  -1.394496   0.003377   0.585695   0.005766
  99   3   5.840325   4.333228  -1.978611   0.003203   0.585695   0.005468
 100   3   6.599992   1.963604  -1.610367   0.002968   0.536887   0.005529
 101   3   7.024210   0.906674  -0.489192   0.003267   0.585695   0.005578
 102   3   7.402949   0.664066   1.959536   0.003075   0.585695   0.005250
 103   3   7.403327   1.494120   3.295221   0.002427   0.536887   0.004520
 104   3   5.755900   2.839092   5.021624   0.002984   0.439271   0.006794
 105   3   3.856539   4.756100   4.834109   0.002026   0.390463   0.005188
 106   3   4.732411   5.352255   4.504779   0.003453   0.488079   0.007075
 107   3   4.103341   6.309769   3.487702   0.004076   0.585695   0.006959
 108   3   3.007051   6.412338   2.743030   0.002309   0.488079   0.004730
 109   3   2.883498   6.615727   1.160587   0.002339   0.488079   0.004792
 110   3   3.779932   6.719621   0.275500   0.004142   0.585695   0.007071
 111   3   3.954761   5.969860  -1.128086   0.004642   0.634503   0.007316
 112   3   2.959724   5.016564  -1.619477   0.003097   0.585695   0.005288
 113   3   3.308458   3.494891  -2.293511   0.001980   0.488079   0.004056
 114   3   4.683261   3.365388  -2.459354   0.003827   0.536887   0.007129
 115   3   5.214128   1.724432  -2.152001   0.004157   0.585695   0.007097
 116   3   4.343533   0.852970  -1.785332   0.001575   0.390463   0.004034
 117   3   4.780118  -0.154741  -0.728662   0.002391   0.536887   0.004454
 118   3   6.128837  -0.103889  -0.030737   0.003516   0.488079   0.007203
 119   3   6.170031  -0.380741   1.627652   0.003538   0.488079   0.007248
 120   3   6.508461   1.326969   4.151908   0.002844   0.439271   0.006474
 121   3   7.401465   4.384907   3.480757   0.000361   0.585695   0.000616
 122   3   6.661715   6.221621   1.464624   0.000405   0.683311   0.000593
 123   3   6.848507   4.862928  -1.027306   0.000444   0.585695   0.000757
 124   3   7.624985   2.314919  -0.643021   0.000743   0.634503   0.001171
 125   3   8.048853   2.025690   2.248544   0.000237   0.585695   0.000404
 126   3   5.257909   4.096631   5.031871   0.003528   0.536887   0.006571
 127   3   4.112863   6.893387   1.906807   0.004248   0.585695   0.007253
 128   3   4.294430   4.659667  -2.134931   0.004223   0.585695   0.007211
 129   3   5.808202   0.665025  -1.309484   0.004254   0.585695   0.007263
 130   3   6.545667   0.218513   2.932381   0.003069   0.488079   0.006289
 131   3   3.170797   5.582542   4.062251   0.001578   0.439271   0.003593
 132   3   2.674697   6.032437  -0.387266   0.002061   0.488079   0.004223
 133   3   4.045965   2.211436  -2.366678   0.002407   0.439271   0.005479
 134   3   5.167307  -0.645202   0.573079   0.002329   0.488079   0.004771
 135   4  -0.047627  -0.179001  -2.004385  -0.006974   0.549575  -0.012689
 136   4   0.221270  -1.266188  -0.776959  -0.003712   0.333671  -0.011124
 137   4   1.805050  -0.632195  -1.419612  -0.003606   0.353299  -0.010207
 138   4   1.074639   1.281320  -2.393203  -0.003903   0.353299  -0.011048
 139   4  -0.890934   1.484754  -1.812113  -0.003491   0.372926  -0.009362
 140   4  -1.438723  -0.075615  -0.583835  -0.003522   0.353299  -0.009970
 141   4   1.019625  -1.091816  -1.203801  -0.005029   0.431809  -0.011645
 142   4   1.240352   0.137526  -2.209264  -0.005496   0.471065  -0.011668
 143   4   0.062068   1.284439  -2.345428  -0.005312   0.471065  -0.011276
 144   4  -1.205937   0.541659  -1.485271  -0.005302   0.471065  -0.011256
 145   4  -0.699745  -0.809578  -0.882953  -0.005335   0.490692  -0.010872
 146   5  -1.481917   5.561631   2.315960  -0.006973   0.549575  -0.012689
 147   5   0.096939   6.042710   2.507349  -0.003711   0.333671  -0.011122
 148   5  -0.447077   5.067650   3.948395  -0.003608   0.353299  -0.010212
 149   5  -2.198002   3.968072   3.016669  -0.003900   0.353299  -0.011039
 150   5  -2.101509   4.377742   1.000389  -0.003488   0.372926  -0.009354
 151   5  -0.484676   5.587438   0.592986  -0.003525   0.353299  -0.009977
 152   5  -0.214260   5.708539   3.308259  -0.005031   0.431809  -0.011652
 153   5  -1.559871   4.848186   3.449968  -0.005495   0.471065  -0.011665
 154   5  -2.336626   4.342574   2.084938  -0.005306   0.471065  -0.011265
 155   5  -1.497415   5.226008   0.895527  -0.005309   0.471065  -0.011270
 156   5  -0.339785   6.031471   1.570791  -0.005334   0.490692  -0.010870
 157   1   1.906570   3.853045   5.166578  -0.000760   0.090287  -0.008423
 158   2   1.922515   4.229944   4.728348  -0.001017   0.090287  -0.011264
 159   3   2.474673   4.384632   4.653840  -0.000719   0.090287  -0.007969
 160   1   3.229448  -1.374227   1.212852  -0.000715   0.090287  -0.007925
 161   2   3.258201  -1.047937   0.736344  -0.001034   0.090287  -0.011447
 162   3   3.797551  -0.842639   0.700116  -0.000777   0.090287  -0.008602
 163   1   1.656791  -1.790873   0.804343  -0.000384   0.030665  -0.012510
 164   2   1.681159  -1.471228   0.325377  -0.000558   0.030665  -0.018185
 165   4   1.512620  -1.404954   0.087761  -0.000481   0.030665  -0.015673
 166   1  -1.238266  -1.021446   1.288274  -0.000364   0.030665  -0.011862
 167   2  -1.249359  -0.692377   0.815235  -0.000538   0.030665  -0.017533
 168   4  -1.151309  -0.696955   0.533057  -0.000655   0.030665  -0.021349
 169   1  -2.084331   2.323171   3.818091  -0.000425   0.030677  -0.013839
 170   2  -2.103430   2.683918   3.369012  -0.000569   0.030677  -0.018559
 171   5  -2.080424   2.976158   3.311447  -0.000479   0.030677  -0.015607
 172   1   0.234401   3.837241   5.061374  -0.000333   0.030677  -0.010855
 173   2   0.243697   4.216529   4.627520  -0.000460   0.030677  -0.015001
 174   5   0.053193   4.369353   4.455472  -0.000601   0.030677  -0.019592
 175   2  -1.679480  -0.340050   1.218159  -0.002248   0.285569  -0.007872
 176   2  -2.240703   1.405861   2.534371  -0.005958   0.586548  -0.010158
 177   1  -2.010076  -0.186625   2.363155  -0.002795   0.588403  -0.004751
 178   1  -2.343898   1.602039   3.720352  -0.000680   0.289272  -0.002352
 179   2   0.857273   4.202504   4.787821  -0.001826   0.259134  -0.007047
 180   1   1.101449   3.727503   5.472591  -0.000790   0.262494  -0.003009
 181   2   2.536138  -1.358875   0.591243  -0.002085   0.259514  -0.008035
 182   1   2.265754  -1.945487   1.171888  -0.000741   0.262879  -0.002818
 183   3   3.078279   4.371812   4.949779  -0.000150   0.350051  -0.000429
 184   3   4.438511   3.269618   5.314175   0.002440   0.700893   0.003481
 185   3   5.615916   1.507082   4.791383   0.003648   0.700893   0.005205
 186   3   5.766154  -0.085978   3.306216   0.003433   0.700893   0.004897
 187   3   4.825868  -0.837741   1.484996   0.000713   0.700893   0.001018
 188   1   2.798288   3.218638   5.856404   0.000837   0.700893   0.001194
 189   1   4.323659   1.658475   5.928965   0.003582   0.700893   0.005111
 190   1   5.025508  -0.115438   4.867472   0.003984   0.700893   0.005685
 191   1   4.607855  -1.355013   3.119572   0.002653   0.700893   0.003785
 192   1   3.609819  -1.684015   1.672669  -0.000182   0.350051  -0.000519
 193   4   1.070253  -1.461026  -0.064502  -0.002588   0.219311  -0.011802
 194   4  -0.345725  -1.162463   0.153943  -0.006357   0.447620  -0.014202
 195   1   0.592912  -2.022828   1.051979  -0.002060   0.616608  -0.003341
 196   1  -0.988296  -1.531422   1.332988  -0.000694   0.316435  -0.002192
 197   5  -1.955150   3.375381   3.528462  -0.002740   0.219388  -0.012491
 198   5  -0.883971   4.127525   4.184483  -0.006479   0.447787  -0.014469
 199   1  -1.557522   2.810458   4.674213  -0.002200   0.616809  -0.003566
 200   1  -0.233516   3.626778   5.309401  -0.000601   0.316545  -0.001897
 201   2   2.872290  -0.356597  -0.749738  -0.000445   0.030663  -0.014518
 202   3   3.409791  -0.150487  -0.777881  -0.000333   0.030663  -0.010875
 203   4   2.623498  -0.365421  -0.914916  -0.000587   0.030663  -0.019142
 204   2   1.907404   2.261243  -2.033835  -0.000570   0.030663  -0.018582
 205   3   2.456582   2.435675  -2.046438  -0.000420   0.030663  -0.013695
 206   4   1.746388   2.014274  -2.082198  -0.000480   0.030663  -0.015664
 207   2   1.053042   5.637507   0.520146  -0.000539   0.030677  -0.017569
 208   3   1.610235   5.780265   0.483573  -0.000363   0.030677  -0.011822
 209   5   0.817019   5.687365   0.696367  -0.000655   0.030677  -0.021366
 210   2   1.433482   5.329840   3.553682  -0.000565   0.030677  -0.018431
 211   3   1.986073   5.476321   3.480411  -0.000397   0.030677  -0.012938
 212   5   1.162852   5.407686   3.453954  -0.000485   0.030677  -0.015799
 213   3   2.600498   3.194738  -2.037500  -0.000790   0.289287  -0.002731
 214   3   2.122799   5.030514  -0.790554  -0.002855   0.588436  -0.004852
 215   2   1.621401   3.678072  -1.524157  -0.006094   0.586581  -0.010390
 216   2   1.204826   5.376468  -0.096603  -0.002383   0.285584  -0.008346
 217   3   2.486780   5.267362   3.964698  -0.000774   0.262496  -0.002948
 218   2   1.782792   4.823084   4.212055  -0.002071   0.259135  -0.007991
 219   3   3.979246  -0.512292  -0.085205  -0.000745   0.262895  -0.002834
 220   2   3.132407  -0.629396  -0.238627  -0.001994   0.259529  -0.007684
 221   4  -1.326602  -0.404391   0.081252  -0.000846   0.065562  -0.012910
 222   4  -1.642627   0.513650  -0.376434  -0.001904   0.144789  -0.013150
 223   4  -1.380870   1.559186  -1.102730  -0.001758   0.144789  -0.012140
 224   4  -0.445660   2.158178  -1.777829  -0.002012   0.144789  -0.013896
 225   4   0.800051   2.078157  -2.139726  -0.001999   0.144789  -0.013808
 226   2  -1.614575   0.055682   0.294830  -0.002058   0.144393  -0.014254
 227   2  -1.763288   1.316107  -0.427611  -0.001893   0.144393  -0.013113
 228   2  -1.055597   2.288412  -1.256167  -0.001828   0.144393  -0.012659
 229   2   0.233843   2.595247  -1.869278  -0.001886   0.144393  -0.013059
 230   2   1.368680   2.327853  -2.079917  -0.001031   0.080099  -0.012875
 231   4   2.176399  -0.715538  -0.883706  -0.000808   0.066322  -0.012182
 232   4   1.662402  -1.196530  -0.419763  -0.000872   0.066322  -0.013144
 233   2   2.187970  -0.947500  -0.345342  -0.002006   0.145735  -0.013765
 234   5   0.263874   5.633691   0.588840  -0.000847   0.065544  -0.012924
 235   5  -0.561375   5.090120   0.170291  -0.001929   0.144745  -0.013324
 236   5  -1.575811   4.291698   0.318490  -0.001773   0.144745  -0.012250
 237   5  -2.251305   3.607628   1.192720  -0.001989   0.144745  -0.013745
 238   5  -2.325790   3.303302   2.453815  -0.001993   0.144745  -0.013768
 239   2   0.227915   5.279904   0.126604  -0.002047   0.144356  -0.014183
 240   2  -0.939316   4.451336  -0.161400  -0.001947   0.144356  -0.013487
 241   2  -1.938447   3.574847   0.443087  -0.001934   0.144356  -0.013398
 242   2  -2.381854   2.990482   1.705547  -0.001941   0.144356  -0.013445
 243   2  -2.266877   2.847683   2.875827  -0.001127   0.080076  -0.014073
 244   5   0.136721   4.838310   4.145367  -0.000818   0.066215  -0.012358
 245   5   0.649964   5.318564   3.682141  -0.000873   0.066215  -0.013185
 246   2   0.715231   4.876280   4.060811  -0.002124   0.145542  -0.014592
 247   4   1.810704   1.553019  -2.153556  -0.002741   0.219295  -0.012500
 248   4   2.304553   0.288097  -1.608034  -0.006473   0.447585  -0.014462
 249   3   3.136741   1.552983  -1.975692  -0.002133   0.616566  -0.003459
 250   3   3.632075   0.140507  -1.214266  -0.000623   0.316412  -0.001970
 251   5   0.967870   5.672983   3.116657  -0.002594   0.219389  -0.011823
 252   5   0.797595   5.895025   1.679572  -0.006356   0.447790  -0.014194
 253   3   2.110040   6.016937   2.510725  -0.002119   0.616813  -0.003436
 254   3   1.892369   6.115791   0.847691  -0.000733   0.316547  -0.002316
 =====================================================

              1089435  WORDS OF DYNAMIC MEMORY USED
 EXECUTION OF GAMESS TERMINATED NORMALLY Wed Nov 23 23:11:20 2016
 DDI: 263640 bytes (0.3 MB / 0 MWords) used by master data server.

 ----------------------------------------
 CPU timing information for all processes
 ========================================
 0: 39.676 + 0.24 = 39.700
 ----------------------------------------
 ddikick.x: exited gracefully.
