----- GAMESS execution script -----

          ******************************************************
          *         GAMESS VERSION =  5 DEC 2014 (R1)          *
          *             FROM IOWA STATE UNIVERSITY             *
          * M.W.SCHMIDT, K.K.BALDRIDGE, J.A.BOATZ, S.T.ELBERT, *
          *   M.S.GORDON, J.H.JENSEN, S.KOSEKI, N.MATSUNAGA,   *
          *          K.A.NGUYEN, S.J.SU, T.L.WINDUS,           *
          *       TOGETHER WITH M.DUPUIS, J.A.MONTGOMERY       *
          *         J.COMPUT.CHEM.  14, 1347-1363(1993)        *
          **************** 64 BIT LINUX VERSION ****************

 EXECUTION OF GAMESS BEGUN Wed Nov 23 23:23:45 2016

            ECHO OF THE FIRST FEW INPUT CARDS -
 INPUT CARD>! SELECT RESTRICTED HARTREE-FOCK AS DEFAULT                                     
 INPUT CARD>$contrl scftyp=rhf $end                                                         
 INPUT CARD>                                                                                
 INPUT CARD>! THEORY: HF OR DFT                                                             
 INPUT CARD> $contrl mplevl=0 $end                                                          
 INPUT CARD>                                                                                
 INPUT CARD> $system timlim=10000 mwords=20 $end                                            
 INPUT CARD> $SCF DIRSCF=.TRUE. $end                                                        
 INPUT CARD>                                                                                
 INPUT CARD>                                                                                
 INPUT CARD>! BASIS SETS                                                                    
 INPUT CARD>! 6-311G(d,p)                                                                   
 INPUT CARD> $BASIS GBASIS=N311 NGAUSS=6 NDFUNC=1 NPFUNC=1 $END                             
 INPUT CARD>                                                                                
 INPUT CARD>! One of the following                                                          
 INPUT CARD> $guess guess=HUCKEL $end                                                       
 INPUT CARD>                                                                                
 INPUT CARD> $statpt projct=.FALSE. $end                                                    
 INPUT CARD> $STATPT IFREEZ(1)=1,2,3 $END                                                   
 INPUT CARD>                                                                                
 INPUT CARD>! Optimize the geometry with COSMO effects                                      
 INPUT CARD> $statpt opttol=0.0005 nstep=50 $end                                            
 INPUT CARD> $contrl nzvar=1 $end                                                           
 INPUT CARD> $zmat dlc=.t. auto=.t. $end                                                    
 INPUT CARD> $contrl runtyp=OPTIMIZE maxit=200 $end                                         
 INPUT CARD>                                                                                
 INPUT CARD>! Run COSMO on perfect conductor                                                
 INPUT CARD> $COSGMS PRFCND=.TRUE. $end                                                     
 INPUT CARD>                                                                                
 INPUT CARD>! Specifying RSOLV                                                              
 INPUT CARD> $COSGMS COSRAD = 1.4 $end                                                      
 INPUT CARD>                                                                                
 INPUT CARD>! available memory                                                              
 INPUT CARD> $SYSTEM MWORDS=40 $END                                                         
 INPUT CARD>                                                                                
 INPUT CARD> $DATA                                                                          
 INPUT CARD>                                                                                
 INPUT CARD>C1                                                                              
 INPUT CARD>C      6.0      2.7093000000    4.1163000000    0.6939000000                    
 INPUT CARD>C      6.0      1.9440000000    2.8338000000    0.9514000000                    
 INPUT CARD>C      6.0      2.7333000000    1.9144000000    1.8580000000                    
 INPUT CARD>C      6.0      2.5598000000    2.0864000000    3.3517000000                    
 INPUT CARD>O      8.0      3.4861000000    1.0557000000    1.3975000000                    
 INPUT CARD>C      6.0      1.4406000000    1.2023000000    3.8630000000                    
 INPUT CARD>H      1.0      2.9068000000    4.6549000000    1.6265000000                    
 INPUT CARD>H      1.0      2.1392000000    4.7752000000    0.0322000000                    
 INPUT CARD>H      1.0      3.6750000000    3.9075000000    0.2213000000                    
 INPUT CARD>H      1.0      1.7508000000    2.3084000000    0.0101000000                    
 INPUT CARD>H      1.0      0.9712000000    3.0441000000    1.4070000000                    
 INPUT CARD>H      1.0      2.3574000000    3.1385000000    3.5758000000                    
   40000000 WORDS OF MEMORY AVAILABLE

     BASIS OPTIONS
     -------------
     GBASIS=N311         IGAUSS=       6      POLAR=POPN311 
     NDFUNC=       1     NFFUNC=       0     DIFFSP=       F
     NPFUNC=       1      DIFFS=       F     BASNAM=        


     RUN TITLE
     ---------
                                                                                 

 THE POINT GROUP OF THE MOLECULE IS C1      
 THE ORDER OF THE PRINCIPAL AXIS IS     0

 ATOM      ATOMIC                      COORDINATES (BOHR)
           CHARGE         X                   Y                   Z
 C           6.0     5.1198346185        7.7786790833        1.3112808629
 C           6.0     3.6736273201        5.3551055040        1.7978853047
 C           6.0     5.1651880422        3.6176914309        3.5111108852
 C           6.0     4.8373205834        3.9427243008        6.3337945930
 O           8.0     6.5877737658        1.9949837252        2.6408920678
 C           6.0     2.7223392579        2.2720175550        7.3000114906
 H           1.0     5.4930555011        8.7964855002        3.0736393190
 H           1.0     4.0425018329        9.0238195366        0.0608491768
 H           1.0     6.9447430049        7.3841042970        0.4181963611
 H           1.0     3.3085322593        4.3622434701        0.0190862325
 H           1.0     1.8353018793        5.7525148792        2.6588444647
 H           1.0     4.4548400435        5.9309050125        6.7572821869
 H           1.0     6.6251903404        3.4591434205        7.2580595736
 H           1.0     2.4878242628        2.5108789199        9.3405376121
 H           1.0     3.1248508933        0.2768448572        6.9233891012
 H           1.0     0.9255877888        2.7319768604        6.3823605509

          INTERNUCLEAR DISTANCES (ANGS.)




     $CONTRL OPTIONS
     ---------------
 SCFTYP=RHF          RUNTYP=OPTIMIZE     EXETYP=RUN     
 MPLEVL=       0     CITYP =NONE         CCTYP =NONE         VBTYP =NONE    
 DFTTYP=NONE         TDDFT =NONE    
 MULT  =       1     ICHARG=       0     NZVAR =       1     COORD =UNIQUE  
 PP    =NONE         RELWFN=NONE         LOCAL =NONE         NUMGRD=       F
 ISPHER=      -1     NOSYM =       0     MAXIT =     200     UNITS =ANGS    
 PLTORB=       F     MOLPLT=       F     AIMPAC=       F     FRIEND=        
 NPRINT=       7     IREST =       0     GEOM  =INPUT   
 NORMF =       0     NORMP =       0     ITOL  =      20     ICUT  =       9
 INTTYP=BEST         GRDTYP=BEST         QMTTOL= 1.0E-06

     $SYSTEM OPTIONS
     ---------------
  REPLICATED MEMORY=    40000000 WORDS (ON EVERY NODE).
 DISTRIBUTED MEMDDI=           0 MILLION WORDS IN AGGREGATE,
 MEMDDI DISTRIBUTED OVER   1 PROCESSORS IS           0 WORDS/PROCESSOR.
 TOTAL MEMORY REQUESTED ON EACH PROCESSOR=    40000000 WORDS.
 TIMLIM=       10000.00 MINUTES, OR       6.9 DAYS.
 PARALL= F  BALTYP=  DLB     KDIAG=    0  COREFL= F
 MXSEQ2=     300 MXSEQ3=     150  mem10=         0

     $COSGMS OPTIONS
     ---------------
     EPSI  =   INFTY     NSPA  =      92     COSRAD=    1.40
     DISEX =   10.00     OUTCHG=DBLCAV       COSBUG=       F
     COSWRT=       F     DCOSMO=       F

     SYMMETRY COORDINATES WILL NOT BE USED FOR 
     THE COSMO CALCULATION, EVEN IF SPECIFIED:
         -- SWITCHING TO C1 POINT GROUP --


     DEFINITION OF CAVITY
     ---------------------------
     ATOM         COORDINATES           RADIUS 
     1    5.1198    7.7787    1.3113    2.0000
     2    3.6736    5.3551    1.7979    2.0000
     3    5.1652    3.6177    3.5111    2.0000
     4    4.8373    3.9427    6.3338    2.0000
     5    6.5878    1.9950    2.6409    1.7200
     6    2.7223    2.2720    7.3000    2.0000
     7    5.4931    8.7965    3.0736    1.3000
     8    4.0425    9.0238    0.0608    1.3000
     9    6.9447    7.3841    0.4182    1.3000
    10    3.3085    4.3622    0.0191    1.3000
    11    1.8353    5.7525    2.6588    1.3000
    12    4.4548    5.9309    6.7573    1.3000
    13    6.6252    3.4591    7.2581    1.3000
    14    2.4878    2.5109    9.3405    1.3000
    15    3.1249    0.2768    6.9234    1.3000
    16    0.9256    2.7320    6.3824    1.3000

          ----------------
          PROPERTIES INPUT
          ----------------

     MOMENTS            FIELD           POTENTIAL          DENSITY
 IEMOM =       1   IEFLD =       0   IEPOT =       0   IEDEN =       0
 WHERE =COMASS     WHERE =NUCLEI     WHERE =NUCLEI     WHERE =NUCLEI  
 OUTPUT=BOTH       OUTPUT=BOTH       OUTPUT=BOTH       OUTPUT=BOTH    
 IEMINT=       0   IEFINT=       0                     IEDINT=       0
                                                       MORB  =       0
          EXTRAPOLATION IN EFFECT
          SOSCF IN EFFECT
 ORBITAL PRINTING OPTION: NPREO=     1   174     2     1

     -------------------------------
     INTEGRAL TRANSFORMATION OPTIONS
     -------------------------------
     NWORD  =            0
     CUTOFF = 1.0E-09     MPTRAN =       0
     DIRTRF =       T     AOINTS =DUP     

          ----------------------
          INTEGRAL INPUT OPTIONS
          ----------------------
 NOPK  =       1 NORDER=       0 SCHWRZ=       T


 -----------------------------------------------
  STATISTICS ON AUTOMATIC COORDINATE GENERATION 
 -----------------------------------------------
  NUMBER OF USER SPECIFIED BONDS                             0
  NUMBER OF BONDS                                           15
  NUMBER OF ANGLES                                          27
  NUMBER OF TORSIONS                                        30
  NUMBER OF EXTRA COORD.                                     0
  NUMBER OF EXTRA COORD. FOR CONSTRAINTS                     0
  NUMBER OF CONSTRAINED COORD.                               0

  TOTAL NUMBER OF PRIMITIVES                                72
 -----------------------------------------------

   --- ENCODED Z MATRIX ---
 COORD  TYPE   I   J   K   L   M   N
    1      1    1   2
    2      1    1   8
    3      1    1   7
    4      1    1   9
    5      1    2   3
    6      1    2  11
    7      1    2  10
    8      1    3   4
    9      1    3   5
   10      1    4  13
   11      1    4  12
   12      1    4   6
   13      1    6  16
   14      1    6  15
   15      1    6  14
   16      2    1   2  10
   17      2    1   2   3
   18      2    1   2  11
   19      2    2   1   9
   20      2    2   1   8
   21      2    2   3   5
   22      2    2   3   4
   23      2    2   1   7
   24      2    3   2  11
   25      2    3   2  10
   26      2    3   4   6
   27      2    3   4  12
   28      2    3   4  13
   29      2    4   3   5
   30      2    4   6  14
   31      2    4   6  16
   32      2    4   6  15
   33      2    6   4  12
   34      2    6   4  13
   35      2    7   1   8
   36      2    7   1   9
   37      2    8   1   9
   38      2   10   2  11
   39      2   12   4  13
   40      2   14   6  15
   41      2   14   6  16
   42      2   15   6  16
   43      3    1   2   3   4
   44      3    1   2   3   5
   45      3    2   3   4   6
   46      3    2   3   4  12
   47      3    2   3   4  13
   48      3    3   2   1   9
   49      3    3   2   1   7
   50      3    3   4   6  14
   51      3    3   2   1   8
   52      3    3   4   6  15
   53      3    3   4   6  16
   54      3    4   3   2  10
   55      3    4   3   2  11
   56      3    5   3   4  13
   57      3    5   3   4  12
   58      3    5   3   2  10
   59      3    5   3   2  11
   60      3    5   3   4   6
   61      3    7   1   2  10
   62      3    7   1   2  11
   63      3    8   1   2  10
   64      3    8   1   2  11
   65      3    9   1   2  10
   66      3    9   1   2  11
   67      3   12   4   6  15
   68      3   12   4   6  16
   69      3   12   4   6  14
   70      3   13   4   6  15
   71      3   13   4   6  16
   72      3   13   4   6  14

          INDEP./SYM. INTERNAL COORDINATES
          --------------------------------
 CRD  1=  -0.1372 (  1) -0.2301 (  5) -0.2009 (  8) -0.1277 ( 12)  0.1742 ( 16)
          -0.3657 ( 17)  0.2822 ( 21) -0.5846 ( 22) -0.1166 ( 23)  0.1431 ( 25)
           0.3025 ( 29) -0.1476 ( 43) -0.1088 ( 44)
 CRD  2=   0.1120 (  8)  0.1269 ( 16) -0.4222 ( 17)  0.1054 ( 20) -0.1141 ( 21)
           0.1486 ( 22)  0.1923 ( 24)  0.1238 ( 25)  0.5664 ( 26) -0.2004 ( 27)
          -0.1852 ( 28) -0.1106 ( 30)  0.1386 ( 31) -0.2024 ( 34) -0.1499 ( 43)
           0.2032 ( 45)  0.1842 ( 47) -0.1743 ( 54)
 CRD  3=   0.4480 ( 17) -0.1974 ( 18)  0.1690 ( 19)  0.1180 ( 21) -0.2392 ( 22)
          -0.1680 ( 24) -0.1445 ( 25)  0.4300 ( 26) -0.1592 ( 27) -0.1415 ( 28)
           0.1212 ( 29)  0.1691 ( 32) -0.1953 ( 33) -0.1804 ( 43) -0.1846 ( 44)
          -0.1898 ( 45) -0.1203 ( 46) -0.1140 ( 55) -0.1162 ( 57) -0.1182 ( 59)
          -0.1856 ( 60)
 CRD  4=  -0.2093 (  1) -0.2089 ( 12)  0.2020 ( 16) -0.1194 ( 17) -0.1222 ( 18)
          -0.1620 ( 21)  0.3226 ( 22) -0.2005 ( 23)  0.1798 ( 24) -0.1047 ( 25)
          -0.1151 ( 26)  0.1791 ( 27) -0.1058 ( 28) -0.1606 ( 29) -0.1963 ( 31)
          -0.1199 ( 33)  0.1965 ( 34) -0.2362 ( 43) -0.2330 ( 44) -0.2263 ( 45)
          -0.1203 ( 46) -0.1228 ( 47) -0.1224 ( 48) -0.1041 ( 49) -0.1236 ( 52)
          -0.1065 ( 53) -0.1279 ( 54) -0.1252 ( 55) -0.1260 ( 56) -0.1235 ( 57)
          -0.1247 ( 58) -0.1220 ( 59) -0.2296 ( 60)
 CRD  5=   0.2958 (  1)  0.2122 (  5) -0.2789 (  8) -0.2918 ( 12)  0.1566 ( 16)
          -0.2049 ( 18)  0.2365 ( 19)  0.2540 ( 21) -0.1323 ( 25)  0.1041 ( 28)
          -0.2528 ( 29) -0.1058 ( 30)  0.1107 ( 31) -0.2435 ( 32)  0.2061 ( 33)
          -0.1509 ( 34) -0.1238 ( 37)  0.1356 ( 40) -0.1933 ( 43) -0.1691 ( 44)
           0.2016 ( 45)  0.1763 ( 60)
 CRD  6=   0.4755 (  5)  0.1206 (  7)  0.4339 (  8)  0.1009 (  9)  0.1159 ( 10)
           0.2555 ( 20) -0.2729 ( 23)  0.1687 ( 25) -0.1067 ( 26)  0.1802 ( 28)
           0.2367 ( 30) -0.2579 ( 31) -0.1339 ( 37) -0.1169 ( 40)  0.1132 ( 49)
           0.1319 ( 50)  0.1348 ( 51)  0.1171 ( 53)
 CRD  7=  -0.2222 (  1) -0.1814 (  5)  0.1971 (  8)  0.1969 ( 12) -0.1683 ( 18)
           0.3257 ( 19) -0.2765 ( 20) -0.2098 ( 21) -0.2393 ( 23)  0.2139 ( 29)
           0.2690 ( 30)  0.2315 ( 31) -0.3322 ( 32)  0.1661 ( 33)  0.2069 ( 35)
          -0.1989 ( 41) -0.1071 ( 43) -0.1049 ( 44)  0.1101 ( 45)  0.1089 ( 60)
 CRD  8=   0.4109 (  1) -0.1595 (  5) -0.1573 (  8)  0.4534 ( 12)  0.2198 ( 16)
           0.1160 ( 19)  0.2391 ( 20) -0.1475 ( 25) -0.1617 ( 28)  0.2647 ( 30)
           0.1076 ( 32)  0.2312 ( 34) -0.1263 ( 35) -0.1583 ( 37) -0.1683 ( 40)
          -0.1470 ( 41)
 CRD  9=  -0.3607 (  1)  0.2476 (  5) -0.2476 (  8)  0.3305 ( 12) -0.1262 ( 16)
          -0.1122 ( 18) -0.1085 ( 19)  0.3917 ( 21) -0.1119 ( 23)  0.1438 ( 25)
          -0.1357 ( 28) -0.3906 ( 29)  0.1194 ( 31)  0.1028 ( 32)  0.1052 ( 33)
           0.1117 ( 34)  0.1028 ( 35)  0.1246 ( 36)  0.1045 ( 37) -0.1224 ( 42)
           0.1046 ( 59)
 CRD 10=  -0.1031 (  1)  0.1001 (  5)  0.1070 ( 12) -0.2105 ( 18) -0.2002 ( 19)
          -0.1030 ( 20) -0.1811 ( 21)  0.2103 ( 23)  0.2724 ( 24) -0.1929 ( 25)
          -0.2726 ( 27)  0.1908 ( 28)  0.1827 ( 29)  0.1087 ( 30) -0.2174 ( 31)
           0.2052 ( 32)  0.2103 ( 33)  0.1348 ( 37) -0.1391 ( 40) -0.1902 ( 48)
          -0.2072 ( 49)  0.2203 ( 50) -0.2195 ( 51)  0.1894 ( 52)  0.2074 ( 53)
 CRD 11=   0.1472 (  4) -0.1192 (  9)  0.1483 ( 14)  0.4719 ( 19) -0.2617 ( 20)
          -0.1735 ( 23) -0.2882 ( 30) -0.1478 ( 31)  0.4778 ( 32)  0.1903 ( 35)
          -0.1339 ( 36)  0.1904 ( 41) -0.1475 ( 42)
 CRD 12=  -0.1160 (  1)  0.1296 (  2)  0.1144 ( 12) -0.1237 ( 15)  0.1073 ( 17)
          -0.1608 ( 19)  0.4000 ( 20) -0.1271 ( 21) -0.3518 ( 23) -0.1470 ( 25)
          -0.1018 ( 26)  0.1438 ( 28)  0.1279 ( 29) -0.3798 ( 30)  0.3621 ( 31)
           0.1288 ( 32)  0.2304 ( 36)  0.1020 ( 40) -0.2209 ( 42)
 CRD 13=   0.1268 (  1)  0.1249 (  3)  0.2131 (  5)  0.2016 (  7)  0.2171 (  8)
           0.1557 (  9)  0.2034 ( 10)  0.1268 ( 12)  0.1246 ( 13) -0.1661 ( 17)
          -0.2464 ( 20)  0.3622 ( 23)  0.1147 ( 24) -0.1681 ( 26)  0.1127 ( 27)
          -0.2469 ( 30)  0.3639 ( 31) -0.1824 ( 36)  0.1092 ( 37) -0.1078 ( 38)
          -0.1083 ( 39)  0.1097 ( 40) -0.1825 ( 42) -0.1020 ( 43) -0.1027 ( 44)
          -0.1017 ( 45) -0.1010 ( 60)
 CRD 14=  -0.1051 (  5) -0.4262 (  9) -0.1579 ( 16)  0.2793 ( 18)  0.1491 ( 22)
          -0.2546 ( 24)  0.1843 ( 25) -0.2491 ( 27)  0.1854 ( 28)  0.2925 ( 33)
          -0.1760 ( 34) -0.2134 ( 46) -0.1393 ( 47)  0.1026 ( 49) -0.1358 ( 54)
          -0.2129 ( 55) -0.1374 ( 56) -0.2115 ( 57) -0.1377 ( 58) -0.2148 ( 59)
 CRD 15=  -0.1136 (  3)  0.1275 (  4)  0.1550 (  5)  0.3626 (  6) -0.1942 (  7)
          -0.1666 (  8)  0.2042 ( 10) -0.3670 ( 11)  0.1143 ( 13) -0.1273 ( 14)
           0.1466 ( 18)  0.1982 ( 19) -0.1228 ( 23) -0.1028 ( 27)  0.1261 ( 31)
          -0.1994 ( 32) -0.1236 ( 33)  0.1117 ( 35)  0.1010 ( 40) -0.1127 ( 41)
           0.2002 ( 43)  0.1873 ( 44) -0.2069 ( 45) -0.1232 ( 48) -0.1218 ( 49)
           0.1601 ( 50) -0.1502 ( 51)  0.1330 ( 52)  0.1320 ( 53) -0.1939 ( 60)
 CRD 16=   0.3564 (  6) -0.2785 (  7)  0.4255 (  9) -0.2476 ( 10)  0.3536 ( 11)
          -0.1527 ( 16)  0.1549 ( 18) -0.1036 ( 22)  0.1479 ( 33) -0.1199 ( 34)
          -0.1252 ( 46) -0.1039 ( 47) -0.1350 ( 48) -0.1345 ( 49) -0.1492 ( 50)
          -0.1557 ( 51) -0.1305 ( 52) -0.1284 ( 53) -0.1390 ( 54) -0.1461 ( 55)
          -0.1108 ( 56) -0.1321 ( 57) -0.1320 ( 58) -0.1392 ( 59)
 CRD 17=   0.1013 (  1)  0.2989 (  2)  0.3372 (  3)  0.3310 (  4) -0.1029 ( 10)
          -0.1050 ( 12) -0.3521 ( 13) -0.3394 ( 14) -0.3100 ( 15)  0.1139 ( 16)
          -0.1135 ( 19) -0.1439 ( 20) -0.1109 ( 23)  0.1484 ( 30)  0.1130 ( 31)
           0.1197 ( 32) -0.1199 ( 34)  0.1356 ( 35)  0.1142 ( 36)  0.1372 ( 37)
          -0.1436 ( 40) -0.1384 ( 41) -0.1185 ( 42) -0.1287 ( 47)  0.1232 ( 54)
 CRD 18=  -0.1229 (  1) -0.3466 (  2) -0.3627 (  3) -0.3630 (  4) -0.1192 ( 12)
          -0.3511 ( 13) -0.3516 ( 14) -0.3358 ( 15)  0.1260 ( 19)  0.1399 ( 20)
           0.1275 ( 23)  0.1354 ( 30)  0.1235 ( 31)  0.1221 ( 32) -0.1416 ( 35)
          -0.1326 ( 36) -0.1392 ( 37) -0.1349 ( 40) -0.1369 ( 41) -0.1283 ( 42)
 CRD 19=  -0.1640 (  2) -0.1045 (  3) -0.1151 (  4)  0.1909 (  7) -0.2251 ( 10)
           0.1007 ( 13)  0.1225 ( 14)  0.1662 ( 15)  0.2459 ( 16) -0.1015 ( 17)
           0.1144 ( 24) -0.1097 ( 25)  0.1021 ( 26) -0.1084 ( 27)  0.1031 ( 28)
          -0.2526 ( 34)  0.1371 ( 43) -0.1325 ( 45) -0.2287 ( 46) -0.3150 ( 47)
           0.3074 ( 54)  0.2212 ( 55) -0.2275 ( 56) -0.1413 ( 57)  0.2197 ( 58)
           0.1335 ( 59)
 CRD 20=  -0.2763 (  2)  0.1949 (  3)  0.3034 (  6)  0.3625 (  7) -0.3542 ( 10)
          -0.2971 ( 11) -0.1929 ( 13)  0.2695 ( 15)  0.1622 ( 36) -0.1130 ( 37)
           0.1482 ( 38) -0.1456 ( 39)  0.1119 ( 40) -0.1587 ( 42)  0.1081 ( 47)
          -0.1090 ( 54) -0.1255 ( 62)  0.1167 ( 65)  0.1229 ( 68) -0.1140 ( 70)
 CRD 21=  -0.3409 (  2)  0.1300 (  3)  0.1731 (  4)  0.2874 (  6)  0.2819 (  7)
           0.2865 ( 10)  0.2924 ( 11)  0.1344 ( 13)  0.1774 ( 14) -0.3503 ( 15)
           0.1871 ( 36)  0.1247 ( 38)  0.1269 ( 39) -0.1015 ( 41)  0.1922 ( 42)
          -0.1296 ( 62)  0.1377 ( 65) -0.1331 ( 68)  0.1408 ( 70)
 CRD 22=   0.2873 (  3) -0.2204 (  4)  0.4834 ( 13) -0.4914 ( 14)  0.1166 ( 35)
          -0.1526 ( 37) -0.2573 ( 40)  0.2603 ( 41) -0.1980 ( 50) -0.1039 ( 51)
          -0.1002 ( 63) -0.1900 ( 69) -0.1905 ( 72)
 CRD 23=   0.4300 (  3) -0.5303 (  4) -0.1784 ( 13)  0.2988 ( 14) -0.1187 ( 15)
           0.2813 ( 35) -0.2292 ( 37) -0.1586 ( 41)  0.1058 ( 49) -0.1940 ( 51)
           0.1133 ( 61)  0.1152 ( 62) -0.1866 ( 63) -0.1846 ( 64)
 CRD 24=   0.3559 (  2) -0.2494 (  3) -0.1114 (  4)  0.2341 (  6)  0.2968 (  7)
          -0.2957 ( 10) -0.2344 ( 11)  0.2507 ( 13)  0.1051 ( 14) -0.3511 ( 15)
          -0.1649 ( 36)  0.1217 ( 37)  0.1236 ( 38) -0.1239 ( 39) -0.1222 ( 40)
           0.1623 ( 42) -0.1048 ( 48)  0.1041 ( 52)  0.1146 ( 61) -0.1672 ( 66)
           0.1664 ( 67) -0.1124 ( 71)
 CRD 25=   0.3030 (  2) -0.1433 (  3) -0.1856 (  4)  0.3190 (  6)  0.3124 (  7)
           0.3153 ( 10)  0.3225 ( 11) -0.1478 ( 13) -0.1824 ( 14)  0.3037 ( 15)
          -0.1403 ( 36)  0.1470 ( 38)  0.1484 ( 39) -0.1407 ( 42)  0.1573 ( 61)
          -0.1321 ( 66) -0.1339 ( 67)  0.1573 ( 71)
 CRD 26=  -0.1859 (  6)  0.2024 (  7)  0.2230 (  9)  0.2975 ( 10) -0.2865 ( 11)
          -0.1025 ( 27)  0.1030 ( 28) -0.1020 ( 48) -0.1445 ( 50) -0.1480 ( 52)
          -0.1472 ( 53) -0.1536 ( 61) -0.1832 ( 62) -0.1518 ( 63) -0.1814 ( 64)
          -0.1558 ( 65) -0.1854 ( 66) -0.2520 ( 67) -0.2512 ( 68) -0.2485 ( 69)
          -0.2427 ( 70) -0.2418 ( 71) -0.2391 ( 72)
 CRD 27=   0.1091 (  5) -0.3051 (  6)  0.2999 (  7) -0.1236 (  8) -0.2069 ( 10)
           0.2185 ( 11)  0.1167 ( 25) -0.1015 ( 47) -0.1437 ( 48) -0.1450 ( 49)
          -0.1457 ( 51)  0.1134 ( 54) -0.2620 ( 61) -0.2126 ( 62) -0.2626 ( 63)
          -0.2132 ( 64) -0.2606 ( 65) -0.2113 ( 66)  0.1256 ( 67)  0.1281 ( 68)
           0.1294 ( 69)  0.1821 ( 70)  0.1846 ( 71)  0.1859 ( 72)
 CRD 28=  -0.1328 (  2) -0.2473 (  5)  0.1521 (  6)  0.2413 (  8) -0.1535 ( 11)
           0.1354 ( 15)  0.1566 ( 16)  0.1114 ( 18)  0.3117 ( 21) -0.1301 ( 24)
          -0.1542 ( 25)  0.1293 ( 27)  0.1546 ( 28) -0.3116 ( 29) -0.1148 ( 33)
          -0.1602 ( 34)  0.1181 ( 37) -0.1203 ( 40) -0.1161 ( 48)  0.1169 ( 52)
           0.1492 ( 57) -0.1477 ( 59) -0.1666 ( 62) -0.1686 ( 64) -0.2090 ( 66)
           0.2087 ( 67)  0.1658 ( 68)  0.1681 ( 69)
 CRD 29=  -0.1915 (  2) -0.1524 (  3)  0.1507 (  7)  0.4435 (  9)  0.1437 ( 10)
          -0.1440 ( 13) -0.1829 ( 15)  0.1044 ( 16)  0.1737 ( 18) -0.1095 ( 19)
          -0.1533 ( 20) -0.1440 ( 23) -0.1540 ( 24) -0.1152 ( 25) -0.1513 ( 27)
          -0.1149 ( 28) -0.1456 ( 30) -0.1358 ( 31) -0.1025 ( 32)  0.1649 ( 33)
           0.1873 ( 35)  0.1020 ( 36)  0.1382 ( 37)  0.1300 ( 40)  0.1788 ( 41)
           0.1020 ( 54) -0.1005 ( 55) -0.1028 ( 59)  0.1551 ( 61)  0.1165 ( 63)
           0.1154 ( 65)  0.1148 ( 70)  0.1537 ( 71)  0.1152 ( 72)
 CRD 30=   0.1535 (  1) -0.1470 (  2) -0.1532 (  3) -0.1520 (  4)  0.2611 (  5)
           0.1075 (  7) -0.2714 (  8) -0.1119 ( 10) -0.1690 ( 12)  0.1677 ( 13)
           0.1652 ( 14)  0.1639 ( 15)  0.1067 ( 18) -0.1387 ( 19) -0.1459 ( 20)
          -0.1757 ( 21) -0.1589 ( 23)  0.1756 ( 29)  0.1613 ( 30)  0.1731 ( 31)
           0.1529 ( 32) -0.1148 ( 33)  0.1534 ( 35)  0.1555 ( 36)  0.1570 ( 37)
          -0.1270 ( 38)  0.1320 ( 39) -0.1725 ( 40) -0.1702 ( 41) -0.1690 ( 42)
           0.1437 ( 46) -0.1382 ( 55)  0.2096 ( 57) -0.2033 ( 59)
 CRD 31=   0.1791 (  1) -0.1251 (  2) -0.1781 (  4)  0.1816 (  5)  0.1789 (  6)
           0.1726 (  8) -0.4943 (  9)  0.1765 ( 11)  0.1652 ( 12) -0.1670 ( 14)
          -0.1139 ( 15) -0.1553 ( 19) -0.1314 ( 20) -0.1167 ( 22) -0.1129 ( 23)
          -0.1204 ( 30) -0.1022 ( 31) -0.1452 ( 32)  0.1078 ( 35)  0.1447 ( 36)
           0.1673 ( 37)  0.1550 ( 40)  0.1342 ( 42)  0.1149 ( 47)  0.1159 ( 54)
           0.1171 ( 56)  0.1137 ( 58) -0.1152 ( 61) -0.1111 ( 65) -0.1118 ( 70)
          -0.1166 ( 71)
 CRD 32=  -0.3703 (  1)  0.1765 (  3)  0.1645 (  5)  0.1441 (  6) -0.1622 (  8)
          -0.1293 ( 11)  0.3638 ( 12) -0.1610 ( 13)  0.1003 ( 18)  0.1104 ( 19)
           0.1092 ( 20) -0.1040 ( 21) -0.1071 ( 30) -0.1088 ( 32) -0.1029 ( 33)
          -0.1577 ( 35) -0.1199 ( 36) -0.1269 ( 38)  0.1302 ( 39)  0.1492 ( 41)
           0.1140 ( 42) -0.2016 ( 44) -0.1284 ( 47)  0.1355 ( 54)  0.2759 ( 57)
          -0.2675 ( 59)  0.1998 ( 60)
 CRD 33=  -0.2428 (  1) -0.1364 (  2)  0.2150 (  3)  0.2301 (  5) -0.1354 (  7)
           0.2379 (  8) -0.1350 ( 10) -0.2571 ( 12)  0.2236 ( 13) -0.1316 ( 15)
           0.1097 ( 16) -0.1726 ( 24) -0.1130 ( 25) -0.1769 ( 27) -0.1101 ( 28)
           0.1145 ( 34) -0.2030 ( 36) -0.2051 ( 42) -0.1046 ( 48) -0.1030 ( 52)
           0.1453 ( 61)  0.1165 ( 63) -0.1076 ( 64) -0.2691 ( 66) -0.2700 ( 67)
          -0.1025 ( 69)  0.1386 ( 71)  0.1175 ( 72)
 CRD 34=  -0.1133 (  1) -0.1200 (  2)  0.2535 (  4)  0.1606 (  5) -0.2313 (  6)
           0.1251 (  7) -0.1636 (  8) -0.1236 ( 10)  0.2330 ( 11)  0.1156 ( 12)
          -0.2563 ( 14)  0.1250 ( 15) -0.1792 ( 25)  0.1813 ( 28)  0.1481 ( 35)
          -0.1367 ( 36) -0.1493 ( 41)  0.1414 ( 42)  0.1622 ( 50) -0.1626 ( 51)
           0.2893 ( 61)  0.1179 ( 62) -0.1158 ( 64)  0.1434 ( 65) -0.1183 ( 68)
           0.1180 ( 69) -0.1425 ( 70) -0.2940 ( 71)
 CRD 35=  -0.1515 (  1)  0.2176 (  4)  0.2106 (  5) -0.2267 (  9)  0.2115 ( 10)
          -0.1643 ( 12) -0.2349 ( 13)  0.2431 ( 14) -0.1851 ( 22) -0.1476 ( 25)
           0.1001 ( 27) -0.1515 ( 28)  0.1340 ( 29)  0.1183 ( 35) -0.1166 ( 37)
          -0.1025 ( 39) -0.2325 ( 40)  0.1338 ( 41) -0.1255 ( 46) -0.2868 ( 50)
          -0.1865 ( 51) -0.1465 ( 57)  0.1478 ( 61)  0.1054 ( 62) -0.1135 ( 64)
           0.1897 ( 67)  0.1399 ( 68) -0.1052 ( 69)  0.1380 ( 70) -0.1569 ( 72)
 CRD 36=   0.1006 (  1) -0.2025 (  2)  0.2666 (  3) -0.1130 (  4)  0.1613 (  5)
          -0.2219 (  7) -0.2514 (  8)  0.1196 ( 10) -0.1564 ( 13)  0.1941 ( 15)
          -0.1514 ( 21) -0.1355 ( 24) -0.1216 ( 36)  0.2352 ( 37)  0.1513 ( 38)
          -0.1095 ( 39) -0.1175 ( 40)  0.1479 ( 42)  0.1141 ( 49)  0.2233 ( 51)
           0.1052 ( 52) -0.1093 ( 53)  0.1255 ( 55) -0.1293 ( 57)  0.1963 ( 59)
           0.1634 ( 63) -0.1507 ( 65) -0.2892 ( 66)  0.2183 ( 67) -0.1309 ( 71)
 CRD 37=   0.2832 (  1) -0.2189 (  2)  0.1132 (  4) -0.1713 (  6) -0.1718 ( 11)
           0.2888 ( 12)  0.1109 ( 14) -0.2200 ( 15) -0.1243 ( 16) -0.1132 ( 18)
          -0.1159 ( 33) -0.1260 ( 34)  0.1643 ( 35)  0.1891 ( 38)  0.1914 ( 39)
           0.1641 ( 41) -0.2115 ( 47) -0.1051 ( 48)  0.1024 ( 49) -0.1064 ( 52)
           0.1013 ( 53) -0.2097 ( 54) -0.2109 ( 56) -0.2104 ( 58)  0.1887 ( 61)
           0.1044 ( 62) -0.1030 ( 66) -0.1044 ( 67)  0.1034 ( 68)  0.1878 ( 71)
 CRD 38=   0.1879 (  2) -0.1403 (  4)  0.2085 (  5) -0.2086 (  8)  0.1310 ( 14)
          -0.1911 ( 15)  0.1349 ( 18)  0.1150 ( 19) -0.1307 ( 20) -0.1097 ( 24)
          -0.1192 ( 25)  0.1130 ( 27)  0.1183 ( 28)  0.1333 ( 30) -0.1085 ( 32)
          -0.1294 ( 33) -0.1200 ( 35)  0.1279 ( 36)  0.1129 ( 41) -0.1304 ( 42)
           0.1384 ( 44) -0.1699 ( 49) -0.1066 ( 52)  0.1633 ( 53) -0.1053 ( 56)
           0.1036 ( 58) -0.1316 ( 60) -0.2640 ( 62)  0.1903 ( 63)  0.2445 ( 65)
           0.2664 ( 68) -0.2511 ( 70) -0.1791 ( 72)
 CRD 39=   0.1714 (  2) -0.1241 (  3)  0.1667 (  5) -0.1374 (  7)  0.1626 (  8)
          -0.1383 ( 10) -0.1268 ( 13)  0.1677 ( 15) -0.1546 ( 17) -0.1541 ( 20)
          -0.1523 ( 26) -0.1510 ( 30)  0.1372 ( 36)  0.1813 ( 38)  0.1783 ( 39)
           0.1344 ( 42)  0.1563 ( 48) -0.1100 ( 49)  0.1574 ( 52) -0.1032 ( 53)
          -0.2763 ( 62)  0.1061 ( 63) -0.1872 ( 64)  0.2833 ( 65) -0.2695 ( 68)
          -0.1899 ( 69)  0.2789 ( 70)
 CRD 40=  -0.1592 (  3)  0.1362 (  4)  0.1080 (  5)  0.1416 (  6) -0.1708 (  7)
          -0.1026 (  8)  0.1738 ( 10) -0.1490 ( 11)  0.1627 ( 13) -0.1441 ( 14)
           0.1522 ( 16) -0.1063 ( 18) -0.1095 ( 19) -0.1116 ( 21)  0.1395 ( 23)
          -0.1193 ( 24)  0.1219 ( 27)  0.1151 ( 29) -0.1422 ( 31)  0.1160 ( 32)
           0.1117 ( 33) -0.1556 ( 34) -0.1230 ( 37)  0.1257 ( 40) -0.1048 ( 41)
          -0.1663 ( 43) -0.1252 ( 44)  0.1730 ( 45)  0.2144 ( 48)  0.1727 ( 49)
          -0.2182 ( 52) -0.1831 ( 53)  0.1323 ( 60) -0.1995 ( 63) -0.2581 ( 64)
           0.2634 ( 69)  0.2106 ( 72)
 CRD 41=  -0.1276 (  3)  0.1381 (  4)  0.1710 (  6) -0.1581 (  7)  0.1312 (  9)
          -0.1386 ( 10)  0.1819 ( 11) -0.1162 ( 13)  0.1415 ( 14)  0.1175 ( 16)
          -0.1408 ( 18) -0.1280 ( 19)  0.1911 ( 22)  0.1135 ( 23)  0.1288 ( 25)
           0.1240 ( 28)  0.1047 ( 31) -0.1297 ( 32) -0.1365 ( 33)  0.1150 ( 34)
           0.1048 ( 35)  0.1052 ( 41) -0.1473 ( 43) -0.1609 ( 44) -0.1562 ( 45)
           0.2037 ( 48)  0.2241 ( 49)  0.1872 ( 52)  0.2281 ( 53) -0.1425 ( 60)
          -0.2325 ( 63) -0.2063 ( 64) -0.1865 ( 69) -0.2399 ( 72)
 CRD 42=   0.1462 (  1) -0.1080 (  6)  0.1058 ( 10) -0.1464 ( 12) -0.1753 ( 17)
           0.1745 ( 26)  0.1421 ( 38) -0.1413 ( 39)  0.2218 ( 43) -0.2241 ( 44)
          -0.2057 ( 45) -0.3373 ( 46) -0.1036 ( 47)  0.3280 ( 55)  0.3422 ( 56)
           0.1086 ( 57) -0.3514 ( 58) -0.1179 ( 59)  0.2402 ( 60) -0.1008 ( 62)
           0.1047 ( 65)  0.1020 ( 68) -0.1006 ( 70)

 THE DETERMINANT OF THE G MATRIX IS 10**(   -16)


                     --------------------
                     INTERNAL COORDINATES
                     --------------------

                 - - ATOMS - -         COORDINATE      COORDINATE
 NO.   TYPE    I  J  K  L  M  N        (BOHR,RAD)       (ANG,DEG)
 ----------------------------------------------------------------
   1 STRETCH   1  2                     2.8639149       1.5155186
   2 STRETCH   1  8                     2.0675106       1.0940796
   3 STRETCH   1  7                     2.0690894       1.0949151
   4 STRETCH   1  9                     2.0696811       1.0952281
   5 STRETCH   2  3                     2.8598082       1.5133454
   6 STRETCH   2 11                     2.0684838       1.0945946
   7 STRETCH   2 10                     2.0695883       1.0951790
   8 STRETCH   3  4                     2.8601900       1.5135475
   9 STRETCH   3  5                     2.3268458       1.2313138
  10 STRETCH   4 13                     2.0699262       1.0953579
  11 STRETCH   4 12                     2.0684525       1.0945780
  12 STRETCH   4  6                     2.8632119       1.5151466
  13 STRETCH   6 16                     2.0692901       1.0950213
  14 STRETCH   6 15                     2.0699213       1.0953553
  15 STRETCH   6 14                     2.0678005       1.0942330
  16 BEND      1  2 10                  1.9273252     110.4276001
  17 BEND      1  2  3                  1.9310696     110.6421408
  18 BEND      1  2 11                  1.9357677     110.9113180
  19 BEND      2  1  9                  1.9361062     110.9307162
  20 BEND      2  1  8                  1.9275919     110.4428783
  21 BEND      2  3  5                  2.1158984     121.2320466
  22 BEND      2  3  4                  2.0514824     117.5412813
  23 BEND      2  1  7                  1.9418987     111.2625996
  24 BEND      3  2 11                  1.9080523     109.3233430
  25 BEND      3  2 10                  1.8917276     108.3880090
  26 BEND      3  4  6                  1.9298615     110.5729179
  27 BEND      3  4 12                  1.9097267     109.4192815
  28 BEND      3  4 13                  1.8913639     108.3671697
  29 BEND      4  3  5                  2.1157996     121.2263855
  30 BEND      4  6 14                  1.9277050     110.4493595
  31 BEND      4  6 16                  1.9412460     111.2252050
  32 BEND      4  6 15                  1.9362734     110.9402947
  33 BEND      6  4 12                  1.9339070     110.8047100
  34 BEND      6  4 13                  1.9294530     110.5495159
  35 BEND      7  1  8                  1.8890255     108.2331863
  36 BEND      7  1  9                  1.8778730     107.5941969
  37 BEND      8  1  9                  1.8894513     108.2575874
  38 BEND     10  2 11                  1.8683001     107.0457094
  39 BEND     12  4 13                  1.8680041     107.0287519
  40 BEND     14  6 15                  1.8890910     108.2369442
  41 BEND     14  6 16                  1.8896312     108.2678927
  42 BEND     15  6 16                  1.8780165     107.6024215
  43 TORSION   1  2  3  4               1.5302838      87.6788039
  44 TORSION   1  2  3  5              -1.6146680     -92.5136597
  45 TORSION   2  3  4  6               1.5815343      90.6152397
  46 TORSION   2  3  4 12              -0.5532744     -31.7002893
  47 TORSION   2  3  4 13              -2.5843882    -148.0745368
  48 TORSION   3  2  1  9               1.0391093      59.5365767
  49 TORSION   3  2  1  7              -1.0507905     -60.2058582
  50 TORSION   3  4  6 14              -3.1409577    -179.9636174
  51 TORSION   3  2  1  8               3.1341229     179.5720129
  52 TORSION   3  4  6 15               1.0474824      60.0163183
  53 TORSION   3  4  6 16              -1.0422773     -59.7180894
  54 TORSION   4  3  2 10              -2.6372851    -151.1053028
  55 TORSION   4  3  2 11              -0.6065285     -34.7515250
  56 TORSION   5  3  4 13               0.5605634      32.1179152
  57 TORSION   5  3  4 12               2.5916772     148.4921628
  58 TORSION   5  3  2 10               0.5009485      28.7022336
  59 TORSION   5  3  2 11               2.5317050     145.0560114
  60 TORSION   5  3  4  6              -1.5566994     -89.1923083
  61 TORSION   7  1  2 10               3.1379789     179.7929460
  62 TORSION   7  1  2 11               1.0697522      61.2922851
  63 TORSION   8  1  2 10               1.0397069      59.5708172
  64 TORSION   8  1  2 11              -1.0285198     -58.9298438
  65 TORSION   9  1  2 10              -1.0553067     -60.4646190
  66 TORSION   9  1  2 11              -3.1235334    -178.9652800
  67 TORSION  12  4  6 15              -3.1151155    -178.4829710
  68 TORSION  12  4  6 16               1.0783102      61.7826213
  69 TORSION  12  4  6 14              -1.0203702     -58.4629067
  70 TORSION  13  4  6 15              -1.0470785     -59.9931764
  71 TORSION  13  4  6 16              -3.1368381    -179.7275840
  72 TORSION  13  4  6 14               1.0476668      60.0268879

     ------------------------------------------
     THE POINT GROUP IS C1 , NAXIS= 1, ORDER= 1
     ------------------------------------------

     DIMENSIONS OF THE SYMMETRY SUBSPACES ARE
 A   =  174

 ..... DONE SETTING UP THE RUN .....
 STEP CPU TIME =     0.01 TOTAL CPU TIME =        0.0 (    0.0 MIN)
 TOTAL WALL CLOCK TIME=        0.0 SECONDS, CPU UTILIZATION IS 100.00%


          -----------------------------
          STATIONARY POINT LOCATION RUN
          -----------------------------

 OBTAINING INITIAL HESSIAN, HESS=GUESS   
 DIAGONAL GUESS HESSIAN IN INTERNAL COORDS IS
     1  0.3777     2  0.3436     3  0.3431     4  0.3429     5  0.3793
     6  0.3433     7  0.3429     8  0.3791     9  0.5299    10  0.3428
    11  0.3433    12  0.3779    13  0.3430    14  0.3428    15  0.3435
    16  0.2246    17  0.2507    18  0.2247    19  0.2246    20  0.2247
    21  0.2582    22  0.2508    23  0.2246    24  0.2248    25  0.2248
    26  0.2507    27  0.2248    28  0.2247    29  0.2582    30  0.2247
    31  0.2247    32  0.2246    33  0.2247    34  0.2246    35  0.2029
    36  0.2029    37  0.2029    38  0.2029    39  0.2029    40  0.2029
    41  0.2029    42  0.2029    43  0.2500    44  0.2500    45  0.2500
    46  0.2500    47  0.2500    48  0.2500    49  0.2500    50  0.2500
    51  0.2500    52  0.2500    53  0.2500    54  0.2500    55  0.2500
    56  0.2500    57  0.2500    58  0.2500    59  0.2500    60  0.2500
    61  0.2500    62  0.2500    63  0.2500    64  0.2500    65  0.2500
    66  0.2500    67  0.2500    68  0.2500    69  0.2500    70  0.2500
    71  0.2500    72  0.2500
 TRANSFORMING HESSIAN TO SYMMETRY COORDINATES

          PARAMETERS CONTROLLING GEOMETRY SEARCH ARE
          METHOD =QA                  UPHESS =BFGS    
          NNEG   =         0          NFRZ   =         3
          NSTEP  =        50          IFOLOW =         1
          HESS   =GUESS               RESTAR =         F
          IHREP  =         0          HSSEND =         F
          NPRT   =         0          NPUN   =         0
          OPTTOL = 5.000E-04          RMIN   = 1.500E-03
          RMAX   = 1.000E-01          RLIM   = 7.000E-02
          DXMAX  = 3.000E-01          PURIFY =         F
          MOVIE  =         F          TRUPD  =         T
          TRMAX  = 5.000E-01          TRMIN  = 5.000E-02
          ITBMAT =         5          STPT   =         F
          STSTEP = 1.000E-02          PROJCT=          F
          FROZEN COORD(S)=   1   2   3


      ***** EQUILIBRIUM GEOMETRY LOCATED *****
            (SUBJECT TO   3 CONSTRAINT(S))
 COORDINATES OF ALL ATOMS ARE (ANGS)
   ATOM   CHARGE       X              Y              Z
 ------------------------------------------------------------
 C           6.0   2.7171807421   4.1196368145   0.6939205306
 C           6.0   1.9404652518   2.8191510125   0.9486663470
 C           6.0   2.7375691430   1.9086388014   1.8544570793
 C           6.0   2.5738494410   2.0897808117   3.3467391357
 O           8.0   3.4706447969   1.0731547869   1.4079096440
 C           6.0   1.4366385916   1.1947644781   3.8613391166
 H           1.0   2.9108117876   4.6532042811   1.6194660587
 H           1.0   2.1460380603   4.7727979511   0.0440942082
 H           1.0   3.6688472441   3.9090886011   0.2168171640
 H           1.0   1.7580826780   2.3024411582   0.0138064027
 H           1.0   0.9853358776   3.0500144782   1.4093159760
 H           1.0   2.3502498446   3.1273752855   3.5711350645
 H           1.0   3.5066134960   1.8246679278   3.8306425674
 H           1.0   1.3131558179   1.3273454062   4.9301443519
 H           1.0   1.6562057644   0.1498101966   3.6684896701
 H           1.0   0.4934492118   1.4389937911   3.3818136299


                     --------------------
                     INTERNAL COORDINATES
                     --------------------

                 - - ATOMS - -         COORDINATE      COORDINATE
 NO.   TYPE    I  J  K  L  M  N        (BOHR,RAD)       (ANG,DEG)
 ----------------------------------------------------------------
   1 STRETCH   1  2                     2.9027112       1.5360487
   2 STRETCH   1  8                     2.0484993       1.0840192
   3 STRETCH   1  7                     2.0517427       1.0857356
   4 STRETCH   1  9                     2.0507030       1.0851854
   5 STRETCH   2  3                     2.8564657       1.5115766
   6 STRETCH   2 11                     2.0508256       1.0852503
   7 STRETCH   2 10                     2.0477303       1.0836123
   8 STRETCH   3  4                     2.8575021       1.5121251
   9 STRETCH   3  5                     2.2636031       1.1978473
  10 STRETCH   4 13                     2.0479749       1.0837417
  11 STRETCH   4 12                     2.0501155       1.0848745
  12 STRETCH   4  6                     2.9025083       1.5359414
  13 STRETCH   6 16                     2.0520709       1.0859092
  14 STRETCH   6 15                     2.0504442       1.0850484
  15 STRETCH   6 14                     2.0485626       1.0840527
  16 BEND      1  2 10                  1.9238261     110.2271134
  17 BEND      1  2  3                  1.9206003     110.0422942
  18 BEND      1  2 11                  1.9127413     109.5920037
  19 BEND      2  1  9                  1.9306003     110.6152483
  20 BEND      2  1  8                  1.9210461     110.0678326
  21 BEND      2  3  5                  2.1170303     121.2969006
  22 BEND      2  3  4                  2.0511792     117.5239127
  23 BEND      2  1  7                  1.9442927     111.3997668
  24 BEND      3  2 11                  1.9154713     109.7484203
  25 BEND      3  2 10                  1.8949452     108.5723638
  26 BEND      3  4  6                  1.9187779     109.9378762
  27 BEND      3  4 12                  1.9187915     109.9386565
  28 BEND      3  4 13                  1.8945842     108.5516783
  29 BEND      4  3  5                  2.1149746     121.1791161
  30 BEND      4  6 14                  1.9213283     110.0840016
  31 BEND      4  6 16                  1.9434448     111.3511861
  32 BEND      4  6 15                  1.9303006     110.5980772
  33 BEND      6  4 12                  1.9128463     109.5980226
  34 BEND      6  4 13                  1.9231489     110.1883179
  35 BEND      7  1  8                  1.8848030     107.9912560
  36 BEND      7  1  9                  1.8899206     108.2844720
  37 BEND      8  1  9                  1.8916748     108.3849850
  38 BEND     10  2 11                  1.8960020     108.6329153
  39 BEND     12  4 13                  1.8954736     108.6026397
  40 BEND     14  6 15                  1.8923761     108.4251652
  41 BEND     14  6 16                  1.8848681     107.9949873
  42 BEND     15  6 16                  1.8900661     108.2928105
  43 TORSION   1  2  3  4               1.5211072      87.1530211
  44 TORSION   1  2  3  5              -1.6221528     -92.9425116
  45 TORSION   2  3  4  6               1.5752957      90.2577975
  46 TORSION   2  3  4 12              -0.5320160     -30.4822704
  47 TORSION   2  3  4 13              -2.6031077    -149.1470862
  48 TORSION   3  2  1  9               1.0512762      60.2336894
  49 TORSION   3  2  1  7              -1.0517329     -60.2598554
  50 TORSION   3  4  6 14              -3.1355299    -179.6526272
  51 TORSION   3  2  1  8               3.1412687     179.9814396
  52 TORSION   3  4  6 15               1.0568004      60.5502007
  53 TORSION   3  4  6 16              -1.0456250     -59.9099004
  54 TORSION   4  3  2 10              -2.6551382    -152.1282152
  55 TORSION   4  3  2 11              -0.5851165     -33.5247084
  56 TORSION   5  3  4 13               0.5401502      30.9483274
  57 TORSION   5  3  4 12               2.6112420     149.6131432
  58 TORSION   5  3  2 10               0.4847871      27.7762521
  59 TORSION   5  3  2 11               2.5548088     146.3797590
  60 TORSION   5  3  4  6              -1.5646316     -89.6467889
  61 TORSION   7  1  2 10              -3.1412105    -179.9781038
  62 TORSION   7  1  2 11               1.0561328      60.5119505
  63 TORSION   8  1  2 10               1.0517911      60.2631913
  64 TORSION   8  1  2 11              -1.0340509     -59.2467544
  65 TORSION   9  1  2 10              -1.0382014     -59.4845590
  66 TORSION   9  1  2 11              -3.1240434    -178.9945047
  67 TORSION  12  4  6 15              -3.1154949    -178.5047108
  68 TORSION  12  4  6 16               1.0652650      61.0351881
  69 TORSION  12  4  6 14              -1.0246398     -58.7075387
  70 TORSION  13  4  6 15              -1.0306558     -59.0522263
  71 TORSION  13  4  6 16              -3.1330812    -179.5123274
  72 TORSION  13  4  6 14               1.0601993      60.7449458

          INTERNUCLEAR DISTANCES (ANGS.)


 =====================================================
   GAMESS/COSab RESULTS
 =====================================================

   Dielectric Constant                  = INFTY
   Basic Grid Size                      =                 1082
   Number of Segments                   =                   92
   Number of Segments located on spheres=                  232
   Number of Segments of the cavity     =                  566
   Solvent Radius (rsolv)               = 1.40
   Outlying Charge Error Method         = double cavity

 =====================================================

  Total solvated Energy (a.u.)          =  -270.1095248908
  Total Energy corrected (a.u.)         =  -270.1091791612

  Outlying charge effect (a.u.)         =     0.0003457297
  Outlying charge effect (kcal/mol)     =     0.2169488193

  Dielectric Energy (a.u.)              =    -0.0130460407
  Dielectric energy corr. (a.u.)        =    -0.0127003111

  Sum of polarization charges           =     0.0217822229
  Sum of polarization charges(cor.)     =    -0.0217822229

  Total surface area of cavity (A**2)   =  138.00
  Total volume of cavity (A**3)         =  128.93

 =====================================================
 NPS=                   566
NR.  ATOM  (X, Y, Z)(a.u.)                  CHARGE(e)  AREA(A**2) SIGMA(e/A**2)
   1   1   8.689150   8.240029   2.512688   0.000712   0.232280   0.003066
   2   1   6.529908  11.265969   0.841785   0.000463   0.371649   0.001246
   3   1   3.052869  10.822714   2.161169   0.001286   0.371649   0.003460
   4   1   5.689920   6.716805  -2.271290   0.000857   0.418105   0.002050
   5   1   6.221785   7.704194  -2.307536   0.000511   0.185824   0.002748
   6   1   4.524425   7.038780  -2.343134   0.000356   0.232280   0.001533
   7   1   4.699239   7.721223  -2.442426   0.000523   0.232280   0.002250
   8   1   3.619132  10.851535   2.918620   0.000834   0.278737   0.002993
   9   1   6.475378  11.255681   1.975504   0.000635   0.418105   0.001519
  10   1   8.300592   8.610353   3.203493   0.000805   0.278737   0.002890
  11   1   6.534984   9.123152  -1.934124   0.001407   0.371649   0.003787
  12   1   5.847160   9.302379  -2.076048   0.000768   0.232280   0.003308
  13   1   8.454242   7.574575   3.105983   0.000617   0.278737   0.002215
  14   1   8.452605   9.422093   2.083218   0.001751   0.511017   0.003427
  15   1   7.601949  10.647243   1.378719   0.000664   0.418105   0.001587
  16   1   5.327555  11.552991   1.089590   0.001017   0.418105   0.002431
  17   1   4.082512  11.378621   1.823971   0.001274   0.325193   0.003918
  18   1   2.517515  10.062968   2.809705   0.000858   0.371649   0.002308
  19   1   2.430999   9.330299   3.452820   0.000116   0.139368   0.000836
  20   1   7.315495   9.961951  -0.877142   0.000890   0.371649   0.002396
  21   1   7.195550  10.687644   0.041734   0.000668   0.464561   0.001438
  22   1   5.980032  11.188010  -0.099047   0.000481   0.325193   0.001480
  23   1   2.155872  10.054609   1.820646   0.000263   0.185824   0.001417
  24   1   1.619940   9.169837   1.423784  -0.000020   0.139368  -0.000147
  25   1   6.110880   5.943538  -1.841544   0.000033   0.185824   0.000179
  26   1   5.537008   8.154507  -2.428460   0.001270   0.371649   0.003416
  27   1   3.612268   7.431208  -2.129794   0.000085   0.139368   0.000610
  28   1   2.934141   9.692576   3.720194   0.000157   0.232280   0.000675
  29   1   5.048476  11.491293   2.046193   0.000894   0.325193   0.002749
  30   1   7.816278  10.279678   2.244076   0.000542   0.278737   0.001944
  31   1   6.341472  10.413865  -1.121177   0.001079   0.418105   0.002581
  32   1   8.139714   9.977608   0.642932   0.000605   0.371649   0.001629
  33   1   1.860848   9.407929   2.276693   0.000211   0.232280   0.000908
  34   2   1.225398   2.456353   1.509703  -0.000341   0.185824  -0.001835
  35   2   0.270013   5.673489   0.172433   0.000713   0.371649   0.001918
  36   2   0.634194   4.955551  -0.431778   0.000447   0.278737   0.001604
  37   2   1.512056   2.373241   0.836914  -0.000128   0.325193  -0.000393
  38   2   5.640007   4.419055  -1.300210  -0.000071   0.046456  -0.001527
  39   2   0.627997   3.143981   1.262007   0.000419   0.325193   0.001289
  40   2   0.180169   4.628234   0.512961   0.000869   0.325193   0.002671
  41   2   0.937010   6.391439  -0.594656   0.000337   0.418105   0.000806
  42   2   1.473326   6.451194  -1.072489   0.000061   0.139368   0.000439
  43   2   0.537558   6.885883   0.356629  -0.000034   0.371649  -0.000090
  44   2   0.921383   7.850311   1.175374  -0.000123   0.046456  -0.002646
  45   2   1.822135   6.132303  -1.406202  -0.000091   0.185824  -0.000491
  46   2   0.558660   3.620437   0.485416   0.000570   0.232280   0.002454
  47   2   0.161926   3.992283   1.327420   0.000352   0.232280   0.001514
  48   3   3.191584   0.786742   1.953757  -0.000146   0.092912  -0.001576
  49   3   8.738926   4.560319   4.317441  -0.000157   0.139368  -0.001129
  50   3   2.400565   1.243279   2.499300  -0.000750   0.092912  -0.008068
  51   3   2.979172   1.068584   1.764374  -0.000223   0.139368  -0.001599
  52   3   8.545792   5.200164   4.113841  -0.001047   0.232280  -0.004506
  53   3   3.156451   0.539745   2.604429  -0.000089   0.139368  -0.000636
  54   4   5.273540   5.112661   9.896905   0.000034   0.232280   0.000148
  55   4   7.624147   6.201076   7.586865   0.000874   0.371649   0.002352
  56   4   6.925664   6.838291   7.622844   0.000394   0.278737   0.001414
  57   4   4.777731   5.897467   9.561831  -0.000080   0.371649  -0.000216
  58   4   6.016227   5.437536   9.601763   0.000464   0.325193   0.001426
  59   4   7.123163   6.081037   8.477268   0.000805   0.278737   0.002888
  60   4   7.683719   6.452090   6.584746  -0.000010   0.278737  -0.000036
  61   4   5.814395   4.389852   9.955751   0.000166   0.278737   0.000597
  62   4   8.215280   5.665195   6.652018   0.000044   0.185824   0.000239
  63   4   6.228277   6.203067   9.034102   0.000503   0.278737   0.001806
  64   4   5.912448   3.549657   9.933468  -0.000024   0.139368  -0.000171
  65   4   6.851072   5.466583   9.158602   0.000402   0.232280   0.001729
  66   4   8.216119   5.644143   5.907903  -0.000480   0.232280  -0.002069
  67   5   8.581733  -0.254089   1.536464   0.005167   0.377948   0.013672
  68   5   6.469936  -1.080133   3.607363   0.003224   0.206154   0.015640
  69   5   8.958745   0.912650   4.547315   0.005540   0.274871   0.020154
  70   5   9.658954   2.786027   2.046076   0.003307   0.274871   0.012030
  71   5   7.431299   2.217359  -0.464672   0.007111   0.343589   0.020697
  72   5   5.287923  -0.164239   0.624813   0.003317   0.240512   0.013793
  73   5   7.839088  -0.925214   2.209393   0.005721   0.412307   0.013876
  74   5   7.143162  -1.137230   3.112604   0.004993   0.343589   0.014531
  75   5   8.959337  -0.163126   2.661783   0.006147   0.412307   0.014910
  76   5   9.032052   0.222283   3.749589   0.005794   0.343589   0.016863
  77   5   9.315462   0.709540   1.553369   0.005533   0.412307   0.013420
  78   5   9.596324   1.848001   1.518516   0.004827   0.377948   0.012772
  79   5   8.455750   0.423011   0.565473   0.005540   0.377948   0.014657
  80   5   7.988490   1.189870  -0.135419   0.005614   0.343589   0.016340
  81   5   7.563152  -0.492277   0.870661   0.006763   0.481025   0.014060
  82   5   6.375198  -0.506443   0.633814   0.005845   0.412307   0.014176
  83   5   7.238447  -0.726699   4.246173   0.005047   0.274871   0.018362
  84   5   8.229732   0.013087   4.587235   0.006607   0.343589   0.019229
  85   5   9.511542   1.415094   3.872566   0.006168   0.377948   0.016320
  86   5   9.789994   2.271955   2.911537   0.005397   0.412307   0.013089
  87   5   9.180188   2.782419   0.893489   0.004939   0.343589   0.014373
  88   5   8.379915   2.532122   0.016106   0.006614   0.377948   0.017500
  89   5   6.710909   1.393155  -0.523524   0.006596   0.343589   0.019197
  90   5   5.825294   0.485693  -0.104991   0.007682   0.412307   0.018631
  91   5   5.585887  -0.838729   1.477131   0.004716   0.377948   0.012477
  92   5   5.840395  -1.141293   2.728270   0.005807   0.412307   0.014085
  93   5   9.418103   3.340322   3.476312   0.002320   0.206154   0.011252
  94   5   9.416157   3.575477   2.724317   0.002680   0.240512   0.011143
  95   5   9.354834   3.447255   1.805475   0.002245   0.171795   0.013070
  96   5   4.814862   0.378513   0.468900   0.002515   0.171795   0.014639
  97   5   4.477377  -0.106086   1.364781   0.004452   0.343589   0.012958
  98   5   8.162534  -0.675616   3.486701   0.006760   0.412307   0.016395
  99   5   9.641695   0.999480   2.694454   0.006854   0.481025   0.014248
 100   5   8.937165   1.583738   0.490414   0.005918   0.412307   0.014352
 101   5   7.112462   0.386838  -0.089797   0.007396   0.446666   0.016559
 102   5   6.700387  -1.111500   1.830988   0.004867   0.377948   0.012878
 103   5   7.457568  -0.238312   4.810068   0.003015   0.137436   0.021939
 104   5   9.470102   2.499009   4.026482   0.004468   0.309230   0.014449
 105   5   4.778817  -0.658775   2.238089   0.003832   0.309230   0.012393
 106   6  -0.481069   3.753719   8.650541   0.000773   0.232280   0.003327
 107   6   0.367903  -0.223703   8.914973   0.000472   0.371649   0.001270
 108   6   4.036646  -0.387852   9.650111   0.001358   0.371649   0.003655
 109   6   0.831102   0.781179   4.371910   0.000160   0.139368   0.001149
 110   6   3.662422   0.179708  10.308176   0.000860   0.278737   0.003084
 111   6   0.668560   0.356664   9.842970   0.000687   0.418105   0.001644
 112   6  -0.025861   3.852615   9.353364   0.001235   0.371649   0.003323
 113   6   2.101986   5.218752   9.564304   0.000033   0.185824   0.000179
 114   6   0.277417  -0.006215   5.503142   0.001193   0.325193   0.003668
 115   6   0.901339  -0.447465   5.379304   0.000689   0.232280   0.002964
 116   6   1.181682   5.365514   8.805374   0.000422   0.278737   0.001515
 117   6   0.183601   4.817261   8.448396   0.001062   0.371649   0.002857
 118   6  -0.670329   2.525512   8.956095   0.001752   0.511017   0.003428
 119   6  -0.354813   0.908661   9.040774   0.000698   0.418105   0.001668
 120   6   1.332582  -0.619366   9.320619   0.001028   0.371649   0.002766
 121   6   2.890931  -0.580449   9.786383   0.001103   0.278737   0.003955
 122   6   4.775597   0.599580   9.996494   0.000782   0.325193   0.002403
 123   6   5.302403   1.236383   9.855308   0.000208   0.139368   0.001489
 124   6  -0.392763   0.168711   6.784311   0.000787   0.371649   0.002116
 125   6  -0.275317   0.039979   7.948350   0.000626   0.464561   0.001347
 126   6   0.700050  -0.842872   8.078364   0.000501   0.325193   0.001541
 127   6   4.974720  -0.181681   9.093061   0.000574   0.278737   0.002059
 128   6   5.683721   0.091569   8.178720   0.000035   0.185824   0.000190
 129   6   1.322668   0.086426   4.534388   0.001069   0.371649   0.002876
 130   6   4.878101   1.685161  10.342642   0.000137   0.185824   0.000738
 131   6   2.060186  -0.293440  10.007385   0.000862   0.278737   0.003094
 132   6  -0.268787   1.720652   9.553760   0.000563   0.278737   0.002018
 133   6   0.842352   4.826762   9.340951   0.000468   0.232280   0.002016
 134   6   0.346566  -0.646939   6.808976   0.001053   0.418105   0.002519
 135   6   0.625412   5.390129   7.623730   0.000340   0.325193   0.001047
 136   6  -0.839516   1.233068   8.071853   0.000585   0.371649   0.001574
 137   6   2.192406  -0.962995   9.204192   0.000417   0.185824   0.002243
 138   6   5.469221   0.406855   9.105687   0.000307   0.232280   0.001323
 139   7   5.804705  10.358958   4.928838  -0.003395   0.471065  -0.007207
 140   7   7.518492   9.172114   4.409363  -0.001391   0.353299  -0.003936
 141   7   4.750697  10.915436   4.044775  -0.001327   0.392554  -0.003381
 142   7   6.695279  10.868342   3.609907  -0.001205   0.353299  -0.003409
 143   7   6.718059   9.724534   4.980172  -0.002555   0.372926  -0.006851
 144   7   4.345129  10.165283   4.738879  -0.002596   0.471065  -0.005512
 145   7   5.741282  11.113992   3.829400  -0.001540   0.392554  -0.003924
 146   7   7.291967  10.183142   4.006127  -0.001507   0.392554  -0.003839
 147   8   2.832446  10.527988  -1.421072  -0.004219   0.608459  -0.006935
 148   8   2.070055   9.050319  -1.363207  -0.001674   0.353299  -0.004739
 149   8   3.823275   9.137434  -2.359460  -0.001037   0.333671  -0.003106
 150   8   4.662292  10.763271  -1.536938  -0.001179   0.353299  -0.003337
 151   8   3.463770  11.401693   0.179013  -0.001178   0.372926  -0.003158
 152   8   1.876153  10.107938   0.400734  -0.001179   0.353299  -0.003338
 153   8   2.812648   9.003403  -2.035716  -0.002307   0.490692  -0.004702
 154   8   4.083817  10.103738  -2.120805  -0.002276   0.490692  -0.004639
 155   8   3.989898  11.296699  -0.835447  -0.002437   0.510320  -0.004776
 156   8   2.530117  10.944115   0.023569  -0.002404   0.490692  -0.004899
 157   8   1.808660   9.728826  -0.612174  -0.002331   0.490692  -0.004750
 158   9   9.093673   7.336079  -0.758386  -0.002813   0.451437  -0.006232
 159   9   7.726878   7.716510  -1.891696  -0.000960   0.333671  -0.002878
 160   9   7.681282   5.964708  -1.448258  -0.001686   0.353299  -0.004772
 161   9   9.269922   7.594712   1.138653  -0.001270   0.372926  -0.003406
 162   9   8.732353   8.804231  -0.478885  -0.001216   0.372926  -0.003262
 163   9   8.000631   6.839983  -1.734139  -0.001775   0.412182  -0.004307
 164   9   8.783962   6.232051  -0.719561  -0.002960   0.431809  -0.006854
 165   9   9.294205   6.717341   0.518134  -0.002812   0.451437  -0.006229
 166   9   9.223070   8.269715   0.299170  -0.001796   0.431809  -0.004159
 167   9   8.410874   8.301525  -1.326703  -0.001797   0.431809  -0.004162
 168  10   2.707067   3.285016  -2.100019  -0.003442   0.490692  -0.007014
 169  10   4.653663   3.845878  -1.975782  -0.001931   0.392554  -0.004920
 170  10   2.752842   5.046117  -2.260313  -0.001733   0.353299  -0.004906
 171  10   1.302370   3.935459  -1.308949  -0.001364   0.372926  -0.003658
 172  10   2.154343   2.248491  -0.474421  -0.001674   0.372926  -0.004489
 173  10   4.021961   2.894445  -1.824347  -0.002876   0.451437  -0.006370
 174  10   3.651390   4.300584  -2.407900  -0.002551   0.490692  -0.005198
 175  10   1.981881   4.452242  -2.030156  -0.002257   0.451437  -0.005001
 176  10   1.692964   2.971770  -1.189702  -0.002344   0.471065  -0.004976
 177  10   3.047888   2.277362  -1.262291  -0.002927   0.451437  -0.006484
 178  11  -0.338154   6.512798   3.458969  -0.003608   0.471065  -0.007660
 179  11   0.760328   7.673667   3.746444  -0.001889   0.314043  -0.006014
 180  11  -0.433145   5.070419   2.127741  -0.001477   0.333671  -0.004427
 181  11  -0.055094   7.142986   1.986961  -0.001807   0.372926  -0.004845
 182  11   0.389292   6.956150   4.226628  -0.002786   0.333671  -0.008348
 183  11  -0.569830   5.567721   2.951064  -0.002395   0.314043  -0.007627
 184  11  -0.446841   6.196576   1.944263  -0.001707   0.372926  -0.004576
 185  11   0.184641   7.548736   2.850625  -0.001689   0.353299  -0.004780
 186  12   3.842995   8.103832   7.677840  -0.002930   0.372926  -0.007856
 187  12   2.479561   7.220026   7.434139  -0.001838   0.314043  -0.005854
 188  12   5.724229   7.700528   7.836069  -0.001606   0.333671  -0.004812
 189  12   4.105755   7.064104   8.890966  -0.001237   0.274788  -0.004503
 190  12   2.960245   7.858012   6.963727  -0.002950   0.353299  -0.008350
 191  12   4.864964   8.152152   7.658355  -0.001971   0.255160  -0.007725
 192  12   4.902560   7.523017   8.542958  -0.001735   0.372926  -0.004652
 193  12   3.291233   7.328449   8.391665  -0.002236   0.451437  -0.004953
 194  13   8.696419   3.010893   8.487680  -0.003462   0.490692  -0.007056
 195  13   7.759245   1.343827   7.808096  -0.001949   0.392554  -0.004964
 196  13   7.272605   2.761613   9.507425  -0.001748   0.353299  -0.004949
 197  13   8.047667   4.570375   8.898997  -0.001380   0.372926  -0.003701
 198  13   8.905896   4.342526   7.039564  -0.001769   0.392554  -0.004506
 199  13   8.621801   2.036474   7.486469  -0.002912   0.451437  -0.006449
 200  13   7.791593   1.965378   8.813414  -0.002563   0.490692  -0.005223
 201  13   7.822281   3.587292   9.380339  -0.002278   0.451437  -0.005047
 202  13   8.725743   4.362171   8.129358  -0.002382   0.471065  -0.005056
 203  13   9.067270   3.178196   7.167329  -0.002963   0.451437  -0.006564
 204  14   2.255112   2.734839  11.752306  -0.003911   0.569203  -0.006872
 205  14   0.735248   3.594372  10.660565  -0.001135   0.372926  -0.003045
 206  14   2.442929   4.474013  10.789592  -0.001366   0.353299  -0.003867
 207  14   4.008577   2.805543  11.217888  -0.001491   0.353299  -0.004222
 208  14   2.907272   1.065433  11.258772  -0.001143   0.372926  -0.003066
 209  14   0.939069   1.538754  10.964645  -0.001388   0.412182  -0.003368
 210  14   1.656803   3.972248  11.108793  -0.002461   0.490692  -0.005015
 211  14   3.240530   3.699745  11.326467  -0.002362   0.490692  -0.004814
 212  14   3.485658   1.982950  11.496252  -0.002239   0.471065  -0.004753
 213  14   1.909327   1.345726  11.403758  -0.002267   0.471065  -0.004813
 214  14   0.861464   2.636859  11.158923  -0.002428   0.490692  -0.004947
 215  15   3.325790  -2.165468   6.966289  -0.002786   0.451437  -0.006170
 216  15   2.499602  -1.276365   5.141905  -0.001429   0.333671  -0.004283
 217  15   1.798756  -1.755213   6.602677  -0.001387   0.392554  -0.003533
 218  15   3.168199  -1.751577   8.308552  -0.001133   0.353299  -0.003208
 219  15   5.034872  -1.167465   7.481551  -0.001830   0.431809  -0.004238
 220  15   3.554837  -1.846482   5.783855  -0.002800   0.412182  -0.006793
 221  15   2.300179  -1.776916   5.882122  -0.001557   0.353299  -0.004407
 222  15   2.254329  -1.903422   7.630861  -0.001594   0.412182  -0.003867
 223  15   4.142185  -1.647000   8.065931  -0.001571   0.412182  -0.003812
 224  15   4.492445  -1.743940   6.669218  -0.002695   0.412182  -0.006539
 225  16  -1.287691   3.338861   5.540971  -0.003769   0.510320  -0.007386
 226  16  -0.481637   1.437823   4.843712  -0.001066   0.353299  -0.003017
 227  16  -1.212325   3.665749   7.124918  -0.001221   0.372926  -0.003275
 228  16  -1.326127   1.815572   6.732745  -0.000876   0.314043  -0.002790
 229  16  -0.875829   2.395029   4.759767  -0.002336   0.353299  -0.006613
 230  16  -0.805861   4.453747   6.460843  -0.002486   0.471065  -0.005277
 231  16  -1.487744   2.804943   6.803263  -0.001832   0.412182  -0.004445
 232  16  -1.218248   1.740216   5.719278  -0.002117   0.471065  -0.004495
 233   1   1.495482   8.710656   0.820651  -0.000080   0.026982  -0.002969
 234   2   1.280354   8.266989   0.908562  -0.000072   0.026982  -0.002674
 235   8   1.562174   8.889906   0.587203  -0.000128   0.026982  -0.004735
 236   1   2.859669   7.403679  -1.692099  -0.000063   0.026982  -0.002341
 237   2   2.626461   6.977334  -1.570887  -0.000050   0.026982  -0.001843
 238   8   2.803981   7.700177  -1.700130  -0.000086   0.026982  -0.003196
 239   1   6.458153   5.341346  -1.261003  -0.000088   0.026346  -0.003323
 240   2   6.186120   4.937396  -1.144164  -0.000079   0.026346  -0.002988
 241   9   6.739237   5.448947  -1.232545  -0.000125   0.026346  -0.004741
 242   1   3.106899   6.694291  -1.822080  -0.000046   0.026743  -0.001720
 243   2   2.836972   6.274648  -1.778695  -0.000086   0.026743  -0.003224
 244  10   2.844796   5.986471  -1.867273  -0.000110   0.026743  -0.004122
 245   1   5.762704   5.171488  -1.498524  -0.000057   0.026743  -0.002121
 246   2   5.528537   4.731342  -1.450783  -0.000079   0.026743  -0.002953
 247  10   5.294819   4.581661  -1.568787  -0.000135   0.026743  -0.005058
 248   1   1.297540   8.405902   1.385696  -0.000081   0.027682  -0.002940
 249   2   1.008268   8.004564   1.463906  -0.000113   0.027682  -0.004085
 250  11   0.845132   7.885276   1.688867  -0.000185   0.027682  -0.006675
 251   2   1.046814   8.072005   1.228340  -0.000028   0.052164  -0.000529
 252   1   1.410680   8.667373   1.048217  -0.000023   0.052164  -0.000439
 253   2   2.623077   6.560146  -1.683717  -0.000037   0.072325  -0.000507
 254   1   3.050930   7.122497  -1.837302   0.000000   0.072325   0.000000
 255   2   5.792457   4.734145  -1.342110  -0.000044   0.070698  -0.000626
 256   1   6.218315   5.314053  -1.412152  -0.000034   0.070698  -0.000475
 257   1   7.913522   6.695760   4.027125  -0.001081   0.107764  -0.010032
 258   3   8.005193   5.990520   4.443501  -0.001391   0.107764  -0.012906
 259   4   7.904725   6.027576   4.927299  -0.001129   0.107764  -0.010474
 260   1   8.555928   6.471175   2.376850  -0.000234   0.064416  -0.003632
 261   3   8.481070   5.738156   2.743973  -0.000436   0.064416  -0.006768
 262   9   8.656130   6.462899   2.090135  -0.000273   0.064416  -0.004239
 263   3   8.449852   5.665379   3.556187  -0.002005   0.376123  -0.005330
 264   1   8.349819   6.825748   3.239957  -0.000765   0.376123  -0.002033
 265   1   7.586030   7.688582   4.306207  -0.000432   0.101696  -0.004244
 266   4   7.433810   6.972075   5.152402  -0.000906   0.101696  -0.008913
 267   7   7.453222   7.897327   4.487443  -0.000567   0.101696  -0.005574
 268   4   7.932453   6.340810   5.349157  -0.000647   0.255455  -0.002535
 269   1   7.942211   7.416329   4.152048  -0.000178   0.255455  -0.000698
 270   1   3.386039   8.895512   4.596369  -0.000437   0.096358  -0.004536
 271   7   3.612942   9.012766   4.765440  -0.000555   0.096358  -0.005757
 272  12   3.455206   8.300427   5.544592  -0.000737   0.096358  -0.007644
 273   7   7.702214   8.561344   4.122034  -0.000299   0.070799  -0.004218
 274   7   7.725077   9.546740   3.549184  -0.000466   0.158069  -0.002951
 275   7   7.036462  10.636102   3.065244  -0.000582   0.158069  -0.003681
 276   7   5.771211  11.176511   3.018403  -0.000574   0.158069  -0.003630
 277   7   4.480072  10.932733   3.429050  -0.000518   0.158069  -0.003275
 278   7   3.725065  10.010882   4.118435  -0.000632   0.158069  -0.004001
 279   1   7.935750   8.722388   3.587833  -0.000318   0.154369  -0.002058
 280   1   7.637808  10.062940   2.877354  -0.000294   0.154369  -0.001906
 281   1   6.475495  11.032456   2.561604  -0.000397   0.154369  -0.002570
 282   1   4.954754  11.208915   2.778024  -0.000214   0.154369  -0.001385
 283   1   3.737546  10.515507   3.432410  -0.000264   0.154369  -0.001713
 284   1   3.270871   9.548138   4.087715  -0.000230   0.086496  -0.002661
 285   8   1.683175   9.415480   0.585252  -0.000230   0.067994  -0.003379
 286   8   2.222408  10.286635   0.986939  -0.000547   0.150670  -0.003628
 287   8   3.254163  11.125319   0.923090  -0.000421   0.150670  -0.002794
 288   8   4.357029  11.400461   0.230293  -0.000542   0.150670  -0.003594
 289   8   5.083999  11.000541  -0.810651  -0.000570   0.150670  -0.003786
 290   8   5.140419  10.087653  -1.777831  -0.000430   0.150670  -0.002856
 291   8   4.503422   9.031805  -2.279234  -0.000441   0.150670  -0.002928
 292   8   3.431192   8.260948  -2.111632  -0.000598   0.150670  -0.003971
 293   1   1.853118   9.558458   1.135625  -0.000445   0.149306  -0.002980
 294   1   2.785927  10.684897   1.447980  -0.000282   0.149306  -0.001886
 295   1   4.050812  11.344903   0.999624  -0.000309   0.149306  -0.002069
 296   1   5.135095  11.270965  -0.027717  -0.000323   0.149306  -0.002162
 297   1   5.599298  10.493051  -1.217646  -0.000277   0.149306  -0.001857
 298   1   5.255273   9.326462  -2.087865  -0.000143   0.149306  -0.000955
 299   1   4.242459   8.244035  -2.285661  -0.000315   0.149306  -0.002109
 300   1   3.218497   7.685018  -1.947554  -0.000170   0.083069  -0.002044
 301   9   6.984920   5.839722  -1.499446  -0.000216   0.066585  -0.003245
 302   9   6.986541   6.826446  -1.931647  -0.000469   0.146823  -0.003195
 303   9   7.300218   8.090766  -1.863893  -0.000398   0.146823  -0.002708
 304   9   7.874100   8.993664  -1.117619  -0.000406   0.146823  -0.002765
 305   9   8.486012   9.185586   0.018260  -0.000476   0.146823  -0.003241
 306   9   8.899054   8.592232   1.103993  -0.000387   0.146823  -0.002637
 307   9   8.953320   7.443314   1.719245  -0.000570   0.146823  -0.003880
 308   1   6.553921   6.159253  -1.740061  -0.000414   0.146924  -0.002819
 309   1   6.699177   7.578395  -2.076578  -0.000150   0.146924  -0.001023
 310   1   7.223870   8.859576  -1.595354  -0.000068   0.146924  -0.000465
 311   1   7.924868   9.506794  -0.482693  -0.000273   0.146924  -0.001855
 312   1   8.530784   9.269481   0.830644  -0.000271   0.146924  -0.001846
 313   1   8.807039   8.239513   1.836204  -0.000152   0.146924  -0.001032
 314   1   8.746637   7.113278   2.212720  -0.000129   0.081349  -0.001590
 315  10   3.154545   5.690706  -2.065386  -0.000761   0.206956  -0.003679
 316  10   4.452694   4.975114  -1.984047  -0.002309   0.424448  -0.005441
 317   1   4.161261   6.424713  -2.083522  -0.000430   0.566003  -0.000759
 318   1   5.598725   5.574302  -1.838422   0.000093   0.291471   0.000319
 319   1   2.660591   8.206109   4.366882  -0.000867   0.237440  -0.003650
 320  11   2.116723   7.679999   4.462308  -0.001404   0.237440  -0.005914
 321  12   2.732051   7.661880   5.352971  -0.001557   0.237440  -0.006559
 322  11   1.516514   7.915257   3.879045  -0.001079   0.189685  -0.005690
 323  11   0.950214   7.994492   2.626611  -0.002360   0.387299  -0.006092
 324   1   1.989960   8.809965   3.188501  -0.000635   0.520710  -0.001219
 325   1   1.407708   8.780722   1.735262  -0.000007   0.267247  -0.000025
 326  12   3.040120   8.021459   6.019638  -0.000763   0.141070  -0.005411
 327   1   2.904145   8.763337   4.545469   0.000105   0.203419   0.000518
 328   2   1.781212   1.937842   2.499247  -0.001132   0.105863  -0.010694
 329   3   2.007606   1.600215   2.781948  -0.001305   0.105863  -0.012332
 330   6   1.637880   1.420875   3.495615  -0.001070   0.105863  -0.010109
 331   2   2.747136   1.823040   0.688309  -0.000151   0.028500  -0.005310
 332   3   3.024039   1.559802   0.999628  -0.000134   0.028500  -0.004709
 333  10   2.762722   1.897553   0.396398  -0.000166   0.028500  -0.005829
 334   3   2.493105   1.486525   1.937672  -0.001674   0.260374  -0.006431
 335   2   2.321278   1.854693   1.280067  -0.001070   0.260374  -0.004108
 336   2   6.413566   4.335511  -0.714401  -0.000048   0.180607  -0.000263
 337   5   6.872675   3.743610  -0.398934   0.001722   0.180607   0.009534
 338   9   6.925378   4.900614  -0.743897  -0.000371   0.180607  -0.002053
 339   2   5.751975   3.683379  -0.948335   0.000036   0.063867   0.000564
 340   5   6.215297   3.099976  -0.634763   0.000998   0.063867   0.015619
 341  10   5.506990   3.578609  -1.092836  -0.000142   0.063867  -0.002226
 342   5   6.759642   2.978400  -0.572521   0.001918   0.115167   0.016653
 343   2   6.124509   3.893287  -0.910209   0.000300   0.127115   0.002361
 344   2   1.135190   2.281738   3.019803  -0.000999   0.103096  -0.009692
 345   6   0.891737   1.663373   3.933335  -0.000481   0.103096  -0.004663
 346  16   0.650166   1.847833   3.975443  -0.000594   0.103096  -0.005766
 347   6   1.055239   1.345919   3.748248  -0.000044   0.181420  -0.000242
 348   2   1.373780   2.066979   2.330725  -0.000419   0.181420  -0.002311
 349   8   2.470685   8.000026  -1.542118  -0.000698   0.208550  -0.003345
 350   8   1.750543   8.612612  -0.382729  -0.002292   0.427967  -0.005355
 351   2   1.766710   7.212328  -0.879472  -0.000811   0.570128  -0.001422
 352   2   1.094736   7.926586   0.510452  -0.000145   0.293722  -0.000493
 353   9   7.002260   5.415880  -1.177726  -0.000206   0.050727  -0.004059
 354   2   6.186887   4.635902  -1.120346   0.000022   0.071518   0.000309
 355  10   5.180198   4.092060  -1.571104  -0.000248   0.057362  -0.004330
 356   2   5.527898   4.172472  -1.297386  -0.000212   0.070081  -0.003028
 357  10   2.357729   2.094279   0.083709  -0.000292   0.070751  -0.004123
 358  10   1.494111   2.807836  -0.142200  -0.000648   0.158169  -0.004094
 359  10   1.069361   3.990054  -0.712759  -0.000641   0.158169  -0.004050
 360  10   1.545266   5.081942  -1.409096  -0.000714   0.158169  -0.004515
 361  10   2.437024   5.619445  -1.880148  -0.000282   0.070751  -0.003983
 362   2   1.918242   2.332171   0.423955  -0.000661   0.154053  -0.004292
 363   2   0.987549   3.484431  -0.031343  -0.000372   0.154053  -0.002417
 364   2   1.017993   4.837857  -0.785332  -0.000457   0.154053  -0.002967
 365   2   1.996218   5.798664  -1.507215  -0.000626   0.154053  -0.004065
 366   2   0.242023   3.714640   2.689422  -0.000484   0.098755  -0.004903
 367  11   0.096483   3.927318   2.854729  -0.000625   0.098755  -0.006333
 368  16  -0.009356   3.292562   3.736215  -0.000662   0.098755  -0.006698
 369  11   0.452647   7.506150   1.659102  -0.000315   0.069887  -0.004502
 370  11   0.039823   6.522113   1.296308  -0.000811   0.155642  -0.005209
 371  11  -0.172173   5.195882   1.521409  -0.000700   0.155642  -0.004495
 372  11  -0.059062   4.304943   2.202443  -0.000443   0.069887  -0.006336
 373   2   0.510188   7.206280   1.141268  -0.000753   0.152741  -0.004927
 374   2   0.061344   5.758398   0.936252  -0.000559   0.152741  -0.003661
 375   2   0.059965   4.389725   1.619322  -0.000567   0.152741  -0.003713
 376  16  -0.044619   2.447664   4.018577  -0.001856   0.409763  -0.004529
 377   2   0.628735   2.812022   2.476054  -0.001005   0.593153  -0.001694
 378   3   8.577487   4.386195   5.203642  -0.000173   0.028540  -0.006063
 379   4   8.563958   4.454567   5.691711  -0.000169   0.028540  -0.005912
 380  13   8.640336   4.291924   5.934116  -0.000178   0.028540  -0.006226
 381   4   8.381209   5.045945   5.487477  -0.000921   0.226803  -0.004061
 382   3   8.358693   5.213091   4.748619  -0.001384   0.226803  -0.006103
 383   3   8.646613   4.958761   2.608001  -0.000101   0.106638  -0.000948
 384   5   8.775867   4.612109   2.459749   0.000645   0.106638   0.006045
 385   9   8.640267   5.690966   1.940560  -0.000332   0.106638  -0.003118
 386   3   3.519841   1.273146   0.985923   0.000142   0.076135   0.001867
 387   5   3.847533   1.064365   0.903264   0.000788   0.076135   0.010346
 388  10   3.278698   1.686639   0.422843  -0.000149   0.076135  -0.001957
 389   3   8.742473   3.811085   4.822515   0.000129   0.075649   0.001709
 390   5   8.875248   3.492728   4.625567   0.000760   0.075649   0.010047
 391  13   8.713558   3.729940   5.556608  -0.000174   0.075649  -0.002297
 392   3   3.581188   0.123581   3.276369  -0.000052   0.109256  -0.000476
 393   5   3.910533  -0.057624   3.142992   0.000729   0.109256   0.006673
 394  15   3.310309  -0.266508   4.146389  -0.000242   0.109256  -0.002217
 395   5   4.048897   0.196451   2.005379   0.002212   0.232131   0.009531
 396   3   3.602392   0.674775   1.859248   0.000904   0.247691   0.003650
 397   5   9.055262   3.890705   3.312298   0.001807   0.224667   0.008041
 398   3   8.827572   4.190107   3.860141   0.000837   0.239727   0.003492
 399   3   3.075100   0.196809   3.683397  -0.000316   0.064274  -0.004920
 400   6   2.618779  -0.102331   4.299249  -0.000195   0.064274  -0.003040
 401  15   2.745542  -0.328541   4.457454  -0.000272   0.064274  -0.004229
 402   6   1.857477   0.578051   3.941020  -0.000900   0.436270  -0.002063
 403   3   2.692100   0.696850   3.063516  -0.002188   0.436270  -0.005015
 404   9   8.848033   6.397098   1.867549  -0.000175   0.089394  -0.001955
 405   3   8.739932   5.273433   2.799786   0.000028   0.126880   0.000221
 406  10   2.848473   1.872584   0.149898  -0.000170   0.044714  -0.003796
 407   3   3.185584   1.317215   1.040126   0.000050   0.063134   0.000785
 408  13   8.778633   4.013687   6.050616  -0.000307   0.074131  -0.004148
 409   3   8.741165   4.216818   4.966534  -0.000007   0.104655  -0.000063
 410  15   2.805605  -0.566530   4.489842  -0.000042   0.037727  -0.001109
 411   3   3.276189   0.089652   3.269564   0.000085   0.053552   0.001582
 412   4   7.146382   0.897029   6.508001   0.000037   0.063310   0.000579
 413   5   7.376449   0.677095   5.765364   0.000989   0.063310   0.015614
 414  13   7.357242   1.046880   6.666008  -0.000144   0.063310  -0.002277
 415   4   6.366270   0.403219   6.398808   0.000018   0.181358   0.000100
 416   5   6.604471   0.183918   5.653406   0.001859   0.181358   0.010248
 417  15   5.799824  -0.100752   6.484457  -0.000299   0.181358  -0.001647
 418   5   7.339060   0.243481   5.418902   0.001837   0.107664   0.017061
 419   4   6.886400   0.586766   6.433637   0.000291   0.118832   0.002447
 420   4   3.305733   5.892946   9.177066  -0.000122   0.027643  -0.004413
 421   6   2.944357   5.573982   9.313068  -0.000081   0.027643  -0.002927
 422  12   3.330469   6.153996   9.026795  -0.000188   0.027643  -0.006810
 423   4   6.572539   0.779030   7.495853  -0.000084   0.026802  -0.003122
 424   6   6.174761   0.519964   7.655420  -0.000056   0.026802  -0.002071
 425  13   6.805242   0.934397   7.608564  -0.000138   0.026802  -0.005163
 426   4   5.978934   2.840526   9.769555  -0.000089   0.026802  -0.003303
 427   6   5.589038   2.554092   9.898936  -0.000046   0.026802  -0.001727
 428  13   6.264904   2.810910   9.678242  -0.000112   0.026802  -0.004195
 429   4   5.310254   3.096384  10.091695  -0.000051   0.026963  -0.001883
 430   6   4.960123   2.803263  10.297356  -0.000064   0.026963  -0.002363
 431  14   4.723274   2.825989  10.483029  -0.000088   0.026963  -0.003252
 432   4   3.278492   5.380092   9.573678  -0.000073   0.026963  -0.002720
 433   6   2.901069   5.117648   9.772380  -0.000082   0.026963  -0.003024
 434  14   2.848944   4.932745  10.005151  -0.000127   0.026963  -0.004728
 435   4   6.118756   0.354124   7.114731  -0.000074   0.026357  -0.002795
 436   6   5.777688   0.030976   7.288041  -0.000084   0.026357  -0.003177
 437  15   5.615771  -0.207484   7.197064  -0.000122   0.026357  -0.004623
 438   6   2.852216   5.299780   9.631009  -0.000023   0.046841  -0.000482
 439   4   3.347599   5.744817   9.357129  -0.000059   0.046841  -0.001257
 440   6   5.921378   0.163001   7.479308  -0.000026   0.065274  -0.000397
 441   4   6.464983   0.607589   7.311212  -0.000050   0.065274  -0.000765
 442   6   5.239190   2.573015  10.163416  -0.000003   0.077071  -0.000039
 443   4   5.725663   3.065803   9.952898  -0.000045   0.077071  -0.000587
 444   4   6.523011   7.460425   6.532034  -0.000453   0.095862  -0.004731
 445   7   6.449686   8.234949   5.699083  -0.000635   0.095862  -0.006625
 446  12   6.292381   7.655112   6.581187  -0.000598   0.095862  -0.006239
 447   7   7.045901   8.462727   5.092379  -0.001872   0.407198  -0.004598
 448   4   7.321909   7.086908   6.048045  -0.000814   0.587955  -0.001385
 449  12   3.739505   6.505728   9.026615  -0.000318   0.067861  -0.004689
 450  12   4.808259   6.747617   8.973081  -0.000776   0.150235  -0.005168
 451  12   5.860896   7.128669   8.259996  -0.000602   0.150235  -0.004006
 452  12   6.292293   7.429830   7.297286  -0.000422   0.067861  -0.006223
 453   4   4.220799   6.218404   9.220227  -0.000724   0.149159  -0.004853
 454   4   5.613469   6.599208   8.847113  -0.000478   0.149159  -0.003206
 455   4   6.463985   7.030431   7.700631  -0.000478   0.149159  -0.003207
 456  13   7.239603   1.066750   7.413968  -0.000242   0.054696  -0.004422
 457   4   6.962192   0.893055   7.107515  -0.000227   0.066823  -0.003391
 458  13   8.710481   4.475354   6.446126  -0.000299   0.070789  -0.004225
 459  13   8.395252   5.062062   7.375220  -0.000675   0.158257  -0.004263
 460  13   7.760243   5.064360   8.600552  -0.000674   0.158257  -0.004260
 461  13   7.076577   4.229654   9.461104  -0.000727   0.158257  -0.004591
 462  13   6.666520   3.185112   9.679270  -0.000287   0.070789  -0.004052
 463   4   8.433594   5.007128   6.525171  -0.000685   0.154132  -0.004446
 464   4   7.872570   5.507416   7.880723  -0.000452   0.154132  -0.002932
 465   4   7.087745   5.011999   9.122161  -0.000530   0.154132  -0.003436
 466   4   6.423597   3.738326   9.704589  -0.000660   0.154132  -0.004284
 467  14   4.458639   3.170793  10.674847  -0.000707   0.208428  -0.003392
 468  14   3.518717   4.316809  10.478321  -0.002285   0.427698  -0.005343
 469   4   4.947044   4.163595  10.099731  -0.000814   0.569814  -0.001428
 470   4   3.798862   5.372591   9.767715  -0.000149   0.293550  -0.000507
 471  15   5.564388  -0.406047   7.028859  -0.000186   0.048168  -0.003867
 472   4   6.363321   0.387975   6.945268   0.000025   0.067910   0.000363
 473   9   9.001062   5.992196   1.399692  -0.000386   0.257444  -0.001500
 474   9   8.820296   5.560907   0.342735  -0.001366   0.515973  -0.002647
 475   9   7.910121   5.199850  -0.668379  -0.001086   0.515973  -0.002105
 476   5   9.076241   4.213366   1.659422   0.004402   0.650916   0.006763
 477   5   8.516330   3.684381   0.306763   0.005864   0.650916   0.009009
 478   5   7.515954   3.442620  -0.435324   0.003042   0.327256   0.009294
 479  10   5.251838   3.220945  -1.297248  -0.000186   0.261259  -0.000711
 480  10   4.308039   2.266986  -0.979033  -0.001076   0.527207  -0.002042
 481  10   3.299432   1.761415  -0.185834  -0.000474   0.261259  -0.001816
 482   5   5.914880   2.061867  -0.629423   0.009171   0.641046   0.014306
 483   5   4.582367   1.065741   0.129116   0.007108   0.641046   0.011088
 484  13   7.804958   1.183281   6.735895  -0.000174   0.252944  -0.000687
 485  13   8.643560   2.171950   6.416766  -0.001073   0.509969  -0.002104
 486  13   8.928784   3.416494   6.026485  -0.000465   0.252944  -0.001840
 487   5   8.292729   0.974278   5.340913   0.008450   0.621182   0.013604
 488   5   9.060099   2.499160   4.856514   0.006639   0.621182   0.010687
 489  15   3.247737  -0.880434   4.525996  -0.000381   0.269504  -0.001413
 490  15   4.219039  -1.277719   5.143333  -0.001443   0.540500  -0.002670
 491  15   5.279435  -0.961275   6.123706  -0.001120   0.540500  -0.002073
 492   5   4.591801  -0.735634   3.368420   0.005188   0.679584   0.007634
 493   5   5.895056  -0.932833   4.333923   0.006683   0.679584   0.009834
 494   5   6.727160  -0.386905   5.224793   0.003220   0.341852   0.009420
 495   6   1.385143   5.881896   6.415923  -0.000876   0.239558  -0.003658
 496  11   1.366806   6.366521   5.377493  -0.001567   0.239558  -0.006541
 497  12   1.893963   6.441907   6.320208  -0.001401   0.239558  -0.005849
 498   6   0.541246   5.309827   6.269920  -0.000440   0.099066  -0.004446
 499  11   0.588553   5.778096   5.232688  -0.000744   0.099066  -0.007511
 500  16   0.313517   5.185164   6.106894  -0.000564   0.099066  -0.005689
 501  11   0.676761   6.411528   4.933765  -0.000767   0.143426  -0.005347
 502   6   0.771005   5.718623   6.463344   0.000113   0.207343   0.000544
 503  12   2.091789   6.649280   7.144168  -0.001050   0.191207  -0.005490
 504  12   2.754236   6.518047   8.355732  -0.002360   0.390569  -0.006042
 505   6   1.572953   5.833200   7.899019  -0.000645   0.524700  -0.001229
 506   6   2.430788   5.623960   9.206205  -0.000000   0.269389  -0.000001
 507  13   6.548848   2.465557   9.524569  -0.000770   0.207357  -0.003713
 508  13   6.848431   1.431073   8.498576  -0.002325   0.425333  -0.005467
 509   6   5.728638   1.529094   9.465799  -0.000388   0.567040  -0.000684
 510   6   6.033563   0.464743   8.187146   0.000115   0.292037   0.000395
 511  14   2.378868   4.788190  10.226564  -0.000222   0.068015  -0.003257
 512  14   1.333964   4.451255  10.147630  -0.000492   0.150722  -0.003265
 513  14   0.444194   3.460973  10.167661  -0.000487   0.150722  -0.003234
 514  14   0.325662   2.143295  10.317409  -0.000494   0.150722  -0.003275
 515  14   1.026430   1.032518  10.536155  -0.000534   0.150722  -0.003541
 516  14   2.262348   0.579045  10.735200  -0.000397   0.150722  -0.002636
 517  14   3.532271   0.966751  10.833835  -0.000513   0.150722  -0.003405
 518  14   4.321266   2.038427  10.792065  -0.000585   0.150722  -0.003883
 519   6   1.954999   4.898181   9.825850  -0.000443   0.149347  -0.002966
 520   6   0.657277   4.156505   9.767909  -0.000267   0.149347  -0.001786
 521   6   0.059788   2.788876   9.868515  -0.000203   0.149347  -0.001360
 522   6   0.404803   1.349846  10.086874  -0.000350   0.149347  -0.002343
 523   6   1.552425   0.422918  10.334444  -0.000273   0.149347  -0.001829
 524   6   3.037312   0.383946  10.510841  -0.000161   0.149347  -0.001075
 525   6   4.257366   1.248733  10.544537  -0.000300   0.149347  -0.002012
 526   6   4.773448   2.345907  10.468072  -0.000173   0.083095  -0.002080
 527  15   5.364311  -0.579951   7.483835  -0.000209   0.066546  -0.003146
 528  15   4.736483  -0.864543   8.311140  -0.000446   0.146731  -0.003039
 529  15   3.566516  -1.197106   8.781134  -0.000343   0.146731  -0.002339
 530  15   2.320365  -1.398625   8.454310  -0.000476   0.146731  -0.003246
 531  15   1.480199  -1.391128   7.457123  -0.000511   0.146731  -0.003484
 532  15   1.371100  -1.177516   6.175413  -0.000414   0.146731  -0.002823
 533  15   2.035280  -0.840440   5.105104  -0.000430   0.146731  -0.002932
 534   6   5.297034  -0.345933   8.018876  -0.000396   0.146841  -0.002699
 535   6   4.226431  -0.740519   8.938082  -0.000207   0.146841  -0.001411
 536   6   2.798150  -1.056240   9.022716  -0.000169   0.146841  -0.001148
 537   6   1.564830  -1.170935   8.240031  -0.000265   0.146841  -0.001805
 538   6   1.003674  -1.040227   6.892868  -0.000257   0.146841  -0.001749
 539   6   1.331809  -0.714690   5.502479  -0.000153   0.146841  -0.001045
 540   6   2.116280  -0.395922   4.668334  -0.000138   0.081301  -0.001702
 541  16   0.204136   1.384426   4.463818  -0.000330   0.071581  -0.004610
 542  16  -0.365916   0.977337   5.377731  -0.000501   0.160189  -0.003129
 543  16  -0.932425   1.230890   6.621146  -0.000598   0.160189  -0.003732
 544  16  -1.126937   2.264100   7.529961  -0.000593   0.160189  -0.003703
 545  16  -0.863020   3.617844   7.700330  -0.000513   0.160189  -0.003204
 546  16  -0.257947   4.690567   7.056548  -0.000647   0.160189  -0.004039
 547   6   0.282107   0.898607   4.821019  -0.000282   0.155731  -0.001812
 548   6  -0.464328   0.669175   6.172346  -0.000262   0.155731  -0.001682
 549   6  -0.917582   1.435553   7.454185  -0.000425   0.155731  -0.002730
 550   6  -0.876245   2.857192   8.096933  -0.000240   0.155731  -0.001539
 551   6  -0.358686   4.302363   7.814974  -0.000224   0.155731  -0.001436
 552   6   0.244594   5.107086   7.038221  -0.000245   0.087452  -0.002805
 553  12   6.090158   8.026132   6.746750  -0.000537   0.238357  -0.002252
 554  12   5.100004   8.457925   6.799930  -0.002288   0.476571  -0.004800
 555  12   3.830910   8.450504   6.429615  -0.002531   0.476571  -0.005311
 556   7   6.058893   9.126607   5.611075  -0.002117   0.476571  -0.004443
 557   7   4.783643   9.458425   5.504208  -0.002064   0.476571  -0.004332
 558   7   3.804605   9.277700   5.081714  -0.000431   0.238357  -0.001810
 559  12   2.304369   7.343399   6.097093  -0.001368   0.375368  -0.003645
 560  11   1.364875   7.141165   4.877094  -0.001405   0.375368  -0.003743
 561  16  -0.105729   5.159751   5.929424  -0.000413   0.240660  -0.001716
 562  16  -0.647993   4.514408   5.267121  -0.001969   0.481120  -0.004092
 563  16  -0.664091   3.501304   4.435661  -0.002016   0.481120  -0.004190
 564  11  -0.038480   5.897680   4.494330  -0.002236   0.481120  -0.004648
 565  11  -0.465476   4.992204   3.648309  -0.002121   0.481120  -0.004408
 566  11  -0.266155   4.152616   3.012285  -0.000516   0.240660  -0.002146
 =====================================================

              2746063  WORDS OF DYNAMIC MEMORY USED
 EXECUTION OF GAMESS TERMINATED NORMALLY Wed Nov 23 23:32:50 2016
 DDI: 263640 bytes (0.3 MB / 0 MWords) used by master data server.

 ----------------------------------------
 CPU timing information for all processes
 ========================================
 0: 543.948 + 0.332 = 544.280
 ----------------------------------------
 ddikick.x: exited gracefully.
