----- GAMESS execution script -----

          ******************************************************
          *         GAMESS VERSION =  5 DEC 2014 (R1)          *
          *             FROM IOWA STATE UNIVERSITY             *
          * M.W.SCHMIDT, K.K.BALDRIDGE, J.A.BOATZ, S.T.ELBERT, *
          *   M.S.GORDON, J.H.JENSEN, S.KOSEKI, N.MATSUNAGA,   *
          *          K.A.NGUYEN, S.J.SU, T.L.WINDUS,           *
          *       TOGETHER WITH M.DUPUIS, J.A.MONTGOMERY       *
          *         J.COMPUT.CHEM.  14, 1347-1363(1993)        *
          **************** 64 BIT LINUX VERSION ****************

 EXECUTION OF GAMESS BEGUN Wed Nov 23 23:19:27 2016

            ECHO OF THE FIRST FEW INPUT CARDS -
 INPUT CARD>! SELECT RESTRICTED HARTREE-FOCK AS DEFAULT                                     
 INPUT CARD>$contrl scftyp=rhf $end                                                         
 INPUT CARD>                                                                                
 INPUT CARD>! THEORY: HF OR DFT                                                             
 INPUT CARD> $contrl mplevl=0 $end                                                          
 INPUT CARD>                                                                                
 INPUT CARD> $system timlim=10000 mwords=20 $end                                            
 INPUT CARD> $SCF DIRSCF=.TRUE. $end                                                        
 INPUT CARD>                                                                                
 INPUT CARD>                                                                                
 INPUT CARD>! BASIS SETS                                                                    
 INPUT CARD>! 6-311G(d,p)                                                                   
 INPUT CARD> $BASIS GBASIS=N311 NGAUSS=6 NDFUNC=1 NPFUNC=1 $END                             
 INPUT CARD>                                                                                
 INPUT CARD>! One of the following                                                          
 INPUT CARD> $guess guess=HUCKEL $end                                                       
 INPUT CARD>                                                                                
 INPUT CARD> $statpt projct=.FALSE. $end                                                    
 INPUT CARD> $STATPT IFREEZ(1)=1,2,3 $END                                                   
 INPUT CARD>                                                                                
 INPUT CARD>! Optimize the geometry with COSMO effects                                      
 INPUT CARD> $statpt opttol=0.0005 nstep=50 $end                                            
 INPUT CARD> $contrl nzvar=1 $end                                                           
 INPUT CARD> $zmat dlc=.t. auto=.t. $end                                                    
 INPUT CARD> $contrl runtyp=OPTIMIZE maxit=200 $end                                         
 INPUT CARD>                                                                                
 INPUT CARD>! Run COSMO on perfect conductor                                                
 INPUT CARD> $COSGMS PRFCND=.TRUE. $end                                                     
 INPUT CARD>                                                                                
 INPUT CARD>! Specifying RSOLV                                                              
 INPUT CARD> $COSGMS COSRAD = 1.4 $end                                                      
 INPUT CARD>                                                                                
 INPUT CARD>! available memory                                                              
 INPUT CARD> $SYSTEM MWORDS=40 $END                                                         
 INPUT CARD>                                                                                
 INPUT CARD> $DATA                                                                          
 INPUT CARD>                                                                                
 INPUT CARD>C1                                                                              
 INPUT CARD>C      6.0      0.9931000000    2.7733000000    2.4271000000                    
 INPUT CARD>C      6.0     -0.4720000000    2.4921000000    2.1589000000                    
 INPUT CARD>O      8.0      1.7751000000    1.8721000000    1.6470000000                    
 INPUT CARD>C      6.0      3.1717000000    2.0737000000    1.8495000000                    
 INPUT CARD>C      6.0      3.9292000000    1.0850000000    0.9860000000                    
 INPUT CARD>H      1.0      1.2115000000    2.6279000000    3.4905000000                    
 INPUT CARD>H      1.0      1.2311000000    3.8058000000    2.1488000000                    
 INPUT CARD>H      1.0     -1.1108000000    3.1642000000    2.7386000000                    
 INPUT CARD>H      1.0     -0.7198000000    1.4575000000    2.4184000000                    
 INPUT CARD>H      1.0     -0.7004000000    2.6171000000    1.0953000000                    
 INPUT CARD>H      1.0      3.4193000000    1.9129000000    2.9049000000                    
 INPUT CARD>H      1.0      3.4426000000    3.0974000000    1.5689000000                    
   40000000 WORDS OF MEMORY AVAILABLE

     BASIS OPTIONS
     -------------
     GBASIS=N311         IGAUSS=       6      POLAR=POPN311 
     NDFUNC=       1     NFFUNC=       0     DIFFSP=       F
     NPFUNC=       1      DIFFS=       F     BASNAM=        


     RUN TITLE
     ---------
                                                                                 

 THE POINT GROUP OF THE MOLECULE IS C1      
 THE ORDER OF THE PRINCIPAL AXIS IS     0

 ATOM      ATOMIC                      COORDINATES (BOHR)
           CHARGE         X                   Y                   Z
 C           6.0     1.8766868784        5.2407770817        4.5865539448
 C           6.0    -0.8919506662        4.7093861340        4.0797294349
 O           8.0     3.3544526008        3.5377560216        3.1123787018
 C           6.0     5.9936439153        3.9187247807        3.4950482143
 C           6.0     7.4251113510        2.0503526967        1.8632698239
 H           1.0     2.2894030341        4.9660109231        6.5960885601
 H           1.0     2.3264416635        7.1919191641        4.0606432024
 H           1.0    -2.0991076272        5.9794709703        5.1752035900
 H           1.0    -1.3602247660        2.7542756271        4.5701133287
 H           1.0    -1.3235640818        4.9456018825        2.0698168744
 H           1.0     6.4615400698        3.6148568419        5.4894650217
 H           1.0     6.5055706853        5.8532372744        2.9647911021
 H           1.0     9.4654484999        2.2759859796        2.1006194080
 H           1.0     6.9513570458        2.3152922802       -0.1334146547
 H           1.0     6.9058146495        0.1082812991        2.3527088547

          INTERNUCLEAR DISTANCES (ANGS.)




     $CONTRL OPTIONS
     ---------------
 SCFTYP=RHF          RUNTYP=OPTIMIZE     EXETYP=RUN     
 MPLEVL=       0     CITYP =NONE         CCTYP =NONE         VBTYP =NONE    
 DFTTYP=NONE         TDDFT =NONE    
 MULT  =       1     ICHARG=       0     NZVAR =       1     COORD =UNIQUE  
 PP    =NONE         RELWFN=NONE         LOCAL =NONE         NUMGRD=       F
 ISPHER=      -1     NOSYM =       0     MAXIT =     200     UNITS =ANGS    
 PLTORB=       F     MOLPLT=       F     AIMPAC=       F     FRIEND=        
 NPRINT=       7     IREST =       0     GEOM  =INPUT   
 NORMF =       0     NORMP =       0     ITOL  =      20     ICUT  =       9
 INTTYP=BEST         GRDTYP=BEST         QMTTOL= 1.0E-06

     $SYSTEM OPTIONS
     ---------------
  REPLICATED MEMORY=    40000000 WORDS (ON EVERY NODE).
 DISTRIBUTED MEMDDI=           0 MILLION WORDS IN AGGREGATE,
 MEMDDI DISTRIBUTED OVER   1 PROCESSORS IS           0 WORDS/PROCESSOR.
 TOTAL MEMORY REQUESTED ON EACH PROCESSOR=    40000000 WORDS.
 TIMLIM=       10000.00 MINUTES, OR       6.9 DAYS.
 PARALL= F  BALTYP=  DLB     KDIAG=    0  COREFL= F
 MXSEQ2=     300 MXSEQ3=     150  mem10=         0

     $COSGMS OPTIONS
     ---------------
     EPSI  =   INFTY     NSPA  =      92     COSRAD=    1.40
     DISEX =   10.00     OUTCHG=DBLCAV       COSBUG=       F
     COSWRT=       F     DCOSMO=       F

     SYMMETRY COORDINATES WILL NOT BE USED FOR 
     THE COSMO CALCULATION, EVEN IF SPECIFIED:
         -- SWITCHING TO C1 POINT GROUP --


     DEFINITION OF CAVITY
     ---------------------------
     ATOM         COORDINATES           RADIUS 
     1    1.8767    5.2408    4.5866    2.0000
     2   -0.8920    4.7094    4.0797    2.0000
     3    3.3545    3.5378    3.1124    1.7200
     4    5.9936    3.9187    3.4950    2.0000
     5    7.4251    2.0504    1.8633    2.0000
     6    2.2894    4.9660    6.5961    1.3000
     7    2.3264    7.1919    4.0606    1.3000
     8   -2.0991    5.9795    5.1752    1.3000
     9   -1.3602    2.7543    4.5701    1.3000
    10   -1.3236    4.9456    2.0698    1.3000
    11    6.4615    3.6149    5.4895    1.3000
    12    6.5056    5.8532    2.9648    1.3000
    13    9.4654    2.2760    2.1006    1.3000
    14    6.9514    2.3153   -0.1334    1.3000
    15    6.9058    0.1083    2.3527    1.3000

          ----------------
          PROPERTIES INPUT
          ----------------

     MOMENTS            FIELD           POTENTIAL          DENSITY
 IEMOM =       1   IEFLD =       0   IEPOT =       0   IEDEN =       0
 WHERE =COMASS     WHERE =NUCLEI     WHERE =NUCLEI     WHERE =NUCLEI  
 OUTPUT=BOTH       OUTPUT=BOTH       OUTPUT=BOTH       OUTPUT=BOTH    
 IEMINT=       0   IEFINT=       0                     IEDINT=       0
                                                       MORB  =       0
          EXTRAPOLATION IN EFFECT
          SOSCF IN EFFECT
 ORBITAL PRINTING OPTION: NPREO=     1   155     2     1

     -------------------------------
     INTEGRAL TRANSFORMATION OPTIONS
     -------------------------------
     NWORD  =            0
     CUTOFF = 1.0E-09     MPTRAN =       0
     DIRTRF =       T     AOINTS =DUP     

          ----------------------
          INTEGRAL INPUT OPTIONS
          ----------------------
 NOPK  =       1 NORDER=       0 SCHWRZ=       T


 -----------------------------------------------
  STATISTICS ON AUTOMATIC COORDINATE GENERATION 
 -----------------------------------------------
  NUMBER OF USER SPECIFIED BONDS                             0
  NUMBER OF BONDS                                           14
  NUMBER OF ANGLES                                          25
  NUMBER OF TORSIONS                                        24
  NUMBER OF EXTRA COORD.                                     0
  NUMBER OF EXTRA COORD. FOR CONSTRAINTS                     0
  NUMBER OF CONSTRAINED COORD.                               0

  TOTAL NUMBER OF PRIMITIVES                                63
 -----------------------------------------------

   --- ENCODED Z MATRIX ---
 COORD  TYPE   I   J   K   L   M   N
    1      1    1   6
    2      1    1   2
    3      1    1   3
    4      1    1   7
    5      1    2   8
    6      1    2  10
    7      1    2   9
    8      1    3   4
    9      1    4  12
   10      1    4  11
   11      1    4   5
   12      1    5  15
   13      1    5  14
   14      1    5  13
   15      2    1   2   9
   16      2    1   2  10
   17      2    1   3   4
   18      2    1   2   8
   19      2    2   1   6
   20      2    2   1   3
   21      2    2   1   7
   22      2    3   4  12
   23      2    3   1   6
   24      2    3   4  11
   25      2    3   1   7
   26      2    3   4   5
   27      2    4   5  13
   28      2    4   5  14
   29      2    4   5  15
   30      2    5   4  11
   31      2    5   4  12
   32      2    6   1   7
   33      2    8   2   9
   34      2    8   2  10
   35      2    9   2  10
   36      2   11   4  12
   37      2   13   5  14
   38      2   13   5  15
   39      2   14   5  15
   40      3    1   3   4   5
   41      3    1   3   4  11
   42      3    1   3   4  12
   43      3    2   1   3   4
   44      3    3   4   5  15
   45      3    3   1   2   8
   46      3    3   1   2  10
   47      3    3   1   2   9
   48      3    3   4   5  13
   49      3    3   4   5  14
   50      3    4   3   1   6
   51      3    4   3   1   7
   52      3    6   1   2   8
   53      3    6   1   2   9
   54      3    6   1   2  10
   55      3    7   1   2   8
   56      3    7   1   2  10
   57      3    7   1   2   9
   58      3   11   4   5  15
   59      3   11   4   5  14
   60      3   11   4   5  13
   61      3   12   4   5  15
   62      3   12   4   5  14
   63      3   12   4   5  13

          INDEP./SYM. INTERNAL COORDINATES
          --------------------------------
 CRD  1=   0.6207 ( 17) -0.4494 ( 20)  0.1588 ( 22)  0.1587 ( 23)  0.1586 ( 24)
           0.1585 ( 25) -0.4492 ( 26)
 CRD  2=  -0.2539 (  2) -0.3984 (  3) -0.3985 (  8) -0.2539 ( 11) -0.5578 ( 17)
           0.1127 ( 19) -0.2261 ( 20)  0.1128 ( 21) -0.2257 ( 26)  0.1127 ( 30)
           0.1127 ( 31)
 CRD  3=   0.1293 ( 15) -0.1290 ( 16)  0.1672 ( 19) -0.1674 ( 21) -0.1295 ( 22)
          -0.1295 ( 23)  0.1296 ( 24)  0.1294 ( 25)  0.1291 ( 28) -0.1288 ( 29)
          -0.1671 ( 30)  0.1670 ( 31) -0.4171 ( 40) -0.2906 ( 41) -0.2906 ( 42)
          -0.4175 ( 43) -0.2907 ( 50) -0.2906 ( 51)
 CRD  4=  -0.1781 (  2)  0.1391 (  3) -0.1388 (  8)  0.1783 ( 11) -0.1546 ( 15)
          -0.1380 ( 16)  0.1547 ( 18) -0.4958 ( 20)  0.1042 ( 21) -0.1906 ( 22)
           0.1904 ( 23) -0.2005 ( 24)  0.2004 ( 25)  0.4960 ( 26) -0.1547 ( 27)
           0.1547 ( 28)  0.1381 ( 29) -0.1043 ( 30)
 CRD  5=   0.1832 ( 15) -0.1973 ( 16)  0.1544 ( 19) -0.1457 ( 21) -0.1197 ( 22)
           0.1199 ( 23)  0.1019 ( 24) -0.1021 ( 25) -0.1834 ( 28)  0.1974 ( 29)
           0.1457 ( 30) -0.1545 ( 31)  0.4047 ( 40)  0.1535 ( 41)  0.1594 ( 42)
          -0.4044 ( 43) -0.1746 ( 44)  0.2511 ( 45)  0.1747 ( 46)  0.1717 ( 47)
          -0.2510 ( 48) -0.1716 ( 49) -0.1592 ( 50) -0.1532 ( 51)
 CRD  6=   0.4534 (  2) -0.4556 ( 11)  0.3136 ( 18)  0.1689 ( 19)  0.1683 ( 21)
          -0.3153 ( 27) -0.1694 ( 30) -0.1698 ( 31) -0.1144 ( 32) -0.1669 ( 33)
          -0.1665 ( 34)  0.1151 ( 36)  0.1677 ( 37)  0.1673 ( 38)  0.1116 ( 41)
          -0.1115 ( 42)  0.1110 ( 50) -0.1109 ( 51)
 CRD  7=   0.4189 (  2)  0.4164 ( 11) -0.1801 ( 17)  0.3147 ( 18)  0.1826 ( 19)
           0.1832 ( 21)  0.3131 ( 27)  0.1824 ( 30)  0.1816 ( 31) -0.1190 ( 32)
          -0.1593 ( 33) -0.1594 ( 34) -0.1184 ( 36) -0.1584 ( 37) -0.1585 ( 38)
          -0.1240 ( 41)  0.1236 ( 42)  0.1243 ( 50) -0.1246 ( 51)
 CRD  8=  -0.3888 ( 15)  0.3873 ( 16) -0.1093 ( 22) -0.1094 ( 23)  0.1099 ( 24)
           0.1100 ( 25) -0.3889 ( 28)  0.3874 ( 29)  0.1550 ( 33) -0.1551 ( 34)
           0.1549 ( 37) -0.1551 ( 38) -0.1032 ( 41) -0.1036 ( 42) -0.1337 ( 44)
          -0.1983 ( 45) -0.1338 ( 46) -0.1339 ( 47) -0.1983 ( 48) -0.1339 ( 49)
          -0.1036 ( 50) -0.1031 ( 51)
 CRD  9=   0.3288 ( 15) -0.3269 ( 16)  0.1736 ( 19) -0.1738 ( 21)  0.1763 ( 22)
          -0.1758 ( 23) -0.1768 ( 24)  0.1763 ( 25) -0.3287 ( 28)  0.3269 ( 29)
           0.1744 ( 30) -0.1742 ( 31) -0.1360 ( 33)  0.1367 ( 34)  0.1360 ( 37)
          -0.1366 ( 38) -0.1783 ( 41) -0.1779 ( 42)  0.1253 ( 44) -0.1251 ( 46)
          -0.1249 ( 47)  0.1251 ( 49)  0.1775 ( 50)  0.1779 ( 51)
 CRD 10=  -0.1653 (  2)  0.1224 (  3)  0.1404 (  5)  0.1223 (  8) -0.1654 ( 11)
           0.1405 ( 14) -0.2836 ( 15) -0.2865 ( 16)  0.3993 ( 18)  0.3994 ( 27)
          -0.2838 ( 28) -0.2865 ( 29)  0.2523 ( 35)  0.2523 ( 39)
 CRD 11=   0.1073 (  1)  0.1236 (  2)  0.1070 (  4) -0.1443 (  5) -0.1074 (  9)
          -0.1070 ( 10) -0.1236 ( 11)  0.1442 ( 14)  0.2567 ( 15)  0.2581 ( 16)
          -0.3785 ( 18) -0.2118 ( 20)  0.2119 ( 26)  0.3784 ( 27) -0.2565 ( 28)
          -0.2580 ( 29) -0.1142 ( 32) -0.2355 ( 35)  0.1142 ( 36)  0.2353 ( 39)
 CRD 12=  -0.2921 ( 19)  0.2912 ( 21)  0.2344 ( 22)  0.2343 ( 23) -0.2350 ( 24)
          -0.2348 ( 25)  0.2916 ( 30) -0.2925 ( 31) -0.2833 ( 41) -0.2836 ( 42)
           0.1185 ( 44)  0.1188 ( 46)  0.1186 ( 47)  0.1184 ( 49) -0.2838 ( 50)
          -0.2834 ( 51)
 CRD 13=   0.1552 (  1) -0.1551 (  4)  0.1210 (  6) -0.1210 (  7) -0.1554 (  9)
           0.1552 ( 10) -0.1210 ( 12)  0.1209 ( 13) -0.2129 ( 15)  0.2129 ( 16)
           0.3056 ( 19) -0.3052 ( 21)  0.1793 ( 22) -0.1797 ( 23) -0.1796 ( 24)
           0.1800 ( 25)  0.2129 ( 28) -0.2130 ( 29)  0.3046 ( 30) -0.3050 ( 31)
           0.1234 ( 33) -0.1234 ( 34) -0.1234 ( 37)  0.1234 ( 38)  0.1608 ( 40)
          -0.1037 ( 41) -0.1036 ( 42) -0.1607 ( 43)  0.1043 ( 50)  0.1043 ( 51)
 CRD 14=  -0.3212 (  1)  0.3221 (  4) -0.1018 (  6)  0.1020 (  7) -0.3213 (  9)
           0.3222 ( 10) -0.1019 ( 12)  0.1020 ( 13)  0.1444 ( 15) -0.1439 ( 16)
          -0.1752 ( 19)  0.1753 ( 21)  0.1444 ( 28) -0.1440 ( 29)  0.1752 ( 30)
          -0.1751 ( 31)  0.1526 ( 40)  0.1525 ( 43) -0.1781 ( 44) -0.2006 ( 45)
          -0.1780 ( 46) -0.1780 ( 47) -0.2007 ( 48) -0.1781 ( 49)
 CRD 15=  -0.1108 (  3)  0.3044 (  5)  0.3423 (  6)  0.3422 (  7)  0.1108 (  8)
          -0.3411 ( 12) -0.3409 ( 13) -0.3032 ( 14) -0.1273 ( 15) -0.1273 ( 16)
          -0.1586 ( 18)  0.1581 ( 27)  0.1268 ( 28)  0.1269 ( 29)  0.1526 ( 33)
           0.1527 ( 34)  0.1268 ( 35) -0.1521 ( 37) -0.1522 ( 38) -0.1263 ( 39)
 CRD 16=   0.1116 (  2)  0.3429 (  5)  0.3531 (  6)  0.3530 (  7)  0.1118 ( 11)
           0.3543 ( 12)  0.3542 ( 13)  0.3440 ( 14) -0.1257 ( 15) -0.1257 ( 16)
          -0.1441 ( 18) -0.1447 ( 27) -0.1261 ( 28) -0.1262 ( 29)  0.1424 ( 33)
           0.1425 ( 34)  0.1286 ( 35)  0.1429 ( 37)  0.1430 ( 38)  0.1290 ( 39)
 CRD 17=  -0.3492 (  1) -0.1181 (  2) -0.2896 (  3) -0.3488 (  4) -0.1652 (  5)
           0.2896 (  8)  0.3497 (  9)  0.3492 ( 10)  0.1182 ( 11)  0.1655 ( 14)
           0.1559 ( 19)  0.1560 ( 21) -0.1561 ( 30) -0.1561 ( 31) -0.1572 ( 32)
           0.1576 ( 36)  0.1150 ( 41) -0.1145 ( 42)  0.1142 ( 50) -0.1148 ( 51)
 CRD 18=   0.4478 (  1)  0.4467 (  4)  0.4473 (  9)  0.4461 ( 10) -0.1223 ( 17)
           0.1630 ( 32)  0.1629 ( 36)  0.1082 ( 41) -0.1083 ( 42) -0.1084 ( 50)
           0.1083 ( 51)
 CRD 19=  -0.4400 (  6)  0.4396 (  7)  0.3429 ( 12) -0.3433 ( 13)  0.2283 ( 33)
          -0.2281 ( 34) -0.1781 ( 37)  0.1782 ( 38)  0.1710 ( 45) -0.1328 ( 48)
           0.1649 ( 52)  0.1649 ( 55) -0.1290 ( 60) -0.1289 ( 63)
 CRD 20=  -0.3442 (  6)  0.3437 (  7) -0.4397 ( 12)  0.4412 ( 13)  0.1780 ( 33)
          -0.1777 ( 34)  0.2276 ( 37) -0.2283 ( 38)  0.1361 ( 45)  0.1735 ( 48)
           0.1279 ( 52)  0.1279 ( 55)  0.1641 ( 60)  0.1642 ( 63)
 CRD 21=  -0.4727 (  5)  0.2143 (  6)  0.2161 (  7) -0.2116 ( 12) -0.2098 ( 13)
           0.4635 ( 14) -0.1108 ( 33) -0.1117 ( 34)  0.2370 ( 35)  0.1094 ( 37)
           0.1084 ( 38) -0.2322 ( 39)  0.1210 ( 44) -0.1239 ( 46)  0.1236 ( 47)
          -0.1213 ( 49)  0.1390 ( 53) -0.1085 ( 54) -0.1393 ( 56)  0.1082 ( 57)
           0.1367 ( 58) -0.1056 ( 59)  0.1052 ( 61) -0.1371 ( 62)
 CRD 22=  -0.4482 (  5)  0.2226 (  6)  0.2227 (  7)  0.2277 ( 12)  0.2264 ( 13)
          -0.4576 ( 14) -0.1154 ( 33) -0.1154 ( 34)  0.2348 ( 35) -0.1180 ( 37)
          -0.1172 ( 38)  0.2396 ( 39) -0.1280 ( 44) -0.1257 ( 46)  0.1257 ( 47)
           0.1283 ( 49)  0.1118 ( 53) -0.1396 ( 54) -0.1117 ( 56)  0.1397 ( 57)
          -0.1144 ( 58)  0.1420 ( 59) -0.1415 ( 61)  0.1148 ( 62)
 CRD 23=   0.2436 (  1) -0.1022 (  2) -0.4271 (  3)  0.2446 (  4)  0.4276 (  8)
          -0.2437 (  9) -0.2445 ( 10)  0.1021 ( 11)  0.1011 ( 22) -0.1009 ( 23)
           0.1013 ( 24) -0.1011 ( 25)  0.1340 ( 32) -0.1344 ( 36)  0.1268 ( 52)
           0.1654 ( 54) -0.1269 ( 55) -0.1657 ( 57)  0.1660 ( 59)  0.1271 ( 60)
          -0.1655 ( 61) -0.1268 ( 63)
 CRD 24=   0.3517 (  1) -0.3519 (  4) -0.3521 (  9)  0.3526 ( 10) -0.1192 ( 22)
           0.1195 ( 23)  0.1199 ( 24) -0.1192 ( 25) -0.1703 ( 52) -0.1767 ( 53)
          -0.1768 ( 54) -0.1702 ( 55) -0.1766 ( 56) -0.1766 ( 57)  0.1777 ( 58)
           0.1776 ( 59)  0.1712 ( 60)  0.1771 ( 61)  0.1771 ( 62)  0.1706 ( 63)
 CRD 25=   0.4669 (  3)  0.4663 (  8) -0.3920 ( 17) -0.2099 ( 20)  0.1433 ( 22)
           0.1429 ( 23)  0.1408 ( 24)  0.1413 ( 25) -0.2100 ( 26) -0.2186 ( 32)
          -0.2184 ( 36)
 CRD 26=   0.2007 (  1) -0.2015 (  4)  0.1995 (  9) -0.2005 ( 10) -0.1510 ( 44)
          -0.1500 ( 45) -0.1512 ( 46) -0.1511 ( 47) -0.1499 ( 48) -0.1509 ( 49)
          -0.2307 ( 52) -0.2317 ( 53) -0.2318 ( 54) -0.2317 ( 55) -0.2329 ( 56)
          -0.2328 ( 57) -0.2323 ( 58) -0.2322 ( 59) -0.2312 ( 60) -0.2314 ( 61)
          -0.2312 ( 62) -0.2302 ( 63)
 CRD 27=   0.2485 (  1) -0.2490 (  4) -0.2485 (  9)  0.2490 ( 10) -0.1708 ( 40)
          -0.1225 ( 41) -0.1219 ( 42)  0.1708 ( 43) -0.1885 ( 44)  0.1596 ( 45)
           0.1885 ( 46)  0.1884 ( 47) -0.1596 ( 48) -0.1884 ( 49)  0.1220 ( 50)
           0.1225 ( 51)  0.1641 ( 52)  0.1929 ( 53)  0.1929 ( 54)  0.1635 ( 55)
           0.1924 ( 56)  0.1924 ( 57) -0.1924 ( 58) -0.1924 ( 59) -0.1635 ( 60)
          -0.1930 ( 61) -0.1929 ( 62) -0.1641 ( 63)
 CRD 28=   0.2136 (  5)  0.1632 (  6)  0.1634 (  7)  0.1641 ( 12)  0.1642 ( 13)
           0.2145 ( 14)  0.1647 ( 15)  0.1646 ( 16) -0.2078 ( 17)  0.1853 ( 18)
          -0.1528 ( 19) -0.1527 ( 21)  0.1562 ( 22)  0.1556 ( 23)  0.1560 ( 24)
           0.1555 ( 25)  0.1862 ( 27)  0.1655 ( 28)  0.1655 ( 29) -0.1532 ( 30)
          -0.1534 ( 31) -0.1951 ( 33) -0.1950 ( 34) -0.1476 ( 35) -0.1959 ( 37)
          -0.1959 ( 38) -0.1484 ( 39)  0.1487 ( 41) -0.1486 ( 42) -0.1479 ( 50)
           0.1481 ( 51)
 CRD 29=  -0.1053 (  1) -0.1133 (  2) -0.2274 (  3) -0.1043 (  4)  0.1782 (  5)
           0.1780 (  6)  0.1776 (  7)  0.2270 (  8)  0.1051 (  9)  0.1039 ( 10)
           0.1129 ( 11) -0.1772 ( 12) -0.1767 ( 13) -0.1771 ( 14)  0.1702 ( 15)
           0.1704 ( 16)  0.1741 ( 18) -0.1251 ( 19) -0.1070 ( 20) -0.1253 ( 21)
          -0.1033 ( 22)  0.1040 ( 23) -0.1028 ( 24)  0.1035 ( 25)  0.1066 ( 26)
          -0.1732 ( 27) -0.1694 ( 28) -0.1696 ( 29)  0.1245 ( 30)  0.1243 ( 31)
           0.1485 ( 32) -0.1817 ( 33) -0.1821 ( 34) -0.1741 ( 35) -0.1481 ( 36)
           0.1807 ( 37)  0.1811 ( 38)  0.1734 ( 39) -0.1547 ( 41)  0.1553 ( 42)
          -0.1561 ( 50)  0.1556 ( 51)
 CRD 30=  -0.2689 (  1)  0.2692 (  4)  0.1980 (  6) -0.1971 (  7) -0.2689 (  9)
           0.2691 ( 10)  0.1980 ( 12) -0.1971 ( 13)  0.1375 ( 22)  0.1376 ( 23)
          -0.1383 ( 24) -0.1384 ( 25)  0.1530 ( 33) -0.1537 ( 34)  0.1531 ( 37)
          -0.1536 ( 38) -0.1157 ( 40) -0.1157 ( 43)  0.2258 ( 45)  0.2258 ( 48)
          -0.1705 ( 53) -0.1703 ( 54) -0.1706 ( 56) -0.1708 ( 57) -0.1706 ( 58)
          -0.1709 ( 59) -0.1702 ( 61) -0.1705 ( 62)
 CRD 31=  -0.3707 (  2)  0.2068 (  3)  0.1626 (  6)  0.1636 (  7)  0.2075 (  8)
          -0.3715 ( 11)  0.1628 ( 12)  0.1638 ( 13)  0.1014 ( 18)  0.1181 ( 19)
           0.1185 ( 21) -0.1575 ( 22) -0.1571 ( 23) -0.1565 ( 24) -0.1562 ( 25)
           0.1015 ( 27)  0.1187 ( 30)  0.1184 ( 31) -0.2120 ( 35) -0.2123 ( 39)
           0.1740 ( 54) -0.1729 ( 57) -0.1731 ( 59)  0.1742 ( 61)
 CRD 32=  -0.4305 (  2)  0.2416 (  3)  0.1241 (  6)  0.1248 (  7) -0.2413 (  8)
           0.4300 ( 11) -0.1237 ( 12) -0.1244 ( 13)  0.1047 ( 18)  0.1367 ( 19)
           0.1034 ( 20)  0.1368 ( 21)  0.1457 ( 22) -0.1459 ( 23)  0.1449 ( 24)
          -0.1452 ( 25) -0.1034 ( 26) -0.1045 ( 27) -0.1365 ( 30) -0.1365 ( 31)
          -0.1535 ( 35)  0.1531 ( 39)  0.1428 ( 41) -0.1426 ( 42)  0.1428 ( 50)
          -0.1430 ( 51)
 CRD 33=   0.1425 (  1) -0.1333 (  2) -0.2012 (  3)  0.1416 (  4)  0.2659 (  5)
          -0.1015 (  6) -0.1001 (  7)  0.2015 (  8) -0.1431 (  9) -0.1423 ( 10)
           0.1344 ( 11)  0.1015 ( 12)  0.1002 ( 13) -0.2666 ( 14) -0.2191 ( 32)
          -0.1197 ( 33) -0.1186 ( 34)  0.1585 ( 35)  0.2197 ( 36)  0.1200 ( 37)
           0.1191 ( 38) -0.1588 ( 39)  0.1283 ( 44) -0.1280 ( 46)  0.1280 ( 47)
          -0.1283 ( 49) -0.1120 ( 52) -0.2393 ( 54)  0.1113 ( 55)  0.2401 ( 57)
          -0.2405 ( 59) -0.1116 ( 60)  0.2398 ( 61)  0.1122 ( 63)
 CRD 34=  -0.1478 (  1)  0.2693 (  2)  0.1068 (  3) -0.1477 (  4) -0.2511 (  5)
           0.1063 (  8) -0.1475 (  9) -0.1473 ( 10)  0.2687 ( 11) -0.2502 ( 14)
          -0.1970 ( 17)  0.2174 ( 32)  0.1306 ( 33)  0.1302 ( 34) -0.1079 ( 35)
           0.2166 ( 36)  0.1302 ( 37)  0.1297 ( 38) -0.1075 ( 39)  0.1488 ( 41)
          -0.1485 ( 42)  0.1124 ( 44)  0.1128 ( 46) -0.1129 ( 47) -0.1124 ( 49)
          -0.1490 ( 50)  0.1491 ( 51)  0.1880 ( 54) -0.1881 ( 57) -0.1874 ( 59)
           0.1871 ( 61)
 CRD 35=   0.2478 (  6) -0.2482 (  7) -0.2476 ( 12)  0.2482 ( 13)  0.1902 ( 33)
          -0.1909 ( 34) -0.1901 ( 37)  0.1910 ( 38) -0.1547 ( 40) -0.1484 ( 41)
          -0.1494 ( 42)  0.1548 ( 43)  0.2602 ( 45) -0.2602 ( 48)  0.1493 ( 50)
           0.1484 ( 51)  0.1877 ( 52) -0.1136 ( 53) -0.1144 ( 54)  0.1878 ( 55)
          -0.1143 ( 56) -0.1135 ( 57)  0.1144 ( 58)  0.1134 ( 59) -0.1878 ( 60)
           0.1145 ( 61)  0.1135 ( 62) -0.1876 ( 63)
 CRD 36=  -0.1545 (  1)  0.1560 (  4) -0.1844 (  6)  0.1862 (  7) -0.1568 (  9)
           0.1533 ( 10) -0.1868 ( 12)  0.1838 ( 13) -0.1391 ( 15)  0.1377 ( 16)
           0.1350 ( 19) -0.1363 ( 21) -0.1371 ( 28)  0.1396 ( 29) -0.1344 ( 30)
           0.1367 ( 31) -0.1411 ( 33)  0.1424 ( 34) -0.1429 ( 37)  0.1408 ( 38)
          -0.1930 ( 40) -0.1928 ( 43)  0.1924 ( 44)  0.1959 ( 46)  0.1934 ( 47)
           0.1967 ( 49) -0.2597 ( 52) -0.2573 ( 55) -0.2608 ( 60) -0.2560 ( 63)
 CRD 37=  -0.1052 (  1)  0.2079 (  3) -0.1006 (  4)  0.1843 (  5) -0.2100 (  8)
           0.1026 (  9)  0.1056 ( 10) -0.1864 ( 14) -0.1548 ( 18) -0.1364 ( 20)
           0.1383 ( 26)  0.1565 ( 27)  0.1610 ( 32)  0.1415 ( 35) -0.1628 ( 36)
          -0.1432 ( 39)  0.1405 ( 44) -0.1342 ( 46)  0.1399 ( 47) -0.1366 ( 49)
           0.1409 ( 52)  0.2819 ( 53) -0.1485 ( 55) -0.2815 ( 56)  0.2849 ( 58)
           0.1436 ( 60) -0.2847 ( 62) -0.1489 ( 63)
 CRD 38=  -0.1102 (  1)  0.1950 (  3) -0.1115 (  4)  0.1812 (  5)  0.1925 (  8)
          -0.1091 (  9) -0.1103 ( 10)  0.1792 ( 14) -0.1570 ( 18) -0.1693 ( 20)
          -0.1678 ( 26) -0.1553 ( 27)  0.1717 ( 32)  0.1428 ( 35)  0.1698 ( 36)
           0.1414 ( 39) -0.1356 ( 44) -0.1372 ( 46)  0.1356 ( 47)  0.1342 ( 49)
           0.1461 ( 52)  0.2814 ( 53) -0.1440 ( 55) -0.2815 ( 56) -0.2783 ( 58)
          -0.1424 ( 60)  0.2782 ( 62)  0.1443 ( 63)
 CRD 39=   0.1761 (  1) -0.1766 (  4) -0.1761 (  9)  0.1768 ( 10) -0.1191 ( 19)
           0.1191 ( 21)  0.1489 ( 22) -0.1489 ( 23) -0.1489 ( 24)  0.1489 ( 25)
          -0.1192 ( 30)  0.1192 ( 31)  0.2804 ( 41)  0.2812 ( 42)  0.2177 ( 44)
          -0.2174 ( 46) -0.2169 ( 47)  0.2171 ( 49) -0.2811 ( 50) -0.2805 ( 51)
           0.1757 ( 52)  0.1752 ( 55) -0.1753 ( 60) -0.1760 ( 63)

 THE DETERMINANT OF THE G MATRIX IS 10**(   -14)


                     --------------------
                     INTERNAL COORDINATES
                     --------------------

                 - - ATOMS - -         COORDINATE      COORDINATE
 NO.   TYPE    I  J  K  L  M  N        (BOHR,RAD)       (ANG,DEG)
 ----------------------------------------------------------------
   1 STRETCH   1  6                     2.0697972       1.0952896
   2 STRETCH   1  2                     2.8643675       1.5157581
   3 STRETCH   1  3                     2.6939311       1.4255671
   4 STRETCH   1  7                     2.0702215       1.0955141
   5 STRETCH   2  8                     2.0664963       1.0935428
   6 STRETCH   2 10                     2.0692599       1.0950053
   7 STRETCH   2  9                     2.0693511       1.0950535
   8 STRETCH   3  4                     2.6938641       1.4255316
   9 STRETCH   4 12                     2.0701643       1.0954838
  10 STRETCH   4 11                     2.0709807       1.0959159
  11 STRETCH   4  5                     2.8640206       1.5155745
  12 STRETCH   5 15                     2.0690242       1.0948805
  13 STRETCH   5 14                     2.0691508       1.0949475
  14 STRETCH   5 13                     2.0664513       1.0935190
  15 BEND      1  2  9                  1.9305812     110.6141563
  16 BEND      1  2 10                  1.9308250     110.6281250
  17 BEND      1  3  4                  1.9501117     111.7331713
  18 BEND      1  2  8                  1.9356515     110.9046629
  19 BEND      2  1  6                  1.9176039     109.8706080
  20 BEND      2  1  3                  1.8924290     108.4281930
  21 BEND      2  1  7                  1.9175922     109.8699415
  22 BEND      3  4 12                  1.9156273     109.7573593
  23 BEND      3  1  6                  1.9155730     109.7542473
  24 BEND      3  4 11                  1.9149444     109.7182333
  25 BEND      3  1  7                  1.9151838     109.7319490
  26 BEND      3  4  5                  1.8928074     108.4498750
  27 BEND      4  5 13                  1.9356613     110.9052207
  28 BEND      4  5 14                  1.9303218     110.5992930
  29 BEND      4  5 15                  1.9306193     110.6163400
  30 BEND      5  4 11                  1.9177629     109.8797207
  31 BEND      5  4 12                  1.9177962     109.8816304
  32 BEND      6  1  7                  1.9054422     109.1737967
  33 BEND      8  2  9                  1.8995522     108.8363233
  34 BEND      8  2 10                  1.8995907     108.8385314
  35 BEND      9  2 10                  1.8658910     106.9076791
  36 BEND     11  4 12                  1.9048923     109.1422907
  37 BEND     13  5 14                  1.8996121     108.8397541
  38 BEND     13  5 15                  1.8998348     108.8525138
  39 BEND     14  5 15                  1.8660587     106.9172894
  40 TORSION   1  3  4  5              -3.1385298    -179.8245115
  41 TORSION   1  3  4 11               1.0498275      60.1506859
  42 TORSION   1  3  4 12              -1.0432564     -59.7741897
  43 TORSION   2  1  3  4              -3.1386429    -179.8309925
  44 TORSION   3  4  5 15              -1.0308098     -59.0610512
  45 TORSION   3  1  2  8              -3.1406517    -179.9460897
  46 TORSION   3  1  2 10              -1.0310443     -59.0744858
  47 TORSION   3  1  2  9               1.0331380      59.1944482
  48 TORSION   3  4  5 13              -3.1405937    -179.9427648
  49 TORSION   3  4  5 14               1.0332878      59.2030282
  50 TORSION   4  3  1  6              -1.0438657     -59.8091013
  51 TORSION   4  3  1  7               1.0500098      60.1611309
  52 TORSION   6  1  2  8               1.0490244      60.1046706
  53 TORSION   6  1  2  9              -1.0603711     -60.7547914
  54 TORSION   6  1  2 10              -3.1245534    -179.0237255
  55 TORSION   7  1  2  8              -1.0476232     -60.0243888
  56 TORSION   7  1  2 10               1.0619842      60.8472151
  57 TORSION   7  1  2  9               3.1261665     179.1161492
  58 TORSION  11  4  5 15               1.0622589      60.8629533
  59 TORSION  11  4  5 14               3.1263565     179.1270326
  60 TORSION  11  4  5 13              -1.0475250     -60.0187604
  61 TORSION  12  4  5 15              -3.1247299    -179.0338337
  62 TORSION  12  4  5 14              -1.0606323     -60.7697544
  63 TORSION  12  4  5 13               1.0486715      60.0844526

     ------------------------------------------
     THE POINT GROUP IS C1 , NAXIS= 1, ORDER= 1
     ------------------------------------------

     DIMENSIONS OF THE SYMMETRY SUBSPACES ARE
 A   =  155

 ..... DONE SETTING UP THE RUN .....
 STEP CPU TIME =     0.01 TOTAL CPU TIME =        0.0 (    0.0 MIN)
 TOTAL WALL CLOCK TIME=        0.0 SECONDS, CPU UTILIZATION IS  50.00%


          -----------------------------
          STATIONARY POINT LOCATION RUN
          -----------------------------

 OBTAINING INITIAL HESSIAN, HESS=GUESS   
 DIAGONAL GUESS HESSIAN IN INTERNAL COORDS IS
     1  0.3428     2  0.3775     3  0.3632     4  0.3427     5  0.3440
     6  0.3430     7  0.3430     8  0.3632     9  0.3427    10  0.3424
    11  0.3776    12  0.3431    13  0.3431    14  0.3440    15  0.2246
    16  0.2246    17  0.2381    18  0.2247    19  0.2246    20  0.2442
    21  0.2246    22  0.2193    23  0.2193    24  0.2193    25  0.2193
    26  0.2442    27  0.2247    28  0.2246    29  0.2246    30  0.2246
    31  0.2246    32  0.2029    33  0.2030    34  0.2030    35  0.2029
    36  0.2028    37  0.2030    38  0.2030    39  0.2029    40  0.2500
    41  0.2500    42  0.2500    43  0.2500    44  0.2500    45  0.2500
    46  0.2500    47  0.2500    48  0.2500    49  0.2500    50  0.2500
    51  0.2500    52  0.2500    53  0.2500    54  0.2500    55  0.2500
    56  0.2500    57  0.2500    58  0.2500    59  0.2500    60  0.2500
    61  0.2500    62  0.2500    63  0.2500
 TRANSFORMING HESSIAN TO SYMMETRY COORDINATES

          PARAMETERS CONTROLLING GEOMETRY SEARCH ARE
          METHOD =QA                  UPHESS =BFGS    
          NNEG   =         0          NFRZ   =         3
          NSTEP  =        50          IFOLOW =         1
          HESS   =GUESS               RESTAR =         F
          IHREP  =         0          HSSEND =         F
          NPRT   =         0          NPUN   =         0
          OPTTOL = 5.000E-04          RMIN   = 1.500E-03
          RMAX   = 1.000E-01          RLIM   = 7.000E-02
          DXMAX  = 3.000E-01          PURIFY =         F
          MOVIE  =         F          TRUPD  =         T
          TRMAX  = 5.000E-01          TRMIN  = 5.000E-02
          ITBMAT =         5          STPT   =         F
          STSTEP = 1.000E-02          PROJCT=          F
          FROZEN COORD(S)=   1   2   3


      ***** EQUILIBRIUM GEOMETRY LOCATED *****
            (SUBJECT TO   3 CONSTRAINT(S))
 COORDINATES OF ALL ATOMS ARE (ANGS)
   ATOM   CHARGE       X              Y              Z
 ------------------------------------------------------------
 C           6.0   0.9916838269   2.7672708465   2.4216373150
 C           6.0  -0.4724435789   2.4831301001   2.1510396661
 O           8.0   1.7855885288   1.8908400556   1.6636997980
 C           6.0   3.1669945866   2.0688077862   1.8452948530
 C           6.0   3.9209816478   1.0785413421   0.9800664848
 H           1.0   1.2109709159   2.6383345635   3.4805890382
 H           1.0   1.2302295671   3.7973006733   2.1603524130
 H           1.0  -1.0945132193   3.1572299713   2.7326321941
 H           1.0  -0.7233045386   1.4628640412   2.4250171447
 H           1.0  -0.7038671573   2.6243325520   1.0996411456
 H           1.0   3.4210530226   1.9225986024   2.8942037710
 H           1.0   3.4437969805   3.0881160751   1.5797962815
 H           1.0   4.9908931354   1.2081698094   1.1146583740
 H           1.0   3.6868175653   1.2284871959  -0.0695151544
 H           1.0   3.6627880239   0.0585923643   1.2483411722


                     --------------------
                     INTERNAL COORDINATES
                     --------------------

                 - - ATOMS - -         COORDINATE      COORDINATE
 NO.   TYPE    I  J  K  L  M  N        (BOHR,RAD)       (ANG,DEG)
 ----------------------------------------------------------------
   1 STRETCH   1  6                     2.0580584       1.0890777
   2 STRETCH   1  2                     2.8644332       1.5157929
   3 STRETCH   1  3                     2.6542982       1.4045942
   4 STRETCH   1  7                     2.0580975       1.0890984
   5 STRETCH   2  8                     2.0524470       1.0861083
   6 STRETCH   2 10                     2.0518403       1.0857872
   7 STRETCH   2  9                     2.0518437       1.0857890
   8 STRETCH   3  4                     2.6543299       1.4046110
   9 STRETCH   4 12                     2.0580656       1.0890815
  10 STRETCH   4 11                     2.0580953       1.0890972
  11 STRETCH   4  5                     2.8645056       1.5158312
  12 STRETCH   5 15                     2.0518380       1.0857860
  13 STRETCH   5 14                     2.0518441       1.0857892
  14 STRETCH   5 13                     2.0524452       1.0861073
  15 BEND      1  2  9                  1.9329201     110.7481629
  16 BEND      1  2 10                  1.9330275     110.7543148
  17 BEND      1  3  4                  1.9900285     114.0202360
  18 BEND      1  2  8                  1.9190862     109.9555425
  19 BEND      2  1  6                  1.9239688     110.2352916
  20 BEND      2  1  3                  1.9099162     109.4301378
  21 BEND      2  1  7                  1.9241256     110.2442736
  22 BEND      3  4 12                  1.9145572     109.6960449
  23 BEND      3  1  6                  1.9145316     109.6945792
  24 BEND      3  4 11                  1.9144456     109.6896524
  25 BEND      3  1  7                  1.9143909     109.6865182
  26 BEND      3  4  5                  1.9098801     109.4280677
  27 BEND      4  5 13                  1.9190823     109.9553153
  28 BEND      4  5 14                  1.9329305     110.7487590
  29 BEND      4  5 15                  1.9330245     110.7541453
  30 BEND      5  4 11                  1.9240980     110.2426976
  31 BEND      5  4 12                  1.9239494     110.2341825
  32 BEND      6  1  7                  1.8766845     107.5261036
  33 BEND      8  2  9                  1.8920486     108.4064005
  34 BEND      8  2 10                  1.8920263     108.4051213
  35 BEND      9  2 10                  1.8936703     108.4993148
  36 BEND     11  4 12                  1.8766889     107.5263515
  37 BEND     13  5 14                  1.8920469     108.4062998
  38 BEND     13  5 15                  1.8920375     108.4057618
  39 BEND     14  5 15                  1.8936573     108.4985737
  40 TORSION   1  3  4  5              -3.1382976    -179.8112050
  41 TORSION   1  3  4 11               1.0320487      59.1320337
  42 TORSION   1  3  4 12              -1.0255718     -58.7609374
  43 TORSION   2  1  3  4              -3.1384295    -179.8187620
  44 TORSION   3  4  5 15              -1.0499741     -60.1590858
  45 TORSION   3  1  2  8              -3.1407065    -179.9492299
  46 TORSION   3  1  2 10              -1.0499952     -60.1602922
  47 TORSION   3  1  2  9               1.0518078      60.2641494
  48 TORSION   3  4  5 13              -3.1406950    -179.9485660
  49 TORSION   3  4  5 14               1.0518175      60.2647063
  50 TORSION   4  3  1  6              -1.0256731     -58.7667411
  51 TORSION   4  3  1  7               1.0318944      59.1231942
  52 TORSION   6  1  2  8               1.0354535      59.3271172
  53 TORSION   6  1  2  9              -1.0552174     -60.4595035
  54 TORSION   6  1  2 10               3.1261649     179.1160548
  55 TORSION   7  1  2  8              -1.0337568     -59.2299011
  56 TORSION   7  1  2 10               1.0569546      60.5590365
  57 TORSION   7  1  2  9              -3.1244277    -179.0165218
  58 TORSION  11  4  5 15               1.0570030      60.5618086
  59 TORSION  11  4  5 14              -3.1243907    -179.0143994
  60 TORSION  11  4  5 13              -1.0337179     -59.2276716
  61 TORSION  12  4  5 15               3.1261895     179.1174668
  62 TORSION  12  4  5 14              -1.0552041     -60.4587412
  63 TORSION  12  4  5 13               1.0354687      59.3279866

          INTERNUCLEAR DISTANCES (ANGS.)


 =====================================================
   GAMESS/COSab RESULTS
 =====================================================

   Dielectric Constant                  = INFTY
   Basic Grid Size                      =                 1082
   Number of Segments                   =                   92
   Number of Segments located on spheres=                  227
   Number of Segments of the cavity     =                  555
   Solvent Radius (rsolv)               = 1.40
   Outlying Charge Error Method         = double cavity

 =====================================================

  Total solvated Energy (a.u.)          =  -232.2133733026
  Total Energy corrected (a.u.)         =  -232.2131947994

  Outlying charge effect (a.u.)         =     0.0001785032
  Outlying charge effect (kcal/mol)     =     0.1120125621

  Dielectric Energy (a.u.)              =    -0.0063935246
  Dielectric energy corr. (a.u.)        =    -0.0062150213

  Sum of polarization charges           =     0.0254576323
  Sum of polarization charges(cor.)     =    -0.0254576323

  Total surface area of cavity (A**2)   =  128.92
  Total volume of cavity (A**3)         =  111.99

 =====================================================
 NPS=                   555
NR.  ATOM  (X, Y, Z)(a.u.)                  CHARGE(e)  AREA(A**2) SIGMA(e/A**2)
   1   1   2.145041   8.289154   6.778168   0.000513   0.418105   0.001227
   2   1   1.933852   6.491711   1.014313   0.000267   0.185824   0.001434
   3   1   2.478921   6.901158   1.241031   0.000183   0.139368   0.001313
   4   1   2.415021   7.637549   7.438438   0.000293   0.278737   0.001051
   5   1   1.344289   2.452885   7.085152  -0.000036   0.139368  -0.000257
   6   1   1.865267   1.937790   6.433540   0.000257   0.185824   0.001383
   7   1   4.222415   7.601326   6.349113   0.000527   0.232280   0.002268
   8   1   3.443852   7.935933   6.696230   0.001113   0.371649   0.002994
   9   1   0.982997   7.850781   7.148883  -0.000439   0.418105  -0.001050
  10   1   0.612559   7.317940   7.462549  -0.000106   0.139368  -0.000759
  11   1   0.908069   8.484636   6.235889  -0.000541   0.325193  -0.001663
  12   1   3.010261   7.128546   1.512504  -0.000046   0.046456  -0.000981
  13   1   1.600343   7.269323   1.406367   0.000098   0.139368   0.000700
  14   1   0.685039   6.840747   7.781542  -0.000386   0.185824  -0.002078
  15   1   3.961018   7.167500   7.060647   0.000305   0.139368   0.002190
  16   1   2.363943   2.210062   6.796123   0.000243   0.185824   0.001308
  17   2  -3.069810   7.232483   2.306195   0.000960   0.232280   0.004132
  18   2  -4.577053   3.851273   4.010953   0.000674   0.371649   0.001812
  19   2  -2.616119   3.397870   7.169466   0.001541   0.371649   0.004147
  20   2  -0.348099   2.540161   1.006223   0.000509   0.139368   0.003650
  21   2  -1.098996   2.293636   1.151532   0.000637   0.185824   0.003428
  22   2  -0.516218   1.473022   2.121191   0.000462   0.139368   0.003315
  23   2  -2.962592   4.277784   7.199873   0.000961   0.278737   0.003447
  24   2  -4.617907   4.751856   4.700648   0.000860   0.418105   0.002057
  25   2  -3.113497   7.584664   3.071058   0.001430   0.371649   0.003847
  26   2  -1.147009   8.446222   4.423536   0.000100   0.185824   0.000537
  27   2  -2.516572   2.287950   1.642872   0.001590   0.371649   0.004279
  28   2  -2.335487   1.783447   2.130778   0.000926   0.232280   0.003987
  29   2  -1.263926   8.359895   3.230493   0.000528   0.278737   0.001893
  30   2  -1.996052   7.903989   2.405677   0.001304   0.371649   0.003510
  31   2  -3.963498   6.385341   2.654541   0.002101   0.511017   0.004111
  32   2  -4.583147   5.004898   3.311305   0.000920   0.418105   0.002200
  33   2  -4.351844   3.541513   5.062158   0.001214   0.371649   0.003265
  34   2  -3.552824   3.517842   6.479165   0.001237   0.278737   0.004439
  35   2  -1.838715   4.267360   7.699262   0.000887   0.325193   0.002726
  36   2  -1.098235   4.635237   7.838301   0.000248   0.139368   0.001777
  37   2  -0.392106   7.432197   1.510026   0.000056   0.139368   0.000402
  38   2  -3.694962   3.252031   1.977447   0.001135   0.371649   0.003055
  39   2  -4.334872   3.707336   2.854125   0.000928   0.464561   0.001998
  40   2  -4.183085   2.845812   3.845290   0.000746   0.325193   0.002295
  41   2  -1.574589   3.116341   7.431674   0.000725   0.278737   0.002601
  42   2  -0.452451   2.754353   7.279561   0.000126   0.185824   0.000679
  43   2  -1.158234   1.719737   1.746053   0.001377   0.371649   0.003706
  44   2  -1.439504   5.338355   7.748366   0.000179   0.185824   0.000965
  45   2  -4.094268   4.026309   5.959883   0.000980   0.278737   0.003517
  46   2  -4.421505   5.932104   3.521170   0.000712   0.278737   0.002555
  47   2  -2.053789   8.238237   3.461917   0.000599   0.232280   0.002578
  48   2  -3.609183   2.438249   2.714266   0.001340   0.418105   0.003204
  49   2  -0.993623   7.938949   2.132468   0.000629   0.278737   0.002255
  50   2  -4.204196   4.881446   2.252938   0.000894   0.371649   0.002406
  51   2  -3.877312   3.032478   5.683958   0.000552   0.185824   0.002973
  52   2  -0.965801   3.526937   7.659389   0.000379   0.232280   0.001630
  53   3   2.513471   3.346967   0.017841   0.004705   0.206154   0.022823
  54   3   1.964777   0.824364   2.132956   0.006032   0.274871   0.021945
  55   3   2.450192   0.927157   1.497921   0.002744   0.171795   0.015971
  56   3   2.484347   2.365592   0.260461   0.003259   0.137436   0.023710
  57   3   2.083726   1.399871   1.100427   0.004629   0.240512   0.019246
  58   3   2.457899   0.477003   2.771504   0.006056   0.274871   0.022034
  59   3   3.072668   0.617755   4.462747   0.002842   0.137436   0.020675
  60   3   3.152476   4.535092   0.047147   0.003727   0.171795   0.021694
  61   3   2.025417   2.765418   0.299158   0.002939   0.137436   0.021385
  62   3   2.586956   0.845112   4.725878   0.002277   0.103077   0.022087
  63   3   3.090763   1.072393   5.200740   0.002994   0.206154   0.014524
  64   3   2.829765   5.049994   0.300155   0.001951   0.103077   0.018927
  65   3   2.536735   4.117747   0.050949   0.003587   0.171795   0.020880
  66   3   2.489937   1.816664   0.556024   0.002832   0.137436   0.020603
  67   3   1.784729   2.094408   0.724996   0.002493   0.137436   0.018138
  68   3   2.506255   0.494366   3.720323   0.005408   0.240512   0.022486
  69   3   3.320950   5.421527   0.470865   0.001759   0.137436   0.012797
  70   4   4.889211   0.936926   5.548175   0.000222   0.139368   0.001596
  71   4   9.416753   5.166416   4.449229  -0.000303   0.232280  -0.001303
  72   4   6.570095   6.929326   5.683053   0.000950   0.371649   0.002557
  73   4   5.684811   5.981180   0.340309   0.000176   0.139368   0.001265
  74   4   4.923052   5.471008   0.213168   0.000192   0.139368   0.001380
  75   4   6.750715   6.270249   6.337431   0.000611   0.278737   0.002192
  76   4   9.143237   4.637871   5.430721  -0.000639   0.418105  -0.001527
  77   4   4.996761   1.389575   6.124956   0.000220   0.185824   0.001186
  78   4   8.805425   5.890169   5.037878   0.000107   0.371649   0.000287
  79   4   7.723991   6.571740   5.529573   0.000806   0.325193   0.002479
  80   4   9.165740   5.900575   3.935501  -0.000396   0.278737  -0.001420
  81   4   4.976604   6.131407   0.600772   0.000272   0.185824   0.001462
  82   4   8.290719   5.890135   5.732939   0.000359   0.278737   0.001286
  83   4   5.670647   1.000814   5.879862   0.000148   0.139368   0.001063
  84   5   9.459494  -0.730229   3.407098   0.000960   0.232280   0.004131
  85   5   9.535865   0.083555  -0.585706   0.000673   0.371649   0.001811
  86   5   9.403786   3.819210  -0.819130   0.001541   0.371649   0.004146
  87   5   4.442647  -0.156634   1.036917   0.000402   0.139368   0.002883
  88   5   4.909996  -0.418908   0.438141   0.000672   0.185824   0.003617
  89   5   4.522153   0.751643  -0.219631   0.000601   0.139368   0.004312
  90   5  10.128334   3.617744  -0.244972   0.000960   0.278737   0.003446
  91   5  10.367003   0.601207  -0.011560   0.000860   0.418105   0.002056
  92   5  10.037691  -0.123146   3.497069   0.001429   0.371649   0.003846
  93   5   9.745857   2.020593   4.822877   0.000100   0.185824   0.000538
  94   5   6.138121  -0.753120  -0.356202   0.001579   0.371649   0.004250
  95   5   5.973526  -0.218960  -0.817665   0.000914   0.232280   0.003934
  96   5   9.219622   0.952643   4.987289   0.000528   0.278737   0.001893
  97   5   9.105105  -0.110838   4.458066   0.001304   0.371649   0.003509
  98   5   9.805246  -0.866295   2.182510   0.002100   0.511017   0.004110
  99   5   9.820936  -0.569549   0.559973   0.000920   0.418105   0.002200
 100   5   9.709086   1.108428  -0.999630   0.001213   0.371649   0.003264
 101   5   9.801912   2.732681  -0.990235   0.001237   0.278737   0.004438
 102   5   9.566193   4.636254   0.154069   0.000886   0.325193   0.002725
 103   5   9.304620   5.127780   0.780932   0.000247   0.139368   0.001775
 104   5   7.301977   0.003409   5.035214   0.000056   0.139368   0.000401
 105   5   7.637207  -1.141675  -0.177993   0.001136   0.371649   0.003056
 106   5   8.743070  -0.760723  -0.309497   0.000927   0.464561   0.001996
 107   5   8.647532   0.201870  -1.210584   0.000746   0.325193   0.002294
 108   5   8.644216   4.606742  -0.630340   0.000725   0.278737   0.002599
 109   5   7.589717   5.090087  -0.369997   0.000126   0.185824   0.000677
 110   5   4.928370   0.081744  -0.221658   0.001545   0.371649   0.004158
 111   5   9.875094   4.835949   1.237357   0.000179   0.185824   0.000961
 112   5  10.207830   1.980946  -0.687780   0.000980   0.278737   0.003516
 113   5  10.297018  -0.352350   1.369945   0.000712   0.278737   0.002555
 114   5   9.821196   0.736453   4.454737   0.000599   0.232280   0.002578
 115   5   7.493468  -0.431802  -1.007402   0.001341   0.418105   0.003206
 116   5   8.288058   0.186830   5.027767   0.000628   0.278737   0.002255
 117   5   8.989034  -1.259046   0.893919   0.000894   0.371649   0.002405
 118   5   9.398409   1.911581  -1.359295   0.000552   0.185824   0.002972
 119   5   8.539941   5.101510  -0.051205   0.000378   0.232280   0.001629
 120   6   2.570737   4.770115   9.008173  -0.002058   0.392554  -0.005242
 121   6   2.642950   2.993619   7.970506  -0.001041   0.294415  -0.003534
 122   6   1.666569   3.341871   8.293779  -0.000992   0.333671  -0.002973
 123   6   1.101061   5.437269   8.680065  -0.001401   0.333671  -0.004199
 124   6   2.938309   6.468925   8.424747  -0.001105   0.372926  -0.002963
 125   6   2.871400   3.673121   8.570407  -0.001774   0.372926  -0.004756
 126   6   1.387226   4.330747   8.766860  -0.001833   0.471065  -0.003890
 127   6   2.205081   5.673534   8.934272  -0.001452   0.294415  -0.004932
 128   6   3.705252   5.877843   8.375072  -0.001640   0.412182  -0.003979
 129   6   3.496123   4.688302   8.695857  -0.001836   0.333671  -0.005501
 130   6   1.738342   6.371141   8.530082  -0.000875   0.294415  -0.002970
 131   7   2.607511   9.551264   3.523387  -0.002302   0.431809  -0.005331
 132   7   1.308947   9.085427   2.917717  -0.001092   0.294415  -0.003708
 133   7   2.669376   8.316486   1.934143  -0.000953   0.314043  -0.003034
 134   7   3.516208   8.970255   5.263889  -0.001043   0.372926  -0.002796
 135   7   1.469191   9.303769   4.962804  -0.001235   0.353299  -0.003497
 136   7   1.982799   8.870321   2.336935  -0.001588   0.412182  -0.003853
 137   7   3.258052   9.028125   2.765957  -0.002095   0.392554  -0.005338
 138   7   3.640703   9.249582   4.138391  -0.002077   0.412182  -0.005038
 139   7   2.547781   9.439788   5.009809  -0.001807   0.451437  -0.004003
 140   7   1.421102   9.455196   3.930804  -0.001771   0.451437  -0.003923
 141   8  -3.533899   7.453482   6.458353  -0.003819   0.588831  -0.006485
 142   8  -3.468369   7.885003   4.536572  -0.001001   0.372926  -0.002684
 143   8  -1.935958   8.357535   5.711255  -0.001162   0.353299  -0.003289
 144   8  -1.974310   6.888874   7.438822  -0.001338   0.353299  -0.003787
 145   8  -3.576985   5.646891   7.076282  -0.001052   0.372926  -0.002821
 146   8  -4.498921   6.265639   5.358274  -0.001293   0.412182  -0.003137
 147   8  -2.854114   8.286161   5.353381  -0.002115   0.471065  -0.004490
 148   8  -2.224153   7.803700   6.787133  -0.002354   0.490692  -0.004798
 149   8  -2.879492   6.432558   7.435440  -0.002078   0.471065  -0.004411
 150   8  -4.190709   6.142647   6.388496  -0.002134   0.471065  -0.004530
 151   8  -4.138039   7.288552   5.108373  -0.002203   0.490692  -0.004490
 152   9  -2.112928   0.509915   5.211633  -0.003232   0.549575  -0.005881
 153   9  -0.410734   0.670115   5.439836  -0.001474   0.333671  -0.004416
 154   9  -1.192026   0.616319   3.403556  -0.000878   0.333671  -0.002631
 155   9  -3.067752   1.165495   3.817468  -0.000918   0.353299  -0.002599
 156   9  -3.172179   1.768627   5.918385  -0.000875   0.372926  -0.002347
 157   9  -1.294361   1.611217   6.750557  -0.000966   0.353299  -0.002734
 158   9  -0.924705   0.349057   4.507652  -0.002493   0.471065  -0.005292
 159   9  -2.171817   0.631165   3.668103  -0.001827   0.490692  -0.003723
 160   9  -3.279354   1.253249   4.888845  -0.001890   0.490692  -0.003851
 161   9  -2.315657   1.369229   6.368198  -0.001853   0.471065  -0.003933
 162   9  -0.948893   0.914637   6.144254  -0.001766   0.412182  -0.004284
 163  10  -1.924181   5.270389  -0.285329  -0.003483   0.588831  -0.005916
 164  10  -2.050934   3.377568   0.342000  -0.000672   0.314043  -0.002139
 165  10  -0.626049   4.621837  -0.251269  -0.001712   0.353299  -0.004846
 166  10  -0.651042   6.569077   0.351024  -0.001119   0.353299  -0.003166
 167  10  -2.649311   6.626536   0.847153  -0.000878   0.372926  -0.002353
 168  10  -3.391526   4.722228   0.762922  -0.001072   0.412182  -0.002601
 169  10  -1.147645   3.748406  -0.051689  -0.001670   0.431809  -0.003868
 170  10  -0.558346   5.649439  -0.149801  -0.002114   0.412182  -0.005129
 171  10  -1.659746   6.669458   0.345474  -0.001834   0.471065  -0.003893
 172  10  -3.066005   5.724829   0.517348  -0.001863   0.471065  -0.003954
 173  10  -2.658480   4.113481   0.192495  -0.001850   0.471065  -0.003927
 174  11   7.259767   3.191208   7.751333  -0.002302   0.431809  -0.005330
 175  11   7.642637   2.013897   6.892580  -0.001092   0.294415  -0.003709
 176  11   5.812342   1.939544   7.124838  -0.000955   0.314043  -0.003042
 177  11   7.132782   5.175218   7.261204  -0.001042   0.372926  -0.002795
 178  11   8.610288   3.819776   6.651360  -0.001234   0.353299  -0.003494
 179  11   6.779676   1.889558   7.170956  -0.001589   0.412182  -0.003855
 180  11   6.166754   2.920258   7.801207  -0.002096   0.392554  -0.005338
 181  11   6.661888   4.274103   7.832622  -0.002077   0.412182  -0.005038
 182  11   7.944202   4.423915   7.264069  -0.001804   0.451437  -0.003997
 183  11   8.237432   2.912822   7.010081  -0.001770   0.451437  -0.003922
 184  12   7.341597   8.054471   2.339639  -0.002059   0.392554  -0.005244
 185  12   5.860246   7.302323   1.124000  -0.001043   0.294415  -0.003541
 186  12   6.885467   7.041778   0.878762  -0.000995   0.333671  -0.002981
 187  12   8.576083   6.965241   2.291445  -0.001404   0.333671  -0.004208
 188  12   7.706896   7.670514   4.094799  -0.001110   0.372926  -0.002975
 189  12   6.342135   7.897513   1.660028  -0.001774   0.372926  -0.004757
 190  12   7.829306   7.245309   1.468219  -0.001833   0.471065  -0.003892
 191  12   8.042929   7.753336   2.950199  -0.001453   0.294415  -0.004936
 192  12   6.829801   8.063940   3.968435  -0.001644   0.412182  -0.003989
 193  12   6.498598   8.284038   2.783739  -0.001836   0.333671  -0.005502
 194  12   8.550671   7.129209   3.419810  -0.000879   0.294415  -0.002986
 195  13  11.862866   2.529336   2.356571  -0.003819   0.588831  -0.006486
 196  13  11.138390   0.915097   3.224390  -0.001001   0.372926  -0.002684
 197  13  10.862648   2.697779   4.059531  -0.001162   0.353299  -0.003289
 198  13  10.927107   4.213520   2.373917  -0.001339   0.353299  -0.003790
 199  13  11.228125   3.119672   0.654786  -0.001052   0.372926  -0.002822
 200  13  11.395044   1.145835   1.165152  -0.001293   0.412182  -0.003138
 201  13  11.303227   1.912107   3.653590  -0.002115   0.471065  -0.004491
 202  13  11.280177   3.483844   3.190581  -0.002355   0.490692  -0.004800
 203  13  11.321960   3.754067   1.561153  -0.002079   0.471065  -0.004413
 204  13  11.598755   2.187599   0.953706  -0.002134   0.471065  -0.004531
 205  13  11.564415   1.074413   2.262990  -0.002203   0.490692  -0.004490
 206  14   6.595921   2.571267  -2.546925  -0.003233   0.549575  -0.005882
 207  14   5.588503   3.657847  -1.663942  -0.001474   0.333671  -0.004417
 208  14   5.149954   1.522397  -1.578641  -0.000885   0.333671  -0.002654
 209  14   6.958336   0.852434  -2.100339  -0.000919   0.353299  -0.002601
 210  14   8.342659   2.546324  -2.154305  -0.000876   0.372926  -0.002348
 211  14   7.328229   4.253167  -1.605573  -0.000967   0.353299  -0.002736
 212  14   5.340948   2.612245  -1.949679  -0.002494   0.471065  -0.005293
 213  14   5.973328   1.226905  -2.093359  -0.001829   0.490692  -0.003728
 214  14   7.659501   1.643334  -2.388733  -0.001890   0.490692  -0.003852
 215  14   7.739611   3.400634  -2.198662  -0.001853   0.471065  -0.003934
 216  14   6.429735   3.957280  -1.883666  -0.001767   0.412182  -0.004286
 217  15   6.390047  -2.220726   2.921866  -0.003484   0.588831  -0.005917
 218  15   5.773056  -1.662385   1.105287  -0.000674   0.314043  -0.002145
 219  15   5.147582  -1.472278   2.976947  -0.001714   0.353299  -0.004850
 220  15   6.480562  -1.072349   4.466359  -0.001119   0.353299  -0.003168
 221  15   8.153732  -1.713091   3.450249  -0.000878   0.372926  -0.002354
 222  15   7.628764  -2.082647   1.508032  -0.001073   0.412182  -0.002602
 223  15   5.146916  -1.535971   1.942191  -0.001677   0.431809  -0.003884
 224  15   5.691904  -1.401637   3.854198  -0.002116   0.412182  -0.005134
 225  15   7.242167  -1.616129   4.076677  -0.001834   0.471065  -0.003894
 226  15   7.814350  -2.168150   2.570918  -0.001863   0.471065  -0.003955
 227  15   6.520495  -2.147297   1.478419  -0.001851   0.471065  -0.003928
 228   1   0.823773   2.875331   7.350329  -0.000055   0.026965  -0.002029
 229   2   0.348949   2.810121   7.229935  -0.000029   0.026965  -0.001088
 230   6   0.989682   3.026030   7.556023  -0.000097   0.026965  -0.003592
 231   1   0.134921   5.934314   7.865421  -0.000124   0.026965  -0.004609
 232   2  -0.330953   5.829361   7.738334  -0.000086   0.026965  -0.003207
 233   6   0.362591   5.810750   8.024932  -0.000137   0.026965  -0.005065
 234   1   0.179062   8.606906   4.820376  -0.000131   0.026955  -0.004850
 235   2  -0.287272   8.473966   4.725170  -0.000092   0.026955  -0.003428
 236   7   0.411119   8.745748   4.681008  -0.000182   0.026955  -0.006737
 237   1   0.902941   7.689964   1.866478  -0.000053   0.026955  -0.001963
 238   2   0.427201   7.568938   1.809656  -0.000014   0.026955  -0.000532
 239   7   1.070095   7.911019   1.991958  -0.000073   0.026955  -0.002724
 240   1  -0.348518   6.298483   7.579002  -0.000103   0.027095  -0.003787
 241   2  -0.833830   6.219277   7.529899  -0.000080   0.027095  -0.002956
 242   8  -1.085335   6.378996   7.475785  -0.000091   0.027095  -0.003357
 243   1  -0.313533   8.378686   5.205362  -0.000097   0.027095  -0.003567
 244   2  -0.798388   8.326703   5.125195  -0.000089   0.027095  -0.003293
 245   8  -1.053066   8.297709   5.286414  -0.000124   0.027095  -0.004595
 246   1   0.548790   2.362276   6.840996  -0.000022   0.026050  -0.000849
 247   2   0.073073   2.241118   6.784450  -0.000044   0.026050  -0.001698
 248   9  -0.098988   2.023586   6.663432  -0.000086   0.026050  -0.003318
 249   1   0.628882   7.116746   1.415015  -0.000019   0.026043  -0.000713
 250   2   0.154112   7.051733   1.294392  -0.000032   0.026043  -0.001210
 251  10  -0.016798   6.905733   1.091792  -0.000052   0.026043  -0.002015
 252   2   0.118707   2.440629   6.995120   0.000021   0.073833   0.000281
 253   1   0.779872   2.638548   7.178245   0.000014   0.073833   0.000187
 254   2  -0.694314   5.988866   7.668318  -0.000027   0.051212  -0.000518
 255   1  -0.017401   6.179551   7.773829  -0.000091   0.051212  -0.001781
 256   2  -0.662116   8.418173   4.943170  -0.000036   0.050291  -0.000723
 257   1   0.030550   8.563841   5.010718  -0.000095   0.050291  -0.001889
 258   2   0.176088   7.354234   1.525041   0.000051   0.075066   0.000681
 259   1   0.883861   7.420945   1.593760   0.000009   0.075066   0.000115
 260   1   3.291387   6.290537   1.124838   0.000535   0.056814   0.009425
 261   3   3.550278   5.960357   0.915149   0.000790   0.056814   0.013909
 262   4   4.008119   6.060404   0.934946   0.000487   0.056814   0.008576
 263   1   3.202241   1.914716   6.091438   0.000490   0.056814   0.008628
 264   3   3.462679   1.660480   5.795552   0.000806   0.056814   0.014186
 265   4   3.918973   1.684583   5.901544   0.000545   0.056814   0.009587
 266   1   1.513539   1.550331   5.518377   0.000448   0.093929   0.004771
 267   3   1.803171   1.369945   5.194647   0.001070   0.093929   0.011388
 268   9   0.798332   1.351402   5.394344   0.000143   0.093929   0.001523
 269   1   1.581617   5.691297   0.800708   0.000434   0.093972   0.004620
 270   3   1.868489   5.342823   0.668418   0.001267   0.093972   0.013486
 271  10   0.867562   5.552049   0.607670   0.000060   0.093972   0.000634
 272   3   2.858507   1.461781   5.546065   0.002140   0.183682   0.011649
 273   1   2.265145   1.698882   5.876483   0.001246   0.200961   0.006201
 274   3   2.729847   5.561077   0.671082   0.002660   0.186847   0.014236
 275   1   2.542699   6.184950   0.979747   0.001134   0.204421   0.005549
 276   1   4.595823   6.307525   7.020546  -0.000083   0.061925  -0.001334
 277   4   5.281599   6.040618   6.776077  -0.000122   0.061925  -0.001974
 278   6   4.480015   6.142177   7.250049  -0.000200   0.061925  -0.003228
 279   1   3.411070   7.078963   1.616359  -0.000056   0.061806  -0.000900
 280   4   4.125019   6.806137   1.485500   0.000080   0.061806   0.001297
 281   7   3.411071   7.347744   1.761887  -0.000221   0.061806  -0.003575
 282   1   3.774457   2.405742   6.642898   0.000081   0.061800   0.001307
 283   4   4.483977   2.124964   6.504964  -0.000065   0.061800  -0.001056
 284  11   4.695009   2.234815   6.696850  -0.000228   0.061800  -0.003686
 285   1   5.050071   7.536404   5.242369  -0.000122   0.061926  -0.001965
 286   4   5.790204   7.367051   5.084837  -0.000095   0.061926  -0.001527
 287  12   5.892582   7.508312   4.833860  -0.000205   0.061926  -0.003317
 288   4   4.257856   1.844760   6.310598   0.000463   0.167006   0.002774
 289   1   3.186537   2.094140   6.490606   0.000505   0.167006   0.003021
 290   4   4.302565   6.381258   0.981549   0.000497   0.167042   0.002976
 291   1   3.330343   6.808499   1.320038   0.000479   0.167042   0.002870
 292   4   5.749621   6.878147   5.841118  -0.000254   0.502643  -0.000506
 293   1   4.722425   6.950800   6.401840  -0.000152   0.502643  -0.000302
 294   1   3.418823   2.589271   6.901472  -0.000091   0.083001  -0.001101
 295   6   3.421575   2.758857   7.157467  -0.000304   0.083001  -0.003661
 296  11   4.353188   2.520470   6.868682  -0.000131   0.083001  -0.001575
 297   6   1.584644   2.927694   7.681827  -0.000266   0.090651  -0.002934
 298   6   2.660492   2.732698   7.435298  -0.000333   0.090651  -0.003670
 299   1   2.012686   2.659719   7.213884  -0.000813   0.186573  -0.004358
 300   6   3.987311   6.428410   7.610506  -0.000183   0.069508  -0.002626
 301   6   3.001889   6.881714   7.869760  -0.000521   0.154234  -0.003376
 302   6   1.686885   6.724539   8.122936  -0.000746   0.154234  -0.004835
 303   6   0.805846   6.048147   8.223029  -0.000316   0.069508  -0.004541
 304   1   3.685917   6.894503   7.382991  -0.000249   0.152478  -0.001631
 305   1   2.242805   7.207846   7.719983  -0.000480   0.152478  -0.003147
 306   1   0.888493   6.560142   7.921575  -0.000742   0.152478  -0.004864
 307   1   4.648120   7.803679   5.238520  -0.000173   0.082876  -0.002082
 308   7   4.546542   8.021001   5.046811  -0.000280   0.082876  -0.003378
 309  12   5.442864   7.669728   4.761836  -0.000173   0.082876  -0.002087
 310   7   2.754984   7.726817   1.746108  -0.000344   0.091418  -0.003765
 311   7   1.671312   8.013627   1.887409  -0.000282   0.091418  -0.003089
 312   1   2.100945   7.507998   1.691483  -0.000825   0.187723  -0.004393
 313   7   0.853907   8.966583   4.897892  -0.000309   0.069459  -0.004451
 314   7   1.722351   8.942529   5.595935  -0.000736   0.154100  -0.004778
 315   7   3.029606   8.693394   5.807284  -0.000502   0.154100  -0.003257
 316   7   4.017015   8.363762   5.409286  -0.000243   0.069459  -0.003496
 317   1   0.923693   8.732966   5.445764  -0.000780   0.152394  -0.005116
 318   1   2.263686   8.597926   6.136793  -0.000508   0.152394  -0.003331
 319   1   3.704884   8.202930   5.895411  -0.000375   0.152394  -0.002462
 320   8  -1.201786   6.823974   7.328658  -0.000705   0.210463  -0.003349
 321   8  -1.165616   7.885919   6.239745  -0.002463   0.432658  -0.005694
 322   1  -0.080053   7.288007   7.064546  -0.001712   0.574789  -0.002978
 323   1  -0.078506   8.371617   5.716207  -0.000471   0.296546  -0.001588
 324   9   0.122797   1.442435   5.992855  -0.001004   0.297136  -0.003378
 325   1   1.024318   1.994061   6.447996   0.000076   0.418010   0.000182
 326  10   0.088881   6.413987   0.725409  -0.001018   0.295899  -0.003440
 327   1   1.204850   6.447583   1.003244   0.000146   0.416279   0.000350
 328   1   4.790733   7.808904   5.408447   0.000049   0.006919   0.007028
 329   2   0.054048   1.211622   2.838739   0.000377   0.056454   0.006681
 330   3   0.860305   1.173674   2.730765   0.001077   0.056454   0.019077
 331   9  -0.102489   1.087566   3.067240   0.000035   0.056454   0.000614
 332   2   0.082796   3.005447   0.790947   0.000362   0.056524   0.006397
 333   3   0.887696   2.882260   0.780205   0.000960   0.056524   0.016990
 334  10  -0.067978   3.217979   0.635352   0.000094   0.056524   0.001658
 335   3   1.249240   1.250489   2.060178   0.005261   0.324113   0.016231
 336   3   1.264705   2.222242   0.950802   0.005050   0.324113   0.015580
 337   2   0.130785   1.964151   1.689318   0.004163   0.711271   0.005853
 338   6   0.468114   5.385780   8.222314  -0.000805   0.209646  -0.003841
 339   6   0.747481   3.911065   8.040750  -0.002092   0.430698  -0.004857
 340   2  -0.491350   4.704013   7.820810  -0.000475   0.572767  -0.000829
 341   2  -0.075423   3.070262   7.484904   0.000203   0.295351   0.000687
 342   7   1.002739   8.280893   2.290622  -0.000597   0.209579  -0.002848
 343   7   0.612319   8.777000   3.663818  -0.002319   0.430548  -0.005386
 344   2  -0.187290   8.104494   2.605646  -0.000251   0.572596  -0.000438
 345   2  -0.536153   8.544981   4.229593   0.000025   0.295257   0.000086
 346   8  -1.560561   8.370282   5.129560  -0.000202   0.067939  -0.002971
 347   8  -2.379991   8.230803   4.414765  -0.000418   0.150324  -0.002783
 348   8  -3.461030   7.565954   4.029087  -0.000397   0.150324  -0.002644
 349   8  -4.255243   6.554003   4.352503  -0.000406   0.150324  -0.002700
 350   8  -4.444135   5.600765   5.255317  -0.000465   0.150324  -0.003096
 351   8  -3.951956   5.088506   6.375481  -0.000335   0.150324  -0.002231
 352   8  -2.976080   5.222655   7.263787  -0.000442   0.150324  -0.002938
 353   8  -1.907853   5.949414   7.564004  -0.000525   0.150324  -0.003493
 354   2  -1.567370   8.335526   4.537184  -0.000364   0.149418  -0.002438
 355   2  -2.760935   7.911505   3.752017  -0.000181   0.149418  -0.001214
 356   2  -3.871510   6.918458   3.715144  -0.000089   0.149418  -0.000596
 357   2  -4.453732   5.754620   4.441350  -0.000266   0.149418  -0.001783
 358   2  -4.274117   4.886713   5.639413  -0.000200   0.149418  -0.001340
 359   2  -3.404695   4.662787   6.828883  -0.000086   0.149418  -0.000576
 360   2  -2.194122   5.172640   7.532758  -0.000230   0.149418  -0.001541
 361   2  -1.274389   5.955177   7.609499  -0.000163   0.083002  -0.001965
 362   9  -0.619698   1.905393   6.758434  -0.000173   0.070121  -0.002471
 363   9  -1.699946   2.207325   6.893680  -0.000416   0.156221  -0.002664
 364   9  -2.941718   2.366674   6.350074  -0.000289   0.156221  -0.001851
 365   9  -3.627618   2.220871   5.179101  -0.000384   0.156221  -0.002458
 366   9  -3.464677   1.832192   3.880919  -0.000426   0.156221  -0.002724
 367   9  -2.522492   1.366655   3.010023  -0.000255   0.156221  -0.001635
 368   9  -1.203500   1.023106   2.938399  -0.000329   0.156221  -0.002107
 369   2  -0.880821   2.390802   7.000802  -0.000320   0.153203  -0.002090
 370   2  -2.371788   2.721075   6.865520  -0.000118   0.153203  -0.000771
 371   2  -3.517296   2.729125   5.846642  -0.000121   0.153203  -0.000787
 372   2  -3.828061   2.411512   4.379361  -0.000161   0.153203  -0.001048
 373   2  -3.171347   1.903900   3.090400  -0.000095   0.153203  -0.000622
 374   2  -1.827656   1.423105   2.530314   0.000014   0.153203   0.000094
 375   2  -0.619043   1.173851   2.708769   0.000075   0.085668   0.000880
 376  10  -0.745964   3.181049   0.488330  -0.000070   0.070116  -0.000998
 377  10  -1.845613   3.052999   0.713171  -0.000302   0.156206  -0.001931
 378  10  -3.039098   3.621547   1.052221  -0.000303   0.156206  -0.001940
 379  10  -3.610482   4.827105   1.339896  -0.000397   0.156206  -0.002543
 380  10  -3.315754   6.154837   1.453343  -0.000275   0.156206  -0.001762
 381  10  -2.280778   7.037731   1.344115  -0.000366   0.156206  -0.002340
 382  10  -0.947545   7.098745   1.058857  -0.000486   0.156206  -0.003113
 383   2  -1.047889   2.806149   0.850014  -0.000027   0.153195  -0.000173
 384   2  -2.533120   2.959037   1.197455   0.000068   0.153195   0.000442
 385   2  -3.581871   4.013278   1.569878  -0.000144   0.153195  -0.000939
 386   2  -3.746271   5.518654   1.808240  -0.000126   0.153195  -0.000823
 387   2  -2.956111   6.832292   1.810747   0.000015   0.153195   0.000095
 388   2  -1.548832   7.393197   1.576328  -0.000128   0.153195  -0.000836
 389   2  -0.351754   7.199197   1.286790  -0.000087   0.085662  -0.001021
 390   3   4.282707   4.587609   0.033709   0.001080   0.093935   0.011497
 391   4   4.735159   4.699456  -0.029633   0.000440   0.093935   0.004680
 392  14   5.075475   4.225616  -0.505204   0.000141   0.093935   0.001504
 393   3   4.204914   0.591469   4.539223   0.001241   0.093978   0.013203
 394   4   4.654107   0.534295   4.666488   0.000438   0.093978   0.004658
 395  15   4.992641  -0.000336   4.258920   0.000056   0.093978   0.000596
 396   4   4.322431   1.170424   5.494330   0.001158   0.204493   0.005665
 397   3   3.714502   1.039053   5.130000   0.002591   0.186912   0.013862
 398   4   4.452973   5.393143   0.362882   0.001209   0.200883   0.006016
 399   3   3.753227   5.439196   0.523115   0.002267   0.183611   0.012345
 400   3   3.680887   2.011521   0.026963   0.001233   0.056455   0.021849
 401   5   4.320302   1.674189  -0.347892   0.000259   0.056455   0.004587
 402  14   4.472773   1.790988  -0.582879   0.000022   0.056455   0.000382
 403   3   3.646017   0.289233   1.965129   0.001094   0.056527   0.019347
 404   5   4.283737  -0.133959   1.686943   0.000257   0.056527   0.004549
 405  15   4.429145  -0.356131   1.833939   0.000082   0.056527   0.001457
 406   5   4.087402   0.161359   1.143023   0.001761   0.357787   0.004922
 407   5   4.107789   1.172567   0.005196   0.001799   0.357787   0.005028
 408   3   3.142175   1.187450   1.019557   0.011445   0.658623   0.017377
 409   9  -0.085279   0.796667   3.420725   0.000304   0.257158   0.001181
 410   9   0.287595   0.830511   4.668545  -0.000179   0.517627  -0.000346
 411   3   1.471369   0.787899   3.448806   0.008510   0.635300   0.013396
 412   3   1.856132   0.949580   4.807670   0.003606   0.320152   0.011265
 413  10   0.486949   5.254596   0.214092  -0.000041   0.257761  -0.000160
 414  10   0.117600   4.002067   0.215419   0.000139   0.518869   0.000267
 415   3   1.774667   4.381393   0.270716   0.008126   0.636751   0.012762
 416   3   1.347390   3.027952   0.396481   0.003819   0.320893   0.011900
 417  14   4.473377   2.113927  -0.907819   0.000289   0.257165   0.001123
 418  14   4.817212   3.366433  -1.009302  -0.000188   0.517642  -0.000363
 419   3   3.384623   2.962347  -0.187493   0.008859   0.635318   0.013944
 420   3   3.840170   4.308830  -0.202348   0.003510   0.320161   0.010965
 421  15   4.917713  -0.520388   3.923940  -0.000049   0.257779  -0.000188
 422  15   4.515398  -0.652523   2.688566   0.000116   0.518905   0.000223
 423   3   3.574241   0.252788   3.778304   0.008212   0.636794   0.012896
 424   3   3.218047   0.200398   2.399600   0.004042   0.320915   0.012595
 425   4   9.083494   3.050951   5.487326  -0.000130   0.026958  -0.004830
 426   5   9.296913   2.730016   5.178019  -0.000092   0.026958  -0.003424
 427  11   8.927682   3.048869   5.748611  -0.000181   0.026958  -0.006714
 428   4   6.693758   0.978108   5.777209  -0.000053   0.026958  -0.001975
 429   5   6.938231   0.684110   5.464135  -0.000015   0.026958  -0.000539
 430  11   6.752211   1.161878   6.012502  -0.000074   0.026958  -0.002734
 431   4   6.787305   5.819741   0.317406  -0.000058   0.026968  -0.002142
 432   5   7.030695   5.469613   0.067628  -0.000030   0.026968  -0.001107
 433  12   6.847223   6.074289   0.472852  -0.000100   0.026968  -0.003699
 434   4   9.136016   5.739086   2.456459  -0.000130   0.026968  -0.004837
 435   5   9.348890   5.390006   2.178888  -0.000088   0.026968  -0.003250
 436  12   8.985353   6.000866   2.420121  -0.000141   0.026968  -0.005235
 437   4   9.534521   5.222422   2.606979  -0.000106   0.027094  -0.003919
 438   5   9.811530   4.927812   2.322909  -0.000081   0.027094  -0.002987
 439  13  10.047868   4.740872   2.352735  -0.000091   0.027094  -0.003376
 440   4   9.491445   3.127380   4.967224  -0.000097   0.027094  -0.003579
 441   5   9.767891   2.805352   4.714043  -0.000089   0.027094  -0.003294
 442  13  10.008136   2.808472   4.529750  -0.000125   0.027094  -0.004595
 443   4   6.469188   5.268329  -0.121848  -0.000024   0.026049  -0.000930
 444   5   6.713703   4.974584  -0.435092  -0.000045   0.026049  -0.001714
 445  14   6.662708   4.791812  -0.670817  -0.000087   0.026049  -0.003333
 446   4   6.370307   0.479161   5.273175  -0.000019   0.026043  -0.000740
 447   5   6.613653   0.128857   5.023645  -0.000032   0.026043  -0.001219
 448  15   6.561225  -0.125945   4.869050  -0.000053   0.026043  -0.002021
 449   5   9.634418   2.718863   4.900434  -0.000036   0.050261  -0.000723
 450   4   9.255153   3.135607   5.334105  -0.000094   0.050261  -0.001869
 451   5   6.867223   0.320786   5.233618   0.000051   0.075082   0.000676
 452   4   6.436017   0.750415   5.607280   0.000006   0.075082   0.000085
 453   5   6.886561   5.167231  -0.296303   0.000020   0.073825   0.000267
 454   4   6.611677   5.662544   0.138406   0.000003   0.073825   0.000038
 455   5   9.656477   5.130378   2.159669  -0.000028   0.051218  -0.000543
 456   4   9.330050   5.568660   2.614735  -0.000110   0.051218  -0.002142
 457   4   5.704739   5.811035   6.813812  -0.000184   0.082876  -0.002222
 458   6   4.848598   5.834845   7.192296  -0.000172   0.082876  -0.002072
 459  11   5.801004   5.584087   6.996917  -0.000283   0.082876  -0.003412
 460   4   5.687099   6.030309   6.843791   0.000047   0.007001   0.006765
 461   4   4.594999   6.827778   1.409730  -0.000092   0.082997  -0.001113
 462   7   3.884454   7.298168   1.800386  -0.000131   0.082997  -0.001572
 463  12   4.803641   7.037608   1.491843  -0.000304   0.082997  -0.003663
 464  11   5.350819   1.855138   6.712109  -0.000356   0.091431  -0.003891
 465  11   6.333364   1.386597   6.408809  -0.000283   0.091431  -0.003093
 466   4   5.670234   1.473414   6.231514  -0.000863   0.187742  -0.004596
 467  11   8.834811   3.456008   6.091390  -0.000308   0.069461  -0.004430
 468  11   8.539154   4.508171   6.309671  -0.000723   0.154105  -0.004690
 469  11   7.585316   5.391625   6.663856  -0.000492   0.154105  -0.003191
 470  11   6.526860   5.593656   6.948392  -0.000249   0.069461  -0.003585
 471   4   8.920358   3.968580   5.792103  -0.000770   0.152398  -0.005050
 472   4   8.230173   5.269961   6.140685  -0.000445   0.152398  -0.002917
 473   4   6.891069   5.848128   6.545630  -0.000308   0.152398  -0.002021
 474  12   6.435166   6.500725   0.639490  -0.000272   0.090634  -0.003006
 475  12   5.457350   6.871223   1.042461  -0.000333   0.090634  -0.003679
 476   4   5.770797   6.344365   0.729297  -0.000856   0.186550  -0.004589
 477  12   6.561570   7.538458   4.755335  -0.000194   0.069510  -0.002785
 478  12   7.618629   7.213705   4.610606  -0.000541   0.154238  -0.003508
 479  12   8.581897   6.739640   3.794854  -0.000752   0.154238  -0.004872
 480  12   8.892061   6.391525   2.781741  -0.000322   0.069510  -0.004636
 481   4   6.913496   7.163025   5.063639  -0.000319   0.152482  -0.002092
 482   4   8.255779   6.668720   4.565333  -0.000499   0.152482  -0.003270
 483   4   8.962670   6.154541   3.328281  -0.000775   0.152482  -0.005085
 484  13  10.296172   4.532481   2.710662  -0.000708   0.210457  -0.003363
 485  13  10.319227   3.576669   3.894077  -0.002463   0.432645  -0.005694
 486   4   9.626522   4.879679   3.697782  -0.001707   0.574775  -0.002970
 487   4   9.563056   3.684773   4.946846  -0.000452   0.296538  -0.001523
 488  14   5.882263   4.370270  -0.893765  -0.001006   0.297125  -0.003385
 489   4   5.753583   5.205618  -0.112822   0.000069   0.417994   0.000166
 490  15   6.053492  -0.355801   4.592411  -0.001019   0.295874  -0.003446
 491   4   5.415712   0.468704   5.079402   0.000154   0.416243   0.000370
 492  11   7.136519   1.360750   6.220659  -0.000597   0.209595  -0.002850
 493  11   8.322447   2.292345   6.119607  -0.002319   0.430583  -0.005386
 494   5   8.030662   1.006246   5.432360  -0.000251   0.572638  -0.000439
 495   5   9.276146   2.174987   5.242292   0.000026   0.295279   0.000087
 496  12   8.779051   6.245040   2.061593  -0.000809   0.209663  -0.003858
 497  12   7.715426   6.312546   0.989102  -0.002094   0.430736  -0.004862
 498   5   8.904909   5.430908   1.129928  -0.000477   0.572813  -0.000833
 499   5   7.587950   5.447914   0.025082   0.000201   0.295376   0.000681
 500  13  10.330309   2.403314   4.390185  -0.000202   0.067939  -0.002971
 501  13  10.496816   1.371034   4.060725  -0.000418   0.150324  -0.002783
 502  13  10.724823   0.505087   3.082159  -0.000398   0.150324  -0.002645
 503  13  10.901413   0.408794   1.771057  -0.000406   0.150324  -0.002700
 504  13  10.955769   1.120772   0.653213  -0.000466   0.150324  -0.003097
 505  13  10.866092   2.355497   0.176916  -0.000335   0.150324  -0.002232
 506  13  10.668346   3.617804   0.533177  -0.000442   0.150324  -0.002939
 507  13  10.441832   4.401469   1.579124  -0.000526   0.150324  -0.003496
 508   5  10.037197   1.899777   4.502868  -0.000364   0.149417  -0.002439
 509   5  10.283558   0.623954   3.773148  -0.000181   0.149417  -0.001214
 510   5  10.523172   0.054088   2.417143  -0.000089   0.149417  -0.000597
 511   5  10.659945   0.418714   0.978653  -0.000267   0.149417  -0.001784
 512   5  10.639027   1.571606   0.034559  -0.000200   0.149417  -0.001340
 513   5  10.468807   3.050417  -0.036530  -0.000086   0.149417  -0.000577
 514   5  10.217548   4.262099   0.793897  -0.000230   0.149417  -0.001542
 515   5  10.019804   4.775105   1.871816  -0.000164   0.083002  -0.001973
 516  14   7.012021   4.602453  -1.039958  -0.000174   0.070123  -0.002476
 517  14   7.997267   4.130042  -1.327256  -0.000416   0.156224  -0.002665
 518  14   8.700579   3.004282  -1.644986  -0.000289   0.156224  -0.001851
 519  14   8.554415   1.656688  -1.804884  -0.000384   0.156224  -0.002459
 520  14   7.621205   0.662871  -1.738652  -0.000426   0.156224  -0.002725
 521  14   6.299560   0.447328  -1.474579  -0.000256   0.156224  -0.001638
 522  14   5.154005   1.102125  -1.125461  -0.000340   0.156224  -0.002178
 523   5   7.567509   4.645326  -0.811590  -0.000321   0.153206  -0.002092
 524   5   8.729668   3.724940  -1.202352  -0.000118   0.153206  -0.000772
 525   5   9.060750   2.255164  -1.486180  -0.000121   0.153206  -0.000788
 526   5   8.419338   0.863794  -1.541841  -0.000161   0.153206  -0.001050
 527   5   7.079403   0.145138  -1.345558  -0.000095   0.153206  -0.000622
 528   5   5.613283   0.406162  -0.981173   0.000002   0.153206   0.000013
 529   5   4.713472   1.209616  -0.665646  -0.000009   0.085670  -0.000108
 530  15   4.818168  -0.837770   1.518769  -0.000080   0.070115  -0.001139
 531  15   5.631654  -1.223223   0.836251  -0.000303   0.156204  -0.001938
 532  15   6.934038  -1.596294   0.671334  -0.000303   0.156204  -0.001940
 533  15   8.110943  -1.715181   1.352028  -0.000397   0.156204  -0.002544
 534  15   8.659773  -1.529113   2.587644  -0.000275   0.156204  -0.001763
 535  15   8.346153  -1.117550   3.850515  -0.000366   0.156204  -0.002340
 536  15   7.304012  -0.656250   4.601334  -0.000486   0.156204  -0.003113
 537   5   5.003155  -0.672684   0.970091  -0.000040   0.153193  -0.000259
 538   5   6.295066  -1.172442   0.313448   0.000068   0.153193   0.000444
 539   5   7.768352  -1.464781   0.619942  -0.000144   0.153193  -0.000941
 540   5   8.793849  -1.424860   1.758686  -0.000126   0.153193  -0.000824
 541   5   8.933620  -1.069726   3.243380   0.000015   0.153193   0.000095
 542   5   8.127975  -0.551038   4.439989  -0.000128   0.153193  -0.000837
 543   5   7.044759  -0.152766   4.911653  -0.000088   0.085661  -0.001023
 544  11   5.853544   5.337779   7.406270  -0.000117   0.262712  -0.000447
 545  11   5.599321   4.200312   7.836508  -0.001246   0.525697  -0.002371
 546  11   5.064833   2.834990   7.488543  -0.001134   0.525697  -0.002157
 547   6   4.445568   5.339343   7.954409  -0.001025   0.525697  -0.001949
 548   6   4.031610   3.903249   8.147110  -0.001270   0.525697  -0.002415
 549   6   3.559039   2.893992   7.597892  -0.000157   0.262712  -0.000599
 550  12   4.986114   7.476671   1.563125  -0.000158   0.262721  -0.000601
 551  12   5.446562   8.141885   2.506153  -0.001270   0.525715  -0.002416
 552  12   5.824232   8.126424   3.965040  -0.001028   0.525715  -0.001956
 553   7   3.841846   8.184305   2.250528  -0.001132   0.525715  -0.002154
 554   7   4.352216   8.694131   3.573715  -0.001247   0.525715  -0.002371
 555   7   4.572267   8.407745   4.762574  -0.000116   0.262721  -0.000443
 =====================================================

              2238092  WORDS OF DYNAMIC MEMORY USED
 EXECUTION OF GAMESS TERMINATED NORMALLY Wed Nov 23 23:23:42 2016
 DDI: 263640 bytes (0.3 MB / 0 MWords) used by master data server.

 ----------------------------------------
 CPU timing information for all processes
 ========================================
 0: 254.840 + 0.148 = 254.988
 ----------------------------------------
 ddikick.x: exited gracefully.
