----- GAMESS execution script -----

          ******************************************************
          *         GAMESS VERSION =  5 DEC 2014 (R1)          *
          *             FROM IOWA STATE UNIVERSITY             *
          * M.W.SCHMIDT, K.K.BALDRIDGE, J.A.BOATZ, S.T.ELBERT, *
          *   M.S.GORDON, J.H.JENSEN, S.KOSEKI, N.MATSUNAGA,   *
          *          K.A.NGUYEN, S.J.SU, T.L.WINDUS,           *
          *       TOGETHER WITH M.DUPUIS, J.A.MONTGOMERY       *
          *         J.COMPUT.CHEM.  14, 1347-1363(1993)        *
          **************** 64 BIT LINUX VERSION ****************

 EXECUTION OF GAMESS BEGUN Wed Nov 23 23:32:55 2016

            ECHO OF THE FIRST FEW INPUT CARDS -
 INPUT CARD>! SELECT RESTRICTED HARTREE-FOCK AS DEFAULT                                     
 INPUT CARD>$contrl scftyp=rhf $end                                                         
 INPUT CARD>                                                                                
 INPUT CARD>! THEORY: HF OR DFT                                                             
 INPUT CARD> $contrl mplevl=0 $end                                                          
 INPUT CARD>                                                                                
 INPUT CARD> $system timlim=10000 mwords=20 $end                                            
 INPUT CARD> $SCF DIRSCF=.TRUE. $end                                                        
 INPUT CARD>                                                                                
 INPUT CARD>                                                                                
 INPUT CARD>! BASIS SETS                                                                    
 INPUT CARD>! 6-311G(d,p)                                                                   
 INPUT CARD> $BASIS GBASIS=N311 NGAUSS=6 NDFUNC=1 NPFUNC=1 $END                             
 INPUT CARD>                                                                                
 INPUT CARD>! One of the following                                                          
 INPUT CARD> $guess guess=HUCKEL $end                                                       
 INPUT CARD>                                                                                
 INPUT CARD> $statpt projct=.FALSE. $end                                                    
 INPUT CARD> $STATPT IFREEZ(1)=1,2,3 $END                                                   
 INPUT CARD>                                                                                
 INPUT CARD>! Optimize the geometry with COSMO effects                                      
 INPUT CARD> $statpt opttol=0.0005 nstep=50 $end                                            
 INPUT CARD> $contrl nzvar=1 $end                                                           
 INPUT CARD> $zmat dlc=.t. auto=.t. $end                                                    
 INPUT CARD> $contrl runtyp=OPTIMIZE maxit=200 $end                                         
 INPUT CARD>                                                                                
 INPUT CARD>! Run COSMO on perfect conductor                                                
 INPUT CARD> $COSGMS PRFCND=.TRUE. $end                                                     
 INPUT CARD>                                                                                
 INPUT CARD>! Specifying RSOLV                                                              
 INPUT CARD> $COSGMS COSRAD = 1.4 $end                                                      
 INPUT CARD>                                                                                
 INPUT CARD>! available memory                                                              
 INPUT CARD> $SYSTEM MWORDS=40 $END                                                         
 INPUT CARD>                                                                                
 INPUT CARD> $DATA                                                                          
 INPUT CARD>12346                                                                           
 INPUT CARD>C1                                                                              
 INPUT CARD>O      8.0     -0.0412000000   -0.0582000000   -0.4325000000                    
 INPUT CARD>C      6.0      1.8873000000   -1.6081000000   -0.3274000000                    
 INPUT CARD>C      6.0     -2.1453000000    1.2434000000   -0.3274000000                    
 INPUT CARD>C      6.0      1.3943000000   -0.1376000000   -0.3928000000                    
 INPUT CARD>C      6.0     -0.5945000000    1.2686000000   -0.3928000000                    
 INPUT CARD>C      6.0      3.4380000000   -1.6617000000   -0.3802000000                    
 INPUT CARD>C      6.0      1.3242000000   -2.3673000000    0.9048000000                    
 INPUT CARD>C      6.0     -2.7127000000    2.6875000000   -0.3802000000                    
 INPUT CARD>C      6.0     -2.6733000000    0.4593000000    0.9048000000                    
 INPUT CARD>H      1.0      1.5147000000   -2.1205000000   -1.2190000000                    
 INPUT CARD>H      1.0     -2.5042000000    0.7213000000   -1.2190000000                    
 INPUT CARD>H      1.0      1.7976000000    0.3415000000   -1.2902000000                    
   40000000 WORDS OF MEMORY AVAILABLE

     BASIS OPTIONS
     -------------
     GBASIS=N311         IGAUSS=       6      POLAR=POPN311 
     NDFUNC=       1     NFFUNC=       0     DIFFSP=       F
     NPFUNC=       1      DIFFS=       F     BASNAM=        


     RUN TITLE
     ---------
 12346                                                                           

 THE POINT GROUP OF THE MOLECULE IS C1      
 THE ORDER OF THE PRINCIPAL AXIS IS     0

 ATOM      ATOMIC                      COORDINATES (BOHR)
           CHARGE         X                   Y                   Z
 O           8.0    -0.0778567107       -0.1099820525       -0.8173064897
 C           6.0     3.5664798566       -3.0388683609       -0.6186962884
 C           6.0    -4.0540291615        2.3496852931       -0.6186962884
 C           6.0     2.6348449447       -0.2600262959       -0.7422843680
 C           6.0    -1.1234420997        2.3973063880       -0.7422843680
 C           6.0     6.4968779458       -3.1401576738       -0.7184738205
 C           6.0     2.5023751529       -4.4735483307        1.7098240737
 C           6.0    -5.1262596869        5.0786385920       -0.7184738205
 C           6.0    -5.0518044830        0.8679511462        1.7098240737
 H           1.0     2.8623679536       -4.0071639570       -2.3035759790
 H           1.0    -4.7322518185        1.3630593549       -2.3035759790
 H           1.0     3.3969714355        0.6453414248       -2.4381244694
 H           1.0     3.3578541076        0.7532447787        0.9078243645
 H           1.0    -0.5238320438        3.4177584214       -2.4381244694
 H           1.0    -0.4093146489        3.4170025310        0.9078243645
 H           1.0     7.2017457392       -2.2123022138       -2.4231956341
 H           1.0     7.1726439590       -5.0884651671       -0.7505991623
 H           1.0     7.3260897092       -2.1905703650        0.9151942959
 H           1.0     3.1467717148       -6.4339500704        1.7215403748
 H           1.0     0.4389833469       -4.5083192889        1.6773207867
 H           1.0     3.1019852088       -3.5848101987        3.4718045846
 H           1.0    -4.4863984675        6.0524143935       -2.4231956341
 H           1.0    -7.1883286847        5.0661664005       -0.7505991623
 H           1.0    -4.5073744259        6.1769473361        0.9151942959
 H           1.0    -7.1148183438        0.8222197773        1.7215403748
 H           1.0    -4.3968254556       -1.0888601141        1.6773207867
 H           1.0    -4.4138329895        1.7296661966        3.4718045846

          INTERNUCLEAR DISTANCES (ANGS.)




     $CONTRL OPTIONS
     ---------------
 SCFTYP=RHF          RUNTYP=OPTIMIZE     EXETYP=RUN     
 MPLEVL=       0     CITYP =NONE         CCTYP =NONE         VBTYP =NONE    
 DFTTYP=NONE         TDDFT =NONE    
 MULT  =       1     ICHARG=       0     NZVAR =       1     COORD =UNIQUE  
 PP    =NONE         RELWFN=NONE         LOCAL =NONE         NUMGRD=       F
 ISPHER=      -1     NOSYM =       0     MAXIT =     200     UNITS =ANGS    
 PLTORB=       F     MOLPLT=       F     AIMPAC=       F     FRIEND=        
 NPRINT=       7     IREST =       0     GEOM  =INPUT   
 NORMF =       0     NORMP =       0     ITOL  =      20     ICUT  =       9
 INTTYP=BEST         GRDTYP=BEST         QMTTOL= 1.0E-06

     $SYSTEM OPTIONS
     ---------------
  REPLICATED MEMORY=    40000000 WORDS (ON EVERY NODE).
 DISTRIBUTED MEMDDI=           0 MILLION WORDS IN AGGREGATE,
 MEMDDI DISTRIBUTED OVER   1 PROCESSORS IS           0 WORDS/PROCESSOR.
 TOTAL MEMORY REQUESTED ON EACH PROCESSOR=    40000000 WORDS.
 TIMLIM=       10000.00 MINUTES, OR       6.9 DAYS.
 PARALL= F  BALTYP=  DLB     KDIAG=    0  COREFL= F
 MXSEQ2=     300 MXSEQ3=     150  mem10=         0

     $COSGMS OPTIONS
     ---------------
     EPSI  =   INFTY     NSPA  =      92     COSRAD=    1.40
     DISEX =   10.00     OUTCHG=DBLCAV       COSBUG=       F
     COSWRT=       F     DCOSMO=       F

     SYMMETRY COORDINATES WILL NOT BE USED FOR 
     THE COSMO CALCULATION, EVEN IF SPECIFIED:
         -- SWITCHING TO C1 POINT GROUP --


     DEFINITION OF CAVITY
     ---------------------------
     ATOM         COORDINATES           RADIUS 
     1   -0.0779   -0.1100   -0.8173    1.7200
     2    3.5665   -3.0389   -0.6187    2.0000
     3   -4.0540    2.3497   -0.6187    2.0000
     4    2.6348   -0.2600   -0.7423    2.0000
     5   -1.1234    2.3973   -0.7423    2.0000
     6    6.4969   -3.1402   -0.7185    2.0000
     7    2.5024   -4.4735    1.7098    2.0000
     8   -5.1263    5.0786   -0.7185    2.0000
     9   -5.0518    0.8680    1.7098    2.0000
    10    2.8624   -4.0072   -2.3036    1.3000
    11   -4.7323    1.3631   -2.3036    1.3000
    12    3.3970    0.6453   -2.4381    1.3000
    13    3.3579    0.7532    0.9078    1.3000
    14   -0.5238    3.4178   -2.4381    1.3000
    15   -0.4093    3.4170    0.9078    1.3000
    16    7.2017   -2.2123   -2.4232    1.3000
    17    7.1726   -5.0885   -0.7506    1.3000
    18    7.3261   -2.1906    0.9152    1.3000
    19    3.1468   -6.4340    1.7215    1.3000
    20    0.4390   -4.5083    1.6773    1.3000
    21    3.1020   -3.5848    3.4718    1.3000
    22   -4.4864    6.0524   -2.4232    1.3000
    23   -7.1883    5.0662   -0.7506    1.3000
    24   -4.5074    6.1769    0.9152    1.3000
    25   -7.1148    0.8222    1.7215    1.3000
    26   -4.3968   -1.0889    1.6773    1.3000
    27   -4.4138    1.7297    3.4718    1.3000

          ----------------
          PROPERTIES INPUT
          ----------------

     MOMENTS            FIELD           POTENTIAL          DENSITY
 IEMOM =       1   IEFLD =       0   IEPOT =       0   IEDEN =       0
 WHERE =COMASS     WHERE =NUCLEI     WHERE =NUCLEI     WHERE =NUCLEI  
 OUTPUT=BOTH       OUTPUT=BOTH       OUTPUT=BOTH       OUTPUT=BOTH    
 IEMINT=       0   IEFINT=       0                     IEDINT=       0
                                                       MORB  =       0
          EXTRAPOLATION IN EFFECT
          SOSCF IN EFFECT
 ORBITAL PRINTING OPTION: NPREO=     1   279     2     1

     -------------------------------
     INTEGRAL TRANSFORMATION OPTIONS
     -------------------------------
     NWORD  =            0
     CUTOFF = 1.0E-09     MPTRAN =       0
     DIRTRF =       T     AOINTS =DUP     

          ----------------------
          INTEGRAL INPUT OPTIONS
          ----------------------
 NOPK  =       1 NORDER=       0 SCHWRZ=       T


 -----------------------------------------------
  STATISTICS ON AUTOMATIC COORDINATE GENERATION 
 -----------------------------------------------
  NUMBER OF USER SPECIFIED BONDS                             0
  NUMBER OF BONDS                                           26
  NUMBER OF ANGLES                                          49
  NUMBER OF TORSIONS                                        60
  NUMBER OF EXTRA COORD.                                     0
  NUMBER OF EXTRA COORD. FOR CONSTRAINTS                     0
  NUMBER OF CONSTRAINED COORD.                               0

  TOTAL NUMBER OF PRIMITIVES                               135
 -----------------------------------------------

   --- ENCODED Z MATRIX ---
 COORD  TYPE   I   J   K   L   M   N
    1      1    1   4
    2      1    1   5
    3      1    2   7
    4      1    2   4
    5      1    2  10
    6      1    2   6
    7      1    3   8
    8      1    3  11
    9      1    3   5
   10      1    3   9
   11      1    4  13
   12      1    4  12
   13      1    5  15
   14      1    5  14
   15      1    6  16
   16      1    6  18
   17      1    6  17
   18      1    7  21
   19      1    7  20
   20      1    7  19
   21      1    8  24
   22      1    8  23
   23      1    8  22
   24      1    9  27
   25      1    9  26
   26      1    9  25
   27      2    1   5   3
   28      2    1   5  14
   29      2    1   4  12
   30      2    1   4   2
   31      2    1   5  15
   32      2    1   4  13
   33      2    2   7  20
   34      2    2   7  19
   35      2    2   7  21
   36      2    2   6  16
   37      2    2   4  13
   38      2    2   4  12
   39      2    2   6  17
   40      2    2   6  18
   41      2    3   8  23
   42      2    3   8  24
   43      2    3   5  15
   44      2    3   8  22
   45      2    3   9  25
   46      2    3   9  26
   47      2    3   5  14
   48      2    3   9  27
   49      2    4   2   6
   50      2    4   2  10
   51      2    4   1   5
   52      2    4   2   7
   53      2    5   3   9
   54      2    5   3  11
   55      2    5   3   8
   56      2    6   2   7
   57      2    6   2  10
   58      2    7   2  10
   59      2    8   3   9
   60      2    8   3  11
   61      2    9   3  11
   62      2   12   4  13
   63      2   14   5  15
   64      2   16   6  17
   65      2   16   6  18
   66      2   17   6  18
   67      2   19   7  20
   68      2   19   7  21
   69      2   20   7  21
   70      2   22   8  23
   71      2   22   8  24
   72      2   23   8  24
   73      2   25   9  26
   74      2   25   9  27
   75      2   26   9  27
   76      3    1   5   3  11
   77      3    1   4   2   6
   78      3    1   5   3   9
   79      3    1   4   2  10
   80      3    1   5   3   8
   81      3    1   4   2   7
   82      3    2   4   1   5
   83      3    3   5   1   4
   84      3    4   2   7  20
   85      3    4   2   6  16
   86      3    4   1   5  15
   87      3    4   1   5  14
   88      3    4   2   7  21
   89      3    4   2   6  18
   90      3    4   2   7  19
   91      3    4   2   6  17
   92      3    5   3   9  27
   93      3    5   3   9  26
   94      3    5   3   9  25
   95      3    5   1   4  13
   96      3    5   1   4  12
   97      3    5   3   8  22
   98      3    5   3   8  24
   99      3    5   3   8  23
  100      3    6   2   7  20
  101      3    6   2   4  12
  102      3    6   2   4  13
  103      3    6   2   7  21
  104      3    6   2   7  19
  105      3    7   2   6  17
  106      3    7   2   4  12
  107      3    7   2   4  13
  108      3    7   2   6  16
  109      3    7   2   6  18
  110      3    8   3   9  27
  111      3    8   3   5  14
  112      3    8   3   9  26
  113      3    8   3   9  25
  114      3    8   3   5  15
  115      3    9   3   5  14
  116      3    9   3   8  22
  117      3    9   3   5  15
  118      3    9   3   8  24
  119      3    9   3   8  23
  120      3   10   2   4  12
  121      3   10   2   7  20
  122      3   10   2   4  13
  123      3   10   2   6  16
  124      3   10   2   7  21
  125      3   10   2   6  18
  126      3   10   2   7  19
  127      3   10   2   6  17
  128      3   11   3   9  27
  129      3   11   3   5  14
  130      3   11   3   9  26
  131      3   11   3   9  25
  132      3   11   3   8  22
  133      3   11   3   5  15
  134      3   11   3   8  24
  135      3   11   3   8  23

          INDEP./SYM. INTERNAL COORDINATES
          --------------------------------
 CRD  1=   0.4379 ( 27) -0.1532 ( 28) -0.1532 ( 29)  0.4379 ( 30) -0.1301 ( 31)
          -0.1301 ( 32) -0.1329 ( 38) -0.1330 ( 47) -0.1388 ( 49) -0.5442 ( 51)
           0.1419 ( 52)  0.1420 ( 53) -0.1388 ( 55)
 CRD  2=   0.1148 ( 27) -0.1148 ( 30) -0.1485 ( 31)  0.1485 ( 32) -0.1114 ( 37)
           0.1665 ( 38)  0.1114 ( 43) -0.1665 ( 47)  0.1608 ( 49) -0.2195 ( 52)
           0.2195 ( 53) -0.1608 ( 55) -0.1034 ( 77) -0.1139 ( 78) -0.1034 ( 80)
          -0.1139 ( 81) -0.3280 ( 82) -0.3280 ( 83) -0.2121 ( 86) -0.2413 ( 87)
          -0.2121 ( 95) -0.2413 ( 96)
 CRD  3=   0.2134 (  1)  0.2134 (  2)  0.1994 (  4)  0.1994 (  9) -0.1322 ( 38)
          -0.1322 ( 47)  0.4026 ( 51)  0.1296 ( 52)  0.1296 ( 53) -0.1457 ( 56)
          -0.1457 ( 59)  0.1371 ( 76) -0.1623 ( 77)  0.1916 ( 78) -0.1371 ( 79)
           0.1623 ( 80) -0.1917 ( 81)  0.2810 ( 82) -0.2810 ( 83)
 CRD  4=   0.1207 (  3) -0.1207 ( 10) -0.3349 ( 27)  0.1991 ( 28) -0.1991 ( 29)
           0.3351 ( 30)  0.1030 ( 33) -0.1440 ( 37)  0.1439 ( 43) -0.1030 ( 46)
          -0.2063 ( 49)  0.2224 ( 52) -0.2225 ( 53)  0.2065 ( 55) -0.1121 ( 77)
          -0.1559 ( 78) -0.1122 ( 80) -0.1559 ( 81) -0.1355 ( 82) -0.1353 ( 83)
          -0.1635 ( 86)  0.1070 ( 90)  0.1070 ( 94) -0.1636 ( 95) -0.1028 (106)
          -0.1028 (115)
 CRD  5=  -0.2735 (  1) -0.2734 (  2) -0.2197 (  4) -0.1269 (  6) -0.1268 (  7)
          -0.2198 (  9) -0.1888 ( 27) -0.1887 ( 30)  0.1138 ( 31)  0.1138 ( 32)
          -0.1137 ( 36)  0.1467 ( 37)  0.1468 ( 43) -0.1136 ( 44) -0.1825 ( 49)
          -0.1596 ( 51) -0.1823 ( 55)  0.1578 ( 56)  0.1578 ( 59)  0.1157 ( 76)
          -0.2170 ( 77)  0.1013 ( 78) -0.1157 ( 79)  0.2169 ( 80) -0.1014 ( 81)
           0.2409 ( 82) -0.2409 ( 83) -0.1030 ( 86)  0.1029 ( 95)
 CRD  6=  -0.1285 (  4)  0.1285 (  9) -0.1091 ( 33)  0.1122 ( 34)  0.1323 ( 39)
          -0.1322 ( 41) -0.1122 ( 45)  0.1091 ( 46) -0.2371 ( 49)  0.1614 ( 50)
          -0.1603 ( 52)  0.1603 ( 53) -0.1614 ( 54)  0.2371 ( 55)  0.3816 ( 56)
          -0.3816 ( 59)  0.1611 ( 78)  0.1611 ( 81)  0.1109 ( 88)  0.1109 ( 92)
          -0.1029 (101)  0.1262 (107) -0.1029 (111)  0.1262 (117)
 CRD  7=  -0.1672 (  1) -0.1671 (  2) -0.1033 (  3) -0.2195 (  6) -0.2195 (  7)
          -0.1033 ( 10) -0.1128 ( 27) -0.1128 ( 30)  0.1085 ( 33) -0.1338 ( 34)
          -0.1221 ( 39) -0.1133 ( 40) -0.1221 ( 41) -0.1133 ( 42) -0.1338 ( 45)
           0.1085 ( 46) -0.1156 ( 50) -0.1845 ( 51)  0.2068 ( 52)  0.2068 ( 53)
          -0.1156 ( 54) -0.3309 ( 56)  0.1100 ( 57) -0.3309 ( 59)  0.1100 ( 60)
           0.1323 ( 77) -0.1323 ( 80)  0.1363 (101) -0.1131 (107) -0.1363 (111)
           0.1131 (117)
 CRD  8=  -0.1700 (  3) -0.1700 ( 10) -0.1057 ( 28) -0.1057 ( 29) -0.1028 ( 35)
          -0.1028 ( 48)  0.2988 ( 49) -0.3684 ( 51) -0.2623 ( 52) -0.2623 ( 53)
           0.2989 ( 55) -0.1224 ( 57)  0.1356 ( 58) -0.1224 ( 60)  0.1356 ( 61)
           0.1076 ( 82) -0.1076 ( 83) -0.1078 ( 84) -0.1011 ( 87)  0.1078 ( 93)
           0.1011 ( 96)
 CRD  9=   0.2729 (  3) -0.2728 ( 10)  0.2600 ( 27) -0.2600 ( 30) -0.1615 ( 31)
           0.1615 ( 32)  0.1475 ( 35) -0.1290 ( 36)  0.1171 ( 37)  0.1657 ( 40)
          -0.1657 ( 42) -0.1171 ( 43)  0.1290 ( 44) -0.1475 ( 48) -0.1112 ( 76)
          -0.2308 ( 77) -0.1003 ( 78) -0.1112 ( 79) -0.2308 ( 80) -0.1002 ( 81)
           0.1163 ( 82)  0.1163 ( 83)  0.1523 ( 91)  0.1523 ( 99) -0.1120 (101)
          -0.1161 (102) -0.1120 (111) -0.1161 (114)
 CRD 10=   0.1522 (  3)  0.3134 (  4)  0.3369 (  6) -0.3370 (  7) -0.3135 (  9)
          -0.1522 ( 10) -0.2063 ( 27)  0.1373 ( 28) -0.1373 ( 29)  0.2064 ( 30)
           0.1545 ( 31) -0.1545 ( 32)  0.1612 ( 40) -0.1613 ( 42)  0.1452 ( 49)
          -0.1086 ( 52)  0.1085 ( 53) -0.1452 ( 55)  0.1050 ( 87)  0.1050 ( 96)
 CRD 11=  -0.1288 (  1) -0.1288 (  2)  0.3171 (  3)  0.1915 (  4)  0.2295 (  6)
           0.2294 (  7)  0.1915 (  9)  0.3171 ( 10) -0.1045 ( 27) -0.1044 ( 30)
           0.2104 ( 35)  0.1646 ( 37)  0.1089 ( 38)  0.1370 ( 40)  0.1370 ( 42)
           0.1647 ( 43)  0.1089 ( 47)  0.2104 ( 48) -0.2408 ( 51) -0.1164 ( 69)
          -0.1164 ( 75)  0.1129 ( 86) -0.1129 ( 95)
 CRD 12=   0.2549 (  3)  0.1496 (  6) -0.1496 (  7) -0.2549 ( 10)  0.1241 ( 12)
          -0.1241 ( 14)  0.1675 ( 27) -0.1675 ( 30)  0.1321 ( 33)  0.2566 ( 36)
           0.1143 ( 38)  0.1226 ( 39) -0.2527 ( 40) -0.1226 ( 41)  0.2528 ( 42)
          -0.2567 ( 44) -0.1321 ( 46) -0.1144 ( 47)  0.1134 ( 57) -0.1134 ( 60)
          -0.1333 ( 64)  0.1333 ( 70)  0.1348 ( 77)  0.1348 ( 80) -0.1429 ( 82)
          -0.1429 ( 83)
 CRD 13=  -0.2299 (  3) -0.1130 (  6) -0.1130 (  7) -0.2299 ( 10) -0.2628 ( 33)
          -0.2117 ( 34)  0.2790 ( 35) -0.1686 ( 36) -0.1371 ( 39)  0.2091 ( 40)
          -0.1370 ( 41)  0.2090 ( 42) -0.1685 ( 44) -0.2115 ( 45) -0.2626 ( 46)
           0.2788 ( 48)  0.1158 ( 64)  0.1766 ( 67)  0.1158 ( 70)  0.1765 ( 73)
           0.1079 (100) -0.1167 (108) -0.1078 (112)  0.1166 (116)
 CRD 14=   0.1038 (  4) -0.1039 (  9) -0.2038 ( 33) -0.2187 ( 34)  0.3567 ( 35)
          -0.1139 ( 39)  0.1141 ( 41)  0.2188 ( 45)  0.2039 ( 46) -0.3569 ( 48)
          -0.1248 ( 58)  0.1249 ( 61)  0.1400 ( 67) -0.1401 ( 73)  0.1166 ( 78)
           0.1166 ( 81) -0.1632 ( 82) -0.1632 ( 83) -0.1435 ( 86) -0.1435 ( 95)
           0.1042 (100) -0.1168 (105) -0.1391 (108) -0.1129 (109)  0.1043 (112)
          -0.1392 (116) -0.1129 (118) -0.1168 (119)
 CRD 15=   0.1648 (  3)  0.2132 (  4) -0.3232 (  6) -0.3229 (  7)  0.2130 (  9)
           0.1647 ( 10)  0.2715 ( 34) -0.1633 ( 36)  0.1230 ( 38) -0.1817 ( 39)
          -0.1816 ( 41) -0.1633 ( 44)  0.2713 ( 45)  0.1228 ( 47) -0.1106 ( 57)
          -0.1105 ( 60)  0.1420 ( 64) -0.1088 ( 68)  0.1419 ( 70) -0.1086 ( 74)
 CRD 16=   0.2830 (  4) -0.2806 (  6)  0.2809 (  7) -0.2832 (  9) -0.1987 ( 33)
           0.3306 ( 34) -0.1078 ( 36)  0.1023 ( 37)  0.1222 ( 38) -0.1468 ( 40)
           0.1468 ( 42) -0.1023 ( 43)  0.1080 ( 44) -0.3308 ( 45)  0.1988 ( 46)
          -0.1223 ( 47)  0.1273 ( 65) -0.1253 ( 68) -0.1275 ( 71)  0.1253 ( 74)
           0.1006 ( 87)  0.1005 ( 96)
 CRD 17=  -0.1422 (  3)  0.2592 (  4)  0.2591 (  9) -0.1423 ( 10) -0.2197 ( 33)
          -0.1187 ( 36)  0.1649 ( 37)  0.3472 ( 39) -0.2362 ( 40)  0.3473 ( 41)
          -0.2361 ( 42)  0.1649 ( 43) -0.1188 ( 44) -0.2196 ( 46)  0.1436 ( 65)
           0.1057 ( 69)  0.1436 ( 71)  0.1056 ( 75)
 CRD 18=   0.2012 (  3) -0.1523 (  4) -0.1118 (  6)  0.1119 (  7)  0.1523 (  9)
          -0.2013 ( 10) -0.1107 ( 17)  0.1107 ( 22)  0.1282 ( 34)  0.2714 ( 36)
          -0.4307 ( 39)  0.4307 ( 41) -0.2715 ( 44) -0.1284 ( 45) -0.1264 ( 65)
           0.1651 ( 66)  0.1263 ( 71) -0.1651 ( 72)
 CRD 19=  -0.2959 ( 33)  0.1548 ( 34)  0.2147 ( 35)  0.3393 ( 36) -0.1572 ( 39)
          -0.2371 ( 40) -0.1570 ( 41) -0.2372 ( 42)  0.3391 ( 44)  0.1548 ( 45)
          -0.2959 ( 46)  0.2148 ( 48)  0.1696 ( 66) -0.1578 ( 68)  0.1695 ( 72)
          -0.1578 ( 74)
 CRD 20=  -0.1185 (  4)  0.1185 (  9) -0.1134 ( 12)  0.1134 ( 14)  0.1067 ( 18)
          -0.1067 ( 24) -0.1052 ( 27)  0.1028 ( 28) -0.1028 ( 29)  0.1052 ( 30)
          -0.3060 ( 33)  0.2613 ( 35)  0.1360 ( 36)  0.1324 ( 39) -0.2388 ( 40)
          -0.1325 ( 41)  0.2389 ( 42) -0.1359 ( 44)  0.3059 ( 46) -0.2614 ( 48)
          -0.1125 ( 64)  0.1296 ( 67) -0.1266 ( 68)  0.1125 ( 70) -0.1296 ( 73)
           0.1266 ( 74) -0.1051 ( 76) -0.1024 ( 78) -0.1051 ( 79) -0.1023 ( 81)
          -0.1063 ( 90) -0.1063 ( 94)
 CRD 21=   0.1389 ( 28)  0.1389 ( 29) -0.1094 ( 31) -0.1094 ( 32) -0.1226 ( 33)
           0.2861 ( 34) -0.2142 ( 35)  0.1641 ( 37) -0.2019 ( 38)  0.2036 ( 40)
           0.2035 ( 42)  0.1641 ( 43)  0.2861 ( 45) -0.1227 ( 46) -0.2019 ( 47)
          -0.2141 ( 48) -0.1069 ( 50) -0.1068 ( 54)  0.1472 ( 69)  0.1472 ( 75)
           0.1297 ( 87) -0.1297 ( 96)
 CRD 22=  -0.1409 (  6)  0.1409 (  7)  0.2124 ( 33) -0.2583 ( 34)  0.1249 ( 35)
           0.1370 ( 38) -0.1887 ( 40)  0.1887 ( 42)  0.2584 ( 45) -0.2124 ( 46)
          -0.1370 ( 47) -0.1248 ( 48)  0.1089 ( 50) -0.1248 ( 52)  0.1248 ( 53)
          -0.1090 ( 54) -0.1392 ( 57)  0.1392 ( 60)  0.1014 ( 65) -0.1578 ( 69)
          -0.1014 ( 71)  0.1578 ( 75)  0.1620 ( 86)  0.2013 ( 87)  0.1619 ( 95)
           0.2012 ( 96)
 CRD 23=   0.1634 (  3) -0.1788 (  4) -0.1787 (  9)  0.1634 ( 10) -0.1179 ( 11)
          -0.1179 ( 13)  0.1128 ( 18)  0.1128 ( 24)  0.1982 ( 35) -0.2367 ( 36)
           0.1970 ( 39)  0.1970 ( 41) -0.2367 ( 44)  0.1982 ( 48)  0.1240 ( 49)
          -0.1472 ( 50) -0.1472 ( 54)  0.1240 ( 55)  0.1749 ( 58)  0.1749 ( 61)
           0.1228 ( 65) -0.1035 ( 68) -0.1026 ( 69)  0.1228 ( 71) -0.1035 ( 74)
          -0.1026 ( 75)  0.1068 ( 85)  0.1097 ( 91) -0.1068 ( 97) -0.1097 ( 99)
           0.1225 (105)  0.1197 (108) -0.1197 (116) -0.1226 (119)
 CRD 24=  -0.1778 ( 28)  0.1774 ( 29)  0.2162 ( 31) -0.2158 ( 32)  0.3088 ( 37)
          -0.3143 ( 38) -0.1367 ( 40)  0.1370 ( 42) -0.3093 ( 43)  0.3147 ( 47)
          -0.2351 ( 86) -0.2265 ( 87) -0.2348 ( 95) -0.2263 ( 96)
 CRD 25=  -0.1059 (  6) -0.1057 (  7)  0.1063 ( 11)  0.1063 ( 13)  0.2010 ( 28)
           0.2014 ( 29) -0.2152 ( 31) -0.2156 ( 32)  0.1500 ( 33) -0.1092 ( 34)
           0.2807 ( 37) -0.2697 ( 38) -0.1568 ( 40) -0.1566 ( 42)  0.2802 ( 43)
          -0.1091 ( 45)  0.1499 ( 46) -0.2691 ( 47) -0.1236 ( 57) -0.1234 ( 60)
           0.1428 ( 86)  0.1205 ( 87) -0.1432 ( 95) -0.1209 ( 96)
 CRD 26=   0.1780 (  3) -0.1258 (  4)  0.1258 (  9) -0.1780 ( 10) -0.2099 ( 11)
           0.1339 ( 12)  0.2098 ( 13) -0.1339 ( 14)  0.1400 ( 35) -0.2570 ( 36)
          -0.1090 ( 37)  0.1081 ( 39) -0.1081 ( 41)  0.1088 ( 43)  0.2570 ( 44)
          -0.1400 ( 48) -0.1056 ( 50)  0.1056 ( 54) -0.1026 ( 56)  0.1390 ( 58)
           0.1026 ( 59) -0.1390 ( 61) -0.1012 ( 66) -0.1016 ( 69)  0.1011 ( 72)
           0.1016 ( 75)  0.1643 ( 76)  0.1482 ( 77)  0.1643 ( 79)  0.1482 ( 80)
           0.1058 (105)  0.1073 (108)  0.1011 (109)  0.1073 (116)  0.1011 (118)
           0.1058 (119)
 CRD 27=  -0.4905 (  5) -0.4909 (  8)  0.1083 ( 19)  0.1084 ( 25)  0.1073 ( 85)
           0.1226 ( 89)  0.1276 ( 91) -0.1073 ( 97) -0.1227 ( 98) -0.1277 ( 99)
           0.1117 (100)  0.1088 (103)  0.1317 (106)  0.1291 (107) -0.1089 (110)
          -0.1117 (112) -0.1318 (115) -0.1292 (117)
 CRD 28=   0.5262 (  5) -0.5258 (  8)  0.1324 ( 11) -0.1322 ( 13) -0.1076 ( 19)
           0.1076 ( 25)  0.1019 ( 35)  0.1009 ( 40) -0.1008 ( 42) -0.1018 ( 48)
          -0.1063 ( 89) -0.1137 ( 91) -0.1062 ( 98) -0.1136 ( 99) -0.1204 (106)
          -0.1020 (107) -0.1204 (115) -0.1020 (117)
 CRD 29=  -0.2337 (  5) -0.2337 (  8) -0.1250 ( 11) -0.1251 ( 13)  0.1377 ( 15)
           0.1041 ( 16) -0.1175 ( 18)  0.1041 ( 21)  0.1377 ( 23) -0.1174 ( 24)
          -0.1526 ( 84) -0.1659 ( 88) -0.1037 ( 89) -0.1701 ( 90)  0.1659 ( 92)
           0.1526 ( 93)  0.1702 ( 94)  0.1038 ( 98) -0.1121 (102) -0.1101 (103)
          -0.1144 (104) -0.1283 (105) -0.1296 (108) -0.1367 (109)  0.1102 (110)
           0.1144 (113)  0.1121 (114)  0.1296 (116)  0.1368 (118)  0.1284 (119)
          -0.1085 (121) -0.1054 (122) -0.1127 (123) -0.1218 (124) -0.1199 (125)
          -0.1260 (126) -0.1115 (127)  0.1218 (128)  0.1085 (130)  0.1261 (131)
           0.1128 (132)  0.1054 (133)  0.1200 (134)  0.1116 (135)
 CRD 30=  -0.1649 ( 11)  0.1649 ( 13)  0.1819 ( 15)  0.2286 ( 16)  0.1374 ( 17)
          -0.1732 ( 18) -0.1074 ( 19) -0.1021 ( 20) -0.2285 ( 21) -0.1372 ( 22)
          -0.1817 ( 23)  0.1730 ( 24)  0.1073 ( 25)  0.1021 ( 26)  0.1027 ( 33)
          -0.1069 ( 36)  0.1068 ( 44) -0.1027 ( 46)  0.1134 ( 64) -0.1133 ( 70)
          -0.1305 ( 84) -0.1348 ( 88) -0.1433 ( 90) -0.1348 ( 92) -0.1305 ( 93)
          -0.1433 ( 94) -0.1044 (100) -0.1087 (103) -0.1172 (104) -0.1087 (110)
          -0.1044 (112) -0.1172 (113) -0.1003 (126) -0.1003 (131)
 CRD 31=  -0.1169 (  5) -0.1174 (  8) -0.1991 ( 15) -0.2850 ( 16) -0.2416 ( 17)
           0.2083 ( 18)  0.1660 ( 19)  0.2243 ( 20) -0.2858 ( 21) -0.2421 ( 22)
          -0.1998 ( 23)  0.2074 ( 24)  0.1652 ( 25)  0.2236 ( 26)  0.1046 ( 36)
           0.1003 ( 39)  0.1007 ( 41)  0.1049 ( 44) -0.1160 ( 64) -0.1163 ( 70)
 CRD 32=  -0.1432 (  5)  0.1407 (  8) -0.1929 ( 15) -0.2214 ( 16) -0.1632 ( 17)
          -0.3120 ( 18) -0.2762 ( 19) -0.2437 ( 20)  0.2164 ( 21)  0.1592 ( 22)
           0.1886 ( 23)  0.3074 ( 24)  0.2721 ( 25)  0.2401 ( 26)  0.1315 ( 34)
           0.1002 ( 39) -0.1295 ( 45) -0.1263 ( 67) -0.1167 ( 68)  0.1244 ( 73)
           0.1149 ( 74)
 CRD 33=  -0.1231 (  5) -0.1257 (  8) -0.2078 ( 15) -0.2289 ( 16) -0.1788 ( 17)
          -0.2984 ( 18) -0.2655 ( 19) -0.2428 ( 20) -0.2327 ( 21) -0.1816 ( 22)
          -0.2111 ( 23) -0.3038 ( 24) -0.2703 ( 25) -0.2470 ( 26)  0.1224 ( 34)
           0.1014 ( 41)  0.1247 ( 45) -0.1193 ( 67) -0.1107 ( 68) -0.1214 ( 73)
          -0.1127 ( 74)
 CRD 34=  -0.1035 (  1)  0.1035 (  2) -0.1133 (  6)  0.1133 (  7) -0.2485 ( 11)
           0.2485 ( 13) -0.1880 ( 15) -0.2078 ( 16) -0.2489 ( 17)  0.1382 ( 18)
           0.1353 ( 19)  0.1722 ( 20)  0.2078 ( 21)  0.2488 ( 22)  0.1880 ( 23)
          -0.1383 ( 24) -0.1353 ( 25) -0.1722 ( 26)  0.1040 ( 31) -0.1040 ( 32)
 CRD 35=   0.2563 (  1) -0.2562 (  2)  0.1454 ( 11)  0.3230 ( 12) -0.1453 ( 13)
          -0.3230 ( 14)  0.1240 ( 20) -0.1239 ( 26) -0.1355 ( 28)  0.1356 ( 29)
          -0.1502 ( 37) -0.1621 ( 38)  0.1502 ( 43)  0.1621 ( 47)  0.1244 ( 62)
          -0.1243 ( 63)  0.1559 ( 86)  0.1559 ( 95) -0.1095 (105) -0.1034 (106)
          -0.1179 (108) -0.1035 (109) -0.1034 (115) -0.1178 (116) -0.1034 (118)
          -0.1095 (119)
 CRD 36=   0.4121 ( 11)  0.4252 ( 12)  0.4120 ( 13)  0.4253 ( 14) -0.1106 ( 51)
           0.1651 ( 62)  0.1651 ( 63) -0.1186 ( 86)  0.1150 ( 87)  0.1185 ( 95)
          -0.1151 ( 96)
 CRD 37=  -0.1961 (  1) -0.1961 (  2)  0.1310 (  6)  0.1311 (  7) -0.1755 ( 11)
          -0.1187 ( 12) -0.1759 ( 13) -0.1182 ( 14)  0.1970 ( 15) -0.1330 ( 16)
           0.2220 ( 17) -0.1331 ( 21)  0.2222 ( 22)  0.1971 ( 23)  0.1281 ( 51)
           0.1420 ( 84)  0.1363 ( 90) -0.1419 ( 93) -0.1363 ( 94)  0.1361 (100)
           0.1304 (104) -0.1152 (105) -0.1341 (106) -0.1359 (112) -0.1303 (113)
           0.1343 (115)  0.1150 (119) -0.1082 (120)  0.1270 (121)  0.1213 (126)
           0.1084 (129) -0.1269 (130) -0.1213 (131)
 CRD 38=   0.1119 (  3)  0.1120 ( 10)  0.1659 ( 11) -0.2526 ( 12)  0.1664 ( 13)
          -0.2525 ( 14) -0.2125 ( 18)  0.2310 ( 19)  0.2194 ( 20) -0.2126 ( 24)
           0.2310 ( 25)  0.2198 ( 26)  0.1030 ( 65)  0.1031 ( 71) -0.1291 ( 85)
          -0.1011 ( 91)  0.1292 ( 97)  0.1011 ( 99)  0.1041 (102)  0.1039 (104)
          -0.1208 (108) -0.1038 (113) -0.1042 (114)  0.1208 (116)  0.1006 (122)
          -0.1356 (123) -0.1076 (127)  0.1357 (132) -0.1007 (133)  0.1076 (135)
 CRD 39=   0.1002 (  3) -0.1002 ( 10) -0.3042 ( 12)  0.3042 ( 14) -0.2308 ( 18)
           0.2425 ( 19)  0.2000 ( 20)  0.2306 ( 24) -0.2420 ( 25) -0.2003 ( 26)
          -0.1035 ( 68)  0.1034 ( 74) -0.1167 ( 85) -0.1166 ( 97)  0.1129 (102)
           0.1245 (104) -0.1118 (108)  0.1245 (113)  0.1128 (114) -0.1118 (116)
           0.1060 (122) -0.1226 (123)  0.1081 (126) -0.1024 (127)  0.1081 (131)
          -0.1226 (132)  0.1059 (133) -0.1026 (135)
 CRD 40=   0.2132 ( 11)  0.1553 ( 12) -0.2132 ( 13) -0.1555 ( 14) -0.2746 ( 15)
           0.3074 ( 16) -0.1581 ( 17) -0.3071 ( 21)  0.1582 ( 22)  0.2743 ( 23)
           0.1059 ( 62) -0.1059 ( 63) -0.1417 ( 64)  0.1332 ( 66)  0.1415 ( 70)
          -0.1331 ( 72) -0.1118 ( 84)  0.1240 ( 91) -0.1114 ( 93)  0.1239 ( 99)
           0.1390 (105)  0.1125 (106)  0.1125 (115)  0.1389 (119)  0.1003 (120)
           0.1226 (127)  0.1003 (129)  0.1226 (135)
 CRD 41=   0.2976 ( 15) -0.2503 ( 17) -0.4262 ( 19)  0.3693 ( 20)  0.1435 ( 22)
          -0.1630 ( 23)  0.2455 ( 25) -0.2185 ( 26)  0.1297 ( 65) -0.1473 ( 66)
           0.2155 ( 68) -0.1922 ( 69) -0.1246 ( 74)  0.1137 ( 75)  0.1553 ( 88)
           0.1135 ( 89)  0.1583 (103)  0.1180 (109)  0.1649 (124)  0.1196 (125)
 CRD 42=  -0.1870 ( 15)  0.1451 ( 17)  0.2437 ( 19) -0.1996 ( 20)  0.2514 ( 22)
          -0.3106 ( 23)  0.4254 ( 25) -0.3587 ( 26) -0.1223 ( 68)  0.1039 ( 69)
          -0.1301 ( 71)  0.1532 ( 72) -0.2144 ( 74)  0.1868 ( 75)  0.1527 ( 92)
           0.1159 ( 98)  0.1557 (110)  0.1201 (118)  0.1626 (128)  0.1222 (134)
 CRD 43=   0.3079 ( 15) -0.3254 ( 17)  0.1819 ( 19) -0.2994 ( 20) -0.3172 ( 22)
           0.3032 ( 23)  0.1787 ( 25) -0.2938 ( 26)  0.1542 ( 65) -0.1498 ( 66)
           0.1393 ( 69)  0.1504 ( 71) -0.1477 ( 72)  0.1369 ( 75)  0.1271 ( 89)
          -0.1244 ( 98)  0.1220 (109) -0.1193 (118) -0.1036 (124)  0.1402 (125)
           0.1015 (128) -0.1372 (134)
 CRD 44=   0.2572 ( 15) -0.3661 ( 17)  0.1587 ( 19) -0.2694 ( 20)  0.3727 ( 22)
          -0.2641 ( 23) -0.1623 ( 25)  0.2753 ( 26)  0.1708 ( 65) -0.1216 ( 66)
           0.1182 ( 69) -0.1740 ( 71)  0.1250 ( 72) -0.1210 ( 75)  0.1298 ( 89)
           0.1325 ( 98)  0.1253 (109)  0.1279 (118)  0.1415 (125)  0.1445 (134)
 CRD 45=  -0.1747 ( 15)  0.3832 ( 16) -0.1267 ( 17)  0.1798 ( 18) -0.1201 ( 19)
           0.3783 ( 21) -0.1263 ( 22) -0.1711 ( 23)  0.1731 ( 24) -0.1165 ( 25)
          -0.2315 ( 64)  0.1159 ( 65) -0.1071 ( 67) -0.2284 ( 70)  0.1144 ( 71)
          -0.1029 ( 73)  0.1033 ( 84) -0.1468 ( 85) -0.1002 ( 93)  0.1441 ( 97)
           0.1287 (100) -0.1754 (108) -0.1251 (112)  0.1721 (116)  0.1032 (121)
          -0.1559 (123) -0.1001 (130)  0.1530 (132)
 CRD 46=   0.2083 ( 12) -0.2077 ( 14)  0.1481 ( 15) -0.2276 ( 16) -0.2906 ( 18)
           0.1370 ( 19)  0.2372 ( 21) -0.1515 ( 23)  0.2923 ( 24) -0.1388 ( 25)
           0.1411 ( 64)  0.1796 ( 67) -0.1471 ( 70) -0.1804 ( 73) -0.1388 ( 84)
           0.1236 ( 85) -0.1407 ( 93)  0.1269 ( 97) -0.1640 (100)  0.1504 (108)
          -0.1663 (112)  0.1543 (116) -0.1392 (121)  0.1306 (123) -0.1409 (130)
           0.1340 (132)
 CRD 47=   0.1638 ( 11) -0.1745 ( 12)  0.1634 ( 13) -0.1762 ( 14) -0.1624 ( 16)
           0.1068 ( 17)  0.3279 ( 18) -0.1617 ( 21)  0.1070 ( 22)  0.3307 ( 24)
           0.1068 ( 64) -0.2137 ( 67)  0.1062 ( 70) -0.2153 ( 73) -0.1390 ( 90)
          -0.1064 ( 91)  0.1396 ( 94)  0.1066 ( 99) -0.1110 (104) -0.1084 (105)
           0.1113 (113)  0.1088 (119) -0.1158 (126) -0.1095 (127)  0.1164 (131)
           0.1098 (135)
 CRD 48=   0.3116 ( 11) -0.3111 ( 13) -0.1913 ( 16)  0.2062 ( 18)  0.1909 ( 21)
          -0.2059 ( 24)  0.1131 ( 28) -0.1133 ( 29)  0.1124 ( 62) -0.1124 ( 63)
           0.1409 ( 64) -0.1480 ( 67) -0.1405 ( 70)  0.1477 ( 73) -0.1473 ( 90)
          -0.1061 ( 91) -0.1470 ( 94) -0.1059 ( 99)  0.1727 (101) -0.1166 (104)
           0.1810 (106)  0.1724 (111) -0.1163 (113)  0.1807 (115)  0.1643 (120)
          -0.1130 (126) -0.1070 (127)  0.1640 (129) -0.1127 (131) -0.1068 (135)
 CRD 49=  -0.4429 (  1)  0.4430 (  2) -0.1903 (  4)  0.1903 (  9)  0.1053 ( 11)
           0.1482 ( 12) -0.1054 ( 13) -0.1481 ( 14)  0.1011 ( 27) -0.1012 ( 30)
          -0.1303 (102) -0.1496 (107) -0.1303 (114) -0.1496 (117)  0.1196 (121)
          -0.1608 (122)  0.1114 (124)  0.1218 (126)  0.1114 (128)  0.1197 (130)
           0.1217 (131) -0.1608 (133)
 CRD 50=   0.4111 (  1)  0.4109 (  2) -0.2175 ( 27)  0.1608 ( 28)  0.1608 ( 29)
          -0.2175 ( 30)  0.1595 ( 31)  0.1595 ( 32) -0.3945 ( 51) -0.2153 ( 62)
          -0.2153 ( 63) -0.1176 (101) -0.1275 (106)  0.1176 (111)  0.1275 (115)
          -0.1273 (120)  0.1273 (129)
 CRD 51=  -0.1584 (  5) -0.1585 (  8)  0.3339 ( 11) -0.3266 ( 12)  0.3339 ( 13)
          -0.3267 ( 14)  0.1024 ( 76) -0.1097 ( 77)  0.1218 ( 78) -0.1024 ( 79)
           0.1097 ( 80) -0.1218 ( 81) -0.1956 ( 82)  0.1956 ( 83)  0.1547 ( 86)
           0.1523 ( 87) -0.1547 ( 95) -0.1523 ( 96)
 CRD 52=   0.1172 (  3) -0.1707 (  6) -0.1759 (  7)  0.1180 ( 10)  0.1638 ( 15)
           0.1319 ( 16)  0.1409 ( 17) -0.1424 ( 19)  0.1373 ( 21)  0.1447 ( 22)
           0.1679 ( 23) -0.1449 ( 25) -0.1124 ( 33)  0.1495 ( 36)  0.1408 ( 39)
           0.1420 ( 40)  0.1451 ( 41)  0.1468 ( 42)  0.1537 ( 44) -0.1135 ( 46)
          -0.1201 ( 57) -0.1221 ( 60) -0.1610 ( 64) -0.1556 ( 65) -0.1387 ( 66)
           0.1186 ( 67)  0.1239 ( 69) -0.1649 ( 70) -0.1607 ( 71) -0.1436 ( 72)
           0.1207 ( 73)  0.1246 ( 75) -0.1428 ( 76)  0.1399 ( 79)  0.1204 (120)
          -0.1026 (121)  0.1786 (122) -0.1187 (124)  0.1216 (128) -0.1221 (129)
           0.1056 (130) -0.1814 (133)
 CRD 53=   0.1816 (  5)  0.2082 (  6) -0.2039 (  7) -0.1812 (  8) -0.1021 ( 11)
           0.1025 ( 13) -0.1537 ( 15) -0.2216 ( 16) -0.1512 ( 17)  0.2182 ( 21)
           0.1476 ( 22)  0.1496 ( 23) -0.1639 ( 36) -0.1669 ( 39) -0.1913 ( 40)
           0.1634 ( 41)  0.1878 ( 42)  0.1601 ( 44)  0.1460 ( 64)  0.2027 ( 65)
           0.2010 ( 66) -0.1420 ( 70) -0.1988 ( 71) -0.1975 ( 72) -0.1044 ( 76)
          -0.1079 ( 79)  0.1215 (121)  0.1179 (124)  0.1149 (128)  0.1189 (130)
 CRD 54=  -0.2091 (  3) -0.1483 (  5)  0.1483 (  8)  0.2087 ( 10)  0.2150 ( 18)
           0.1542 ( 19)  0.1540 ( 20) -0.2146 ( 24) -0.1537 ( 25) -0.1537 ( 26)
           0.1674 ( 33)  0.1665 ( 34)  0.1845 ( 35) -0.1662 ( 45) -0.1670 ( 46)
          -0.1841 ( 48) -0.1482 ( 67) -0.1998 ( 68) -0.1988 ( 69)  0.1478 ( 73)
           0.1995 ( 74)  0.1984 ( 75) -0.1319 (120) -0.1344 (122)  0.1213 (123)
           0.1204 (125) -0.1314 (129)  0.1211 (132) -0.1338 (133)  0.1202 (134)
 CRD 55=   0.2192 (  3)  0.1242 (  6)  0.1241 (  7)  0.2193 ( 10) -0.1235 ( 16)
          -0.1100 ( 17) -0.1791 ( 18) -0.1206 ( 19) -0.1711 ( 20) -0.1234 ( 21)
          -0.1100 ( 22) -0.1791 ( 24) -0.1207 ( 25) -0.1712 ( 26) -0.1443 ( 33)
          -0.1617 ( 34) -0.1646 ( 35) -0.1617 ( 45) -0.1443 ( 46) -0.1647 ( 48)
          -0.1124 ( 50) -0.1124 ( 54)  0.1394 ( 66)  0.1464 ( 67)  0.1949 ( 68)
           0.1552 ( 69)  0.1393 ( 72)  0.1465 ( 73)  0.1949 ( 74)  0.1553 ( 75)
          -0.1050 (123) -0.1222 (125)  0.1051 (132)  0.1222 (134)
 CRD 56=  -0.1564 (  1)  0.1563 (  2)  0.2333 (  5) -0.2331 (  8) -0.1932 ( 11)
           0.1930 ( 13)  0.1379 ( 17)  0.1346 ( 20) -0.1378 ( 22) -0.1345 ( 26)
          -0.1368 ( 31)  0.1369 ( 32) -0.1275 ( 37) -0.1234 ( 38)  0.1273 ( 43)
           0.1233 ( 47)  0.1519 ( 62) -0.1517 ( 63) -0.1245 ( 64) -0.1311 ( 67)
           0.1245 ( 70)  0.1310 ( 73)  0.1320 ( 86) -0.1606 ( 87)  0.1321 ( 95)
          -0.1608 ( 96)  0.1002 (100)  0.1001 (112) -0.1223 (124)  0.1208 (125)
          -0.1424 (126)  0.1273 (127) -0.1222 (128) -0.1422 (131)  0.1207 (134)
           0.1272 (135)
 CRD 57=   0.1472 (  4)  0.1694 (  5)  0.1152 (  6)  0.1152 (  7)  0.1696 (  8)
           0.1473 (  9) -0.1035 ( 11) -0.1036 ( 13) -0.1429 ( 16) -0.1065 ( 18)
          -0.1430 ( 21) -0.1065 ( 24)  0.1330 ( 28)  0.1329 ( 29)  0.1816 ( 31)
           0.1815 ( 32) -0.1918 ( 37) -0.1529 ( 38) -0.1919 ( 43) -0.1530 ( 47)
          -0.2181 ( 51)  0.1153 ( 62)  0.1153 ( 63)  0.1235 ( 65)  0.1236 ( 71)
          -0.1341 ( 86)  0.1913 ( 87)  0.1340 ( 95) -0.1912 ( 96) -0.1161 (124)
           0.1139 (125) -0.1263 (126)  0.1205 (127)  0.1162 (128)  0.1264 (131)
          -0.1140 (134) -0.1206 (135)
 CRD 58=   0.2269 (  1) -0.2269 (  2) -0.1890 (  3) -0.1837 (  4)  0.1654 (  5)
          -0.1866 (  6)  0.1866 (  7) -0.1654 (  8)  0.1836 (  9)  0.1890 ( 10)
           0.1841 ( 12) -0.1840 ( 14)  0.1213 ( 15)  0.1368 ( 19) -0.1212 ( 23)
          -0.1368 ( 25) -0.1026 ( 27)  0.1751 ( 28) -0.1751 ( 29)  0.1026 ( 30)
           0.1218 ( 37)  0.1021 ( 38) -0.1217 ( 43) -0.1020 ( 47) -0.1194 ( 64)
          -0.1296 ( 67)  0.1193 ( 70)  0.1295 ( 73) -0.1397 ( 86)  0.1114 ( 87)
          -0.1397 ( 95)  0.1114 ( 96)
 CRD 59=  -0.1433 (  1) -0.1434 (  2)  0.1844 (  4) -0.2641 (  5)  0.1944 (  6)
           0.1945 (  7) -0.2643 (  8)  0.1844 (  9) -0.1258 ( 15) -0.1364 ( 17)
           0.1246 ( 18) -0.1017 ( 19) -0.1364 ( 22) -0.1259 ( 23)  0.1246 ( 24)
          -0.1017 ( 25)  0.1367 ( 28)  0.1366 ( 29) -0.1130 ( 38) -0.1130 ( 47)
           0.1762 ( 64)  0.1391 ( 67)  0.1763 ( 70)  0.1392 ( 73) -0.1048 ( 86)
           0.1108 ( 90) -0.1319 ( 91) -0.1108 ( 94)  0.1048 ( 95)  0.1320 ( 99)
           0.1093 (102) -0.1094 (114)
 CRD 60=   0.1704 (  1) -0.1704 (  2)  0.2265 (  3) -0.2283 (  4)  0.2281 (  9)
          -0.2264 ( 10)  0.1072 ( 11) -0.1011 ( 12) -0.1071 ( 13)  0.1011 ( 14)
          -0.1256 ( 15)  0.1626 ( 17) -0.1195 ( 18) -0.1626 ( 22)  0.1255 ( 23)
           0.1194 ( 24)  0.1470 ( 31) -0.1470 ( 32) -0.1117 ( 58)  0.1116 ( 61)
           0.1038 ( 65) -0.1159 ( 66)  0.1164 ( 69) -0.1037 ( 71)  0.1158 ( 72)
          -0.1164 ( 75)  0.1196 ( 89)  0.1195 ( 98)  0.1084 (109)  0.1083 (118)
          -0.1629 (122)  0.2307 (125) -0.1629 (133)  0.2306 (134)
 CRD 61=  -0.1017 (  3) -0.1819 (  4)  0.2499 (  6) -0.2500 (  7)  0.1822 (  9)
           0.1017 ( 10)  0.1307 ( 12) -0.1308 ( 14) -0.1132 ( 16) -0.1540 ( 19)
           0.1611 ( 20)  0.1133 ( 21)  0.1541 ( 25) -0.1613 ( 26) -0.1166 ( 57)
           0.1167 ( 60) -0.1534 ( 62)  0.1535 ( 63) -0.1523 ( 68)  0.1525 ( 74)
          -0.1154 ( 88) -0.1155 ( 92) -0.1221 (103) -0.1222 (110)  0.1875 (122)
          -0.2346 (124) -0.2348 (128)  0.1875 (133)
 CRD 62=   0.2276 (  3) -0.2154 (  4) -0.2155 (  9)  0.2278 ( 10) -0.2102 ( 15)
           0.1490 ( 17) -0.1244 ( 19)  0.1490 ( 22) -0.2103 ( 23) -0.1244 ( 25)
           0.1339 ( 50)  0.1340 ( 54)  0.1234 ( 65) -0.1512 ( 66)  0.1206 ( 69)
           0.1234 ( 71) -0.1513 ( 72)  0.1206 ( 75)  0.1063 ( 89) -0.1139 ( 91)
          -0.1063 ( 98)  0.1140 ( 99)  0.1363 (109) -0.1363 (118) -0.1344 (124)
           0.2578 (125)  0.1343 (128) -0.2579 (134)
 CRD 63=  -0.1580 (  3) -0.1595 (  4)  0.2313 (  6)  0.2311 (  7) -0.1594 (  9)
          -0.1579 ( 10)  0.1058 ( 12)  0.1057 ( 14) -0.1346 ( 16) -0.1391 ( 19)
           0.1625 ( 20) -0.1345 ( 21) -0.1390 ( 25)  0.1624 ( 26)  0.1204 ( 51)
          -0.1091 ( 57) -0.1090 ( 60) -0.1334 ( 62) -0.1333 ( 63)  0.1130 ( 66)
          -0.1580 ( 68)  0.1129 ( 72) -0.1578 ( 74) -0.1265 ( 76)  0.1266 ( 79)
           0.1186 ( 86) -0.1147 ( 88)  0.1146 ( 92) -0.1187 ( 95) -0.1202 (103)
           0.1200 (110)  0.1797 (122) -0.2089 (124)  0.2087 (128) -0.1796 (133)
 CRD 64=  -0.1121 (  1)  0.1122 (  2)  0.2097 ( 12) -0.2097 ( 14) -0.2231 ( 15)
           0.1235 ( 17) -0.1235 ( 22)  0.2231 ( 23) -0.1178 ( 31)  0.1178 ( 32)
          -0.1694 ( 66)  0.1694 ( 72) -0.1086 ( 76) -0.1106 ( 77) -0.1014 ( 78)
          -0.1086 ( 79) -0.1106 ( 80) -0.1014 ( 81)  0.1245 ( 82)  0.1245 ( 83)
          -0.1824 ( 91) -0.1824 ( 99) -0.1500 (105)  0.1086 (107)  0.1262 (109)
           0.1086 (117)  0.1263 (118) -0.1499 (119)  0.1013 (122)  0.1337 (125)
          -0.1425 (127)  0.1014 (133)  0.1337 (134) -0.1425 (135)
 CRD 65=  -0.1371 (  1) -0.1374 (  2)  0.1011 ( 12)  0.1010 ( 14) -0.1063 ( 16)
           0.1766 ( 17)  0.1486 ( 19) -0.1637 ( 20) -0.1064 ( 21)  0.1766 ( 22)
           0.1489 ( 25) -0.1637 ( 26) -0.1471 ( 62) -0.1474 ( 63)  0.1416 ( 65)
           0.1067 ( 68) -0.1331 ( 69)  0.1415 ( 71)  0.1069 ( 74) -0.1331 ( 75)
          -0.1168 ( 84) -0.1121 ( 85)  0.1152 ( 89)  0.1168 ( 93)  0.1120 ( 97)
          -0.1152 ( 98) -0.1232 (100) -0.1029 (106) -0.1357 (108)  0.1231 (112)
           0.1032 (115)  0.1356 (116) -0.1154 (121)  0.1031 (122) -0.1432 (123)
           0.1013 (124) -0.1014 (128)  0.1153 (130)  0.1432 (132) -0.1032 (133)
 CRD 66=   0.1172 (  1) -0.1173 (  2) -0.1657 ( 11)  0.1657 ( 13)  0.1916 ( 16)
          -0.1288 ( 17) -0.1385 ( 19)  0.1557 ( 20) -0.1912 ( 21)  0.1285 ( 22)
           0.1385 ( 25) -0.1554 ( 26)  0.1397 ( 64) -0.1020 ( 65) -0.1002 ( 68)
           0.1251 ( 69) -0.1394 ( 70)  0.1017 ( 71)  0.1003 ( 74) -0.1248 ( 75)
           0.1272 ( 84) -0.1330 ( 91)  0.1269 ( 93) -0.1329 ( 99)  0.1291 (100)
           0.1116 (106)  0.1445 (108)  0.1288 (112)  0.1118 (115)  0.1441 (116)
           0.1094 (121)  0.1415 (123)  0.1091 (130)  0.1412 (132)
 CRD 67=  -0.1612 (  1)  0.1589 (  2)  0.1293 ( 11) -0.1277 ( 13)  0.1022 ( 16)
          -0.1132 ( 17) -0.2225 ( 18)  0.1284 ( 19) -0.1002 ( 21)  0.1118 ( 22)
           0.2190 ( 24) -0.1264 ( 25) -0.1294 ( 62)  0.1271 ( 63) -0.1645 ( 67)
           0.1620 ( 73)  0.1026 ( 84)  0.1170 ( 85) -0.1723 ( 90)  0.1009 ( 93)
          -0.1698 ( 94)  0.1152 ( 97)  0.1484 (100) -0.1397 (101) -0.1266 (104)
          -0.1646 (106)  0.1388 (108) -0.1375 (111)  0.1460 (112) -0.1246 (113)
          -0.1621 (115)  0.1366 (116) -0.1347 (120)  0.1241 (121)  0.1112 (123)
          -0.1508 (126) -0.1327 (129)  0.1221 (130) -0.1485 (131)  0.1096 (132)
 CRD 68=  -0.1279 (  1) -0.1302 (  2)  0.1346 ( 16) -0.1042 ( 17) -0.2167 ( 18)
           0.1093 ( 19)  0.1066 ( 20)  0.1365 ( 21) -0.1062 ( 22) -0.2203 ( 24)
           0.1111 ( 25)  0.1084 ( 26) -0.1328 ( 62) -0.1347 ( 63)  0.1012 ( 64)
          -0.1614 ( 67)  0.1026 ( 70) -0.1641 ( 73)  0.1161 ( 84)  0.1180 ( 85)
          -0.1526 ( 90) -0.1179 ( 93)  0.1552 ( 94) -0.1200 ( 97)  0.1574 (100)
          -0.1289 (101) -0.1112 (104) -0.1427 (106)  0.1474 (108)  0.1309 (111)
          -0.1600 (112)  0.1131 (113)  0.1451 (115) -0.1498 (116) -0.1115 (120)
           0.1314 (121)  0.1133 (123) -0.1373 (126)  0.1134 (129) -0.1336 (130)
           0.1395 (131) -0.1153 (132)
 CRD 69=   0.1668 (  3)  0.1668 ( 10)  0.1134 ( 11)  0.1135 ( 13)  0.1702 ( 15)
          -0.1115 ( 16) -0.1115 ( 21)  0.1702 ( 23) -0.1263 ( 36) -0.1263 ( 44)
          -0.1229 ( 56) -0.1229 ( 59)  0.1246 ( 66)  0.1246 ( 72)  0.1784 ( 77)
          -0.1784 ( 80)  0.1005 ( 82) -0.1005 ( 83) -0.1537 ( 86) -0.1905 ( 87)
          -0.1464 ( 89)  0.1537 ( 95)  0.1905 ( 96)  0.1464 ( 98)  0.1402 (105)
          -0.1061 (109)  0.1061 (118) -0.1402 (119) -0.1274 (120)  0.2477 (127)
           0.1274 (129) -0.2477 (135)
 CRD 70=  -0.1989 (  3)  0.1012 (  4)  0.1021 (  6) -0.1047 (  7)  0.1995 ( 10)
          -0.1155 ( 12)  0.1161 ( 14) -0.1200 ( 15)  0.1202 ( 23) -0.1337 ( 49)
           0.1341 ( 55)  0.1498 ( 58) -0.1503 ( 61)  0.1813 ( 76)  0.1798 ( 79)
           0.1793 ( 89)  0.1790 ( 98) -0.1754 (102) -0.1420 (107)  0.1442 (109)
          -0.1766 (114) -0.1440 (117)  0.1429 (118)  0.1539 (120) -0.1492 (123)
          -0.2028 (127)  0.1562 (129) -0.1477 (132) -0.2025 (135)
 CRD 71=   0.1040 (  2) -0.1308 (  4)  0.1834 (  6)  0.1934 (  7) -0.1441 (  9)
           0.1131 ( 19)  0.1196 ( 25) -0.1011 ( 26)  0.1047 ( 45) -0.1067 ( 46)
           0.1021 ( 50)  0.1249 ( 52)  0.1318 ( 53)  0.1120 ( 54) -0.1392 ( 57)
          -0.1032 ( 59) -0.1468 ( 60) -0.1099 ( 76)  0.1081 ( 79)  0.1896 ( 88)
          -0.2020 ( 92)  0.1716 (103) -0.1503 (107) -0.1850 (110)  0.1566 (117)
           0.1677 (120) -0.1835 (121) -0.2024 (126) -0.1750 (129)  0.1983 (130)
           0.2154 (131) -0.1118 (132)
 CRD 72=  -0.1016 (  1)  0.1778 (  4) -0.1735 (  6)  0.1607 (  7) -0.1682 (  9)
          -0.1095 ( 19)  0.1142 ( 20)  0.1016 ( 25) -0.1075 ( 26)  0.1062 ( 33)
          -0.1089 ( 34)  0.1019 ( 45) -0.1335 ( 50) -0.1186 ( 52)  0.1099 ( 53)
           0.1261 ( 54)  0.1217 ( 56)  0.1316 ( 57) -0.1149 ( 59) -0.1217 ( 60)
          -0.1968 ( 88) -0.1834 ( 92) -0.1971 (103)  0.1263 (107)  0.1340 (109)
          -0.1847 (110)  0.1160 (117)  0.1275 (118) -0.1432 (120)  0.2142 (121)
          -0.1510 (123)  0.2080 (126) -0.1316 (129)  0.2010 (130)  0.1938 (131)
          -0.1435 (132)
 CRD 73=  -0.1013 (  3)  0.1261 (  4)  0.1264 (  9) -0.1013 ( 10) -0.1443 ( 12)
          -0.1443 ( 14) -0.1225 ( 49) -0.1226 ( 55)  0.1366 ( 58)  0.1366 ( 61)
          -0.1769 ( 76)  0.1770 ( 79)  0.1231 ( 84) -0.2171 ( 86) -0.1499 ( 87)
           0.1013 ( 89) -0.1231 ( 93)  0.2171 ( 95)  0.1499 ( 96) -0.1014 ( 98)
          -0.1038 (103) -0.1551 (104)  0.1008 (105) -0.1569 (107)  0.1582 (109)
           0.1041 (110)  0.1551 (113)  0.1568 (117) -0.1584 (118) -0.1010 (119)
          -0.1613 (123)  0.1615 (132)
 CRD 74=   0.1763 (  5) -0.1761 (  8)  0.1678 ( 78)  0.1680 ( 81) -0.1058 ( 82)
          -0.1058 ( 83) -0.1841 ( 84)  0.1825 ( 85) -0.1107 ( 88)  0.1080 ( 89)
          -0.1105 ( 92) -0.1840 ( 93)  0.1823 ( 97)  0.1079 ( 98) -0.1812 (101)
          -0.1081 (102)  0.1059 (103)  0.1849 (104) -0.1859 (105)  0.1073 (107)
          -0.1062 (109)  0.1059 (110) -0.1810 (111)  0.1847 (113) -0.1080 (114)
           0.1072 (117) -0.1061 (118) -0.1857 (119)
 CRD 75=  -0.1452 (  5) -0.1453 (  8) -0.1328 ( 11) -0.1329 ( 13) -0.1003 ( 28)
          -0.1002 ( 29)  0.1089 ( 37)  0.1090 ( 43)  0.1288 ( 76)  0.2080 ( 78)
          -0.1287 ( 79) -0.2078 ( 81)  0.1560 ( 84) -0.1700 ( 85)  0.1688 ( 86)
           0.1885 ( 87)  0.1029 ( 88) -0.1208 ( 89) -0.1029 ( 92) -0.1561 ( 93)
          -0.1688 ( 95) -0.1885 ( 96)  0.1702 ( 97)  0.1209 ( 98)  0.1824 (101)
           0.1282 (102) -0.1421 (104)  0.1462 (105) -0.1826 (111)  0.1422 (113)
          -0.1284 (114) -0.1464 (119)

 THE DETERMINANT OF THE G MATRIX IS 10**(   -29)


                     --------------------
                     INTERNAL COORDINATES
                     --------------------

                 - - ATOMS - -         COORDINATE      COORDINATE
 NO.   TYPE    I  J  K  L  M  N        (BOHR,RAD)       (ANG,DEG)
 ----------------------------------------------------------------
   1 STRETCH   1  4                     2.7178837       1.4382422
   2 STRETCH   1  5                     2.7176042       1.4380943
   3 STRETCH   2  7                     2.9347287       1.5529917
   4 STRETCH   2  4                     2.9334589       1.5523197
   5 STRETCH   2 10                     2.0669276       1.0937710
   6 STRETCH   2  6                     2.9338453       1.5525242
   7 STRETCH   3  8                     2.9337382       1.5524675
   8 STRETCH   3 11                     2.0669389       1.0937770
   9 STRETCH   3  5                     2.9335784       1.5523830
  10 STRETCH   3  9                     2.9348081       1.5530337
  11 STRETCH   4 13                     2.0669590       1.0937877
  12 STRETCH   4 12                     2.0679461       1.0943100
  13 STRETCH   5 15                     2.0670310       1.0938258
  14 STRETCH   5 14                     2.0680252       1.0943519
  15 STRETCH   6 16                     2.0649046       1.0927005
  16 STRETCH   6 18                     2.0635357       1.0919762
  17 STRETCH   6 17                     2.0624243       1.0913880
  18 STRETCH   7 21                     2.0625138       1.0914354
  19 STRETCH   7 20                     2.0639407       1.0921905
  20 STRETCH   7 19                     2.0636277       1.0920248
  21 STRETCH   8 24                     2.0635340       1.0919752
  22 STRETCH   8 23                     2.0623569       1.0913524
  23 STRETCH   8 22                     2.0648821       1.0926886
  24 STRETCH   9 27                     2.0625556       1.0914575
  25 STRETCH   9 26                     2.0637743       1.0921024
  26 STRETCH   9 25                     2.0635539       1.0919858
  27 BEND      1  5  3                  1.9503857     111.7488714
  28 BEND      1  5 14                  1.8976482     108.7272310
  29 BEND      1  4 12                  1.8976173     108.7254647
  30 BEND      1  4  2                  1.9502823     111.7429462
  31 BEND      1  5 15                  1.9222372     110.1360791
  32 BEND      1  4 13                  1.9220761     110.1268459
  33 BEND      2  7 20                  1.9371727     110.9918225
  34 BEND      2  7 19                  1.9344486     110.8357394
  35 BEND      2  7 21                  1.9409516     111.2083341
  36 BEND      2  6 16                  1.9321262     110.7026761
  37 BEND      2  4 13                  1.8961668     108.6423541
  38 BEND      2  4 12                  1.9094721     109.4046909
  39 BEND      2  6 17                  1.9395091     111.1256882
  40 BEND      2  6 18                  1.9375173     111.0115641
  41 BEND      3  8 23                  1.9394244     111.1208345
  42 BEND      3  8 24                  1.9375154     111.0114536
  43 BEND      3  5 15                  1.8960076     108.6332347
  44 BEND      3  8 22                  1.9320997     110.7011591
  45 BEND      3  9 25                  1.9343357     110.8292714
  46 BEND      3  9 26                  1.9372644     110.9970737
  47 BEND      3  5 14                  1.9094363     109.4026386
  48 BEND      3  9 27                  1.9408832     111.2044163
  49 BEND      4  2  6                  1.9267538     110.3948593
  50 BEND      4  2 10                  1.8767963     107.5325094
  51 BEND      4  1  5                  2.0199281     115.7333535
  52 BEND      4  2  7                  1.9620730     112.4185038
  53 BEND      5  3  9                  1.9619492     112.4114102
  54 BEND      5  3 11                  1.8767488     107.5297843
  55 BEND      5  3  8                  1.9268490     110.4003155
  56 BEND      6  2  7                  1.9522508     111.8557333
  57 BEND      6  2 10                  1.8716749     107.2390721
  58 BEND      7  2 10                  1.8694585     107.1120839
  59 BEND      8  3  9                  1.9523554     111.8617252
  60 BEND      8  3 11                  1.8716836     107.2395729
  61 BEND      9  3 11                  1.8694161     107.1096511
  62 BEND     12  4 13                  1.8871859     108.1277891
  63 BEND     14  5 15                  1.8870779     108.1216000
  64 BEND     16  6 17                  1.8752538     107.4441278
  65 BEND     16  6 18                  1.8856127     108.0376477
  66 BEND     17  6 18                  1.8916523     108.3836947
  67 BEND     19  7 20                  1.8715772     107.2334774
  68 BEND     19  7 21                  1.8898995     108.2832636
  69 BEND     20  7 21                  1.8874134     108.1408218
  70 BEND     22  8 23                  1.8753071     107.4471826
  71 BEND     22  8 24                  1.8856306     108.0386761
  72 BEND     23  8 24                  1.8917000     108.3864247
  73 BEND     25  9 26                  1.8716787     107.2392874
  74 BEND     25  9 27                  1.8898190     108.2786550
  75 BEND     26  9 27                  1.8874883     108.1451133
  76 TORSION   1  5  3 11              -1.0401192     -59.5944382
  77 TORSION   1  4  2  6               3.0766486     176.2789826
  78 TORSION   1  5  3  9               1.0131852      58.0512337
  79 TORSION   1  4  2 10               1.0401602      59.5967895
  80 TORSION   1  5  3  8              -3.0766422    -176.2786122
  81 TORSION   1  4  2  7              -1.0132970     -58.0576427
  82 TORSION   2  4  1  5               3.0632435     175.5109236
  83 TORSION   3  5  1  4              -3.0632497    -175.5112790
  84 TORSION   4  2  7 20               1.0374115      59.4393013
  85 TORSION   4  2  6 16              -0.9979683     -57.1793711
  86 TORSION   4  1  5 15              -0.9541671     -54.6697468
  87 TORSION   4  1  5 14               1.1105770      63.6313773
  88 TORSION   4  2  7 21              -1.0646283     -60.9987089
  89 TORSION   4  2  6 18               1.0961407      62.8042343
  90 TORSION   4  2  7 19               3.1152099     178.4883773
  91 TORSION   4  2  6 17              -3.0803745    -176.4924591
  92 TORSION   5  3  9 27               1.0648641      61.0122197
  93 TORSION   5  3  9 26              -1.0372864     -59.4321353
  94 TORSION   5  3  9 25              -3.1151978    -178.4876845
  95 TORSION   5  1  4 13               0.9541384      54.6681023
  96 TORSION   5  1  4 12              -1.1106246     -63.6340996
  97 TORSION   5  3  8 22               0.9979671      57.1793045
  98 TORSION   5  3  8 24              -1.0961456     -62.8045176
  99 TORSION   5  3  8 23               3.0803678     176.4920723
 100 TORSION   6  2  7 20              -3.0664668    -175.6956055
 101 TORSION   6  2  4 12               0.9742434      55.8200327
 102 TORSION   6  2  4 13              -1.0824213     -62.0181743
 103 TORSION   6  2  7 21               1.1146787      63.8663843
 104 TORSION   6  2  7 19              -0.9886685     -56.6465295
 105 TORSION   7  2  6 17               1.0040353      57.5269846
 106 TORSION   7  2  4 12              -3.1157023    -178.5165926
 107 TORSION   7  2  4 13               1.1108183      63.6452003
 108 TORSION   7  2  6 16               3.0864415     176.8400726
 109 TORSION   7  2  6 18              -1.1026348     -63.1763220
 110 TORSION   8  3  9 27              -1.1145554     -63.8593184
 111 TORSION   8  3  5 14              -0.9741557     -55.8150108
 112 TORSION   8  3  9 26               3.0664794     175.6963266
 113 TORSION   8  3  9 25               0.9885681      56.6407774
 114 TORSION   8  3  5 15               1.0822670      62.0093335
 115 TORSION   9  3  5 14               3.1156716     178.5148351
 116 TORSION   9  3  8 22              -3.0864538    -176.8407785
 117 TORSION   9  3  5 15              -1.1110909     -63.6608206
 118 TORSION   9  3  8 24               1.1026187      63.1753993
 119 TORSION   9  3  8 23              -1.0040532     -57.5280107
 120 TORSION  10  2  4 12              -1.0622451     -60.8621604
 121 TORSION  10  2  7 20              -1.0203903     -58.4640592
 122 TORSION  10  2  4 13              -3.1189098    -178.7003674
 123 TORSION  10  2  6 16               1.0416984      59.6849206
 124 TORSION  10  2  7 21              -3.1224301    -178.9020694
 125 TORSION  10  2  6 18               3.1358073     179.6685260
 126 TORSION  10  2  7 19               1.0574080      60.5850168
 127 TORSION  10  2  6 17              -1.0407078     -59.6281674
 128 TORSION  11  3  9 27               3.1225110     178.9067003
 129 TORSION  11  3  5 14               1.0623673      60.8691632
 130 TORSION  11  3  9 26               1.0203604      58.4623453
 131 TORSION  11  3  9 25              -1.0575509     -60.5932040
 132 TORSION  11  3  8 22              -1.0416988     -59.6849463
 133 TORSION  11  3  5 15               3.1187901     178.6935076
 134 TORSION  11  3  8 24              -3.1358116    -179.6687685
 135 TORSION  11  3  8 23               1.0407018      59.6278214

     ------------------------------------------
     THE POINT GROUP IS C1 , NAXIS= 1, ORDER= 1
     ------------------------------------------

     DIMENSIONS OF THE SYMMETRY SUBSPACES ARE
 A   =  279

 ..... DONE SETTING UP THE RUN .....
 STEP CPU TIME =     0.02 TOTAL CPU TIME =        0.0 (    0.0 MIN)
 TOTAL WALL CLOCK TIME=        0.0 SECONDS, CPU UTILIZATION IS  66.67%


          -----------------------------
          STATIONARY POINT LOCATION RUN
          -----------------------------

 OBTAINING INITIAL HESSIAN, HESS=GUESS   
 DIAGONAL GUESS HESSIAN IN INTERNAL COORDS IS
     1  0.3544     2  0.3545     3  0.3511     4  0.3516     5  0.3438
     6  0.3514     7  0.3515     8  0.3438     9  0.3515    10  0.3511
    11  0.3438    12  0.3435    13  0.3438    14  0.3435    15  0.3446
    16  0.3450    17  0.3454    18  0.3454    19  0.3449    20  0.3450
    21  0.3450    22  0.3455    23  0.3446    24  0.3454    25  0.3450
    26  0.3450    27  0.2409    28  0.2187    29  0.2186    30  0.2409
    31  0.2187    32  0.2187    33  0.2226    34  0.2226    35  0.2226
    36  0.2226    37  0.2225    38  0.2225    39  0.2227    40  0.2226
    41  0.2227    42  0.2226    43  0.2225    44  0.2226    45  0.2226
    46  0.2226    47  0.2225    48  0.2226    49  0.2454    50  0.2225
    51  0.2365    52  0.2453    53  0.2453    54  0.2225    55  0.2454
    56  0.2453    57  0.2225    58  0.2225    59  0.2453    60  0.2225
    61  0.2225    62  0.2030    63  0.2030    64  0.2032    65  0.2032
    66  0.2032    67  0.2032    68  0.2032    69  0.2032    70  0.2032
    71  0.2032    72  0.2032    73  0.2032    74  0.2032    75  0.2032
    76  0.2500    77  0.2500    78  0.2500    79  0.2500    80  0.2500
    81  0.2500    82  0.2500    83  0.2500    84  0.2500    85  0.2500
    86  0.2500    87  0.2500    88  0.2500    89  0.2500    90  0.2500
    91  0.2500    92  0.2500    93  0.2500    94  0.2500    95  0.2500
    96  0.2500    97  0.2500    98  0.2500    99  0.2500   100  0.2500
   101  0.2500   102  0.2500   103  0.2500   104  0.2500   105  0.2500
   106  0.2500   107  0.2500   108  0.2500   109  0.2500   110  0.2500
   111  0.2500   112  0.2500   113  0.2500   114  0.2500   115  0.2500
   116  0.2500   117  0.2500   118  0.2500   119  0.2500   120  0.2500
   121  0.2500   122  0.2500   123  0.2500   124  0.2500   125  0.2500
   126  0.2500   127  0.2500   128  0.2500   129  0.2500   130  0.2500
   131  0.2500   132  0.2500   133  0.2500   134  0.2500   135  0.2500
 TRANSFORMING HESSIAN TO SYMMETRY COORDINATES

          PARAMETERS CONTROLLING GEOMETRY SEARCH ARE
          METHOD =QA                  UPHESS =BFGS    
          NNEG   =         0          NFRZ   =         3
          NSTEP  =        50          IFOLOW =         1
          HESS   =GUESS               RESTAR =         F
          IHREP  =         0          HSSEND =         F
          NPRT   =         0          NPUN   =         0
          OPTTOL = 5.000E-04          RMIN   = 1.500E-03
          RMAX   = 1.000E-01          RLIM   = 7.000E-02
          DXMAX  = 3.000E-01          PURIFY =         F
          MOVIE  =         F          TRUPD  =         T
          TRMAX  = 5.000E-01          TRMIN  = 5.000E-02
          ITBMAT =         5          STPT   =         F
          STSTEP = 1.000E-02          PROJCT=          F
          FROZEN COORD(S)=   1   2   3


      ***** EQUILIBRIUM GEOMETRY LOCATED *****
            (SUBJECT TO   3 CONSTRAINT(S))
 COORDINATES OF ALL ATOMS ARE (ANGS)
   ATOM   CHARGE       X              Y              Z
 ------------------------------------------------------------
 O           8.0  -0.0482793024  -0.0679845660  -0.3518148856
 C           6.0   1.8255645220  -1.5697148807  -0.3442891236
 C           6.0  -2.0883903965   1.1979410924  -0.3443149580
 C           6.0   1.3514610273  -0.1218842519  -0.3404951305
 C           6.0  -0.5653843745   1.2339381041  -0.3405026354
 C           6.0   3.3533837477  -1.6110490192  -0.4362323557
 C           6.0   1.3226857727  -2.3361430320   0.8811447146
 C           6.0  -2.6367626747   2.6245863847  -0.4362140879
 C           6.0  -2.6431456365   0.4681881750   0.8809698294
 H           1.0   1.4160719019  -2.0407503380  -1.2364692001
 H           1.0  -2.3959747969   0.6548584042  -1.2365029996
 H           1.0   1.7432789017   0.3962018315  -1.2155786242
 H           1.0   1.7330270365   0.3908250060   0.5440371583
 H           1.0  -0.2078120123   1.7763577004  -1.2155043535
 H           1.0  -0.2090715753   1.7645754912   0.5440448607
 H           1.0   3.7115188433  -1.0923972749  -1.3215326655
 H           1.0   3.7089511465  -2.6359779822  -0.4835840555
 H           1.0   3.8082541883  -1.1416983549   0.4336341421
 H           1.0   1.6646307885  -3.3673532500   0.8557559065
 H           1.0   0.2396591148  -2.3392266013   0.9256870738
 H           1.0   1.6956905151  -1.8834915327   1.7980961093
 H           1.0  -2.2672043449   3.1352145633  -1.3214810585
 H           1.0  -3.7216077718   2.6181398480  -0.4835269242
 H           1.0  -2.3458939423   3.2098294352   0.4337039264
 H           1.0  -3.7293384078   0.4466037909   0.8554925752
 H           1.0  -2.2848070011  -0.5538692012   0.9253561215
 H           1.0  -2.3408312402   0.9707599409   1.7979785771


                     --------------------
                     INTERNAL COORDINATES
                     --------------------

                 - - ATOMS - -         COORDINATE      COORDINATE
 NO.   TYPE    I  J  K  L  M  N        (BOHR,RAD)       (ANG,DEG)
 ----------------------------------------------------------------
   1 STRETCH   1  4                     2.6471725       1.4008234
   2 STRETCH   1  5                     2.6473222       1.4009027
   3 STRETCH   2  7                     2.8919521       1.5303553
   4 STRETCH   2  4                     2.8789664       1.5234835
   5 STRETCH   2 10                     2.0575844       1.0888268
   6 STRETCH   2  6                     2.8934375       1.5311413
   7 STRETCH   3  8                     2.8934873       1.5311677
   8 STRETCH   3 11                     2.0575866       1.0888280
   9 STRETCH   3  5                     2.8788769       1.5234361
  10 STRETCH   3  9                     2.8917226       1.5302338
  11 STRETCH   4 13                     2.0621931       1.0912657
  12 STRETCH   4 12                     2.0594594       1.0898190
  13 STRETCH   5 15                     2.0622783       1.0913107
  14 STRETCH   5 14                     2.0594589       1.0898188
  15 STRETCH   6 16                     2.0536523       1.0867461
  16 STRETCH   6 18                     2.0561269       1.0880556
  17 STRETCH   6 17                     2.0520282       1.0858866
  18 STRETCH   7 21                     2.0569611       1.0884970
  19 STRETCH   7 20                     2.0483621       1.0839466
  20 STRETCH   7 19                     2.0536075       1.0867224
  21 STRETCH   8 24                     2.0561325       1.0880585
  22 STRETCH   8 23                     2.0520449       1.0858955
  23 STRETCH   8 22                     2.0536480       1.0867438
  24 STRETCH   9 27                     2.0570059       1.0885207
  25 STRETCH   9 26                     2.0483950       1.0839640
  26 STRETCH   9 25                     2.0535764       1.0867059
  27 BEND      1  5  3                  1.9252084     110.3063138
  28 BEND      1  5 14                  1.9123550     109.5698725
  29 BEND      1  4 12                  1.9118365     109.5401621
  30 BEND      1  4  2                  1.9257028     110.3346455
  31 BEND      1  5 15                  1.9154919     109.7496033
  32 BEND      1  4 13                  1.9154348     109.7463292
  33 BEND      2  7 20                  1.9419100     111.2632471
  34 BEND      2  7 19                  1.9317102     110.6788426
  35 BEND      2  7 21                  1.9323031     110.7128110
  36 BEND      2  6 16                  1.9442865     111.3994086
  37 BEND      2  4 13                  1.9174009     109.8589809
  38 BEND      2  4 12                  1.9154785     109.7488366
  39 BEND      2  6 17                  1.9335313     110.7831847
  40 BEND      2  6 18                  1.9363847     110.9466730
  41 BEND      3  8 23                  1.9335790     110.7859185
  42 BEND      3  8 24                  1.9363153     110.9426970
  43 BEND      3  5 15                  1.9176337     109.8723201
  44 BEND      3  8 22                  1.9443192     111.4012867
  45 BEND      3  9 25                  1.9316342     110.6744845
  46 BEND      3  9 26                  1.9418485     111.2597226
  47 BEND      3  5 14                  1.9153336     109.7405325
  48 BEND      3  9 27                  1.9323062     110.7129885
  49 BEND      4  2  6                  1.9138097     109.6532181
  50 BEND      4  2 10                  1.8714342     107.2252831
  51 BEND      4  1  5                  1.9872619     113.8617204
  52 BEND      4  2  7                  1.9516287     111.8200889
  53 BEND      5  3  9                  1.9516272     111.8200029
  54 BEND      5  3 11                  1.8715578     107.2323604
  55 BEND      5  3  8                  1.9136469     109.6438930
  56 BEND      6  2  7                  1.9416959     111.2509782
  57 BEND      6  2 10                  1.8906080     108.3238606
  58 BEND      7  2 10                  1.8921926     108.4146498
  59 BEND      8  3  9                  1.9418072     111.2573550
  60 BEND      8  3 11                  1.8905978     108.3232730
  61 BEND      9  3 11                  1.8921342     108.4113053
  62 BEND     12  4 13                  1.8773609     107.5648554
  63 BEND     14  5 15                  1.8772043     107.5558825
  64 BEND     16  6 17                  1.8828659     107.8802675
  65 BEND     16  6 18                  1.8835015     107.9166865
  66 BEND     17  6 18                  1.8808633     107.7655289
  67 BEND     19  7 20                  1.8887787     108.2190492
  68 BEND     19  7 21                  1.8822702     107.8461410
  69 BEND     20  7 21                  1.8848896     107.9962204
  70 BEND     22  8 23                  1.8828650     107.8802206
  71 BEND     22  8 24                  1.8835161     107.9175224
  72 BEND     23  8 24                  1.8808375     107.7640533
  73 BEND     25  9 26                  1.8887861     108.2194705
  74 BEND     25  9 27                  1.8823305     107.8495926
  75 BEND     26  9 27                  1.8849637     108.0004661
  76 TORSION   1  5  3 11              -1.0201537     -58.4505029
  77 TORSION   1  4  2  6               3.0691361     175.8485430
  78 TORSION   1  5  3  9               1.0517359      60.2600265
  79 TORSION   1  4  2 10               1.0200801      58.4462828
  80 TORSION   1  5  3  8              -3.0691801    -175.8510654
  81 TORSION   1  4  2  7              -1.0518042     -60.2639434
  82 TORSION   2  4  1  5               3.1348386     179.6130201
  83 TORSION   3  5  1  4              -3.1348405    -179.6131316
  84 TORSION   4  2  7 20               1.0330597      59.1899599
  85 TORSION   4  2  6 16              -1.0027955     -57.4559476
  86 TORSION   4  1  5 15              -1.0195826     -58.4177821
  87 TORSION   4  1  5 14               1.0379770      59.4717004
  88 TORSION   4  2  7 21              -1.0631571     -60.9144126
  89 TORSION   4  2  6 18               1.0959991      62.7961255
  90 TORSION   4  2  7 19               3.1337865     179.5527426
  91 TORSION   4  2  6 17              -3.0988600    -177.5516019
  92 TORSION   5  3  9 27               1.0631406      60.9134674
  93 TORSION   5  3  9 26              -1.0331309     -59.1940427
  94 TORSION   5  3  9 25              -3.1337750    -179.5520836
  95 TORSION   5  1  4 13               1.0195895      58.4181734
  96 TORSION   5  1  4 12              -1.0378187     -59.4626332
  97 TORSION   5  3  8 22               1.0028069      57.4566035
  98 TORSION   5  3  8 24              -1.0959812     -62.7950986
  99 TORSION   5  3  8 23               3.0989244     177.5552888
 100 TORSION   6  2  7 20              -3.1036315    -177.8249852
 101 TORSION   6  2  4 12               0.9607836      55.0488447
 102 TORSION   6  2  4 13              -1.0999709     -63.0236899
 103 TORSION   6  2  7 21               1.0833371      62.0706422
 104 TORSION   6  2  7 19              -1.0029046     -57.4622026
 105 TORSION   7  2  6 17               1.0162806      58.2285913
 106 TORSION   7  2  4 12               3.1230286     178.9363583
 107 TORSION   7  2  4 13               1.0622741      60.8638237
 108 TORSION   7  2  6 16               3.1123452     178.3242456
 109 TORSION   7  2  6 18              -1.0720455     -61.4236813
 110 TORSION   8  3  9 27              -1.0832225     -62.0640781
 111 TORSION   8  3  5 14              -0.9605924     -55.0378898
 112 TORSION   8  3  9 26               3.1036913     177.8284118
 113 TORSION   8  3  9 25               1.0030472      57.4703708
 114 TORSION   8  3  5 15               1.1000234      63.0266988
 115 TORSION   9  3  5 14              -3.1228617    -178.9267980
 116 TORSION   9  3  8 22              -3.1123743    -178.3259101
 117 TORSION   9  3  5 15              -1.0622459     -60.8622094
 118 TORSION   9  3  8 24               1.0720229      61.4223878
 119 TORSION   9  3  8 23              -1.0162568     -58.2272248
 120 TORSION  10  2  4 12              -1.0882724     -62.3534155
 121 TORSION  10  2  7 20              -1.0264606     -58.8118627
 122 TORSION  10  2  4 13               3.1341584     179.5740499
 123 TORSION  10  2  6 16               1.0342267      59.2568257
 124 TORSION  10  2  7 21              -3.1226774    -178.9162352
 125 TORSION  10  2  6 18               3.1330213     179.5088988
 126 TORSION  10  2  7 19               1.0742662      61.5509199
 127 TORSION  10  2  6 17              -1.0618379     -60.8388287
 128 TORSION  11  3  9 27               3.1227749     178.9218226
 129 TORSION  11  3  5 14               1.0884340      62.3626727
 130 TORSION  11  3  9 26               1.0265034      58.8143125
 131 TORSION  11  3  9 25              -1.0741407     -61.5437285
 132 TORSION  11  3  8 22              -1.0342676     -59.2591686
 133 TORSION  11  3  5 15              -3.1341355    -179.5727387
 134 TORSION  11  3  8 24              -3.1330557    -179.5108707
 135 TORSION  11  3  8 23               1.0618499      60.8395168

          INTERNUCLEAR DISTANCES (ANGS.)


 =====================================================
   GAMESS/COSab RESULTS
 =====================================================

   Dielectric Constant                  = INFTY
   Basic Grid Size                      =                 1082
   Number of Segments                   =                   92
   Number of Segments located on spheres=                  313
   Number of Segments of the cavity     =                  863
   Solvent Radius (rsolv)               = 1.40
   Outlying Charge Error Method         = double cavity

 =====================================================

  Total solvated Energy (a.u.)          =  -388.3893837557
  Total Energy corrected (a.u.)         =  -388.3892069204

  Outlying charge effect (a.u.)         =     0.0001768353
  Outlying charge effect (kcal/mol)     =     0.1109659053

  Dielectric Energy (a.u.)              =    -0.0049165942
  Dielectric energy corr. (a.u.)        =    -0.0047397589

  Sum of polarization charges           =     0.0322733954
  Sum of polarization charges(cor.)     =    -0.0322733954

  Total surface area of cavity (A**2)   =  200.48
  Total volume of cavity (A**3)         =  202.67

 =====================================================
 NPS=                   863
NR.  ATOM  (X, Y, Z)(a.u.)                  CHARGE(e)  AREA(A**2) SIGMA(e/A**2)
   1   1  -1.564106  -2.683812  -2.030691   0.003271   0.137436   0.023801
   2   1  -2.147669  -2.284460  -1.963853   0.003120   0.137436   0.022699
   3   1  -1.902802  -2.722211  -1.410084   0.002928   0.103077   0.028403
   4   1  -1.668737  -2.163171  -2.648811   0.005222   0.240512   0.021714
   5   1  -1.071990  -1.163564  -3.585689   0.001981   0.103077   0.019217
   6   1  -0.514205  -1.257799  -3.683180   0.002236   0.103077   0.021690
   7   1  -0.540790  -0.569639  -3.853559   0.003622   0.206154   0.017571
   8   1  -1.185072  -1.830880  -3.208457   0.004590   0.206154   0.022267
   9   2   3.875540  -6.331509  -2.317548   0.000144   0.139368   0.001030
  10   2   3.962463  -2.594031  -4.376585   0.000029   0.092912   0.000317
  11   2   3.419404  -6.485441  -2.028755   0.000055   0.046456   0.001180
  12   3  -3.442236   2.767347  -4.362313   0.000046   0.092912   0.000500
  13   3  -7.308909   1.215540  -2.021649   0.000108   0.092912   0.001164
  14   3  -7.263883   1.503322  -2.294094   0.000063   0.046456   0.001364
  15   4   5.529926   2.065968  -0.250433   0.000553   0.371649   0.001489
  16   4   5.312966   2.312403  -1.097563   0.000307   0.232280   0.001322
  17   4   2.472376  -0.862316  -4.368779   0.000008   0.139368   0.000055
  18   4   1.427600  -0.756329  -4.212616   0.000269   0.139368   0.001933
  19   4   3.794912   3.328814  -0.366637   0.000581   0.232280   0.002503
  20   4   4.616991   2.927859  -0.411703   0.001211   0.371649   0.003260
  21   4   4.055803   3.194660  -1.189286   0.000359   0.139368   0.002575
  22   4   1.612204  -0.200464  -4.303570   0.000305   0.185824   0.001641
  23   5  -1.235181   1.011773  -4.180959   0.000283   0.139368   0.002032
  24   5   1.774650   4.791704  -0.255981   0.001045   0.371649   0.002813
  25   5   1.623330   4.930127  -1.179646   0.000667   0.278737   0.002392
  26   5  -0.681337   1.487689  -4.307042   0.000260   0.185824   0.001399
  27   5  -0.029657   5.954600  -0.359461   0.000223   0.232280   0.000958
  28   5   0.813585   5.601023  -0.409834   0.001056   0.371649   0.002842
  29   5   0.234403   5.838227  -1.183805   0.000152   0.139368   0.001093
  30   5  -1.423528   1.819902  -4.371203   0.000189   0.139368   0.001356
  31   6   8.392517   0.105822  -0.457070   0.001076   0.232280   0.004632
  32   6  10.030529  -3.477963  -1.498203   0.000855   0.371649   0.002301
  33   6   7.527600  -5.061532  -3.790516   0.001684   0.371649   0.004530
  34   6   7.688588  -4.355403   2.452642   0.000516   0.139368   0.003706
  35   6   5.439635  -2.905101  -4.493102   0.000098   0.092912   0.001053
  36   6   7.707333  -4.204964  -4.149965   0.001145   0.278737   0.004108
  37   6   9.768276  -2.832983  -2.394653   0.001157   0.418105   0.002768
  38   6   8.460871   0.050284  -1.267160   0.001031   0.232280   0.004437
  39   6   8.907572  -4.377962   1.604223   0.001600   0.325193   0.004921
  40   6   8.633256  -5.069858   1.391274   0.001009   0.232280   0.004344
  41   6   7.672912   0.485740  -0.630974   0.000833   0.185824   0.004485
  42   6   9.316272  -0.719351  -0.778692   0.002392   0.511017   0.004680
  43   6   9.997758  -2.170050  -1.168533   0.001158   0.418105   0.002770
  44   6   9.566319  -4.298066  -2.335687   0.001510   0.418105   0.003613
  45   6   8.605443  -4.702496  -3.352057   0.001632   0.325193   0.005019
  46   6   6.519083  -4.473867  -4.318340   0.001121   0.325193   0.003449
  47   6   5.715455  -4.237808  -4.356200   0.000374   0.139368   0.002681
  48   6   9.728985  -3.504103   0.777914   0.001268   0.371649   0.003411
  49   6  10.075729  -3.281883  -0.324691   0.001173   0.464561   0.002524
  50   6   9.855763  -4.416370  -0.966738   0.000856   0.325193   0.002632
  51   6   6.515766  -5.506618  -3.686181   0.000895   0.278737   0.003211
  52   6   5.530829  -5.908278  -3.155203   0.000356   0.185824   0.001916
  53   6   7.813656  -5.084019   1.994108   0.001572   0.325193   0.004835
  54   6   6.079574  -3.651611  -4.545839   0.000342   0.139368   0.002454
  55   6   9.175708  -3.905333  -3.166329   0.001289   0.325193   0.003963
  56   6   9.641776  -1.371583  -1.575485   0.000915   0.278737   0.003283
  57   6   7.567127   0.469092  -1.477145   0.000433   0.139368   0.003109
  58   6   9.620362  -4.509079   0.341191   0.001566   0.418105   0.003745
  59   6   9.886453  -1.997663  -0.056382   0.001028   0.371649   0.002766
  60   6   5.812138  -5.244941  -3.852005   0.000587   0.232280   0.002529
  61   7   4.935985  -5.653952   4.275116   0.001167   0.232280   0.005023
  62   7   0.978709  -6.627632   4.324864   0.000985   0.371649   0.002650
  63   7   0.059912  -7.146066   0.731247   0.001851   0.371649   0.004980
  64   7   1.095671  -1.969523   4.181999   0.000578   0.092912   0.006225
  65   7   2.684813  -7.198466  -0.884480   0.000105   0.092912   0.001127
  66   7   0.806113  -7.704450   0.894370   0.001271   0.278737   0.004560
  67   7   1.620213  -7.404956   3.802718   0.001312   0.418105   0.003137
  68   7   4.817338  -6.375712   3.915966   0.001114   0.232280   0.004795
  69   7   0.605377  -3.096429   4.658228   0.001567   0.278737   0.005622
  70   7   0.286604  -3.861212   4.678580   0.001114   0.232280   0.004797
  71   7   5.497355  -5.543387   3.670922   0.000964   0.185824   0.005189
  72   7   3.862067  -6.202512   4.703436   0.002541   0.511017   0.004973
  73   7   2.256638  -6.577863   4.754764   0.001286   0.418105   0.003077
  74   7   0.437264  -7.039983   3.436885   0.001547   0.371649   0.004163
  75   7   0.177226  -7.389492   1.869362   0.001510   0.278737   0.005419
[...]
 604  18   9.477668  -2.655879   1.369333  -0.000328   0.158878  -0.002061
 605  18   9.484161  -1.443672   0.711869  -0.000341   0.158878  -0.002147
 606  18   8.708764  -0.321001   0.511575  -0.000270   0.158878  -0.001698
 607  18   7.734022   0.236190   0.720636  -0.000141   0.071187  -0.001980
 608   6   8.014650  -3.911547   2.391193   0.000070   0.155293   0.000452
 609   6   9.209209  -3.452316   1.518759   0.000055   0.155293   0.000352
 610   6   9.680399  -2.270882   0.634904  -0.000142   0.155293  -0.000914
 611   6   9.222977  -0.881859   0.124622  -0.000005   0.155293  -0.000034
 612   6   8.036189   0.109715   0.210185   0.000039   0.155293   0.000251
 613  19   5.635663  -6.789379   2.266894   0.000028   0.011607   0.002435
 614   6   6.807295  -6.046155   1.785403   0.000106   0.016483   0.006410
 615   7  -0.732874  -3.149964   3.656846   0.000185   0.134095   0.001378
 616   9  -2.065502  -2.125892   3.407643   0.001102   0.134095   0.008220
 617  20  -1.000607  -3.214127   3.524301   0.000038   0.134095   0.000287
 618   9  -2.581137  -1.416659   4.122806   0.001410   0.355543   0.003966
 619   9  -1.880863  -0.426357   3.985382   0.003466   0.706564   0.004906
 620   7  -0.210405  -2.531893   4.096648   0.003241   0.706564   0.004587
 621   7   0.483003  -1.551305   3.878484   0.001681   0.355543   0.004727
 622  10   2.334554  -6.333742  -2.325386  -0.000129   0.167869  -0.000770
 623  10   1.214034  -5.800272  -2.300386  -0.000728   0.341205  -0.002134
 624  10   0.394665  -4.872526  -2.207106  -0.000132   0.167869  -0.000787
 625   7   1.727040  -6.644190  -1.342411   0.000811   0.462999   0.001752
 626   7   0.339127  -5.598748  -1.257786   0.000876   0.462999   0.001893
 627   7   1.852373  -1.252589   3.756523   0.000083   0.088951   0.000937
 628  13   2.143882  -0.379983   3.356261   0.000036   0.088951   0.000404
 629  21   2.086044  -1.296129   3.950900  -0.000037   0.088951  -0.000420
 630   7   1.663918  -1.117999   3.787281   0.000033   0.006441   0.005068
 631   7   5.829085  -4.177038   3.575260   0.000161   0.089351   0.001805
 632  18   6.562091  -3.632165   3.145072   0.000187   0.089351   0.002088
 633  21   5.728455  -3.975296   3.783713  -0.000083   0.089351  -0.000933
 634  18   7.163558  -3.551708   3.029045   0.000025   0.008678   0.002876
 635   7   6.020371  -4.328654   3.585165   0.000095   0.012342   0.007684
 636  19   5.269409  -6.931228   2.717022  -0.000050   0.066841  -0.000752
 637  19   4.500019  -7.203720   3.422268  -0.000114   0.147360  -0.000772
 638  19   3.284772  -7.612819   3.671013  -0.000231   0.147360  -0.001566
 639  19   2.159673  -7.972167   3.113263  -0.000258   0.147360  -0.001750
 640  19   1.560659  -8.142530   1.965125  -0.000130   0.147360  -0.000885
 641  19   1.719824  -8.057900   0.671461  -0.000213   0.147360  -0.001447
 642  19   2.575498  -7.751066  -0.266482  -0.000306   0.147360  -0.002073
 643   7   5.067070  -6.656771   3.197482   0.000072   0.147525   0.000490
 644   7   3.855264  -7.076181   3.911404   0.000132   0.147525   0.000892
 645   7   2.471679  -7.530478   3.728724  -0.000057   0.147525  -0.000388
 646   7   1.452404  -7.843637   2.720223   0.000075   0.147525   0.000509
 647   7   1.192371  -7.894321   1.276659   0.000120   0.147525   0.000814
 648   7   1.792332  -7.662892  -0.042640  -0.000033   0.147525  -0.000226
 649   7   2.714507  -7.340343  -0.723243  -0.000004   0.081661  -0.000049
 650  20  -0.815927  -5.101853  -0.240203  -0.000068   0.069178  -0.000989
 651  20  -0.785892  -5.998296   0.428045  -0.000224   0.153857  -0.001457
 652  20  -0.732989  -6.508199   1.678963  -0.000170   0.153857  -0.001107
 653  20  -0.680513  -6.144131   2.979847  -0.000217   0.153857  -0.001409
 654  20  -0.650469  -5.058749   3.785229  -0.000246   0.153857  -0.001596
 655  20  -0.649235  -3.945362   3.892165  -0.000087   0.069178  -0.001251
 656   7  -0.481119  -5.597603  -0.243791  -0.000064   0.151371  -0.000420
 657   7  -0.431223  -6.594896   0.900359   0.000034   0.151371   0.000224
 658   7  -0.368666  -6.681470   2.415204   0.000019   0.151371   0.000127
 659   7  -0.319679  -5.821023   3.665561   0.000009   0.151371   0.000057
 660   7  -0.304804  -4.374344   4.127150   0.000037   0.151371   0.000244
 661  21   1.861089  -1.811754   4.479130  -0.000053   0.071547  -0.000735
 662  21   1.645299  -2.784327   5.047030  -0.000127   0.159813  -0.000795
 663  21   2.096751  -4.021409   5.474079  -0.000259   0.159813  -0.001620
 664  21   3.211646  -4.840645   5.424971  -0.000275   0.159813  -0.001721
 665  21   4.500480  -4.882341   4.921267  -0.000187   0.159813  -0.001172
 666  21   5.330910  -4.361411   4.326293  -0.000076   0.071547  -0.001059
 667   7   1.400525  -2.208306   4.462605   0.000196   0.155962   0.001254
 668   7   1.425073  -3.606280   5.142742   0.000148   0.155962   0.000950
 669   7   2.357319  -4.830144   5.367681  -0.000055   0.155962  -0.000353
 670   7   3.787952  -5.342546   5.038663   0.000077   0.155962   0.000491
 671   7   5.088839  -4.918513   4.300144   0.000155   0.155962   0.000994
 672   8  -6.041351   5.203352   2.834092   0.000169   0.064401   0.002629
 673   9  -6.009382   4.454538   3.198257   0.000220   0.064401   0.003423
 674  24  -5.815914   5.399207   2.896792  -0.000067   0.064401  -0.001033
 675   8  -7.783511   4.001768   1.882958   0.000207   0.066315   0.003123
 676   9  -7.851287   3.321470   2.359588   0.000183   0.066315   0.002759
 677  25  -8.062189   3.124296   2.262243  -0.000067   0.066315  -0.001006
 678   9  -6.858724   3.867777   3.100218   0.001448   0.573231   0.002525
 679   8  -7.181452   4.753806   2.267022   0.001225   0.573231   0.002137
 680  11  -6.744857   1.780324  -3.357402  -0.000134   0.168455  -0.000797
 681  11  -5.860909   2.201254  -4.127462  -0.000773   0.342447  -0.002259
 682  11  -4.705880   2.490922  -4.492891  -0.000181   0.168455  -0.001075
 683   8  -6.827973   2.964339  -3.511458   0.000672   0.464548   0.001447
 684   8  -5.369212   3.472728  -4.323830   0.000699   0.464548   0.001505
 685   8  -1.753573   6.660792  -2.033883  -0.000067   0.085651  -0.000786
 686  14  -1.024861   6.071568  -2.272396  -0.000200   0.085651  -0.002332
 687  22  -1.841874   6.707619  -2.323220  -0.000205   0.085651  -0.002395
 688  14  -0.448864   5.954206  -2.231689  -0.000044   0.037146  -0.001180
 689   8  -1.562230   6.755297  -1.834910   0.000186   0.052609   0.003534
 690   8  -1.816584   6.659194   0.542459  -0.000003   0.087834  -0.000039
 691  15  -1.089522   6.056055   0.852309  -0.000197   0.087834  -0.002241
 692  24  -1.937762   6.734474   0.814038  -0.000131   0.087834  -0.001497
 693  22  -4.292105   4.724849  -4.642704  -0.000138   0.066723  -0.002067
 694  22  -5.175829   5.340043  -4.656777  -0.000310   0.147046  -0.002106
 695  22  -5.806765   6.422669  -4.295705  -0.000168   0.147046  -0.001141
 696  22  -5.694837   7.527335  -3.611807  -0.000294   0.147046  -0.001999
 697  22  -4.883259   8.227546  -2.869124  -0.000321   0.147046  -0.002182
 698  22  -3.685369   8.252962  -2.354397  -0.000248   0.147046  -0.001687
 699  22  -2.563653   7.593769  -2.266352  -0.000232   0.147046  -0.001581
 700   8  -4.857392   4.595028  -4.541901  -0.000203   0.147316  -0.001378
 701   8  -5.898373   5.614779  -4.388271  -0.000003   0.147316  -0.000023
 702   8  -6.205150   6.907650  -3.770607   0.000061   0.147316   0.000416
 703   8  -5.659281   7.974482  -2.927380  -0.000100   0.147316  -0.000679
 704   8  -4.471519   8.403388  -2.184146  -0.000153   0.147316  -0.001037
 705   8  -3.100440   8.028773  -1.827858   0.000001   0.147316   0.000009
 706   8  -2.183187   7.274591  -1.879957  -0.000012   0.081516  -0.000152
 707   8  -7.958332   4.369861   1.541448   0.000067   0.088219   0.000757
 708  23  -8.175228   4.376034   1.325936  -0.000079   0.088219  -0.000900
 709  25  -8.119113   3.432092   1.833080   0.000139   0.088219   0.001581
 710  23  -8.309573   5.096841   1.181373  -0.000075   0.066801  -0.001125
 711  23  -8.298049   6.099065   0.780758  -0.000183   0.147328  -0.001242
 712  23  -8.258160   6.909216  -0.244000  -0.000296   0.147328  -0.002010
 713  23  -8.201513   6.954749  -1.548908  -0.000332   0.147328  -0.002257
 714  23  -8.150109   6.217979  -2.627144  -0.000213   0.147328  -0.001443
 715  23  -8.123913   4.985063  -3.059926  -0.000274   0.147328  -0.001862
 716  23  -8.133100   3.734863  -2.679163  -0.000378   0.147328  -0.002564
 717   8  -7.983333   5.567447   1.318960  -0.000012   0.147376  -0.000081
 718   8  -7.955233   6.791508   0.508133  -0.000051   0.147376  -0.000347
 719   8  -7.898156   7.297440  -0.869304  -0.000105   0.147376  -0.000711
 720   8  -7.834269   6.888739  -2.278360  -0.000081   0.147376  -0.000547
 721   8  -7.788388   5.724144  -3.171763  -0.000046   0.147376  -0.000311
 722   8  -7.778330   4.255979  -3.202520  -0.000042   0.147376  -0.000287
 723   8  -7.796465   3.203969  -2.643573  -0.000033   0.081612  -0.000400
 724  24  -2.355751   7.370764   0.720690  -0.000100   0.071183  -0.001408
 725  24  -3.206127   8.103860   0.511840  -0.000265   0.158868  -0.001667
 726  24  -4.523049   8.460409   0.712317  -0.000345   0.158868  -0.002171
 727  24  -5.663593   8.049972   1.369814  -0.000378   0.158868  -0.002377
 728  24  -6.130995   7.051315   2.197957  -0.000205   0.158868  -0.001293
 729  24  -5.918407   6.088705   2.774477  -0.000076   0.071183  -0.001068
 730   8  -2.575813   7.613507   0.210305   0.000008   0.155286   0.000050
 731   8  -3.906385   8.401622   0.125006  -0.000022   0.155286  -0.000144
 732   8  -5.368328   8.369564   0.635413  -0.000128   0.155286  -0.000827
 733   8  -6.324894   7.531296   1.519219  -0.000041   0.155286  -0.000266
 734   8  -6.359448   6.251926   2.391481   0.000070   0.155286   0.000453
 735  25  -8.273862   3.050368   2.273332   0.000014   0.011509   0.001239
 736   8  -7.974829   4.400626   1.779026   0.000097   0.016343   0.005930
 737  11  -4.725239  -1.252055  -2.207491  -0.000108   0.167848  -0.000643
 738  11  -5.873021  -0.788809  -2.300633  -0.000703   0.341163  -0.002061
 739  11  -6.749479   0.089758  -2.325493  -0.000137   0.167848  -0.000819
 740   9  -5.391306  -1.546562  -1.258228   0.000857   0.462943   0.001852
 741   9  -6.839568  -0.586549  -1.342654   0.000770   0.462943   0.001664
 742   9  -1.797998   1.329096   3.756322   0.000111   0.088958   0.001245
 743  15  -1.072533   1.894988   3.356127   0.000067   0.088958   0.000754
 744  27  -1.916984   1.534860   3.950719  -0.000103   0.088958  -0.001153
 745   9  -1.607077   1.193706   3.785580   0.000039   0.006453   0.006053
 746   9  -2.857200  -1.818511   3.658514  -0.000017   0.091638  -0.000182
 747  20  -1.751860  -2.819130   3.301958   0.000676   0.091638   0.007373
 748  26  -2.824253  -2.091900   3.531899  -0.000073   0.091638  -0.000802
 749   9  -5.881291   4.102842   3.575094   0.000125   0.089354   0.001401
 750  24  -5.612004   4.975621   3.145004   0.000165   0.089354   0.001844
 751  27  -5.657543   4.075245   3.783568  -0.000005   0.089354  -0.000054
 752  24  -5.742164   5.569554   3.025803   0.000014   0.008567   0.001633
 753   9  -6.082600   4.232545   3.588185   0.000084   0.012184   0.006857
 754  25  -8.167651   0.206409  -0.476422  -0.000106   0.066836  -0.001583
 755  25  -8.164128  -0.685899   0.129581  -0.000247   0.147348  -0.001678
 756  25  -8.180295  -1.257833   1.303686  -0.000101   0.147348  -0.000687
 757  25  -8.215058  -1.024567   2.588314  -0.000224   0.147348  -0.001518
 758  25  -8.254947  -0.076474   3.485767  -0.000261   0.147348  -0.001770
 759  25  -8.284510   1.219129   3.648345  -0.000177   0.147348  -0.001199
 760  25  -8.292291   2.360289   3.013062  -0.000167   0.147348  -0.001135
 761   9  -7.822401  -0.270814  -0.488562  -0.000144   0.147516  -0.000974
 762   9  -7.826821  -1.292078   0.565406   0.000086   0.147516   0.000580
 763   9  -7.856930  -1.492294   2.018973   0.000131   0.147516   0.000890
 764   9  -7.901063  -0.793892   3.308987  -0.000034   0.147516  -0.000232
 765   9  -7.942122   0.532548   3.935662  -0.000086   0.147516  -0.000583
 766   9  -7.964199   1.973127   3.656206   0.000057   0.147516   0.000383
 767   9  -7.964290   2.883329   2.888710   0.000070   0.081655   0.000856
 768  26  -3.503052  -1.927811   3.891632  -0.000119   0.069162  -0.001725
 769  26  -4.551975  -2.300236   3.784237  -0.000199   0.153812  -0.001292
 770  26  -5.564771  -2.690310   2.978717  -0.000191   0.153812  -0.001240
 771  26  -5.890341  -2.860935   1.678076  -0.000177   0.153812  -0.001149
 772  26  -5.392243  -2.740606   0.427398  -0.000206   0.153812  -0.001337
 773  26  -4.537484  -2.469938  -0.240883  -0.000087   0.069162  -0.001264
 774   9  -4.022348  -1.746220   4.126490  -0.000008   0.151345  -0.000055
 775   9  -5.380769  -2.242558   3.664455  -0.000035   0.151345  -0.000233
 776   9  -6.175251  -2.575400   2.414195   0.000091   0.151345   0.000604
 777   9  -6.072834  -2.605257   0.899680   0.000002   0.151345   0.000012
 778   9  -5.116442  -2.319616  -0.244373  -0.000068   0.151345  -0.000447
 779  27  -5.889019   3.571654   4.326094  -0.000044   0.071551  -0.000618
 780  27  -6.103207   2.614979   4.921005  -0.000193   0.159821  -0.001207
 781  27  -5.634082   1.413782   5.424657  -0.000326   0.159821  -0.002039
 782  27  -4.489908   0.635919   5.473761  -0.000320   0.159821  -0.002003
 783  27  -3.173050   0.622920   5.046758  -0.000138   0.159821  -0.000866
 784  27  -2.328089   1.150766   4.478918  -0.000068   0.071551  -0.000950
 785   9  -6.333506   3.157637   4.299888   0.000120   0.155971   0.000767
 786   9  -6.299447   1.789737   5.038329   0.000055   0.155971   0.000350
 787   9  -5.339255   0.611854   5.367315  -0.000052   0.155971  -0.000335
 788   9  -3.874516   0.141155   5.142400   0.000038   0.155971   0.000242
 789   9  -2.548342   0.584304   4.462336   0.000020   0.155971   0.000131
 790  14   2.098144   4.205583  -2.613402  -0.000104   0.263171  -0.000396
 791  14   1.745521   3.707144  -3.700763  -0.001263   0.526636  -0.002398
 792  14   0.959676   2.596245  -4.360454  -0.001121   0.526636  -0.002128
 793  12   3.148011   3.214471  -3.048163  -0.001009   0.526636  -0.001916
 794  12   2.555656   2.377130  -4.159386  -0.001305   0.526636  -0.002477
 795  12   1.852475   1.383070  -4.428677  -0.000193   0.263171  -0.000734
 796  16   5.555583  -1.202027  -4.556834  -0.000186   0.256023  -0.000727
 797  16   6.255754  -0.297660  -4.256119  -0.001194   0.512094  -0.002331
 798  16   6.873900   0.443734  -3.189469  -0.000738   0.512094  -0.001442
 799  12   4.647093   0.044019  -4.409541  -0.001155   0.512094  -0.002255
 800  12   5.439576   1.044616  -3.746000  -0.001403   0.512094  -0.002739
 801  12   5.824345   1.480044  -2.715997  -0.000284   0.256023  -0.001110
 802  15   0.655420   2.159026   3.155900  -0.000068   0.264044  -0.000259
 803  15   1.365816   3.163330   2.903801  -0.001153   0.528422  -0.002183
 804  15   1.969469   4.016740   1.797432  -0.000949   0.528422  -0.001796
 805  13   2.093515   1.728961   3.094874  -0.000976   0.528422  -0.001847
 806  13   2.889744   2.854614   2.450140  -0.001119   0.528422  -0.002118
 807  13   3.251171   3.365582   1.361505  -0.000052   0.264044  -0.000196
 808  13   4.892434  -0.384626   2.957309  -0.000813   0.327405  -0.002483
 809  18   5.775713  -1.038317   2.908144  -0.000605   0.327405  -0.001848
 810  21   4.874631  -1.355362   3.488665  -0.000459   0.327405  -0.001401
 811  18   7.095601   0.471398   1.311277   0.000109   0.307015   0.000355
 812  18   6.678645  -0.172427   2.410902  -0.001276   0.614315  -0.002078
 813  13   5.707071   1.173419   1.826275  -0.001388   0.614315  -0.002259
 814  13   5.221851   0.443295   2.840680  -0.000468   0.307015  -0.001525
 815  21   4.297305  -1.240035   4.173845  -0.000233   0.309550  -0.000753
 816  21   2.964574  -1.140154   4.315305  -0.000502   0.619367  -0.000811
 817  13   3.811171   0.189182   3.510404  -0.001164   0.619367  -0.001879
 818  13   2.467765   0.221723   3.529422   0.000018   0.309550   0.000058
 819  22  -1.781603   6.800695  -2.779257   0.000019   0.256015   0.000075
 820  22  -2.063776   6.292711  -3.809428  -0.001129   0.512077  -0.002204
 821  22  -2.742874   5.211760  -4.473060  -0.000967   0.512077  -0.001889
 822  14  -0.638526   5.814710  -3.125708  -0.001162   0.512077  -0.002269
 823  14  -1.131353   4.984615  -4.192527  -0.001377   0.512077  -0.002689
 824  14  -1.750522   4.022790  -4.493267  -0.000227   0.256015  -0.000887
 825  15  -1.993475   4.484626   2.957420  -0.000809   0.327399  -0.002471
 826  24  -2.904289   5.099303   2.908287  -0.000607   0.327399  -0.001853
 827  27  -2.902744   4.144040   3.488720  -0.000467   0.327399  -0.001427
 828  24  -2.609295   5.941480   2.774404  -0.000366   0.307047  -0.001192
 829  24  -2.082731   6.642557   1.759911  -0.000878   0.614381  -0.001428
 830  15  -1.102518   5.369265   2.477501  -0.001657   0.614381  -0.002697
 831  15  -0.634559   5.977184   1.377763  -0.000278   0.307047  -0.000905
 832  27  -1.897512   1.922757   4.284769   0.000262   0.309549   0.000846
 833  27  -2.376199   3.178376   4.265863  -0.000911   0.619366  -0.001471
 834  15  -0.778689   2.893285   3.559802  -0.000786   0.619366  -0.001270
 835  15  -1.317294   4.116397   3.418453  -0.000339   0.309549  -0.001096
 836  19   4.306062  -7.637404  -0.437565  -0.000029   0.254688  -0.000113
 837  19   4.975358  -7.852557   0.466537  -0.000702   0.509277  -0.001379
 838  19   5.568734  -7.372235   1.634537  -0.000274   0.509277  -0.000538
 839  17   5.795052  -7.308449  -0.907283  -0.000643   0.509277  -0.001262
 840  17   6.553002  -7.282171   0.263977  -0.000764   0.509277  -0.001500
 841  17   6.924852  -6.676702   1.162188   0.000190   0.254688   0.000744
 842  21   5.787274  -3.609837   4.127843   0.000379   0.304021   0.001245
 843  21   5.384440  -2.361660   4.182723  -0.000658   0.608158  -0.001082
 844  18   6.926837  -2.676564   3.361225  -0.000473   0.608158  -0.000778
 845  18   6.458556  -1.451633   3.302137  -0.000256   0.304021  -0.000842
 846  26  -3.541365  -3.352966   0.421288  -0.000002   0.269930  -0.000006
 847  26  -3.781917  -3.692920   1.371548  -0.000528   0.539089  -0.000979
 848  26  -3.679120  -3.547328   2.626644  -0.000666   0.539089  -0.001236
 849  26  -3.141362  -2.786785   3.486540   0.000074   0.539089   0.000138
 850  20  -2.085503  -4.606199   0.772555  -0.000268   0.539089  -0.000497
 851  20  -2.231808  -4.812833   2.014702  -0.000629   0.539089  -0.001167
 852  20  -1.891825  -4.331891   3.137260  -0.000317   0.539089  -0.000588
 853  20  -1.376053  -3.602499   3.664889   0.000362   0.269930   0.001340
 854  25  -8.607753   2.996600   1.967473   0.000176   0.254683   0.000691
 855  25  -9.054559   2.444318   1.069238  -0.000647   0.509265  -0.001271
 856  25  -8.826664   1.721237  -0.102089  -0.000563   0.509265  -0.001106
 857  23  -8.801904   4.097816   0.829136  -0.000339   0.509265  -0.000666
 858  23  -9.056890   3.378480  -0.338909  -0.000789   0.509265  -0.001550
 859  23  -8.630956   2.819430  -1.243078  -0.000087   0.254683  -0.000340
 860  27  -3.518649   4.254964   4.124977  -0.000165   0.304029  -0.000543
 861  27  -4.829675   4.287947   4.183966  -0.000290   0.608175  -0.000477
 862  24  -4.024571   5.639222   3.360046  -0.000891   0.608175  -0.001466
 863  24  -5.335680   5.602755   3.305054   0.000219   0.304029   0.000719
 =====================================================

              6995162  WORDS OF DYNAMIC MEMORY USED
 EXECUTION OF GAMESS TERMINATED NORMALLY Thu Nov 24 00:10:31 2016
 DDI: 263640 bytes (0.3 MB / 0 MWords) used by master data server.

 ----------------------------------------
 CPU timing information for all processes
 ========================================
 0: 2254.20 + 0.704 = 2254.724
 ----------------------------------------
 ddikick.x: exited gracefully.
