----- GAMESS execution script -----

          ******************************************************
          *         GAMESS VERSION =  5 DEC 2014 (R1)          *
          *             FROM IOWA STATE UNIVERSITY             *
          * M.W.SCHMIDT, K.K.BALDRIDGE, J.A.BOATZ, S.T.ELBERT, *
          *   M.S.GORDON, J.H.JENSEN, S.KOSEKI, N.MATSUNAGA,   *
          *          K.A.NGUYEN, S.J.SU, T.L.WINDUS,           *
          *       TOGETHER WITH M.DUPUIS, J.A.MONTGOMERY       *
          *         J.COMPUT.CHEM.  14, 1347-1363(1993)        *
          **************** 64 BIT LINUX VERSION ****************

 EXECUTION OF GAMESS BEGUN Wed Nov 23 23:42:56 2016

            ECHO OF THE FIRST FEW INPUT CARDS -
 INPUT CARD>! SELECT RESTRICTED HARTREE-FOCK AS DEFAULT                                     
 INPUT CARD>$contrl scftyp=rhf $end                                                         
 INPUT CARD>                                                                                
 INPUT CARD>! THEORY: HF OR DFT                                                             
 INPUT CARD> $contrl mplevl=0 $end                                                          
 INPUT CARD>                                                                                
 INPUT CARD> $system timlim=10000 mwords=20 $end                                            
 INPUT CARD> $SCF DIRSCF=.TRUE. $end                                                        
 INPUT CARD>                                                                                
 INPUT CARD>                                                                                
 INPUT CARD>! BASIS SETS                                                                    
 INPUT CARD>! 6-311G(d,p)                                                                   
 INPUT CARD> $BASIS GBASIS=N311 NGAUSS=6 NDFUNC=1 NPFUNC=1 $END                             
 INPUT CARD>                                                                                
 INPUT CARD>! One of the following                                                          
 INPUT CARD> $guess guess=HUCKEL $end                                                       
 INPUT CARD>                                                                                
 INPUT CARD> $statpt projct=.FALSE. $end                                                    
 INPUT CARD> $STATPT IFREEZ(1)=1,2,3 $END                                                   
 INPUT CARD>                                                                                
 INPUT CARD>! Optimize the geometry with COSMO effects                                      
 INPUT CARD> $statpt opttol=0.0005 nstep=50 $end                                            
 INPUT CARD> $contrl nzvar=1 $end                                                           
 INPUT CARD> $zmat dlc=.t. auto=.t. $end                                                    
 INPUT CARD> $contrl runtyp=OPTIMIZE maxit=200 $end                                         
 INPUT CARD>                                                                                
 INPUT CARD>! Run COSMO on perfect conductor                                                
 INPUT CARD> $COSGMS PRFCND=.TRUE. $end                                                     
 INPUT CARD>                                                                                
 INPUT CARD>! Specifying RSOLV                                                              
 INPUT CARD> $COSGMS COSRAD = 1.4 $end                                                      
 INPUT CARD>                                                                                
 INPUT CARD>! available memory                                                              
 INPUT CARD> $SYSTEM MWORDS=40 $END                                                         
 INPUT CARD>                                                                                
 INPUT CARD> $DATA                                                                          
 INPUT CARD>                                                                                
 INPUT CARD>C1                                                                              
 INPUT CARD>O      8.0      2.9154000000    2.2334000000    1.8118000000                    
 INPUT CARD>C      6.0      1.7710000000    1.4518000000    2.1606000000                    
 INPUT CARD>C      6.0      3.9695000000    1.5684000000    1.1129000000                    
 INPUT CARD>C      6.0      0.7633000000    2.4145000000    2.7820000000                    
 INPUT CARD>C      6.0      2.1086000000    0.3407000000    3.1494000000                    
 INPUT CARD>C      6.0      5.1006000000    2.5828000000    0.9697000000                    
 INPUT CARD>C      6.0      3.5320000000    1.0781000000   -0.2638000000                    
 INPUT CARD>H      1.0      1.3178000000    1.0290000000    1.2581000000                    
 INPUT CARD>H      1.0      4.3442000000    0.7309000000    1.7101000000                    
 INPUT CARD>H      1.0      1.1747000000    2.8871000000    3.6814000000                    
 INPUT CARD>H      1.0     -0.1669000000    1.9023000000    3.0499000000                    
 INPUT CARD>H      1.0      0.5254000000    3.2235000000    2.0826000000                    
   40000000 WORDS OF MEMORY AVAILABLE

     BASIS OPTIONS
     -------------
     GBASIS=N311         IGAUSS=       6      POLAR=POPN311 
     NDFUNC=       1     NFFUNC=       0     DIFFSP=       F
     NPFUNC=       1      DIFFS=       F     BASNAM=        


     RUN TITLE
     ---------
                                                                                 

 THE POINT GROUP OF THE MOLECULE IS C1      
 THE ORDER OF THE PRINCIPAL AXIS IS     0

 ATOM      ATOMIC                      COORDINATES (BOHR)
           CHARGE         X                   Y                   Z
 O           8.0     5.5093071446        4.2205140210        3.4238055446
 C           6.0     3.3467047243        2.7435041890        4.0829419691
 C           6.0     7.5012673083        2.9638462391        2.1030760517
 C           6.0     1.4424278464        4.5627433974        5.2572176978
 C           6.0     3.9846762177        0.6438296440        5.9515030257
 C           6.0     9.6387363730        4.8807842811        1.8324672903
 C           6.0     6.6745121886        2.0373135874       -0.4985097156
 H           1.0     2.4902809066        1.9445280414        2.3774642652
 H           1.0     8.2093476359        1.3812007244        3.2316204116
 H           1.0     2.2198611178        5.4558278992        6.9568372512
 H           1.0    -0.3153952674        3.5948257464        5.7634752900
 H           1.0     0.9928620339        6.0915317214        3.9355433420
 H           1.0     2.2714506372       -0.2743882134        6.6612841067
 H           1.0     5.0631428389        1.3808227792        7.5579590879
 H           1.0     5.1468577002       -0.8173064897        5.0603082499
 H           1.0     9.0194731668        6.5346724655        0.7502212171
 H           1.0    11.2837428453        4.0511945725        0.8908168306
 H           1.0    10.2271970456        5.5743137186        3.6925245800
 H           1.0     5.7358852905        3.5460708160       -1.5609136659
 H           1.0     5.3244919430        0.4782896475       -0.3378830066
 H           1.0     8.2873933192        1.3498312730       -1.5970074322

          INTERNUCLEAR DISTANCES (ANGS.)




     $CONTRL OPTIONS
     ---------------
 SCFTYP=RHF          RUNTYP=OPTIMIZE     EXETYP=RUN     
 MPLEVL=       0     CITYP =NONE         CCTYP =NONE         VBTYP =NONE    
 DFTTYP=NONE         TDDFT =NONE    
 MULT  =       1     ICHARG=       0     NZVAR =       1     COORD =UNIQUE  
 PP    =NONE         RELWFN=NONE         LOCAL =NONE         NUMGRD=       F
 ISPHER=      -1     NOSYM =       0     MAXIT =     200     UNITS =ANGS    
 PLTORB=       F     MOLPLT=       F     AIMPAC=       F     FRIEND=        
 NPRINT=       7     IREST =       0     GEOM  =INPUT   
 NORMF =       0     NORMP =       0     ITOL  =      20     ICUT  =       9
 INTTYP=BEST         GRDTYP=BEST         QMTTOL= 1.0E-06

     $SYSTEM OPTIONS
     ---------------
  REPLICATED MEMORY=    40000000 WORDS (ON EVERY NODE).
 DISTRIBUTED MEMDDI=           0 MILLION WORDS IN AGGREGATE,
 MEMDDI DISTRIBUTED OVER   1 PROCESSORS IS           0 WORDS/PROCESSOR.
 TOTAL MEMORY REQUESTED ON EACH PROCESSOR=    40000000 WORDS.
 TIMLIM=       10000.00 MINUTES, OR       6.9 DAYS.
 PARALL= F  BALTYP=  DLB     KDIAG=    0  COREFL= F
 MXSEQ2=     300 MXSEQ3=     150  mem10=         0

     $COSGMS OPTIONS
     ---------------
     EPSI  =   INFTY     NSPA  =      92     COSRAD=    1.40
     DISEX =   10.00     OUTCHG=DBLCAV       COSBUG=       F
     COSWRT=       F     DCOSMO=       F

     SYMMETRY COORDINATES WILL NOT BE USED FOR 
     THE COSMO CALCULATION, EVEN IF SPECIFIED:
         -- SWITCHING TO C1 POINT GROUP --


     DEFINITION OF CAVITY
     ---------------------------
     ATOM         COORDINATES           RADIUS 
     1    5.5093    4.2205    3.4238    1.7200
     2    3.3467    2.7435    4.0829    2.0000
     3    7.5013    2.9638    2.1031    2.0000
     4    1.4424    4.5627    5.2572    2.0000
     5    3.9847    0.6438    5.9515    2.0000
     6    9.6387    4.8808    1.8325    2.0000
     7    6.6745    2.0373   -0.4985    2.0000
     8    2.4903    1.9445    2.3775    1.3000
     9    8.2093    1.3812    3.2316    1.3000
    10    2.2199    5.4558    6.9568    1.3000
    11   -0.3154    3.5948    5.7635    1.3000
    12    0.9929    6.0915    3.9355    1.3000
    13    2.2715   -0.2744    6.6613    1.3000
    14    5.0631    1.3808    7.5580    1.3000
    15    5.1469   -0.8173    5.0603    1.3000
    16    9.0195    6.5347    0.7502    1.3000
    17   11.2837    4.0512    0.8908    1.3000
    18   10.2272    5.5743    3.6925    1.3000
    19    5.7359    3.5461   -1.5609    1.3000
    20    5.3245    0.4783   -0.3379    1.3000
    21    8.2874    1.3498   -1.5970    1.3000

          ----------------
          PROPERTIES INPUT
          ----------------

     MOMENTS            FIELD           POTENTIAL          DENSITY
 IEMOM =       1   IEFLD =       0   IEPOT =       0   IEDEN =       0
 WHERE =COMASS     WHERE =NUCLEI     WHERE =NUCLEI     WHERE =NUCLEI  
 OUTPUT=BOTH       OUTPUT=BOTH       OUTPUT=BOTH       OUTPUT=BOTH    
 IEMINT=       0   IEFINT=       0                     IEDINT=       0
                                                       MORB  =       0
          EXTRAPOLATION IN EFFECT
          SOSCF IN EFFECT
 ORBITAL PRINTING OPTION: NPREO=     1   217     2     1

     -------------------------------
     INTEGRAL TRANSFORMATION OPTIONS
     -------------------------------
     NWORD  =            0
     CUTOFF = 1.0E-09     MPTRAN =       0
     DIRTRF =       T     AOINTS =DUP     

          ----------------------
          INTEGRAL INPUT OPTIONS
          ----------------------
 NOPK  =       1 NORDER=       0 SCHWRZ=       T


 -----------------------------------------------
  STATISTICS ON AUTOMATIC COORDINATE GENERATION 
 -----------------------------------------------
  NUMBER OF USER SPECIFIED BONDS                             0
  NUMBER OF BONDS                                           20
  NUMBER OF ANGLES                                          37
  NUMBER OF TORSIONS                                        42
  NUMBER OF EXTRA COORD.                                     0
  NUMBER OF EXTRA COORD. FOR CONSTRAINTS                     0
  NUMBER OF CONSTRAINED COORD.                               0

  TOTAL NUMBER OF PRIMITIVES                                99
 -----------------------------------------------

   --- ENCODED Z MATRIX ---
 COORD  TYPE   I   J   K   L   M   N
    1      1    1   3
    2      1    1   2
    3      1    2   4
    4      1    2   5
    5      1    2   8
    6      1    3   7
    7      1    3   6
    8      1    3   9
    9      1    4  12
   10      1    4  11
   11      1    4  10
   12      1    5  15
   13      1    5  14
   14      1    5  13
   15      1    6  16
   16      1    6  18
   17      1    6  17
   18      1    7  21
   19      1    7  20
   20      1    7  19
   21      2    1   3   9
   22      2    1   2   5
   23      2    1   3   6
   24      2    1   2   4
   25      2    1   3   7
   26      2    1   2   8
   27      2    2   5  15
   28      2    2   5  14
   29      2    2   4  10
   30      2    2   4  12
   31      2    2   4  11
   32      2    2   1   3
   33      2    2   5  13
   34      2    3   6  17
   35      2    3   6  18
   36      2    3   6  16
   37      2    3   7  19
   38      2    3   7  20
   39      2    3   7  21
   40      2    4   2   8
   41      2    4   2   5
   42      2    5   2   8
   43      2    6   3   9
   44      2    6   3   7
   45      2    7   3   9
   46      2   10   4  11
   47      2   10   4  12
   48      2   11   4  12
   49      2   13   5  14
   50      2   13   5  15
   51      2   14   5  15
   52      2   16   6  17
   53      2   16   6  18
   54      2   17   6  18
   55      2   19   7  20
   56      2   19   7  21
   57      2   20   7  21
   58      3    1   3   7  21
   59      3    1   3   6  16
   60      3    1   2   4  10
   61      3    1   2   4  11
   62      3    1   2   5  15
   63      3    1   2   4  12
   64      3    1   2   5  13
   65      3    1   3   6  17
   66      3    1   3   7  19
   67      3    1   3   7  20
   68      3    1   3   6  18
   69      3    1   2   5  14
   70      3    2   1   3   7
   71      3    2   1   3   6
   72      3    2   1   3   9
   73      3    3   1   2   4
   74      3    3   1   2   5
   75      3    3   1   2   8
   76      3    4   2   5  14
   77      3    4   2   5  13
   78      3    4   2   5  15
   79      3    5   2   4  12
   80      3    5   2   4  10
   81      3    5   2   4  11
   82      3    6   3   7  21
   83      3    6   3   7  20
   84      3    6   3   7  19
   85      3    7   3   6  16
   86      3    7   3   6  18
   87      3    7   3   6  17
   88      3    8   2   4  12
   89      3    8   2   4  10
   90      3    8   2   5  14
   91      3    8   2   5  13
   92      3    8   2   5  15
   93      3    8   2   4  11
   94      3    9   3   7  21
   95      3    9   3   7  20
   96      3    9   3   7  19
   97      3    9   3   6  16
   98      3    9   3   6  18
   99      3    9   3   6  17

          INDEP./SYM. INTERNAL COORDINATES
          --------------------------------
 CRD  1=  -0.2221 ( 22)  0.2140 ( 23)  0.2140 ( 24) -0.2221 ( 25) -0.7796 ( 32)
           0.1042 ( 58)  0.1174 ( 62)  0.1042 ( 64)  0.1174 ( 67)
 CRD  2=  -0.1019 (  1) -0.1018 (  2) -0.1025 ( 27) -0.2128 ( 32) -0.1025 ( 38)
           0.1102 ( 41) -0.1246 ( 42)  0.1102 ( 44) -0.1246 ( 45) -0.4235 ( 70)
          -0.3128 ( 71) -0.2965 ( 72) -0.3127 ( 73) -0.4235 ( 74) -0.2964 ( 75)
 CRD  3=  -0.2907 (  1) -0.2904 (  2)  0.1352 ( 21) -0.1102 ( 22) -0.2633 ( 23)
          -0.2640 ( 24) -0.1116 ( 25)  0.1349 ( 26) -0.1260 ( 30) -0.1257 ( 35)
           0.3884 ( 41)  0.3885 ( 44)  0.2256 ( 71)  0.2265 ( 73)
 CRD  4=   0.1015 (  1) -0.1026 (  2)  0.1225 (  3) -0.1066 (  4)  0.1068 (  6)
          -0.1228 (  7) -0.3481 ( 22) -0.2078 ( 23)  0.2068 ( 24)  0.3476 ( 25)
          -0.1483 ( 59)  0.1485 ( 60)  0.1836 ( 61)  0.1626 ( 63) -0.1836 ( 65)
          -0.1626 ( 68)  0.2073 ( 70)  0.2330 ( 71)  0.1089 ( 72) -0.2321 ( 73)
          -0.2074 ( 74) -0.1088 ( 75) -0.1111 ( 79) -0.1252 ( 80)  0.1252 ( 85)
           0.1109 ( 86)
 CRD  5=   0.1112 (  3)  0.1771 (  4) -0.1771 (  6) -0.1112 (  7) -0.1218 ( 21)
           0.2172 ( 23) -0.2172 ( 24)  0.1218 ( 26) -0.1155 ( 30)  0.1223 ( 31)
           0.1247 ( 33) -0.1223 ( 34)  0.1154 ( 35) -0.1247 ( 39) -0.1095 ( 40)
           0.4419 ( 41) -0.1381 ( 42)  0.1095 ( 43) -0.4420 ( 44)  0.1381 ( 45)
           0.1827 ( 70) -0.1623 ( 71)  0.1623 ( 73) -0.1827 ( 74)
 CRD  6=   0.3054 (  1)  0.3054 (  2)  0.3284 (  3)  0.3284 (  7) -0.1738 ( 22)
          -0.1738 ( 25) -0.1001 ( 27)  0.1463 ( 29)  0.2418 ( 32)  0.1130 ( 33)
           0.1463 ( 36) -0.1001 ( 38)  0.1130 ( 39) -0.1392 ( 40)  0.2246 ( 41)
          -0.1392 ( 43)  0.2246 ( 44) -0.1567 ( 70) -0.1567 ( 74) -0.1073 ( 76)
          -0.1073 ( 84)
 CRD  7=  -0.1504 (  1)  0.1504 (  2) -0.2368 (  3)  0.2369 (  7) -0.1389 ( 21)
           0.1991 ( 23) -0.1992 ( 24)  0.1388 ( 26) -0.2885 ( 29)  0.1154 ( 31)
          -0.1155 ( 34)  0.2887 ( 36)  0.1176 ( 40) -0.1175 ( 43)  0.1109 ( 47)
          -0.1108 ( 53)  0.1560 ( 58) -0.1073 ( 59)  0.1073 ( 60)  0.1325 ( 61)
          -0.1432 ( 62) -0.1560 ( 64) -0.1326 ( 65)  0.1458 ( 66)  0.1432 ( 67)
          -0.1457 ( 69)  0.2207 ( 71)  0.1211 ( 72) -0.2206 ( 73) -0.1211 ( 75)
 CRD  8=   0.3956 (  4)  0.3956 (  6) -0.1188 ( 21)  0.1967 ( 22)  0.1967 ( 25)
          -0.1189 ( 26)  0.2544 ( 28)  0.1272 ( 29) -0.2532 ( 32)  0.1270 ( 36)
           0.2544 ( 37) -0.1140 ( 49) -0.1444 ( 51) -0.1444 ( 55) -0.1140 ( 56)
          -0.1290 ( 59) -0.1291 ( 60) -0.1543 ( 61) -0.1275 ( 63) -0.1542 ( 65)
          -0.1275 ( 68)  0.1111 ( 71)  0.1113 ( 73)
 CRD  9=   0.3064 (  3)  0.3192 (  4) -0.3194 (  6) -0.3066 (  7)  0.2924 ( 27)
          -0.1083 ( 29)  0.2842 ( 30) -0.2848 ( 35)  0.1085 ( 36) -0.2927 ( 38)
          -0.1595 ( 48) -0.1465 ( 50) -0.1177 ( 51)  0.1597 ( 54)  0.1177 ( 55)
           0.1466 ( 57)
 CRD 10=   0.2041 (  3)  0.1876 (  4)  0.1875 (  6)  0.2038 (  7)  0.2069 ( 27)
          -0.2126 ( 28) -0.2544 ( 29)  0.2082 ( 30)  0.2149 ( 31)  0.1634 ( 33)
           0.2144 ( 34)  0.2084 ( 35) -0.2542 ( 36) -0.2123 ( 37)  0.2067 ( 38)
           0.1632 ( 39) -0.1640 ( 48) -0.1446 ( 50) -0.1637 ( 54) -0.1443 ( 57)
           0.1327 ( 78) -0.1269 ( 79)  0.1325 ( 83) -0.1267 ( 86)
 CRD 11=   0.1270 (  3) -0.1268 (  7)  0.3577 ( 28)  0.1494 ( 30) -0.3398 ( 33)
          -0.1494 ( 35) -0.3579 ( 37)  0.3399 ( 39) -0.1688 ( 42)  0.1688 ( 45)
           0.1349 ( 50) -0.1006 ( 51)  0.1005 ( 55) -0.1350 ( 57)  0.1265 ( 70)
           0.1078 ( 71) -0.1079 ( 73) -0.1265 ( 74)  0.1437 ( 79)  0.1240 ( 80)
           0.1513 ( 81) -0.1241 ( 85) -0.1438 ( 86) -0.1513 ( 87)
 CRD 12=  -0.2119 (  3)  0.2677 (  4) -0.2672 (  6)  0.2118 (  7)  0.1050 ( 28)
           0.1400 ( 30) -0.3971 ( 31)  0.1255 ( 33)  0.3966 ( 34) -0.1395 ( 35)
          -0.1053 ( 37) -0.1249 ( 39) -0.1286 ( 40)  0.1285 ( 43)  0.1483 ( 46)
           0.1011 ( 48) -0.1178 ( 49) -0.1480 ( 52) -0.1010 ( 54)  0.1176 ( 56)
           0.1173 ( 72) -0.1175 ( 75) -0.1144 ( 76) -0.1057 ( 77) -0.1103 ( 78)
           0.1056 ( 82)  0.1103 ( 83)  0.1144 ( 84)
 CRD 13=   0.2290 (  3) -0.2017 (  4) -0.2021 (  6)  0.2295 (  7)  0.1402 ( 27)
          -0.1077 ( 30)  0.2784 ( 31) -0.3696 ( 33)  0.2790 ( 34) -0.1077 ( 35)
           0.1402 ( 38) -0.3699 ( 39) -0.1464 ( 46)  0.1500 ( 49) -0.1466 ( 52)
           0.1502 ( 56)  0.1332 ( 72)  0.1330 ( 75)
 CRD 14=  -0.1606 (  1) -0.1605 (  2)  0.1079 (  3)  0.1076 (  7)  0.3072 ( 27)
          -0.1162 ( 28)  0.2092 ( 29)  0.2124 ( 30) -0.3150 ( 31) -0.1675 ( 33)
          -0.3153 ( 34)  0.2127 ( 35)  0.2091 ( 36) -0.1159 ( 37)  0.3067 ( 38)
          -0.1673 ( 39) -0.1712 ( 47)  0.1242 ( 49) -0.1711 ( 53)  0.1239 ( 56)
 CRD 15=  -0.1028 (  9) -0.1051 ( 16)  0.1333 ( 27) -0.3031 ( 28)  0.2794 ( 29)
          -0.3522 ( 30)  0.1470 ( 33) -0.3594 ( 35)  0.2903 ( 36) -0.3107 ( 37)
           0.1461 ( 38)  0.1406 ( 39) -0.1537 ( 46)  0.1235 ( 48) -0.1110 ( 50)
          -0.1577 ( 52)  0.1272 ( 54) -0.1137 ( 57) -0.1153 ( 61) -0.1145 ( 65)
 CRD 16=   0.1070 ( 12) -0.1058 ( 19)  0.3479 ( 27) -0.2141 ( 28)  0.3086 ( 29)
          -0.2014 ( 30) -0.1719 ( 33)  0.1882 ( 35) -0.2983 ( 36)  0.2029 ( 37)
          -0.3432 ( 38)  0.1774 ( 39) -0.1107 ( 46)  0.1063 ( 48)  0.1727 ( 49)
           0.1049 ( 52) -0.1017 ( 54) -0.1702 ( 56)  0.1045 ( 58) -0.1049 ( 64)
 CRD 17=   0.1308 (  3) -0.1316 (  4)  0.1317 (  6) -0.1307 (  7) -0.1048 ( 10)
          -0.1013 ( 13)  0.1076 ( 14)  0.1048 ( 17) -0.1076 ( 18)  0.1013 ( 20)
           0.1170 ( 22)  0.1113 ( 23) -0.1113 ( 24) -0.1170 ( 25) -0.1450 ( 27)
          -0.2113 ( 28)  0.1724 ( 29)  0.1719 ( 30) -0.2072 ( 31)  0.2233 ( 33)
           0.2071 ( 34) -0.1717 ( 35) -0.1725 ( 36)  0.2114 ( 37)  0.1451 ( 38)
          -0.2233 ( 39)  0.1690 ( 40) -0.1716 ( 42) -0.1689 ( 43)  0.1715 ( 45)
          -0.1674 ( 47)  0.1751 ( 51)  0.1672 ( 53) -0.1751 ( 55) -0.1026 ( 72)
           0.1026 ( 75)
 CRD 18=  -0.1575 (  3)  0.1310 (  4)  0.1310 (  6) -0.1574 (  7) -0.1059 ( 22)
          -0.1059 ( 25)  0.2053 ( 27)  0.1128 ( 28) -0.1575 ( 29) -0.1471 ( 30)
           0.1371 ( 31) -0.1807 ( 33)  0.1371 ( 34) -0.1471 ( 35) -0.1576 ( 36)
           0.1129 ( 37)  0.2053 ( 38) -0.1808 ( 39) -0.2030 ( 40)  0.1652 ( 42)
          -0.2029 ( 43)  0.1652 ( 45)  0.1575 ( 47) -0.1595 ( 51)  0.1574 ( 53)
          -0.1595 ( 55) -0.2164 ( 72) -0.2164 ( 75) -0.1084 ( 76) -0.1280 ( 77)
          -0.1160 ( 78) -0.1280 ( 82) -0.1161 ( 83) -0.1084 ( 84)
 CRD 19=   0.1680 (  4)  0.2534 (  5) -0.1680 (  6) -0.2535 (  8) -0.1219 (  9)
           0.1219 ( 16) -0.1298 ( 27)  0.1684 ( 28)  0.2156 ( 29) -0.2261 ( 30)
           0.1225 ( 31)  0.1620 ( 33) -0.1225 ( 34)  0.2260 ( 35) -0.2155 ( 36)
          -0.1684 ( 37)  0.1298 ( 38) -0.1620 ( 39)  0.1037 ( 40) -0.1989 ( 41)
          -0.1037 ( 43)  0.1989 ( 44) -0.1842 ( 46) -0.1774 ( 49)  0.1842 ( 52)
           0.1774 ( 56)  0.1605 ( 71) -0.1605 ( 73)
 CRD 20=  -0.2260 (  1) -0.2259 (  2)  0.1357 (  3)  0.3182 (  5)  0.1357 (  7)
           0.3183 (  8)  0.1359 ( 13)  0.1360 ( 20) -0.1587 ( 27)  0.1704 ( 28)
           0.1634 ( 29)  0.1069 ( 32)  0.1634 ( 36)  0.1705 ( 37) -0.1587 ( 38)
          -0.1111 ( 41)  0.1316 ( 42) -0.1110 ( 44)  0.1316 ( 45) -0.1184 ( 46)
           0.1095 ( 50) -0.1184 ( 52)  0.1095 ( 57) -0.1596 ( 79) -0.1554 ( 80)
          -0.1479 ( 81) -0.1555 ( 85) -0.1597 ( 86) -0.1480 ( 87)
 CRD 21=   0.2637 (  1) -0.2638 (  2)  0.1372 (  5) -0.1368 (  8)  0.2065 ( 11)
          -0.2064 ( 15)  0.1130 ( 27) -0.1575 ( 31)  0.1576 ( 34) -0.1130 ( 38)
           0.1578 ( 48) -0.1050 ( 51) -0.1577 ( 54)  0.1049 ( 55) -0.1182 ( 58)
           0.1276 ( 62)  0.1182 ( 64) -0.1141 ( 66) -0.1276 ( 67)  0.1141 ( 69)
           0.2049 ( 76)  0.2090 ( 77)  0.2183 ( 78) -0.2089 ( 82) -0.2183 ( 83)
          -0.2048 ( 84)  0.1014 ( 91)  0.1107 ( 92) -0.1014 ( 94) -0.1107 ( 95)
 CRD 22=  -0.3350 (  5) -0.3355 (  8) -0.1839 ( 11)  0.1521 ( 12)  0.1685 ( 13)
           0.1396 ( 14) -0.1842 ( 15)  0.1395 ( 18)  0.1519 ( 19)  0.1682 ( 20)
          -0.1161 ( 27) -0.1116 ( 28)  0.1277 ( 30)  0.1276 ( 35) -0.1116 ( 37)
          -0.1160 ( 38) -0.1239 ( 48)  0.1176 ( 51) -0.1239 ( 54)  0.1175 ( 55)
          -0.1532 ( 59) -0.1533 ( 60) -0.1646 ( 61) -0.1438 ( 63) -0.1645 ( 65)
          -0.1438 ( 68)
 CRD 23=  -0.2814 (  5)  0.2807 (  8)  0.1190 ( 10) -0.2329 ( 12) -0.3476 ( 13)
          -0.1996 ( 14) -0.1191 ( 17)  0.1995 ( 18)  0.2328 ( 19)  0.3475 ( 20)
           0.1214 ( 27)  0.1613 ( 33) -0.1214 ( 38) -0.1613 ( 39) -0.1126 ( 49)
          -0.1681 ( 50)  0.1126 ( 56)  0.1680 ( 57)  0.1204 ( 79)  0.1037 ( 80)
           0.1095 ( 81) -0.1037 ( 85) -0.1205 ( 86) -0.1096 ( 87)
 CRD 24=  -0.1105 (  5) -0.1110 (  8) -0.2525 (  9) -0.2320 ( 10) -0.2735 ( 11)
          -0.2353 ( 12) -0.2569 ( 13) -0.2149 ( 14) -0.2723 ( 15) -0.2512 ( 16)
          -0.2304 ( 17) -0.2144 ( 18) -0.2350 ( 19) -0.2568 ( 20)  0.1137 ( 31)
           0.1066 ( 33)  0.1135 ( 34)  0.1067 ( 39) -0.1046 ( 46) -0.1104 ( 48)
          -0.1050 ( 50) -0.1042 ( 52) -0.1099 ( 54) -0.1050 ( 57)
 CRD 25=  -0.1430 (  3)  0.1432 (  7) -0.3078 (  9) -0.3623 ( 10) -0.2969 ( 11)
          -0.1346 ( 12) -0.1024 ( 13) -0.1496 ( 14)  0.2979 ( 15)  0.3086 ( 16)
           0.3630 ( 17)  0.1507 ( 18)  0.1357 ( 19)  0.1036 ( 20)  0.1153 ( 29)
           0.1214 ( 30) -0.1216 ( 35) -0.1155 ( 36) -0.1311 ( 47)  0.1313 ( 53)
 CRD 26=   0.1019 (  1)  0.1018 (  2) -0.1345 (  3)  0.1266 (  4)  0.2040 (  5)
           0.1262 (  6) -0.1344 (  7)  0.2047 (  8) -0.2210 (  9) -0.2579 ( 10)
          -0.1808 ( 11)  0.1970 ( 12)  0.1889 ( 13)  0.2329 ( 14) -0.1807 ( 15)
          -0.2212 ( 16) -0.2582 ( 17)  0.2323 ( 18)  0.1965 ( 19)  0.1887 ( 20)
 CRD 27=   0.1619 (  4) -0.2577 (  5) -0.1622 (  6)  0.2570 (  8)  0.2176 ( 12)
           0.2770 ( 14) -0.2777 ( 18) -0.2181 ( 19) -0.1003 ( 20) -0.1090 ( 58)
           0.1044 ( 61)  0.1063 ( 63)  0.1090 ( 64) -0.1046 ( 65) -0.1046 ( 66)
          -0.1067 ( 68)  0.1046 ( 69)  0.1466 ( 79)  0.1322 ( 80)  0.1448 ( 81)
          -0.1323 ( 85) -0.1469 ( 86) -0.1448 ( 87)  0.1454 ( 88)  0.1309 ( 89)
           0.1435 ( 93) -0.1311 ( 97) -0.1456 ( 98) -0.1436 ( 99)
 CRD 28=   0.2921 (  9) -0.2379 ( 11)  0.2998 ( 12) -0.2091 ( 13) -0.2312 ( 15)
           0.2849 ( 16)  0.2945 ( 19) -0.2063 ( 20) -0.1693 ( 46)  0.1145 ( 48)
          -0.1646 ( 49) -0.1656 ( 52)  0.1109 ( 54) -0.1618 ( 56) -0.1245 ( 58)
           0.1517 ( 61) -0.1262 ( 64)  0.1491 ( 65) -0.1283 ( 77)  0.1478 ( 81)
          -0.1270 ( 82)  0.1454 ( 87) -0.1257 ( 91)  0.1532 ( 93) -0.1242 ( 94)
           0.1508 ( 99)
 CRD 29=   0.4360 (  9) -0.3431 ( 11) -0.4493 ( 12)  0.2402 ( 13)  0.1928 ( 14)
          -0.1120 ( 19) -0.2160 ( 46)  0.1777 ( 48)  0.2240 ( 49) -0.1237 ( 50)
           0.1436 ( 61)  0.1264 ( 64) -0.1147 ( 69) -0.1113 ( 76)  0.1299 ( 77)
           0.1412 ( 81) -0.1022 ( 89) -0.1269 ( 90)  0.1143 ( 91)  0.1292 ( 93)
 CRD 30=  -0.1120 (  9) -0.3521 ( 15)  0.4492 ( 16)  0.1901 ( 18) -0.4349 ( 19)
           0.2295 ( 20) -0.2231 ( 52)  0.1824 ( 54)  0.2165 ( 56) -0.1183 ( 57)
           0.1213 ( 58)  0.1498 ( 65) -0.1120 ( 66)  0.1252 ( 82) -0.1080 ( 84)
           0.1461 ( 87)  0.1098 ( 94) -0.1234 ( 96) -0.1046 ( 97)  0.1343 ( 99)
 CRD 31=   0.2754 (  9) -0.2165 ( 11)  0.3390 ( 12) -0.1275 ( 13) -0.2226 ( 14)
           0.2180 ( 15) -0.2772 ( 16)  0.2243 ( 18) -0.3498 ( 19)  0.1350 ( 20)
          -0.1392 ( 46)  0.1162 ( 48) -0.1730 ( 49)  0.1073 ( 51)  0.1405 ( 52)
          -0.1168 ( 54) -0.1089 ( 55)  0.1787 ( 56)  0.1125 ( 76) -0.1143 ( 84)
           0.1092 ( 90) -0.1111 ( 96)
 CRD 32=  -0.1033 (  9)  0.3282 ( 10) -0.2490 ( 11)  0.2435 ( 13) -0.2946 ( 14)
          -0.2290 ( 15)  0.2936 ( 17) -0.2679 ( 18)  0.2139 ( 20) -0.1839 ( 47)
           0.1353 ( 48) -0.1324 ( 50)  0.1554 ( 51) -0.1652 ( 53)  0.1243 ( 54)
           0.1405 ( 55) -0.1162 ( 57) -0.1029 ( 63) -0.1064 ( 88)
 CRD 33=   0.1439 (  9) -0.3343 ( 10)  0.2043 ( 11) -0.2258 ( 13)  0.1998 ( 14)
          -0.2337 ( 15) -0.1564 ( 16)  0.3739 ( 17) -0.2228 ( 18)  0.2454 ( 20)
           0.1817 ( 47) -0.1132 ( 48)  0.1236 ( 50) -0.1114 ( 51) -0.2038 ( 53)
           0.1293 ( 54)  0.1235 ( 55) -0.1343 ( 57)  0.1167 ( 59) -0.1054 ( 60)
          -0.1030 ( 68) -0.1118 ( 80)  0.1233 ( 85) -0.1119 ( 89)  0.1228 ( 97)
 CRD 34=   0.1580 (  9) -0.3305 ( 10)  0.1485 ( 11)  0.2354 ( 13) -0.3327 ( 14)
           0.1357 ( 15)  0.1530 ( 16) -0.3130 ( 17) -0.3256 ( 18)  0.2271 ( 20)
           0.1638 ( 47) -0.1248 ( 50)  0.1631 ( 51)  0.1540 ( 53)  0.1590 ( 55)
          -0.1200 ( 57) -0.1024 ( 60) -0.1037 ( 78) -0.1124 ( 89) -0.1076 ( 97)
 CRD 35=   0.2412 ( 10) -0.1900 ( 11) -0.3137 ( 13)  0.2818 ( 14)  0.1930 ( 15)
          -0.2499 ( 17) -0.2987 ( 18)  0.3277 ( 20) -0.1403 ( 47)  0.1075 ( 48)
           0.1760 ( 50) -0.1606 ( 51)  0.1444 ( 53) -0.1092 ( 54)  0.1690 ( 55)
          -0.1834 ( 57)  0.1212 ( 62) -0.1263 ( 67)  0.1434 ( 78) -0.1176 ( 79)
          -0.1488 ( 83)  0.1199 ( 86)  0.1213 ( 92) -0.1260 ( 95)
 CRD 36=   0.2028 (  1)  0.2026 (  2) -0.1028 ( 10) -0.1069 ( 11) -0.1266 ( 13)
          -0.1020 ( 14) -0.1055 ( 15) -0.1037 ( 17) -0.1018 ( 18) -0.1267 ( 20)
           0.1190 ( 50)  0.1190 ( 57) -0.1221 ( 59) -0.1220 ( 60)  0.1419 ( 62)
          -0.1662 ( 63)  0.1419 ( 67) -0.1657 ( 68)  0.1301 ( 76)  0.1779 ( 78)
          -0.1912 ( 79) -0.1470 ( 80) -0.1090 ( 81)  0.1778 ( 83)  0.1300 ( 84)
          -0.1470 ( 85) -0.1906 ( 86) -0.1092 ( 87) -0.1936 ( 88) -0.1494 ( 89)
           0.1186 ( 90)  0.1664 ( 92) -0.1113 ( 93)  0.1664 ( 95)  0.1186 ( 96)
          -0.1494 ( 97) -0.1931 ( 98) -0.1116 ( 99)
 CRD 37=  -0.2340 (  1) -0.2319 (  2) -0.2745 (  5) -0.2765 (  8)  0.1162 ( 23)
           0.1167 ( 24)  0.2741 ( 32)  0.1657 ( 42)  0.1653 ( 45)  0.1820 ( 58)
           0.1940 ( 62)  0.1824 ( 64)  0.1740 ( 66)  0.1936 ( 67)  0.1745 ( 69)
          -0.1083 ( 72) -0.1082 ( 75)  0.1068 ( 77)  0.1184 ( 78)  0.1068 ( 82)
           0.1184 ( 83)  0.1068 ( 88)  0.1331 ( 89)  0.1141 ( 90)  0.1219 ( 91)
           0.1335 ( 92)  0.1319 ( 93)  0.1210 ( 94)  0.1327 ( 95)  0.1131 ( 96)
           0.1328 ( 97)  0.1064 ( 98)  0.1317 ( 99)
 CRD 38=   0.3450 (  1) -0.3464 (  2) -0.3066 (  5)  0.3051 (  8)  0.1703 ( 40)
          -0.1708 ( 43) -0.1178 ( 63)  0.1179 ( 68)  0.1000 ( 70)  0.1502 ( 71)
          -0.1504 ( 73) -0.1002 ( 74) -0.1738 ( 90) -0.1625 ( 91) -0.1494 ( 92)
           0.1633 ( 94)  0.1502 ( 95)  0.1745 ( 96)
 CRD 39=   0.3356 (  1) -0.3356 (  2)  0.2564 (  5) -0.2563 (  8)  0.1161 ( 58)
          -0.1255 ( 62)  0.1024 ( 63) -0.1161 ( 64)  0.1093 ( 66)  0.1255 ( 67)
          -0.1024 ( 68) -0.1093 ( 69)  0.1999 ( 88)  0.1900 ( 89) -0.1252 ( 90)
          -0.1320 ( 91) -0.1415 ( 92)  0.1605 ( 93)  0.1320 ( 94)  0.1415 ( 95)
           0.1252 ( 96) -0.1900 ( 97) -0.1999 ( 98) -0.1605 ( 99)
 CRD 40=   0.1068 (  4)  0.1445 (  5)  0.1068 (  6)  0.1447 (  8)  0.1723 (  9)
          -0.1895 ( 12) -0.1700 ( 13) -0.1065 ( 14)  0.1721 ( 16) -0.1065 ( 18)
          -0.1893 ( 19) -0.1700 ( 20) -0.1499 ( 27) -0.1600 ( 28)  0.1187 ( 30)
          -0.1277 ( 32) -0.1340 ( 33)  0.1186 ( 35) -0.1600 ( 37) -0.1499 ( 38)
          -0.1339 ( 39) -0.1329 ( 40)  0.1032 ( 42) -0.1327 ( 43)  0.1031 ( 45)
          -0.1574 ( 48)  0.1318 ( 49)  0.1460 ( 50)  0.1927 ( 51) -0.1573 ( 54)
           0.1926 ( 55)  0.1318 ( 56)  0.1459 ( 57) -0.1293 ( 72) -0.1295 ( 75)
           0.1035 ( 88)  0.1055 ( 89)  0.1055 ( 97)  0.1035 ( 98)
 CRD 41=  -0.1427 (  3) -0.1738 (  5)  0.1431 (  7)  0.1738 (  8)  0.1793 (  9)
           0.1151 ( 10)  0.1986 ( 11) -0.1558 ( 12) -0.1988 ( 15) -0.1794 ( 16)
          -0.1153 ( 17)  0.1558 ( 19)  0.1727 ( 29)  0.1600 ( 30)  0.1437 ( 31)
          -0.1440 ( 34) -0.1602 ( 35) -0.1730 ( 36)  0.1242 ( 42) -0.1242 ( 45)
          -0.1572 ( 46) -0.2013 ( 47) -0.1439 ( 48)  0.1349 ( 50)  0.1575 ( 52)
           0.2014 ( 53)  0.1441 ( 54) -0.1350 ( 57)  0.1181 ( 58) -0.1180 ( 64)
           0.1706 ( 72) -0.1704 ( 75)  0.1008 ( 90) -0.1009 ( 96)
 CRD 42=   0.2424 (  3)  0.1466 (  4)  0.1470 (  6)  0.2426 (  7) -0.1281 (  9)
          -0.1707 ( 10) -0.1835 ( 11) -0.1230 ( 13) -0.1234 ( 14) -0.1834 ( 15)
          -0.1281 ( 16) -0.1708 ( 17) -0.1237 ( 18) -0.1231 ( 20) -0.1104 ( 21)
          -0.1103 ( 26) -0.1053 ( 28) -0.1676 ( 29) -0.1494 ( 30) -0.1655 ( 31)
          -0.1035 ( 33) -0.1656 ( 34) -0.1494 ( 35) -0.1676 ( 36) -0.1056 ( 37)
          -0.1038 ( 39)  0.1961 ( 46)  0.1579 ( 47)  0.1542 ( 48)  0.1446 ( 49)
           0.1962 ( 52)  0.1577 ( 53)  0.1542 ( 54)  0.1448 ( 56)
 CRD 43=  -0.1011 (  1)  0.1011 (  2)  0.1712 (  3)  0.3049 (  4) -0.3048 (  6)
          -0.1709 (  7) -0.1220 ( 10) -0.1587 ( 12) -0.1379 ( 13) -0.1917 ( 14)
           0.1217 ( 17)  0.1915 ( 18)  0.1586 ( 19)  0.1378 ( 20) -0.1688 ( 27)
          -0.1541 ( 28) -0.1702 ( 33)  0.1541 ( 37)  0.1688 ( 38)  0.1701 ( 39)
           0.1203 ( 48)  0.1822 ( 49)  0.1906 ( 50)  0.1492 ( 51) -0.1201 ( 54)
          -0.1491 ( 55) -0.1821 ( 56) -0.1905 ( 57)
 CRD 44=  -0.1983 (  1) -0.1985 (  2) -0.1897 (  4)  0.2654 (  5) -0.1899 (  6)
           0.2651 (  8) -0.1913 ( 11)  0.1767 ( 14) -0.1913 ( 15)  0.1766 ( 18)
           0.1041 ( 32)  0.1031 ( 47) -0.1181 ( 48) -0.1728 ( 50)  0.1030 ( 53)
          -0.1180 ( 54) -0.1726 ( 57)  0.1513 ( 58) -0.1572 ( 61)  0.1515 ( 64)
          -0.1571 ( 65)  0.1251 ( 66)  0.1253 ( 69) -0.1066 ( 78)  0.1207 ( 79)
          -0.1064 ( 83)  0.1206 ( 86)  0.1182 ( 90)  0.1445 ( 91) -0.1158 ( 93)
           0.1443 ( 94)  0.1182 ( 96) -0.1156 ( 99)
 CRD 45=   0.1744 (  1) -0.1742 (  2) -0.2057 (  3)  0.2029 (  4)  0.1728 (  5)
          -0.2025 (  6)  0.2054 (  7) -0.1732 (  8)  0.1957 ( 10) -0.2230 ( 13)
          -0.1958 ( 17)  0.2229 ( 20) -0.1131 ( 42)  0.1131 ( 45) -0.1096 ( 46)
          -0.1149 ( 48)  0.1356 ( 49)  0.1111 ( 51)  0.1094 ( 52)  0.1150 ( 54)
          -0.1111 ( 55) -0.1354 ( 56) -0.1657 ( 58)  0.1313 ( 59) -0.1312 ( 60)
           0.1656 ( 64)  0.1064 ( 70) -0.1064 ( 74) -0.1005 ( 78)  0.1006 ( 83)
          -0.1884 ( 89)  0.1248 ( 91) -0.1216 ( 93) -0.1249 ( 94)  0.1884 ( 97)
           0.1218 ( 99)
 CRD 46=   0.1603 (  1)  0.1603 (  2) -0.2938 (  4) -0.2938 (  6)  0.2062 (  9)
          -0.1725 ( 10)  0.1236 ( 13)  0.2061 ( 16) -0.1726 ( 17)  0.1237 ( 20)
          -0.1294 ( 21) -0.1295 ( 26)  0.1129 ( 42)  0.1130 ( 45)  0.1720 ( 46)
          -0.1149 ( 47) -0.1135 ( 51)  0.1719 ( 52) -0.1150 ( 53) -0.1136 ( 55)
          -0.1290 ( 61) -0.1288 ( 65)  0.1396 ( 80)  0.1395 ( 85)  0.1063 ( 88)
           0.2748 ( 89)  0.2749 ( 97)  0.1062 ( 98)
 CRD 47=   0.2855 (  3)  0.2782 (  7) -0.2411 ( 12)  0.1057 ( 13)  0.1576 ( 14)
           0.1515 ( 18) -0.2347 ( 19)  0.1054 ( 20)  0.1186 ( 21)  0.1225 ( 26)
          -0.1735 ( 32) -0.1030 ( 40) -0.2004 ( 49)  0.1045 ( 51) -0.1955 ( 56)
          -0.2047 ( 58) -0.2087 ( 64) -0.1176 ( 72) -0.1206 ( 75)  0.1487 ( 76)
          -0.1233 ( 77) -0.1210 ( 82)  0.1441 ( 84)  0.2577 ( 90)  0.2493 ( 96)
 CRD 48=  -0.2069 (  1)  0.2065 (  2) -0.2383 (  3)  0.2469 (  7)  0.2050 ( 12)
          -0.1988 ( 14)  0.2035 ( 18) -0.2123 ( 19)  0.1301 ( 21) -0.1263 ( 26)
           0.1002 ( 40) -0.1033 ( 43) -0.1113 ( 47)  0.1600 ( 49) -0.1469 ( 51)
           0.1130 ( 53)  0.1501 ( 55) -0.1661 ( 56) -0.1377 ( 58)  0.1167 ( 62)
           0.1314 ( 64) -0.1198 ( 67) -0.1056 ( 72)  0.1019 ( 75) -0.1511 ( 76)
           0.1556 ( 84)  0.1063 ( 89) -0.2733 ( 90)  0.2811 ( 96) -0.1073 ( 97)
 CRD 49=   0.2500 (  9) -0.1721 ( 10) -0.1250 ( 13)  0.1163 ( 14) -0.2501 ( 16)
           0.1724 ( 17) -0.1165 ( 18)  0.1252 ( 20) -0.1018 ( 30)  0.1018 ( 35)
           0.1931 ( 46) -0.1259 ( 47) -0.1105 ( 50) -0.1932 ( 52)  0.1262 ( 53)
           0.1107 ( 57) -0.1143 ( 59)  0.1142 ( 60) -0.1930 ( 61)  0.1930 ( 65)
           0.1272 ( 71)  0.1464 ( 72) -0.1274 ( 73) -0.1464 ( 75) -0.1069 ( 78)
           0.1370 ( 80) -0.1702 ( 81)  0.1072 ( 83) -0.1372 ( 85)  0.1702 ( 87)
           0.1713 ( 89) -0.1359 ( 93) -0.1716 ( 97)  0.1358 ( 99)
 CRD 50=   0.1965 ( 10) -0.1695 ( 11)  0.1961 ( 13) -0.1795 ( 14) -0.1718 ( 15)
           0.1974 ( 17) -0.1805 ( 18)  0.1972 ( 20)  0.1529 ( 47) -0.1209 ( 48)
           0.1413 ( 50) -0.1392 ( 51)  0.1536 ( 53) -0.1224 ( 54) -0.1401 ( 55)
           0.1420 ( 57)  0.1616 ( 62)  0.1587 ( 63)  0.1626 ( 67)  0.1597 ( 68)
           0.2059 ( 78)  0.2003 ( 79)  0.2073 ( 83)  0.2017 ( 86)  0.1757 ( 88)
           0.1784 ( 92)  0.1794 ( 95)  0.1770 ( 98)
 CRD 51=  -0.1099 (  9) -0.1365 ( 10)  0.2551 ( 11) -0.1424 ( 13)  0.1385 ( 14)
          -0.2537 ( 15)  0.1102 ( 16)  0.1348 ( 17) -0.1370 ( 18)  0.1408 ( 20)
          -0.1122 ( 29)  0.1116 ( 36) -0.1061 ( 47)  0.1880 ( 48) -0.1031 ( 50)
           0.1065 ( 51)  0.1048 ( 53) -0.1870 ( 54) -0.1055 ( 55)  0.1019 ( 57)
           0.1608 ( 61) -0.1367 ( 62) -0.1556 ( 63) -0.1605 ( 65)  0.1354 ( 67)
           0.1542 ( 68) -0.1020 ( 71)  0.1023 ( 73) -0.1764 ( 78) -0.1930 ( 79)
           0.1234 ( 81)  0.1748 ( 83)  0.1913 ( 86) -0.1234 ( 87) -0.1659 ( 88)
          -0.1428 ( 92)  0.1505 ( 93)  0.1413 ( 95)  0.1645 ( 98) -0.1502 ( 99)
 CRD 52=  -0.1405 (  3)  0.1937 (  4)  0.1905 (  6) -0.1364 (  7)  0.1946 (  9)
          -0.1160 ( 11) -0.1223 ( 12) -0.1163 ( 15)  0.1929 ( 16) -0.1184 ( 19)
           0.1010 ( 24) -0.1144 ( 30)  0.1166 ( 32) -0.1136 ( 35)  0.1402 ( 40)
          -0.1207 ( 42)  0.1378 ( 43) -0.1177 ( 45)  0.1214 ( 46) -0.1154 ( 48)
           0.1209 ( 52) -0.1149 ( 54)  0.1780 ( 59)  0.1803 ( 60)  0.1015 ( 63)
           0.1305 ( 66)  0.1008 ( 68)  0.1344 ( 69) -0.1341 ( 71) -0.1333 ( 73)
           0.1036 ( 75)  0.1090 ( 80) -0.1540 ( 81)  0.1073 ( 85) -0.1538 ( 87)
          -0.1245 ( 91) -0.2415 ( 93) -0.1197 ( 94) -0.2397 ( 99)
 CRD 53=   0.2017 (  3) -0.1507 (  4)  0.1544 (  6) -0.2045 (  7)  0.1920 ( 12)
          -0.1944 ( 19)  0.1019 ( 22)  0.1062 ( 23) -0.1042 ( 24) -0.1036 ( 25)
          -0.1145 ( 27)  0.1155 ( 38) -0.1135 ( 40)  0.1477 ( 42)  0.1163 ( 43)
          -0.1501 ( 45)  0.1173 ( 49) -0.1185 ( 56)  0.1203 ( 59) -0.1168 ( 60)
           0.2041 ( 66) -0.2014 ( 69)  0.2242 ( 72) -0.2221 ( 75) -0.1003 ( 76)
           0.1584 ( 77) -0.1595 ( 82)  0.1022 ( 84)  0.2399 ( 91) -0.2424 ( 94)
          -0.1008 ( 99)
 CRD 54=  -0.1671 (  3)  0.1055 (  5) -0.1671 (  7)  0.1054 (  8) -0.1416 ( 12)
          -0.1416 ( 19) -0.1514 ( 21) -0.1513 ( 26)  0.1376 ( 27)  0.1031 ( 30)
           0.1143 ( 32)  0.1031 ( 35)  0.1376 ( 38)  0.1772 ( 41)  0.1772 ( 44)
          -0.1179 ( 49) -0.1179 ( 56) -0.1314 ( 59) -0.1312 ( 60)  0.2308 ( 66)
           0.2308 ( 69) -0.1067 ( 70) -0.1067 ( 74)  0.1275 ( 76) -0.1011 ( 77)
          -0.1010 ( 82)  0.1275 ( 84) -0.2454 ( 91) -0.1600 ( 92)  0.1698 ( 93)
          -0.2454 ( 94) -0.1601 ( 95)  0.1699 ( 99)
 CRD 55=   0.2139 (  1) -0.2131 (  2)  0.1198 (  4) -0.1200 (  6) -0.1131 ( 10)
          -0.1152 ( 14)  0.1136 ( 17)  0.1157 ( 18) -0.1612 ( 21)  0.1612 ( 26)
           0.1025 ( 31) -0.1030 ( 34) -0.1222 ( 41)  0.1221 ( 44) -0.1484 ( 59)
           0.1484 ( 60)  0.1345 ( 66) -0.1348 ( 69) -0.1114 ( 70)  0.1118 ( 74)
          -0.1794 ( 76)  0.1836 ( 80)  0.1801 ( 84) -0.1846 ( 85) -0.2165 ( 88)
           0.1299 ( 91)  0.2063 ( 92) -0.1535 ( 93) -0.1297 ( 94) -0.2071 ( 95)
           0.2175 ( 98)  0.1536 ( 99)
 CRD 56=  -0.1598 (  1) -0.1608 (  2)  0.1495 (  5)  0.1499 (  8) -0.1038 ( 10)
           0.1078 ( 11)  0.1188 ( 13)  0.1077 ( 15) -0.1033 ( 17)  0.1188 ( 20)
           0.1176 ( 23)  0.1179 ( 24) -0.1154 ( 28) -0.1010 ( 29)  0.1052 ( 31)
           0.1047 ( 34) -0.1010 ( 36) -0.1153 ( 37) -0.1019 ( 40) -0.1277 ( 42)
          -0.1019 ( 43) -0.1273 ( 45)  0.1800 ( 62) -0.1534 ( 63)  0.1802 ( 67)
          -0.1537 ( 68) -0.1712 ( 76) -0.2135 ( 77)  0.1933 ( 80)  0.1942 ( 81)
          -0.2134 ( 82) -0.1704 ( 84)  0.1924 ( 85)  0.1942 ( 87) -0.1859 ( 88)
           0.1760 ( 92)  0.1751 ( 95) -0.1847 ( 98)
 CRD 57=  -0.1150 (  4)  0.1806 (  5)  0.1151 (  6) -0.1803 (  8)  0.1122 ( 21)
           0.1425 ( 22) -0.1423 ( 25) -0.1121 ( 26) -0.1071 ( 40)  0.1069 ( 43)
           0.1449 ( 59) -0.1448 ( 60)  0.1670 ( 62) -0.2044 ( 63) -0.1666 ( 67)
           0.2041 ( 68)  0.2747 ( 70)  0.2338 ( 72) -0.2749 ( 74) -0.2337 ( 75)
          -0.1709 ( 77)  0.1670 ( 81)  0.1704 ( 82) -0.1666 ( 87)

 THE DETERMINANT OF THE G MATRIX IS 10**(   -21)


                     --------------------
                     INTERNAL COORDINATES
                     --------------------

                 - - ATOMS - -         COORDINATE      COORDINATE
 NO.   TYPE    I  J  K  L  M  N        (BOHR,RAD)       (ANG,DEG)
 ----------------------------------------------------------------
   1 STRETCH   1  3                     2.7002677       1.4289202
   2 STRETCH   1  2                     2.7005311       1.4290596
   3 STRETCH   2  4                     2.8835439       1.5259058
   4 STRETCH   2  5                     2.8822146       1.5252024
   5 STRETCH   2  8                     2.0689318       1.0948316
   6 STRETCH   3  7                     2.8827479       1.5254846
   7 STRETCH   3  6                     2.8838611       1.5260737
   8 STRETCH   3  9                     2.0687573       1.0947393
   9 STRETCH   4 12                     2.0702962       1.0955536
  10 STRETCH   4 11                     2.0695660       1.0951672
  11 STRETCH   4 10                     2.0714027       1.0961392
  12 STRETCH   5 15                     2.0687708       1.0947465
  13 STRETCH   5 14                     2.0704952       1.0956589
  14 STRETCH   5 13                     2.0693127       1.0950332
  15 STRETCH   6 16                     2.0712531       1.0960600
  16 STRETCH   6 18                     2.0705270       1.0956758
  17 STRETCH   6 17                     2.0690507       1.0948946
  18 STRETCH   7 21                     2.0689888       1.0948618
  19 STRETCH   7 20                     2.0685529       1.0946312
  20 STRETCH   7 19                     2.0702828       1.0955466
  21 BEND      1  3  9                  1.9195256     109.9807163
  22 BEND      1  2  5                  1.9599627     112.2975894
  23 BEND      1  3  6                  1.8580413     106.4579261
  24 BEND      1  2  4                  1.8579068     106.4502162
  25 BEND      1  3  7                  1.9599648     112.2977114
  26 BEND      1  2  8                  1.9193132     109.9685457
  27 BEND      2  5 15                  1.9386232     111.0749246
  28 BEND      2  5 14                  1.9379879     111.0385274
  29 BEND      2  4 10                  1.9372408     110.9957191
  30 BEND      2  4 12                  1.9276331     110.4452407
  31 BEND      2  4 11                  1.9449312     111.4363511
  32 BEND      2  1  3                  2.0438334     117.1030293
  33 BEND      2  5 13                  1.9416041     111.2457192
  34 BEND      3  6 17                  1.9449324     111.4364153
  35 BEND      3  6 18                  1.9273007     110.4261984
  36 BEND      3  6 16                  1.9371370     110.9897752
  37 BEND      3  7 19                  1.9379006     111.0335251
  38 BEND      3  7 20                  1.9383483     111.0591772
  39 BEND      3  7 21                  1.9416136     111.2462629
  40 BEND      4  2  8                  1.8817515     107.8164188
  41 BEND      4  2  5                  1.9195999     109.9849752
  42 BEND      5  2  8                  1.9227317     110.1644135
  43 BEND      6  3  9                  1.8818077     107.8196369
  44 BEND      6  3  7                  1.9193364     109.9698728
  45 BEND      7  3  9                  1.9225997     110.1568501
  46 BEND     10  4 11                  1.8962224     108.6455412
  47 BEND     10  4 12                  1.8618262     106.6747833
  48 BEND     11  4 12                  1.8934518     108.4867955
  49 BEND     13  5 14                  1.8997558     108.8479907
  50 BEND     13  5 15                  1.8749285     107.4254883
  51 BEND     14  5 15                  1.8681858     107.0391621
  52 BEND     16  6 17                  1.8965933     108.6667939
  53 BEND     16  6 18                  1.8617944     106.6729617
  54 BEND     17  6 18                  1.8935606     108.4930309
  55 BEND     19  7 20                  1.8683802     107.0503020
  56 BEND     19  7 21                  1.8998306     108.8522741
  57 BEND     20  7 21                  1.8750298     107.4312916
  58 TORSION   1  3  7 21               2.9858208     171.0749290
  59 TORSION   1  3  6 16              -1.0595513     -60.7078174
  60 TORSION   1  2  4 10              -1.0602181     -60.7460229
  61 TORSION   1  2  4 11               3.1069811     178.0169030
  62 TORSION   1  2  5 15              -1.2095217     -69.3004873
  63 TORSION   1  2  4 12               1.0010903      57.3582467
  64 TORSION   1  2  5 13               2.9859967     171.0850063
  65 TORSION   1  3  6 17               3.1072459     178.0320759
  66 TORSION   1  3  7 19               0.8670594      49.6788454
  67 TORSION   1  3  7 20              -1.2097465     -69.3133712
  68 TORSION   1  3  6 18               1.0014419      57.3783924
  69 TORSION   1  2  5 14               0.8672769      49.6913032
  70 TORSION   2  1  3  7               1.1210728      64.2327375
  71 TORSION   2  1  3  6              -3.0607263    -175.3666985
  72 TORSION   2  1  3  9              -1.0265854     -58.8190119
  73 TORSION   3  1  2  4              -3.0605432    -175.3562101
  74 TORSION   3  1  2  5               1.1210207      64.2297523
  75 TORSION   3  1  2  8              -1.0266519     -58.8228200
  76 TORSION   4  2  5 14              -1.1982736     -68.6560203
  77 TORSION   4  2  5 13               0.9204462      52.7376828
  78 TORSION   4  2  5 15               3.0081132     172.3521892
  79 TORSION   5  2  4 12               3.1285328     179.2517253
  80 TORSION   5  2  4 10               1.0672244      61.1474557
  81 TORSION   5  2  4 11              -1.0487617     -60.0896184
  82 TORSION   6  3  7 21               0.9202749      52.7278651
  83 TORSION   6  3  7 20               3.0078928     172.3395648
  84 TORSION   6  3  7 19              -1.1984865     -68.6682185
  85 TORSION   7  3  6 16               1.0678248      61.1818571
  86 TORSION   7  3  6 18               3.1288180     179.2680669
  87 TORSION   7  3  6 17              -1.0485633     -60.0782496
  88 TORSION   8  2  4 12              -1.0577633     -60.6053752
  89 TORSION   8  2  4 10              -3.1190717    -178.7096449
  90 TORSION   8  2  5 14               3.0130263     172.6336913
  91 TORSION   8  2  5 13              -1.1514392     -65.9726056
  92 TORSION   8  2  5 15               0.9362278      53.6419007
  93 TORSION   8  2  4 11               1.0481275      60.0532811
  94 TORSION   9  3  7 21              -1.1514356     -65.9723990
  95 TORSION   9  3  7 20               0.9361824      53.6393007
  96 TORSION   9  3  7 19               3.0129884     172.6315174
  97 TORSION   9  3  6 16              -3.1187509    -178.6912653
  98 TORSION   9  3  6 18              -1.0577578     -60.6050555
  99 TORSION   9  3  6 17               1.0480463      60.0486280

     ------------------------------------------
     THE POINT GROUP IS C1 , NAXIS= 1, ORDER= 1
     ------------------------------------------

     DIMENSIONS OF THE SYMMETRY SUBSPACES ARE
 A   =  217

 ..... DONE SETTING UP THE RUN .....
 STEP CPU TIME =     0.01 TOTAL CPU TIME =        0.0 (    0.0 MIN)
 TOTAL WALL CLOCK TIME=        0.0 SECONDS, CPU UTILIZATION IS  50.00%


          -----------------------------
          STATIONARY POINT LOCATION RUN
          -----------------------------

 OBTAINING INITIAL HESSIAN, HESS=GUESS   
 DIAGONAL GUESS HESSIAN IN INTERNAL COORDS IS
     1  0.3609     2  0.3608     3  0.3701     4  0.3706     5  0.3431
     6  0.3704     7  0.3700     8  0.3432     9  0.3426    10  0.3429
    11  0.3423    12  0.3432    13  0.3426    14  0.3430    15  0.3423
    16  0.3426    17  0.3431    18  0.3431    19  0.3433    20  0.3427
    21  0.2192    22  0.2433    23  0.2433    24  0.2433    25  0.2433
    26  0.2191    27  0.2241    28  0.2240    29  0.2240    30  0.2240
    31  0.2240    32  0.2377    33  0.2241    34  0.2240    35  0.2240
    36  0.2240    37  0.2240    38  0.2241    39  0.2241    40  0.2240
    41  0.2491    42  0.2241    43  0.2240    44  0.2491    45  0.2241
    46  0.2028    47  0.2028    48  0.2029    49  0.2029    50  0.2029
    51  0.2029    52  0.2029    53  0.2028    54  0.2029    55  0.2029
    56  0.2029    57  0.2029    58  0.2500    59  0.2500    60  0.2500
    61  0.2500    62  0.2500    63  0.2500    64  0.2500    65  0.2500
    66  0.2500    67  0.2500    68  0.2500    69  0.2500    70  0.2500
    71  0.2500    72  0.2500    73  0.2500    74  0.2500    75  0.2500
    76  0.2500    77  0.2500    78  0.2500    79  0.2500    80  0.2500
    81  0.2500    82  0.2500    83  0.2500    84  0.2500    85  0.2500
    86  0.2500    87  0.2500    88  0.2500    89  0.2500    90  0.2500
    91  0.2500    92  0.2500    93  0.2500    94  0.2500    95  0.2500
    96  0.2500    97  0.2500    98  0.2500    99  0.2500
 TRANSFORMING HESSIAN TO SYMMETRY COORDINATES

          PARAMETERS CONTROLLING GEOMETRY SEARCH ARE
          METHOD =QA                  UPHESS =BFGS    
          NNEG   =         0          NFRZ   =         3
          NSTEP  =        50          IFOLOW =         1
          HESS   =GUESS               RESTAR =         F
          IHREP  =         0          HSSEND =         F
          NPRT   =         0          NPUN   =         0
          OPTTOL = 5.000E-04          RMIN   = 1.500E-03
          RMAX   = 1.000E-01          RLIM   = 7.000E-02
          DXMAX  = 3.000E-01          PURIFY =         F
          MOVIE  =         F          TRUPD  =         T
          TRMAX  = 5.000E-01          TRMIN  = 5.000E-02
          ITBMAT =         5          STPT   =         F
          STSTEP = 1.000E-02          PROJCT=          F
          FROZEN COORD(S)=   1   2   3


      ***** EQUILIBRIUM GEOMETRY LOCATED *****
            (SUBJECT TO   3 CONSTRAINT(S))
 COORDINATES OF ALL ATOMS ARE (ANGS)
   ATOM   CHARGE       X              Y              Z
 ------------------------------------------------------------
 O           8.0   2.9138605245   2.2108090043   1.8061306876
 C           6.0   1.7769571721   1.4536388733   2.1744188320
 C           6.0   3.9641519391   1.5769670221   1.1014059430
 C           6.0   0.7791404238   2.4311670402   2.7765724497
 C           6.0   2.1135249718   0.3331028507   3.1543232489
 C           6.0   5.0865827838   2.5967158365   0.9829285999
 C           6.0   3.5265870747   1.0741959695  -0.2714850325
 H           1.0   1.3320827297   1.0203038106   1.2832809652
 H           1.0   4.3294156399   0.7363397195   1.6842687278
 H           1.0   1.1716410885   2.8633625859   3.6932541414
 H           1.0  -0.1509450732   1.9210210502   3.0089182839
 H           1.0   0.5648315177   3.2358261610   2.0806890077
 H           1.0   1.2001177607  -0.1663563205   3.4629708351
 H           1.0   2.6012181876   0.7379000958   4.0372597136
 H           1.0   2.7622307940  -0.4159960192   2.7145773244
 H           1.0   4.7739261142   3.4418183272   0.3753041777
 H           1.0   5.9566696790   2.1432111627   0.5175515566
 H           1.0   5.3737881541   2.9645254889   1.9626663174
 H           1.0   3.1151644982   1.8909207377  -0.8588265582
 H           1.0   2.7821393655   0.2890263763  -0.2032386770
 H           1.0   4.3835009057   0.6668285055  -0.7994821136


                     --------------------
                     INTERNAL COORDINATES
                     --------------------

                 - - ATOMS - -         COORDINATE      COORDINATE
 NO.   TYPE    I  J  K  L  M  N        (BOHR,RAD)       (ANG,DEG)
 ----------------------------------------------------------------
   1 STRETCH   1  3                     2.6734812       1.4147454
   2 STRETCH   1  2                     2.6734728       1.4147410
   3 STRETCH   2  4                     2.8744891       1.5211142
   4 STRETCH   2  5                     2.8839791       1.5261361
   5 STRETCH   2  8                     2.0526106       1.0861948
   6 STRETCH   3  7                     2.8839667       1.5261295
   7 STRETCH   3  6                     2.8744810       1.5211100
   8 STRETCH   3  9                     2.0525946       1.0861864
   9 STRETCH   4 12                     2.0507301       1.0851997
  10 STRETCH   4 11                     2.0521524       1.0859524
  11 STRETCH   4 10                     2.0537723       1.0868096
  12 STRETCH   5 15                     2.0487147       1.0841332
  13 STRETCH   5 14                     2.0538829       1.0868681
  14 STRETCH   5 13                     2.0519288       1.0858340
  15 STRETCH   6 16                     2.0537765       1.0868118
  16 STRETCH   6 18                     2.0507287       1.0851990
  17 STRETCH   6 17                     2.0521532       1.0859528
  18 STRETCH   7 21                     2.0519244       1.0858317
  19 STRETCH   7 20                     2.0487203       1.0841362
  20 STRETCH   7 19                     2.0538791       1.0868661
  21 BEND      1  3  9                  1.9061328     109.2133645
  22 BEND      1  2  5                  1.9637118     112.5123970
  23 BEND      1  3  6                  1.8611112     106.6338188
  24 BEND      1  2  4                  1.8611202     106.6343342
  25 BEND      1  3  7                  1.9636814     112.5106578
  26 BEND      1  2  8                  1.9061255     109.2129454
  27 BEND      2  5 15                  1.9593472     112.2623266
  28 BEND      2  5 14                  1.9252782     110.3103162
  29 BEND      2  4 10                  1.9310914     110.6433890
  30 BEND      2  4 12                  1.9307223     110.6222410
  31 BEND      2  4 11                  1.9226416     110.1592483
  32 BEND      2  1  3                  2.0788564     119.1096956
  33 BEND      2  5 13                  1.9121101     109.5558400
  34 BEND      3  6 17                  1.9226473     110.1595746
  35 BEND      3  6 18                  1.9307079     110.6214130
  36 BEND      3  6 16                  1.9311071     110.6442848
  37 BEND      3  7 19                  1.9252863     110.3107818
  38 BEND      3  7 20                  1.9593434     112.2621064
  39 BEND      3  7 21                  1.9121482     109.5580242
  40 BEND      4  2  8                  1.8886042     108.2090509
  41 BEND      4  2  5                  1.9415688     111.2436953
  42 BEND      5  2  8                  1.9009447     108.9161112
  43 BEND      6  3  9                  1.8886112     108.2094529
  44 BEND      6  3  7                  1.9415921     111.2450325
  45 BEND      7  3  9                  1.9009475     108.9162669
  46 BEND     10  4 11                  1.8919534     108.4009431
  47 BEND     10  4 12                  1.8936993     108.5009772
  48 BEND     11  4 12                  1.8927142     108.4445359
  49 BEND     13  5 14                  1.8942687     108.5335994
  50 BEND     13  5 15                  1.8763423     107.5064974
  51 BEND     14  5 15                  1.8947995     108.5640161
  52 BEND     16  6 17                  1.8919232     108.3992146
  53 BEND     16  6 18                  1.8937189     108.5021021
  54 BEND     17  6 18                  1.8927175     108.4447236
  55 BEND     19  7 20                  1.8947431     108.5607846
  56 BEND     19  7 21                  1.8942880     108.5347098
  57 BEND     20  7 21                  1.8763369     107.5061844
  58 TORSION   1  3  7 21               3.0659130     175.6638734
  59 TORSION   1  3  6 16              -1.1277472     -64.6151573
  60 TORSION   1  2  4 10              -1.1277132     -64.6132072
  61 TORSION   1  2  4 11               3.0637932     175.5424177
  62 TORSION   1  2  5 15              -1.1339712     -64.9717633
  63 TORSION   1  2  4 12               0.9714028      55.6572813
  64 TORSION   1  2  5 13               3.0659237     175.6644873
  65 TORSION   1  3  6 17               3.0637830     175.5418368
  66 TORSION   1  3  7 19               0.9816517      56.2445004
  67 TORSION   1  3  7 20              -1.1339657     -64.9714478
  68 TORSION   1  3  6 18               0.9713942      55.6567858
  69 TORSION   1  2  5 14               0.9817151      56.2481347
  70 TORSION   2  1  3  7               1.1101396      63.6063138
  71 TORSION   2  1  3  6              -3.0398856    -174.1726168
  72 TORSION   2  1  3  9              -1.0028918     -57.4614648
  73 TORSION   3  1  2  4              -3.0403242    -174.1977462
  74 TORSION   3  1  2  5               1.1097053      63.5814307
  75 TORSION   3  1  2  8              -1.0033375     -57.4870019
  76 TORSION   4  2  5 14              -1.1052975     -63.3288830
  77 TORSION   4  2  5 13               0.9789110      56.0874697
  78 TORSION   4  2  5 15               3.0622014     175.4512191
  79 TORSION   5  2  4 12               3.1184522     178.6741522
  80 TORSION   5  2  4 10               1.0193362      58.4036637
  81 TORSION   5  2  4 11              -1.0723427     -61.4407114
  82 TORSION   6  3  7 21               0.9789162      56.0877695
  83 TORSION   6  3  7 20               3.0622229     175.4524483
  84 TORSION   6  3  7 19              -1.1053450     -63.3316035
  85 TORSION   7  3  6 16               1.0192730      58.4000432
  86 TORSION   7  3  6 18               3.1184144     178.6719863
  87 TORSION   7  3  6 17              -1.0723820     -61.4429626
  88 TORSION   8  2  4 12              -1.0772090     -61.7195297
  89 TORSION   8  2  4 10               3.1068603     178.0099818
  90 TORSION   8  2  5 14               3.0977197     177.4862632
  91 TORSION   8  2  5 13              -1.1012571     -63.0973842
  92 TORSION   8  2  5 15               0.9820333      56.2663652
  93 TORSION   8  2  4 11               1.0151813      58.1656067
  94 TORSION   9  3  7 21              -1.1012765     -63.0984948
  95 TORSION   9  3  7 20               0.9820302      56.2661839
  96 TORSION   9  3  7 19               3.0976476     177.4821322
  97 TORSION   9  3  6 16               3.1068189     178.0076089
  98 TORSION   9  3  6 18              -1.0772250     -61.7204481
  99 TORSION   9  3  6 17               1.0151638      58.1646030

          INTERNUCLEAR DISTANCES (ANGS.)


 =====================================================
   GAMESS/COSab RESULTS
 =====================================================

   Dielectric Constant                  = INFTY
   Basic Grid Size                      =                 1082
   Number of Segments                   =                   92
   Number of Segments located on spheres=                  255
   Number of Segments of the cavity     =                  656
   Solvent Radius (rsolv)               = 1.40
   Outlying Charge Error Method         = double cavity

 =====================================================

  Total solvated Energy (a.u.)          =  -310.3042575602
  Total Energy corrected (a.u.)         =  -310.3041164546

  Outlying charge effect (a.u.)         =     0.0001411056
  Outlying charge effect (kcal/mol)     =     0.0885451620

  Dielectric Energy (a.u.)              =    -0.0064181091
  Dielectric energy corr. (a.u.)        =    -0.0062770035

  Sum of polarization charges           =     0.0282508137
  Sum of polarization charges(cor.)     =    -0.0282508137

  Total surface area of cavity (A**2)   =  158.11
  Total volume of cavity (A**3)         =  154.88

 =====================================================
 NPS=                   656
NR.  ATOM  (X, Y, Z)(a.u.)                  CHARGE(e)  AREA(A**2) SIGMA(e/A**2)
   1   1   6.620410   5.812693   5.991999   0.002330   0.103077   0.022606
   2   1   5.295712   7.404648   3.084739   0.006716   0.240512   0.027923
   3   1   6.246901   6.847515   5.112793   0.004607   0.171795   0.026814
   4   1   5.626452   7.363780   4.045432   0.002521   0.240512   0.010482
   5   1   4.905767   7.126929   2.185643   0.003487   0.171795   0.020295
   6   1   6.247957   6.364948   5.700263   0.003355   0.171795   0.019529
   7   1   6.498497   5.326587   6.287229   0.003157   0.103077   0.030629
   8   1   5.794133   7.093759   4.819900   0.002852   0.137436   0.020749
   9   1   4.572061   6.629202   1.494137   0.004358   0.137436   0.031711
  10   2   1.715563   4.047761   0.963464  -0.000004   0.046456  -0.000082
  11   2   0.425100   0.433600   3.533819  -0.000238   0.092912  -0.002560
  12   2   0.228311   0.751819   3.395676  -0.000069   0.046456  -0.001492
  13   3   9.184102   2.501793   5.426428  -0.000004   0.046456  -0.000079
  14   3  10.114656   0.332215   1.456393  -0.000238   0.092912  -0.002562
  15   3  10.343387   0.526960   1.718746  -0.000069   0.046456  -0.001493
  16   4   2.200958   8.298794   5.419234   0.001016   0.232280   0.004375
  17   4  -1.041579   6.610826   7.221253   0.000713   0.371649   0.001918
  18   4   0.189868   3.342994   8.574714   0.001490   0.371649   0.004010
  19   4  -0.641265   4.394992   2.120123   0.001162   0.418105   0.002778
  20   4  -1.275825   5.112456   2.704682   0.000668   0.185824   0.003595
  21   4  -0.923784   3.325589   2.613853   0.000443   0.232280   0.001906
  22   4  -1.424406   3.624451   3.021537   0.000649   0.232280   0.002792
  23   4   0.774697   4.004669   8.914387   0.001068   0.278737   0.003830
  24   4  -0.152206   6.717566   7.918405   0.001062   0.418105   0.002540
  25   4   2.362211   8.141049   6.202252   0.000983   0.232280   0.004233
  26   4  -1.865622   5.767911   3.918556   0.001704   0.371649   0.004585
  27   4  -2.103216   5.120331   4.141167   0.000904   0.232280   0.003893
  28   4   3.145130   7.981124   5.124116   0.001588   0.325193   0.004884
  29   4   1.121435   8.258177   6.105276   0.002246   0.511017   0.004395
  30   4  -0.212724   7.593565   6.811844   0.001033   0.418105   0.002470
  31   4  -0.974063   5.722310   7.897777   0.001238   0.371649   0.003332
  32   4  -0.308267   4.401383   8.575103   0.001291   0.278737   0.004631
  33   4  -1.549342   6.850350   4.994793   0.001198   0.371649   0.003223
  34   4  -1.289360   7.018459   6.130355   0.000975   0.464561   0.002098
  35   4  -1.738319   5.928486   6.728739   0.000736   0.325193   0.002263
  36   4   0.186688   4.700224   1.694494   0.000256   0.185824   0.001375
  37   4  -1.666574   4.528004   3.142924   0.001528   0.371649   0.004111
  38   4  -1.022538   2.556699   3.270053   0.000191   0.139368   0.001371
  39   4  -0.248872   5.304867   8.535839   0.001096   0.278737   0.003932
  40   4   0.696673   7.846670   7.008868   0.000859   0.278737   0.003084
  41   4   3.532248   7.683902   5.950589   0.000957   0.278737   0.003433
  42   4  -2.043317   5.968970   5.432581   0.001312   0.418105   0.003137
  43   4  -0.356013   7.867435   5.723980   0.000947   0.371649   0.002549
  44   4  -1.044872   4.805698   8.058221   0.000573   0.185824   0.003082
  45   5   3.438167  -2.999486   5.063082   0.000870   0.232280   0.003747
  46   5   4.434364  -1.794541   8.826891   0.000793   0.371649   0.002134
  47   5   2.534415   1.388112   9.363514   0.001531   0.371649   0.004120
  48   5   1.894887   0.741820   9.101738   0.001019   0.278737   0.003657
  49   5   3.314603  -1.907074   8.679003   0.001019   0.418105   0.002438
  50   5   2.660142  -2.868361   5.440989   0.001061   0.278737   0.003808
  51   5   1.156462  -1.095608   4.156149   0.000161   0.185824   0.000868
  52   5   7.308517  -0.735578   7.158606   0.001137   0.278737   0.004078
  53   5   7.177623  -0.351535   7.745826   0.000774   0.185824   0.004167
  54   5   2.079443  -1.710192   3.692612   0.000540   0.278737   0.001936
  55   5   2.766818  -2.567345   4.361241   0.001388   0.371649   0.003734
  56   5   3.720868  -3.124349   6.304921   0.002083   0.511017   0.004077
  57   5   4.155978  -2.654242   7.824989   0.001028   0.418105   0.002458
  58   5   3.890417  -0.985751   9.376149   0.001355   0.371649   0.003645
  59   5   2.911463   0.299622   9.566859   0.001356   0.278737   0.004864
  60   5   6.367298  -1.820942   7.587784   0.001188   0.371649   0.003196
  61   5   5.387212  -2.094844   8.179189   0.001068   0.464561   0.002298
  62   5   5.260465  -1.119558   9.062604   0.000876   0.325193   0.002695
  63   5   7.547680   0.277177   7.198292   0.000844   0.232280   0.003633
  64   5   2.917108  -0.585817   9.373673   0.001090   0.278737   0.003909
  65   5   3.377279  -2.853502   7.292254   0.000764   0.278737   0.002741
  66   5   1.865380  -2.084845   4.416226   0.000434   0.185824   0.002334
  67   5   6.390206  -1.037694   8.361411   0.001483   0.418105   0.003547
  68   5   3.021803  -2.112200   3.547865   0.000598   0.278737   0.002147
  69   5   5.029513  -2.813961   7.124694   0.000870   0.371649   0.002340
  70   5   3.807292  -0.101950   9.664106   0.000630   0.185824   0.003388
  71   6   9.328532   8.340065   3.412578   0.001016   0.232280   0.004375
  72   6  12.400968   7.290757   0.948912   0.000713   0.371649   0.001918
  73   6  10.833961   5.168442  -1.709530   0.001491   0.371649   0.004012
  74   6  11.597387   3.058475   4.489216   0.001161   0.418105   0.002778
  75   6  12.328232   3.883367   4.278146   0.000668   0.185824   0.003594
  76   6  11.766533   2.306584   3.554734   0.000443   0.232280   0.001906
  77   6  12.310240   2.697245   3.314080   0.000649   0.232280   0.002793
  78   6  10.340777   5.975745  -1.693808   0.001068   0.278737   0.003832
  79   6  11.550613   7.807011   0.402308   0.001062   0.418105   0.002540
  80   6   9.172401   8.576542   2.648572   0.000983   0.232280   0.004234
  81   6  13.025408   4.945507   3.480165   0.001704   0.371649   0.004585
  82   6  13.191672   4.447593   2.980361   0.000904   0.232280   0.003894
  83   6   8.345542   8.036183   3.556995   0.001587   0.325193   0.004881
  84   6  10.415057   8.489995   2.753290   0.002246   0.511017   0.004395
  85   6  11.681736   8.068755   1.784266   0.001033   0.418105   0.002470
  86   6  12.249102   6.822870  -0.055937   0.001238   0.371649   0.003332
  87   6  11.452629   6.044048  -1.241673   0.001291   0.278737   0.004632
  88   6  12.869286   6.428129   3.024694   0.001198   0.371649   0.003224
  89   6  12.663484   7.124353   2.098266   0.000975   0.464561   0.002099
  90   6  12.998439   6.382442   1.056612   0.000736   0.325193   0.002263
  91   6  10.799102   3.231139   5.030289   0.000255   0.185824   0.001374
  92   6  12.660118   3.521409   3.610941   0.001528   0.371649   0.004111
  93   6  11.793171   1.915469   2.617790   0.000191   0.139368   0.001371
  94   6  11.498539   6.830378  -0.793420   0.001096   0.278737   0.003932
  95   6  10.814337   8.488661   1.749890   0.000860   0.278737   0.003084
  96   6   7.950082   8.195909   2.697136   0.000957   0.278737   0.003433
  97   6  13.268794   5.791829   2.219699   0.001312   0.418105   0.003138
  98   6  11.824919   7.797971   2.872917   0.000947   0.371649   0.002549
  99   6  12.216458   6.078824  -0.618310   0.000573   0.185824   0.003082
 100   7   8.318505   3.165938  -3.715736   0.000994   0.232280   0.004280
 101   7   5.121910   0.967213  -3.795713   0.000794   0.371649   0.002138
 102   7   8.506785  -1.219294   0.063177   0.000806   0.325193   0.002477
 103   7   8.029020  -1.471567  -0.914660   0.000559   0.185824   0.003006
 104   7   7.675208  -1.482032   0.450523   0.000481   0.278737   0.001726
 105   7   6.916793  -1.659069   0.269149   0.000336   0.185824   0.001809
 106   7   3.177912   2.784688  -1.761948   0.000692   0.185824   0.003723
 107   7   4.910089   2.080475  -3.860346   0.001150   0.418105   0.002751
 108   7   7.839111   3.718573  -3.683606   0.000998   0.232280   0.004295
 109   7   7.139568  -1.358826  -2.117629   0.001522   0.371649   0.004096
 110   7   6.575311  -1.554849  -1.707074   0.000871   0.232280   0.003751
 111   7   8.625459   3.936308  -3.121439   0.000480   0.139368   0.003441
 112   7   7.499575   2.554531  -4.161506   0.002102   0.464561   0.004525
 113   7   6.198342   1.646010  -4.243955   0.001110   0.418105   0.002656
 114   7   4.180992   1.212707  -3.242441   0.001305   0.371649   0.003512
 115   7   3.245337   1.929203  -2.120797   0.001292   0.278737   0.004634
 116   7   9.049597   3.392876  -3.108593   0.000465   0.139368   0.003338
 117   7   6.873568  -0.450946  -3.356577   0.001051   0.371649   0.002827
 118   7   6.115273   0.311962  -3.834397   0.001023   0.464561   0.002202
 119   7   4.966159   0.039355  -3.240350   0.000783   0.325193   0.002409
 120   7   9.166718  -0.689570   0.278438   0.000147   0.185824   0.000794
 121   7   7.265303  -1.697398  -0.686492   0.001451   0.371649   0.003905
 122   7   3.717306   2.084489  -2.878745   0.001093   0.278737   0.003923
 123   7   6.469279   2.571459  -4.248403   0.000897   0.278737   0.003218
 124   7   8.130213   4.433938  -3.034156   0.000423   0.139368   0.003038
 125   7   5.936720  -0.807738  -2.901039   0.001354   0.418105   0.003239
 126   7   7.163226   1.066556  -4.133427   0.000884   0.371649   0.002379
 127   7   3.600154   1.100112  -2.520719   0.000568   0.185824   0.003055
 128   8   1.066266   1.102515   0.622802  -0.002373   0.392554  -0.006044
 129   8   0.298026   1.687212   1.399354  -0.000854   0.255160  -0.003345
 130   8   0.799047   0.199960   2.114581  -0.000911   0.274788  -0.003315
 131   8   1.297499   2.938371   0.547131  -0.000830   0.196277  -0.004226
 132   8   0.456307   0.842461   1.644695  -0.001369   0.353299  -0.003874
 133   8   1.434624  -0.037678   1.425690  -0.001550   0.314043  -0.004935
 134   8   0.887198   2.193884   0.606448  -0.001600   0.372926  -0.004291
 135   9   9.473324  -0.328527   4.369226  -0.002373   0.392554  -0.006044
 136   9  10.326773   0.450999   3.923065  -0.000854   0.255160  -0.003346
 137   9   9.675397  -0.476644   2.623190  -0.000911   0.274788  -0.003316
 138   9   9.457017   1.284105   5.279563  -0.000829   0.196277  -0.004226
 139   9  10.077561  -0.164039   3.324341  -0.001369   0.353299  -0.003875
 140   9   8.996869  -0.925566   3.145750  -0.001550   0.314043  -0.004934
 141   9   9.778662   0.606014   4.876000  -0.001600   0.372926  -0.004291
 142  10   2.773377   6.764306   8.951734  -0.002656   0.490692  -0.005414
 143  10   3.050252   7.649333   7.549891  -0.000867   0.353299  -0.002454
 144  10   4.215188   6.256997   8.125938  -0.001555   0.314043  -0.004950
 145  10   1.630267   5.155964   9.351827  -0.000953   0.392554  -0.002428
 146  10   1.376179   7.107396   8.546116  -0.000959   0.372926  -0.002571
 147  10   3.786751   7.110352   7.800164  -0.001670   0.412182  -0.004053
 148  10   3.673312   5.982788   8.870999  -0.002109   0.372926  -0.005655
 149  10   2.662486   5.394195   9.394546  -0.002458   0.471065  -0.005218
 150  10   1.400637   6.246051   9.141642  -0.001310   0.412182  -0.003178
 151  10   2.187313   7.583047   8.126598  -0.001093   0.372926  -0.002930
 152  11  -2.567138   2.974305   6.316823  -0.002691   0.451437  -0.005961
 153  11  -1.629433   1.822423   4.706124  -0.002003   0.412182  -0.004859
 154  11  -2.166603   2.882034   4.294684  -0.000776   0.314043  -0.002472
 155  11  -2.644262   4.281362   5.900841  -0.001182   0.372926  -0.003169
 156  11  -1.764053   3.428858   7.637370  -0.001217   0.392554  -0.003100
 157  11  -2.366660   2.382548   5.303667  -0.002075   0.392554  -0.005286
 158  11  -2.615968   3.715301   4.914281  -0.001500   0.451437  -0.003322
 159  11  -2.340493   4.069033   6.958238  -0.001555   0.431809  -0.003602
 160  11  -1.493733   2.489390   7.495244  -0.002250   0.471065  -0.004777
 161  11  -1.906405   1.889471   6.299907  -0.002712   0.412182  -0.006579
 162  12   0.406899   7.953716   2.442847  -0.003155   0.549575  -0.005740
 163  12  -0.892367   6.637667   2.545873  -0.000768   0.353299  -0.002173
 164  12   0.664241   6.206348   1.510324  -0.001477   0.372926  -0.003961
 165  12   1.580840   8.517167   3.916380  -0.000885   0.372926  -0.002374
 166  12  -0.412763   8.073109   4.029184  -0.001052   0.412182  -0.002552
 167  12  -0.133145   6.695544   1.868775  -0.001588   0.431809  -0.003679
 168  12   1.360026   7.300251   1.800215  -0.002748   0.510320  -0.005384
 169  12   1.906814   8.154369   2.849934  -0.002465   0.529948  -0.004651
 170  12   0.544002   8.509850   3.773573  -0.001810   0.471065  -0.003842
 171  12  -0.782352   7.514136   3.122261  -0.001713   0.471065  -0.003636
 172  13   0.525450  -1.836439   7.370042  -0.002699   0.451437  -0.005978
 173  13   1.322565  -2.527781   6.051884  -0.000946   0.353299  -0.002677
 174  13   0.263124  -1.154630   5.399540  -0.001692   0.392554  -0.004310
 175  13   0.866955  -0.300779   8.562039  -0.001420   0.392554  -0.003618
 176  13   1.797885  -2.239467   7.996010  -0.001113   0.372926  -0.002986
 177  13   0.601863  -1.993122   5.879835  -0.001695   0.412182  -0.004113
 178  13  -0.072466  -1.057303   6.620296  -0.002540   0.392554  -0.006471
 179  13   0.185273  -0.693279   7.790722  -0.002642   0.431809  -0.006119
 180  13   1.354499  -1.373297   8.563823  -0.001659   0.471065  -0.003521
 181  13   1.527870  -2.597306   7.069068  -0.001362   0.372926  -0.003653
 182  14   5.997796   1.978807   9.755917  -0.002694   0.490692  -0.005490
 183  14   7.243382   1.851328   8.267835  -0.001307   0.353299  -0.003700
 184  14   6.468131   0.529415   9.325336  -0.001068   0.392554  -0.002721
 185  14   4.552966   1.244563  10.054428  -0.000935   0.372926  -0.002508
 186  14   6.558523   2.876559   8.696616  -0.002743   0.490692  -0.005591
 187  14   6.973678   1.284427   8.966203  -0.001491   0.431809  -0.003452
 188  14   5.488312   0.686764   9.911053  -0.001473   0.451437  -0.003263
 189  14   4.444003   2.221155   9.894098  -0.001937   0.451437  -0.004291
 190  14   5.574509   3.007692   9.360872  -0.002445   0.412182  -0.005932
 191  15   6.426215  -2.680851   4.134951  -0.002896   0.392554  -0.007377
 192  15   7.214835  -1.962237   5.949489  -0.000884   0.314043  -0.002814
 193  15   4.804893  -3.119580   4.483419  -0.000635   0.314043  -0.002022
 194  15   6.179292  -2.853617   6.046321  -0.000896   0.372926  -0.002402
 195  15   5.268611  -2.752785   3.658447  -0.002238   0.392554  -0.005701
 196  15   5.644282  -3.205324   5.081202  -0.001758   0.451437  -0.003894
 197  15   6.958896  -2.521276   5.134926  -0.002436   0.431809  -0.005642
 198  16   8.681548   8.662626  -0.413425  -0.002656   0.490692  -0.005413
 199  16   8.470341   8.837433   1.244867  -0.000866   0.353299  -0.002452
 200  16   7.167100   8.008079   0.130757  -0.001554   0.314043  -0.004947
 201  16   9.639074   7.291440  -1.534376  -0.000952   0.392554  -0.002426
 202  16  10.097142   8.616486   0.064451  -0.000959   0.372926  -0.002570
 203  16   7.683176   8.562350   0.797354  -0.001669   0.412182  -0.004049
 204  16   7.694200   8.041917  -0.672335  -0.002109   0.372926  -0.005655
 205  16   8.643584   7.642346  -1.434782  -0.002458   0.471065  -0.005217
 206  16   9.988884   8.130615  -0.857165  -0.001309   0.412182  -0.003177
 207  16   9.335720   8.940338   0.677259  -0.001092   0.372926  -0.002929
 208  17  13.462780   3.490763   0.053675  -0.002691   0.451437  -0.005961
 209  17  12.350678   1.850600   0.988322  -0.002003   0.412182  -0.004859
 210  17  12.996436   2.535069   1.822052  -0.000776   0.314043  -0.002472
 211  17  13.680757   4.445530   1.017154  -0.001182   0.372926  -0.003169
 212  17  12.756717   4.587816  -0.891502  -0.001217   0.392554  -0.003100
 213  17  13.165332   2.530533   0.691120  -0.002075   0.392554  -0.005286
 214  17  13.558010   3.499873   1.637793  -0.001500   0.451437  -0.003322
 215  17  13.384587   4.775600  -0.011818  -0.001555   0.431809  -0.003602
 216  17  12.374094   3.725816  -1.185491  -0.002250   0.471065  -0.004777
 217  17  12.679134   2.603383  -0.406951  -0.002712   0.412182  -0.006580
 218  18  10.983691   6.468769   5.853035  -0.003155   0.549575  -0.005741
 219  18  12.121988   5.201826   5.125142  -0.000768   0.353299  -0.002173
 220  18  10.496483   4.532256   5.893803  -0.001465   0.372926  -0.003930
 221  18   9.926695   7.775189   4.831791  -0.000886   0.372926  -0.002376
 222  18  11.856836   7.200594   4.472957  -0.001052   0.412182  -0.002552
 223  18  11.355704   5.033579   5.775322  -0.001590   0.431809  -0.003683
 224  18   9.942449   5.711313   6.153896  -0.002751   0.510320  -0.005392
 225  18   9.529970   7.007464   5.624505  -0.002468   0.529948  -0.004656
 226  18  10.950990   7.581890   4.926317  -0.001810   0.471065  -0.003843
 227  18  12.132137   6.250749   5.014768  -0.001713   0.471065  -0.003637
 228  19   4.901678   5.135406  -3.242975  -0.002454   0.451437  -0.005436
 229  19   6.745066   4.915059  -3.493306  -0.001094   0.392554  -0.002786
 230  19   4.654186   5.695502  -1.513206  -0.001585   0.294415  -0.005384
 231  19   3.637897   4.077770  -2.473240  -0.000997   0.372926  -0.002675
 232  19   5.038390   3.730090  -3.923103  -0.000993   0.412182  -0.002408
 233  19   6.091047   5.621194  -2.964435  -0.002078   0.392554  -0.005293
 234  19   5.104644   5.790660  -2.334770  -0.002097   0.372926  -0.005624
 235  19   3.927543   4.997836  -2.031718  -0.001924   0.412182  -0.004668
 236  19   4.184785   4.084791  -3.319001  -0.001554   0.431809  -0.003599
 237  19   5.893524   4.397412  -3.937237  -0.001326   0.412182  -0.003217
 238  20   3.749145  -1.392557  -0.420678  -0.002652   0.372926  -0.007112
 239  20   5.465075  -1.894863  -0.201583  -0.000954   0.294415  -0.003240
 240  20   4.686738  -1.368782  -1.813137  -0.000915   0.333671  -0.002741
 241  20   3.145372   0.119097  -1.563775  -0.000852   0.314043  -0.002714
 242  20   4.504199  -1.747119   0.072507  -0.001908   0.274788  -0.006942
 243  20   4.893681  -1.798780  -1.019594  -0.001344   0.372926  -0.003603
 244  20   3.814299  -0.804666  -1.842672  -0.001611   0.431809  -0.003731
 245  20   3.202089  -0.670372  -0.958947  -0.001664   0.274788  -0.006056
 246  21   9.858286   0.088778  -2.988471  -0.002698   0.451437  -0.005977
 247  21   8.948243  -1.028232  -2.108131  -0.000950   0.353299  -0.002688
 248  21  10.142446  -0.238171  -0.932038  -0.001695   0.392554  -0.004317
 249  21   9.733524   2.027030  -3.339677  -0.001419   0.392554  -0.003615
 250  21   8.565740   0.167748  -3.693062  -0.001115   0.372926  -0.002990
 251  21   9.721501  -0.719458  -1.731829  -0.001696   0.412182  -0.004116
 252  21  10.521854   0.364492  -1.983316  -0.002540   0.392554  -0.006470
 253  21  10.342135   1.249228  -2.851525  -0.002642   0.431809  -0.006118
 254  21   9.123739   1.138698  -3.816145  -0.001659   0.471065  -0.003522
 255  21   8.765322  -0.602037  -3.039015  -0.001359   0.372926  -0.003644
 256   1   4.984501   6.725430   5.749984   0.001320   0.054038   0.024431
 257   4   4.327913   6.942510   6.159572   0.000309   0.054038   0.005727
 258  10   4.266866   6.901119   6.454318   0.000070   0.054038   0.001297
 259   1   4.051254   7.345511   3.510813   0.001552   0.060080   0.025824
 260   4   3.346502   7.588215   3.812320   0.000379   0.060080   0.006316
 261  12   3.116472   7.652993   3.625156   0.000101   0.060080   0.001685
 262   4   4.258691   7.269477   5.632006   0.002043   0.337682   0.006051
 263   4   3.705842   7.634782   4.332938   0.002185   0.337682   0.006471
 264   1   4.985967   7.167393   4.475254   0.012138   0.621014   0.019546
 265   1   6.390223   7.429234   2.479819   0.001324   0.054035   0.024501
 266   6   7.079189   7.730294   2.195792   0.000310   0.054035   0.005730
 267  16   7.143391   7.820889   1.912971   0.000070   0.054035   0.001297
 268   1   7.325304   6.846679   4.728391   0.001524   0.060081   0.025369
 269   6   8.061997   7.115451   4.550849   0.000378   0.060081   0.006284
 270  18   8.292577   7.060320   4.740410   0.000100   0.060081   0.001672
 271   6   7.171156   7.770338   2.812222   0.002051   0.337696   0.006072
 272   6   7.725650   7.435934   4.118961   0.002162   0.337696   0.006402
 273   1   6.404133   7.238652   3.815436   0.012247   0.621040   0.019720
 274   1   5.668931   4.772340   6.838783   0.003667   0.295492   0.012410
 275  10   4.880569   4.992389   7.467554   0.000168   0.295492   0.000569
 276  14   5.486031   4.086735   7.612010   0.000225   0.295492   0.000760
 277  10   4.744304   5.876823   7.439022   0.000047   0.278062   0.000170
 278  10   4.454152   6.752692   6.868279   0.000401   0.278062   0.001441
 279   1   5.688736   6.056468   6.203395   0.009781   0.686119   0.014256
 280  12   2.975560   7.748267   3.212348   0.000520   0.236163   0.002202
 281  12   2.600675   7.163207   2.189221   0.000492   0.475230   0.001036
 282   1   4.198689   7.177805   2.549696   0.009335   0.581630   0.016051
 283   1   3.760094   6.453789   1.500246   0.005767   0.293037   0.019680
 284  14   6.384340   3.563432   7.755684   0.000299   0.268975   0.001110
 285   1   6.537656   4.621804   6.687453   0.005613   0.335378   0.016735
 286   1   5.512879   6.282325   0.640677   0.003749   0.295492   0.012686
[...]
 397  10   1.646747   7.677438   7.553982  -0.000272   0.149833  -0.001818
 398  10   0.836929   6.909140   8.262977  -0.000342   0.149833  -0.002285
 399  10   0.745006   5.731525   8.857562  -0.000240   0.149833  -0.001604
 400  10   1.407562   4.613280   9.101093  -0.000350   0.149833  -0.002337
 401   4   3.433701   7.533251   6.459165   0.000033   0.149201   0.000220
 402   4   2.056336   7.906135   6.873133   0.000055   0.149201   0.000366
 403   4   0.863334   7.419815   7.613258  -0.000127   0.149201  -0.000851
 404   4   0.329507   6.267844   8.384971  -0.000127   0.149201  -0.000852
 405   4   0.667319   4.908707   8.881131   0.000062   0.149201   0.000419
 406   4   1.444293   3.991548   8.980861   0.000016   0.082806   0.000194
 407   4   0.099838   2.218471   7.939789  -0.000072   0.086447  -0.000831
 408  11  -0.167833   2.163956   7.802483  -0.000170   0.086447  -0.001968
 409  13   0.438883   1.299686   7.919974  -0.000076   0.086447  -0.000873
 410  11  -0.619556   2.754398   7.954963  -0.000136   0.071155  -0.001909
 411  11  -1.178707   3.752515   7.908195  -0.000366   0.159017  -0.002299
 412  11  -1.874101   4.674064   7.147919  -0.000451   0.159017  -0.002833
 413  11  -2.316774   4.893109   5.856832  -0.000481   0.159017  -0.003025
 414  11  -2.312325   4.313456   4.601911  -0.000350   0.159017  -0.002201
 415  11  -1.862710   3.189659   3.934250  -0.000483   0.159017  -0.003039
 416  11  -1.304097   2.191100   3.977892  -0.000187   0.071155  -0.002631
 417   4  -0.486631   3.313130   8.149247  -0.000111   0.155005  -0.000714
 418   4  -1.283058   4.587353   7.758889  -0.000204   0.155005  -0.001319
 419   4  -1.960411   5.266210   6.537961  -0.000272   0.155005  -0.001757
 420   4  -2.221233   5.051584   5.022630  -0.000071   0.155005  -0.000456
 421   4  -1.950984   4.037726   3.878350  -0.000080   0.155005  -0.000518
 422   4  -1.268343   2.669870   3.607627  -0.000369   0.155005  -0.002381
 423  12   0.561265   5.556143   1.593893  -0.000104   0.068741  -0.001511
 424  12  -0.420045   5.720190   2.085791  -0.000332   0.152556  -0.002179
 425  12  -1.147825   6.340608   3.027317  -0.000263   0.152556  -0.001726
 426  12  -1.059504   7.229951   4.028477  -0.000289   0.152556  -0.001892
 427  12  -0.191463   8.021877   4.676868  -0.000350   0.152556  -0.002292
 428  12   1.098729   8.390173   4.705403  -0.000217   0.152556  -0.001422
 429  12   2.279612   8.183128   4.102326  -0.000280   0.152556  -0.001839
 430   4   0.150480   5.178500   1.804891  -0.000251   0.150737  -0.001666
 431   4  -1.018971   5.603339   2.656286   0.000007   0.150737   0.000047
 432   4  -1.398213   6.498728   3.808429   0.000091   0.150737   0.000606
 433   4  -0.831027   7.495833   4.786723  -0.000106   0.150737  -0.000701
 434   4   0.448950   8.183922   5.188185  -0.000047   0.150737  -0.000314
 435   4   1.914462   8.279554   4.847443   0.000108   0.150737   0.000720
 436   4   2.866500   7.936230   4.157260   0.000141   0.083982   0.001678
 437  13   0.744006   0.860027   8.293046  -0.000042   0.075639  -0.000555
 438   4   0.258898   2.221476   8.224347   0.000291   0.107242   0.002713
 439   5   2.931762  -0.939354   2.409685  -0.000367   0.205914  -0.001783
 440   8   2.675770  -0.548882   1.819338  -0.000998   0.205914  -0.004846
 441  20   3.332911  -0.767949   1.209484  -0.001006   0.205914  -0.004884
 442   8   1.993655  -0.498791   2.174351  -0.000729   0.182632  -0.003994
 443   8   1.148109  -0.145124   2.657391  -0.000675   0.182632  -0.003695
 444   5   1.801318  -0.952486   3.280894  -0.000334   0.501981  -0.000666
 445   5   7.620335   1.411212   6.833812   0.000135   0.036007   0.003761
 446   9   8.166625   1.506581   6.044066   0.000112   0.036007   0.003101
 447  14   7.501761   1.517558   7.090766   0.000036   0.036007   0.001014
 448   5   7.649974  -0.612194   6.036059  -0.000007   0.080490  -0.000089
 449   9   8.253528  -0.306458   5.343756  -0.000288   0.080490  -0.003580
 450  15   7.657985  -0.822239   5.815575  -0.000242   0.080490  -0.003008
 451   9   8.783369   1.196458   5.665712  -0.000590   0.244261  -0.002416
 452   9   8.765649   0.167773   5.356833  -0.000886   0.244261  -0.003629
 453   5   7.828461   0.395093   6.521442   0.001516   0.680185   0.002229
 454   5   3.005008   2.571497   9.127427  -0.000017   0.087429  -0.000193
 455  10   2.713757   3.511627   8.994870   0.000063   0.087429   0.000723
 456  14   3.291876   2.618779   9.223400  -0.000161   0.087429  -0.001843
 457  10   2.216374   3.927521   9.120357   0.000023   0.071029   0.000324
 458   5   2.701683   2.547591   9.226678   0.000310   0.100839   0.003070
 459  13   0.678816  -1.045649   4.821461  -0.000186   0.070988  -0.002618
 460  13   1.283356  -1.969920   5.114836  -0.000441   0.158575  -0.002778
 461  13   1.984983  -2.651969   6.087514  -0.000407   0.158575  -0.002568
 462  13   2.374923  -2.549702   7.407007  -0.000465   0.158575  -0.002935
 463  13   2.282623  -1.707848   8.496197  -0.000474   0.158575  -0.002992
 464  13   1.748454  -0.494616   8.878695  -0.000306   0.158575  -0.001929
 465  13   1.145139   0.433542   8.595235  -0.000197   0.070988  -0.002780
 466   5   1.146607  -1.332156   4.564831  -0.000376   0.154705  -0.002433
 467   5   1.984464  -2.433042   5.262880  -0.000185   0.154705  -0.001199
 468   5   2.633991  -2.778035   6.626816  -0.000101   0.154705  -0.000654
 469   5   2.811099  -2.216244   8.060082  -0.000265   0.154705  -0.001713
 470   5   2.438324  -0.993383   8.935797  -0.000107   0.154705  -0.000694
 471   5   1.678710   0.355694   8.870943  -0.000124   0.154705  -0.000799
 472  14   3.533904   1.995204   9.570890  -0.000111   0.067655  -0.001635
 473  14   3.943288   1.009652   9.796597  -0.000241   0.149499  -0.001612
 474  14   4.910301   0.119864   9.670393  -0.000285   0.149499  -0.001905
 475  14   6.089525  -0.090195   9.115351  -0.000343   0.149499  -0.002294
 476  14   7.013423   0.462758   8.351531  -0.000206   0.149499  -0.001377
 477  14   7.367967   1.312228   7.766254  -0.000057   0.067655  -0.000846
 478   5   3.296897   1.453351   9.537305  -0.000025   0.148988  -0.000169
 479   5   4.089078   0.206546   9.671346  -0.000086   0.148988  -0.000579
 480   5   5.359389  -0.444430   9.268131  -0.000110   0.148988  -0.000736
 481   5   6.604181  -0.241478   8.487525  -0.000019   0.148988  -0.000126
 482   5   7.329921   0.734934   7.639021  -0.000003   0.148988  -0.000018
 483   5   4.107071  -1.766972   2.892920  -0.000155   0.118872  -0.001305
 484  15   4.394974  -1.871009   2.915661  -0.000376   0.118872  -0.003161
 485  20   4.453046  -1.431061   1.717300  -0.000308   0.118872  -0.002594
 486  15   7.353497  -1.301942   6.228465  -0.000133   0.071106  -0.001871
 487  15   6.618508  -2.124136   6.544820  -0.000467   0.159084  -0.002933
 488  15   5.513043  -2.896398   6.229595  -0.000484   0.159084  -0.003042
 489  15   4.592057  -3.098545   5.215331  -0.000399   0.159084  -0.002505
 490  15   4.262651  -2.641225   3.950358  -0.000523   0.159084  -0.003289
 491   5   7.027412  -1.396508   6.730465  -0.000061   0.154719  -0.000396
 492   5   5.892115  -2.452324   6.854265  -0.000204   0.154719  -0.001320
 493   5   4.685559  -3.032491   6.062682  -0.000150   0.154719  -0.000968
 494   5   3.941071  -2.880560   4.705616  -0.000087   0.154719  -0.000564
 495   5   3.844794  -2.304464   3.582220  -0.000074   0.086872  -0.000851
 496  20   4.027293  -1.415527   0.892714  -0.001200   0.332905  -0.003606
 497   5   3.321559  -1.629604   2.631536   0.000515   0.491434   0.001047
 498   6   9.136447   5.645969  -1.857706   0.000083   0.065707   0.001264
 499   7   8.604609   5.108148  -2.197875   0.000122   0.065707   0.001858
 500  16   9.017425   5.920863  -1.801979  -0.000110   0.065707  -0.001668
 501   6  10.133312   3.866622  -1.975888   0.000074   0.067247   0.001104
 502   7   9.662835   3.380445  -2.455772   0.000057   0.067247   0.000841
 503  21   9.788618   3.105123  -2.487774  -0.000148   0.067247  -0.002194
 504   7   8.955791   4.319726  -2.564401   0.000930   0.485141   0.001916
 505   6   9.929467   4.781070  -1.961676   0.000886   0.485141   0.001826
 506   9  10.584364   0.739614   2.972373  -0.000583   0.167905  -0.003474
 507   9  10.421982   1.234058   4.108615  -0.001427   0.341456  -0.004179
 508   9   9.812830   1.827279   5.024538  -0.000413   0.167905  -0.002460
 509   6  11.262287   1.706057   3.130353  -0.000065   0.463008  -0.000140
 510   6  10.710331   2.484173   4.598474   0.000104   0.463008   0.000225
 511  16   7.639201   8.254112   1.741735  -0.000062   0.067781  -0.000919
 512  16   8.661078   8.641174   1.754258  -0.000233   0.149839  -0.001554
 513  16   9.866970   8.699262   1.214550  -0.000272   0.149839  -0.001817
 514  16  10.601075   8.249210   0.210868  -0.000342   0.149839  -0.002285
 515  16  10.571210   7.470145  -0.857308  -0.000240   0.149839  -0.001603
 516  16   9.789260   6.672146  -1.564830  -0.000350   0.149839  -0.002336
 517   6   8.044743   8.283066   2.173227   0.000033   0.149206   0.000222
 518   6   9.467670   8.638972   1.936055   0.000055   0.149206   0.000367
 519   6  10.616140   8.406931   1.022374  -0.000127   0.149206  -0.000851
 520   6  11.033048   7.679298  -0.204158  -0.000127   0.149206  -0.000852
 521   6  10.552456   6.745683  -1.255364   0.000063   0.149206   0.000419
 522   6   9.676394   6.073053  -1.740092   0.000016   0.082809   0.000196
 523   6  10.773099   3.876349  -1.659555  -0.000072   0.086447  -0.000829
 524  17  11.028480   3.734264  -1.569768  -0.000170   0.086447  -0.001966
 525  21  10.328130   3.096407  -2.051021  -0.000075   0.086447  -0.000864
 526  17  11.550556   4.271697  -1.449139  -0.000136   0.071154  -0.001908
 527  17  12.221365   5.065491  -0.968524  -0.000366   0.159016  -0.002299
 528  17  12.998012   5.450647   0.108198  -0.000451   0.159016  -0.002833
 529  17  13.426175   5.003735   1.344241  -0.000481   0.159016  -0.003025
 530  17  13.317824   3.921018   2.196791  -0.000350   0.159016  -0.002200
 531  17  12.720542   2.677977   2.291445  -0.000483   0.159016  -0.003038
 532  17  12.050122   1.882325   1.813367  -0.000187   0.071154  -0.002631
 533   6  11.489714   4.868847  -1.363685  -0.000111   0.155003  -0.000714
 534   6  12.418616   5.721882  -0.458253  -0.000205   0.155003  -0.001320
 535   6  13.135695   5.685127   0.918258  -0.000272   0.155003  -0.001757
 536   6  13.326041   4.774722   2.161346  -0.000071   0.155003  -0.000456
 537   6  12.906062   3.390478   2.725103  -0.000080   0.155003  -0.000517
 538   6  12.060195   2.140292   2.361951  -0.000369   0.155003  -0.002380
 539  18  10.524956   3.984487   5.520257  -0.000105   0.068739  -0.001534
 540  18  11.532390   4.238157   5.129707  -0.000333   0.152552  -0.002181
 541  18  12.354559   5.129131   4.554209  -0.000263   0.152552  -0.001726
 542  18  12.399875   6.380381   4.071182  -0.000289   0.152552  -0.001892
 543  18  11.649672   7.476503   3.879591  -0.000350   0.152552  -0.002292
 544  18  10.412966   7.965992   4.058353  -0.000217   0.152552  -0.001422
 545  18   9.199172   7.647221   4.533836  -0.000281   0.152552  -0.001842
 546   6  10.894475   3.699166   5.148882  -0.000251   0.150735  -0.001668
 547   6  12.129552   4.324656   4.552013   0.000007   0.150735   0.000046
 548   6  12.644027   5.595135   3.924239   0.000091   0.150735   0.000605
 549   6  12.225983   6.987281   3.524146  -0.000106   0.150735  -0.000701
 550   6  11.047616   7.927652   3.516538  -0.000047   0.150735  -0.000313
 551   6   9.594309   8.028899   3.904548   0.000108   0.150735   0.000719
 552   6   8.589193   7.523321   4.388990   0.000140   0.083980   0.001670
 553  21   9.984256   2.914322  -2.574735  -0.000039   0.075690  -0.000522
 554   6  10.623646   4.027373  -1.906914   0.000292   0.107315   0.002719
 555   7   3.181302   3.543859  -0.830106   0.000137   0.035968   0.003798
 556   8   2.627590   3.332162  -0.068437   0.000111   0.035968   0.003083
 557  19   3.318823   3.740768  -1.013703   0.000039   0.035968   0.001079
 558   7   2.891350   1.398145  -1.041889   0.000006   0.080507   0.000076
 559   8   2.308282   1.423289  -0.269383  -0.000287   0.080507  -0.003571
 560  20   2.852448   1.113269  -0.941238  -0.000241   0.080507  -0.002988
 561   8   1.967978   2.958615   0.144334  -0.000592   0.244358  -0.002422
 562   8   1.855864   1.907915  -0.050328  -0.000888   0.244358  -0.003632
 563   7   2.846331   2.529295  -1.009488   0.001635   0.680465   0.002403
 564   7   7.433653  -1.097081   1.901500  -0.000365   0.205865  -0.001775
 565   9   7.716668  -1.051575   2.597441  -0.000998   0.205865  -0.004848
 566  15   7.021433  -1.445609   3.058769  -0.001006   0.205865  -0.004888
 567   9   8.409605  -0.925646   2.285197  -0.000728   0.182571  -0.003986
 568   9   9.303964  -0.492846   1.992831  -0.000674   0.182571  -0.003692
 569   7   8.578838  -0.844471   1.088583  -0.000394   0.501819  -0.000786
 570   7   6.183191  -1.469267   1.127639  -0.000162   0.118870  -0.001361
 571  15   5.845798  -1.667877   2.336451  -0.000303   0.118870  -0.002546
 572  20   5.885829  -1.516877   1.068148  -0.000445   0.118870  -0.003741
 573  15   6.246943  -2.079824   3.065131  -0.001276   0.333048  -0.003831
 574   7   6.971891  -1.559316   1.400592   0.000497   0.491641   0.001011
 575   7   7.964315   5.070234  -2.473496  -0.000019   0.087429  -0.000217
 576  16   8.359996   5.805196  -1.935421   0.000064   0.087429   0.000728
 577  19   7.687833   5.189359  -2.529232  -0.000160   0.087429  -0.001834
 578  16   8.906320   6.170857  -1.871625   0.000023   0.071125   0.000325
 579   7   8.265594   5.058671  -2.581263   0.000306   0.100975   0.003032
 580  19   7.384302   4.825839  -3.115720  -0.000120   0.067665  -0.001779
 581  19   6.868594   4.106986  -3.754076  -0.000202   0.149528  -0.001353
 582  19   5.800418   3.377831  -4.019764  -0.000310   0.149528  -0.002076
 583  19   4.589199   3.078185  -3.588004  -0.000343   0.149528  -0.002293
 584  19   3.715305   3.326886  -2.630030  -0.000226   0.149528  -0.001511
 585  19   3.446692   3.851705  -1.712089  -0.000115   0.067665  -0.001697
 586   7   7.554987   4.304532  -3.339461  -0.000014   0.149007  -0.000095
 587   7   6.625917   3.358319  -4.004418   0.000033   0.149007   0.000224
 588   7   5.276772   2.749385  -3.906122  -0.000131   0.149007  -0.000882
 589   7   4.042619   2.719231  -3.083556  -0.000007   0.149007  -0.000048
 590   7   3.412923   3.279817  -1.862949  -0.000019   0.149007  -0.000129
 591  20   3.110149   0.842412  -1.535926  -0.000155   0.071111  -0.002185
 592  20   3.752219   0.174775  -2.212999  -0.000441   0.159095  -0.002772
 593  20   4.749953  -0.780172  -2.315886  -0.000481   0.159095  -0.003025
 594  20   5.611579  -1.528960  -1.531728  -0.000338   0.159095  -0.002126
 595  20   5.956201  -1.740573  -0.207175  -0.000510   0.159095  -0.003205
 596   7   3.437041   0.949444  -2.034910  -0.000172   0.154727  -0.001112
 597   7   4.443584  -0.059119  -2.658501  -0.000187   0.154727  -0.001208
 598   7   5.550660  -1.073535  -2.252868  -0.000140   0.154727  -0.000902
 599   7   6.268869  -1.645364  -0.997327  -0.000098   0.154727  -0.000631
 600   7   6.400035  -1.660258   0.262000  -0.000115   0.086877  -0.001319
 601  21   9.726141  -0.356488  -0.356258  -0.000186   0.070991  -0.002617
 602  21   9.025914  -0.967475  -1.021301  -0.000460   0.158582  -0.002898
 603  21   8.277120  -1.043802  -2.177666  -0.000398   0.158582  -0.002509
 604  21   7.939699  -0.306576  -3.294063  -0.000462   0.158582  -0.002916
 605  21   8.161241   0.921734  -3.882171  -0.000471   0.158582  -0.002971
 606  21   8.844843   2.103855  -3.684746  -0.000308   0.158582  -0.001945
 607  21   9.544598   2.722837  -3.026635  -0.000198   0.070991  -0.002795
 608   7   9.220822  -0.671312  -0.245230  -0.000402   0.154710  -0.002597
 609   7   8.279801  -1.226381  -1.344212  -0.000101   0.154710  -0.000651
 610   7   7.633456  -0.833118  -2.696604  -0.000079   0.154710  -0.000514
 611   7   7.564503   0.336461  -3.710858  -0.000237   0.154710  -0.001532
 612   7   8.103103   1.770773  -3.943331  -0.000113   0.154710  -0.000728
 613   7   9.013667   2.842436  -3.292338  -0.000089   0.154710  -0.000573
 614  19   3.187497   3.964517  -1.167665   0.000130   0.028515   0.004562
 615   8   2.099583   3.443710   0.150178   0.000149   0.028515   0.005228
 616  20   3.148608  -0.815267   0.339169  -0.001311   0.274560  -0.004776
 617  20   2.761966   0.193460  -0.534220  -0.002330   0.550338  -0.004233
 618   8   2.105237  -0.017537   0.869660  -0.002667   0.550338  -0.004846
 619   8   1.821789   1.072763   0.056804  -0.000853   0.274560  -0.003105
 620  14   7.653968   1.629745   7.325875   0.000132   0.028858   0.004583
 621   9   8.709875   1.643086   5.885327   0.000150   0.028858   0.005206
 622  15   7.174051  -1.905468   3.806252  -0.001312   0.274466  -0.004779
 623  15   7.651361  -1.458849   5.031794  -0.002358   0.550151  -0.004287
 624   9   8.318246  -1.082391   3.668195  -0.002666   0.550151  -0.004845
 625   9   8.704441  -0.524142   4.879995  -0.000852   0.274466  -0.003104
 626  14   5.445841   3.902826   8.423356  -0.000221   0.273687  -0.000808
 627  14   4.621069   3.473245   9.196608  -0.000854   0.547319  -0.001560
 628  14   3.624625   2.848782   9.479189   0.000183   0.273687   0.000667
 629  10   4.285473   5.033294   8.538517  -0.000882   0.547319  -0.001611
 630  10   3.149885   4.376063   9.196863  -0.000605   0.547319  -0.001105
 631  13   0.257815   0.676342   8.012317  -0.000173   0.245879  -0.000704
 632  13  -0.240189   0.166726   7.151345  -0.001191   0.491656  -0.002422
 633  13  -0.248386  -0.128195   5.819895  -0.001180   0.491656  -0.002399
 634  11  -0.764793   1.726474   7.428641  -0.000689   0.491656  -0.001402
 635  11  -1.154296   1.212945   6.226817  -0.001235   0.491656  -0.002512
 636  11  -0.963387   1.098292   5.131646  -0.000281   0.245879  -0.001144
 637  19   3.516852   5.012420  -0.896793   0.000837   0.239869   0.003491
 638  19   3.915142   5.465491  -0.758528   0.000961   0.239869   0.004006
 639  12   1.951565   6.159744   1.237740   0.001615   0.477659   0.003382
 640  18   9.049826   4.778179   6.221749   0.000931   0.240528   0.003871
 641  18   9.389043   4.267346   6.126822   0.000737   0.240528   0.003065
 642  14   7.274911   2.967253   7.596324   0.001765   0.478965   0.003685
 643  20   5.519104  -1.816553   1.015485  -0.000053   0.262320  -0.000203
 644  20   4.734539  -1.769058   1.021609  -0.000294   0.262320  -0.001120
 645  15   5.116048  -2.202797   2.818140  -0.000672   0.523998  -0.001283
 646  19   5.677596   6.210796  -1.171574  -0.000229   0.273672  -0.000838
 647  19   6.467961   6.087170  -2.078526  -0.000817   0.547289  -0.001493
 648  19   7.391831   5.547915  -2.642610   0.000180   0.273672   0.000659
 649  16   6.965442   7.124522  -0.791708  -0.000884   0.547289  -0.001615
 650  16   8.034324   6.711193  -1.708947  -0.000605   0.547289  -0.001105
 651  21  10.437361   2.567186  -2.422326  -0.000172   0.245871  -0.000698
 652  21  10.847226   1.666793  -1.902574  -0.001190   0.491639  -0.002421
 653  21  10.782641   0.798996  -0.852648  -0.001179   0.491639  -0.002399
 654  17  11.559007   3.107830  -1.453330  -0.000689   0.491639  -0.001401
 655  17  11.850959   2.061433  -0.629068  -0.001235   0.491639  -0.002512
 656  17  11.616663   1.483718   0.298396  -0.000281   0.245871  -0.001144
 =====================================================

              4278217  WORDS OF DYNAMIC MEMORY USED
 EXECUTION OF GAMESS TERMINATED NORMALLY Thu Nov 24 00:07:17 2016
 DDI: 263640 bytes (0.3 MB / 0 MWords) used by master data server.

 ----------------------------------------
 CPU timing information for all processes
 ========================================
 0: 1459.524 + 0.548 = 1460.72
 ----------------------------------------
 ddikick.x: exited gracefully.
