----- GAMESS execution script -----

          ******************************************************
          *         GAMESS VERSION =  5 DEC 2014 (R1)          *
          *             FROM IOWA STATE UNIVERSITY             *
          * M.W.SCHMIDT, K.K.BALDRIDGE, J.A.BOATZ, S.T.ELBERT, *
          *   M.S.GORDON, J.H.JENSEN, S.KOSEKI, N.MATSUNAGA,   *
          *          K.A.NGUYEN, S.J.SU, T.L.WINDUS,           *
          *       TOGETHER WITH M.DUPUIS, J.A.MONTGOMERY       *
          *         J.COMPUT.CHEM.  14, 1347-1363(1993)        *
          **************** 64 BIT LINUX VERSION ****************

 EXECUTION OF GAMESS BEGUN Thu Nov 24 00:10:34 2016

            ECHO OF THE FIRST FEW INPUT CARDS -
 INPUT CARD>! SELECT RESTRICTED HARTREE-FOCK AS DEFAULT                                     
 INPUT CARD>$contrl scftyp=rhf $end                                                         
 INPUT CARD>                                                                                
 INPUT CARD>! THEORY: HF OR DFT                                                             
 INPUT CARD> $contrl mplevl=0 $end                                                          
 INPUT CARD>                                                                                
 INPUT CARD> $system timlim=10000 mwords=20 $end                                            
 INPUT CARD> $SCF DIRSCF=.TRUE. $end                                                        
 INPUT CARD>                                                                                
 INPUT CARD>                                                                                
 INPUT CARD>! BASIS SETS                                                                    
 INPUT CARD>! 6-311G(d,p)                                                                   
 INPUT CARD> $BASIS GBASIS=N311 NGAUSS=6 NDFUNC=1 NPFUNC=1 $END                             
 INPUT CARD>                                                                                
 INPUT CARD>! One of the following                                                          
 INPUT CARD> $guess guess=HUCKEL $end                                                       
 INPUT CARD>                                                                                
 INPUT CARD> $statpt projct=.FALSE. $end                                                    
 INPUT CARD> $STATPT IFREEZ(1)=1,2,3 $END                                                   
 INPUT CARD>                                                                                
 INPUT CARD>! Optimize the geometry with COSMO effects                                      
 INPUT CARD> $statpt opttol=0.0005 nstep=50 $end                                            
 INPUT CARD> $contrl nzvar=1 $end                                                           
 INPUT CARD> $zmat dlc=.t. auto=.t. $end                                                    
 INPUT CARD> $contrl runtyp=OPTIMIZE maxit=200 $end                                         
 INPUT CARD>                                                                                
 INPUT CARD>! Run COSMO on perfect conductor                                                
 INPUT CARD> $COSGMS PRFCND=.TRUE. $end                                                     
 INPUT CARD>                                                                                
 INPUT CARD>! Specifying RSOLV                                                              
 INPUT CARD> $COSGMS COSRAD = 1.4 $end                                                      
 INPUT CARD>                                                                                
 INPUT CARD>! available memory                                                              
 INPUT CARD> $SYSTEM MWORDS=40 $END                                                         
 INPUT CARD>                                                                                
 INPUT CARD> $DATA                                                                          
 INPUT CARD>Dimethyl ether, ID: C115106                                                     
 INPUT CARD>C1                                                                              
 INPUT CARD>C      6.0      2.8378000000    1.0013000000    1.0543000000                    
 INPUT CARD>O      8.0      1.8046000000    1.7097000000    1.6916000000                    
 INPUT CARD>C      6.0      0.6788000000    1.9361000000    0.8810000000                    
 INPUT CARD>H      1.0      3.6072000000    0.9254000000    1.8261000000                    
 INPUT CARD>H      1.0      2.5173000000    0.0000000000    0.7426000000                    
 INPUT CARD>H      1.0      3.2297000000    1.5417000000    0.1843000000                    
 INPUT CARD>H      1.0      0.0000000000    2.4857000000    1.5371000000                    
 INPUT CARD>H      1.0      0.9230000000    2.5417000000    0.0000000000                    
 INPUT CARD>H      1.0      0.2117000000    0.9986000000    0.5565000000                    
 INPUT CARD> $END                                                                           
 INPUT CARD>                                                                                
 INPUT CARD>                                                                                
   40000000 WORDS OF MEMORY AVAILABLE

     BASIS OPTIONS
     -------------
     GBASIS=N311         IGAUSS=       6      POLAR=POPN311 
     NDFUNC=       1     NFFUNC=       0     DIFFSP=       F
     NPFUNC=       1      DIFFS=       F     BASNAM=        


     RUN TITLE
     ---------
 Dimethyl ether, ID: C115106                                                     

 THE POINT GROUP OF THE MOLECULE IS C1      
 THE ORDER OF THE PRINCIPAL AXIS IS     0

 ATOM      ATOMIC                      COORDINATES (BOHR)
           CHARGE         X                   Y                   Z
 C           6.0     5.3626644080        1.8921826315        1.9923381089
 O           8.0     3.4101995174        3.2308645212        3.1966604808
 C           6.0     1.2827460005        3.6586984848        1.6648485952
 H           1.0     6.8166195829        1.7487524290        3.4508286262
 H           1.0     4.7570072289        0.0000000000        1.4033105185
 H           1.0     6.1032480225        2.9133905553        0.3482764995
 H           1.0     0.0000000000        4.6972918877        2.9046978157
 H           1.0     1.7442170867        4.8031165430        0.0000000000
 H           1.0     0.4000549916        1.8870803713        1.0516325122

          INTERNUCLEAR DISTANCES (ANGS.)




     $CONTRL OPTIONS
     ---------------
 SCFTYP=RHF          RUNTYP=OPTIMIZE     EXETYP=RUN     
 MPLEVL=       0     CITYP =NONE         CCTYP =NONE         VBTYP =NONE    
 DFTTYP=NONE         TDDFT =NONE    
 MULT  =       1     ICHARG=       0     NZVAR =       1     COORD =UNIQUE  
 PP    =NONE         RELWFN=NONE         LOCAL =NONE         NUMGRD=       F
 ISPHER=      -1     NOSYM =       0     MAXIT =     200     UNITS =ANGS    
 PLTORB=       F     MOLPLT=       F     AIMPAC=       F     FRIEND=        
 NPRINT=       7     IREST =       0     GEOM  =INPUT   
 NORMF =       0     NORMP =       0     ITOL  =      20     ICUT  =       9
 INTTYP=BEST         GRDTYP=BEST         QMTTOL= 1.0E-06

     $SYSTEM OPTIONS
     ---------------
  REPLICATED MEMORY=    40000000 WORDS (ON EVERY NODE).
 DISTRIBUTED MEMDDI=           0 MILLION WORDS IN AGGREGATE,
 MEMDDI DISTRIBUTED OVER   1 PROCESSORS IS           0 WORDS/PROCESSOR.
 TOTAL MEMORY REQUESTED ON EACH PROCESSOR=    40000000 WORDS.
 TIMLIM=       10000.00 MINUTES, OR       6.9 DAYS.
 PARALL= F  BALTYP=  DLB     KDIAG=    0  COREFL= F
 MXSEQ2=     300 MXSEQ3=     150  mem10=         0

     $COSGMS OPTIONS
     ---------------
     EPSI  =   INFTY     NSPA  =      92     COSRAD=    1.40
     DISEX =   10.00     OUTCHG=DBLCAV       COSBUG=       F
     COSWRT=       F     DCOSMO=       F

     SYMMETRY COORDINATES WILL NOT BE USED FOR 
     THE COSMO CALCULATION, EVEN IF SPECIFIED:
         -- SWITCHING TO C1 POINT GROUP --


     DEFINITION OF CAVITY
     ---------------------------
     ATOM         COORDINATES           RADIUS 
     1    5.3627    1.8922    1.9923    2.0000
     2    3.4102    3.2309    3.1967    1.7200
     3    1.2827    3.6587    1.6648    2.0000
     4    6.8166    1.7488    3.4508    1.3000
     5    4.7570    0.0000    1.4033    1.3000
     6    6.1032    2.9134    0.3483    1.3000
     7    0.0000    4.6973    2.9047    1.3000
     8    1.7442    4.8031    0.0000    1.3000
     9    0.4001    1.8871    1.0516    1.3000

          ----------------
          PROPERTIES INPUT
          ----------------

     MOMENTS            FIELD           POTENTIAL          DENSITY
 IEMOM =       1   IEFLD =       0   IEPOT =       0   IEDEN =       0
 WHERE =COMASS     WHERE =NUCLEI     WHERE =NUCLEI     WHERE =NUCLEI  
 OUTPUT=BOTH       OUTPUT=BOTH       OUTPUT=BOTH       OUTPUT=BOTH    
 IEMINT=       0   IEFINT=       0                     IEDINT=       0
                                                       MORB  =       0
          EXTRAPOLATION IN EFFECT
          SOSCF IN EFFECT
 ORBITAL PRINTING OPTION: NPREO=     1    93     2     1

     -------------------------------
     INTEGRAL TRANSFORMATION OPTIONS
     -------------------------------
     NWORD  =            0
     CUTOFF = 1.0E-09     MPTRAN =       0
     DIRTRF =       T     AOINTS =DUP     

          ----------------------
          INTEGRAL INPUT OPTIONS
          ----------------------
 NOPK  =       1 NORDER=       0 SCHWRZ=       T


 -----------------------------------------------
  STATISTICS ON AUTOMATIC COORDINATE GENERATION 
 -----------------------------------------------
  NUMBER OF USER SPECIFIED BONDS                             0
  NUMBER OF BONDS                                            8
  NUMBER OF ANGLES                                          13
  NUMBER OF TORSIONS                                         6
  NUMBER OF EXTRA COORD.                                     0
  NUMBER OF EXTRA COORD. FOR CONSTRAINTS                     0
  NUMBER OF CONSTRAINED COORD.                               0

  TOTAL NUMBER OF PRIMITIVES                                27
 -----------------------------------------------

   --- ENCODED Z MATRIX ---
 COORD  TYPE   I   J   K   L   M   N
    1      1    1   4
    2      1    1   5
    3      1    1   2
    4      1    1   6
    5      1    2   3
    6      1    3   8
    7      1    3   7
    8      1    3   9
    9      2    1   2   3
   10      2    2   3   7
   11      2    2   1   5
   12      2    2   1   4
   13      2    2   1   6
   14      2    2   3   9
   15      2    2   3   8
   16      2    4   1   5
   17      2    4   1   6
   18      2    5   1   6
   19      2    7   3   9
   20      2    7   3   8
   21      2    8   3   9
   22      3    1   2   3   9
   23      3    1   2   3   7
   24      3    1   2   3   8
   25      3    3   2   1   6
   26      3    3   2   1   5
   27      3    3   2   1   4

          INDEP./SYM. INTERNAL COORDINATES
          --------------------------------
 CRD  1=  -0.2250 (  3) -0.2250 (  5) -0.8406 (  9)  0.1398 ( 10) -0.1579 ( 11)
           0.1398 ( 12) -0.1578 ( 13) -0.1581 ( 14) -0.1576 ( 15)
 CRD  2=  -0.2396 ( 11)  0.2397 ( 13)  0.2401 ( 14) -0.2406 ( 15) -0.3851 ( 22)
          -0.2947 ( 23) -0.3849 ( 24) -0.3851 ( 25) -0.3852 ( 26) -0.2951 ( 27)
 CRD  3=  -0.4327 ( 11)  0.4327 ( 13) -0.4320 ( 14)  0.4327 ( 15) -0.1305 ( 22)
          -0.2856 ( 23) -0.1309 ( 24)  0.1300 ( 25)  0.1300 ( 26)  0.2852 ( 27)
 CRD  4=  -0.1171 (  1) -0.4097 (  3) -0.4098 (  5) -0.1171 (  7) -0.4920 ( 10)
          -0.4919 ( 12)  0.1731 ( 16)  0.1730 ( 17)  0.1730 ( 19)  0.1731 ( 20)
 CRD  5=  -0.1449 (  1)  0.2251 (  3) -0.2252 (  5)  0.1449 (  7)  0.4158 ( 10)
           0.3004 ( 11) -0.4157 ( 12)  0.3003 ( 13) -0.3010 ( 14) -0.2998 ( 15)
          -0.2180 ( 18)  0.2181 ( 21)
 CRD  6=   0.1528 (  2) -0.1528 (  4)  0.1529 (  6) -0.1526 (  8)  0.3917 ( 11)
          -0.3918 ( 13) -0.3914 ( 14)  0.3920 ( 15) -0.1444 ( 16)  0.1444 ( 17)
           0.1445 ( 19) -0.1443 ( 20) -0.1794 ( 22) -0.2006 ( 23) -0.1796 ( 24)
          -0.1796 ( 25) -0.1795 ( 26) -0.2007 ( 27)
 CRD  7=   0.2351 (  1)  0.2663 (  2) -0.1481 (  3)  0.2664 (  4)  0.1481 (  5)
          -0.2663 (  6) -0.2351 (  7) -0.2662 (  8)  0.3304 ( 10) -0.1446 ( 11)
          -0.3304 ( 12) -0.1446 ( 13)  0.1444 ( 14)  0.1447 ( 15)  0.2313 ( 16)
           0.2314 ( 17)  0.1510 ( 18) -0.2312 ( 19) -0.2315 ( 20) -0.1508 ( 21)
 CRD  8=   0.2400 (  1)  0.3109 (  2)  0.3111 (  4)  0.3109 (  6)  0.2404 (  7)
           0.3109 (  8)  0.1785 (  9) -0.2312 ( 11) -0.2312 ( 13) -0.2314 ( 14)
          -0.2310 ( 15)  0.3410 ( 18)  0.3406 ( 21)
 CRD  9=  -0.2949 (  2)  0.2951 (  4)  0.2913 (  6) -0.2915 (  8) -0.3392 ( 16)
           0.3397 ( 17) -0.3356 ( 19)  0.3361 ( 20)  0.1024 ( 22) -0.2676 ( 23)
           0.1030 ( 24) -0.1042 ( 25) -0.1039 ( 26)  0.2704 ( 27)
 CRD 10=   0.3222 (  2) -0.3209 (  4)  0.3244 (  6) -0.3254 (  8)  0.3149 ( 16)
          -0.3150 ( 17) -0.3181 ( 19)  0.3195 ( 20)  0.1181 ( 22) -0.2495 ( 23)
           0.1196 ( 24)  0.1179 ( 25)  0.1175 ( 26) -0.2465 ( 27)
 CRD 11=  -0.4832 (  1) -0.4780 (  7) -0.2123 ( 16) -0.2124 ( 17)  0.3023 ( 18)
          -0.2105 ( 19) -0.2088 ( 20)  0.2968 ( 21)  0.1944 ( 22) -0.1938 ( 24)
           0.1974 ( 25) -0.1972 ( 26)
 CRD 12=   0.3403 (  1) -0.2127 (  2) -0.2141 (  4)  0.2149 (  6) -0.3474 (  7)
           0.2132 (  8)  0.1750 ( 16)  0.1738 ( 17) -0.3656 ( 18) -0.1784 ( 19)
          -0.1767 ( 20)  0.3704 ( 21)  0.2106 ( 22) -0.2101 ( 24) -0.2071 ( 25)
           0.2076 ( 26)
 CRD 13=  -0.3136 (  2) -0.2797 (  3) -0.3135 (  4) -0.2816 (  5) -0.3144 (  6)
          -0.3151 (  8)  0.4044 (  9)  0.1876 ( 10) -0.1894 ( 11)  0.1889 ( 12)
          -0.1893 ( 13) -0.1899 ( 14) -0.1891 ( 15)  0.1493 ( 18)  0.1498 ( 21)
 CRD 14=   0.3588 (  1)  0.2466 (  2)  0.3877 (  3)  0.2466 (  4) -0.3861 (  5)
          -0.2451 (  6) -0.3593 (  7) -0.2449 (  8) -0.2533 ( 10)  0.2523 ( 12)
          -0.1164 ( 16) -0.1164 ( 17)  0.1163 ( 19)  0.1163 ( 20)
 CRD 15=   0.3336 (  2) -0.3338 (  4) -0.3339 (  6)  0.3332 (  8)  0.1060 ( 11)
          -0.1061 ( 13)  0.1060 ( 14) -0.1062 ( 15) -0.1878 ( 16)  0.1878 ( 17)
          -0.1879 ( 19)  0.1876 ( 20) -0.1776 ( 22) -0.3481 ( 23) -0.1779 ( 24)
           0.1777 ( 25)  0.1777 ( 26)  0.3482 ( 27)
 CRD 16=   0.2761 (  1)  0.1162 (  2) -0.4166 (  3)  0.1162 (  4) -0.4171 (  5)
           0.1165 (  6)  0.2762 (  7)  0.1162 (  8)  0.1806 ( 10)  0.1876 ( 11)
           0.1805 ( 12)  0.1876 ( 13)  0.1878 ( 14)  0.1878 ( 15) -0.2218 ( 16)
          -0.2218 ( 17) -0.1146 ( 18) -0.2218 ( 19) -0.2219 ( 20) -0.1148 ( 21)
 CRD 17=   0.1913 (  2) -0.5158 (  3)  0.1913 (  4)  0.5155 (  5) -0.1911 (  6)
          -0.1913 (  8) -0.1369 ( 10)  0.1728 ( 11)  0.1370 ( 12)  0.1728 ( 13)
          -0.1727 ( 14) -0.1726 ( 15) -0.1252 ( 16) -0.1252 ( 17) -0.2224 ( 18)
           0.1251 ( 19)  0.1249 ( 20)  0.2223 ( 21)
 CRD 18=  -0.4187 (  1)  0.1725 (  2)  0.1046 (  3)  0.1702 (  4) -0.1045 (  5)
          -0.1698 (  6)  0.4188 (  7) -0.1731 (  8) -0.1575 ( 10) -0.1082 ( 11)
           0.1574 ( 12) -0.1071 ( 13)  0.1084 ( 14)  0.1068 ( 15)  0.1587 ( 16)
           0.1602 ( 17) -0.2269 ( 18) -0.1584 ( 19) -0.1605 ( 20)  0.2271 ( 21)
           0.2284 ( 22) -0.2290 ( 24) -0.2288 ( 25)  0.2286 ( 26)
 CRD 19=  -0.3488 (  2)  0.3500 (  4) -0.3503 (  6)  0.3487 (  8)  0.1598 ( 11)
          -0.1605 ( 13) -0.1597 ( 14)  0.1606 ( 15)  0.2299 ( 16) -0.2288 ( 17)
          -0.2301 ( 19)  0.2287 ( 20) -0.3097 ( 23) -0.3097 ( 27)
 CRD 20=   0.3348 (  1) -0.2005 (  2)  0.1573 (  3) -0.2002 (  4)  0.1573 (  5)
          -0.1998 (  6)  0.3346 (  7) -0.2007 (  8) -0.3066 (  9) -0.2290 ( 10)
          -0.2291 ( 12)  0.2591 ( 18)  0.2591 ( 21)  0.2143 ( 22) -0.2147 ( 24)
           0.2147 ( 25) -0.2146 ( 26)
 CRD 21=   0.2232 (  2) -0.2233 (  4) -0.2235 (  6)  0.2231 (  8) -0.1885 ( 11)
           0.1886 ( 13) -0.1884 ( 14)  0.1887 ( 15) -0.1512 ( 16)  0.1512 ( 17)
          -0.1514 ( 19)  0.1511 ( 20)  0.3703 ( 22)  0.3696 ( 24) -0.3699 ( 25)
          -0.3701 ( 26)

 THE DETERMINANT OF THE G MATRIX IS 10**(    -7)


                     --------------------
                     INTERNAL COORDINATES
                     --------------------

                 - - ATOMS - -         COORDINATE      COORDINATE
 NO.   TYPE    I  J  K  L  M  N        (BOHR,RAD)       (ANG,DEG)
 ----------------------------------------------------------------
   1 STRETCH   1  4                     2.0644012       1.0924342
   2 STRETCH   1  5                     2.0722281       1.0965760
   3 STRETCH   1  2                     2.6560461       1.4055192
   4 STRETCH   1  6                     2.0722616       1.0965937
   5 STRETCH   2  3                     2.6562282       1.4056155
   6 STRETCH   3  8                     2.0722860       1.0966066
   7 STRETCH   3  7                     2.0643012       1.0923813
   8 STRETCH   3  9                     2.0721506       1.0965350
   9 BEND      1  2  3                  1.9915634     114.1081752
  10 BEND      2  3  7                  1.8053041     103.4363028
  11 BEND      2  1  5                  1.9543917     111.9783961
  12 BEND      2  1  4                  1.8053461     103.4387144
  13 BEND      2  1  6                  1.9541865     111.9666369
  14 BEND      2  3  9                  1.9542561     111.9706264
  15 BEND      2  3  8                  1.9540025     111.9560987
  16 BEND      4  1  5                  1.9211466     110.0735902
  17 BEND      4  1  6                  1.9209544     110.0625790
  18 BEND      5  1  6                  1.9059576     109.2033242
  19 BEND      7  3  9                  1.9211094     110.0714598
  20 BEND      7  3  8                  1.9209632     110.0630821
  21 BEND      8  3  9                  1.9063222     109.2242142
  22 TORSION   1  2  3  9               1.0722081      61.4329974
  23 TORSION   1  2  3  7               3.1400864     179.9136989
  24 TORSION   1  2  3  8              -1.0755181     -61.6226493
  25 TORSION   3  2  1  6               1.0740041      61.5359038
  26 TORSION   3  2  1  5              -1.0734821     -61.5059950
  27 TORSION   3  2  1  4              -3.1414958    -179.9944535

     ------------------------------------------
     THE POINT GROUP IS C1 , NAXIS= 1, ORDER= 1
     ------------------------------------------

     DIMENSIONS OF THE SYMMETRY SUBSPACES ARE
 A   =   93

 ..... DONE SETTING UP THE RUN .....
 STEP CPU TIME =     0.00 TOTAL CPU TIME =        0.0 (    0.0 MIN)
 TOTAL WALL CLOCK TIME=        0.0 SECONDS, CPU UTILIZATION IS   0.00%


          -----------------------------
          STATIONARY POINT LOCATION RUN
          -----------------------------

 OBTAINING INITIAL HESSIAN, HESS=GUESS   
 DIAGONAL GUESS HESSIAN IN INTERNAL COORDS IS
     1  0.3447     2  0.3420     3  0.3777     4  0.3420     5  0.3776
     6  0.3419     7  0.3448     8  0.3420     9  0.2408    10  0.2206
    11  0.2204    12  0.2206    13  0.2204    14  0.2204    15  0.2204
    16  0.2029    17  0.2029    18  0.2027    19  0.2030    20  0.2029
    21  0.2027    22  0.2500    23  0.2500    24  0.2500    25  0.2500
    26  0.2500    27  0.2500
 TRANSFORMING HESSIAN TO SYMMETRY COORDINATES

          PARAMETERS CONTROLLING GEOMETRY SEARCH ARE
          METHOD =QA                  UPHESS =BFGS    
          NNEG   =         0          NFRZ   =         3
          NSTEP  =        50          IFOLOW =         1
          HESS   =GUESS               RESTAR =         F
          IHREP  =         0          HSSEND =         F
          NPRT   =         0          NPUN   =         0
          OPTTOL = 5.000E-04          RMIN   = 1.500E-03
          RMAX   = 1.000E-01          RLIM   = 7.000E-02
          DXMAX  = 3.000E-01          PURIFY =         F
          MOVIE  =         F          TRUPD  =         T
          TRMAX  = 5.000E-01          TRMIN  = 5.000E-02
          ITBMAT =         5          STPT   =         F
          STSTEP = 1.000E-02          PROJCT=          F
          FROZEN COORD(S)=   1   2   3


      ***** EQUILIBRIUM GEOMETRY LOCATED *****
            (SUBJECT TO   3 CONSTRAINT(S))
 COORDINATES OF ALL ATOMS ARE (ANGS)
   ATOM   CHARGE       X              Y              Z
 ------------------------------------------------------------
 C           6.0   2.8436806423   1.0016529336   1.0626634657
 O           8.0   1.8039807550   1.7065700018   1.6822716386
 C           6.0   0.6739844214   1.9410723932   0.8885318086
 H           1.0   3.6383498116   0.8981937613   1.7907340039
 H           1.0   2.5270800749   0.0089215649   0.7488749760
 H           1.0   3.2317904142   1.5338947187   0.1964588429
 H           1.0  -0.0360023003   2.4876709126   1.4963438129
 H           1.0   0.9142248204   2.5384314401   0.0112199009
 H           1.0   0.2106035137   1.0122551753   0.5617539762


                     --------------------
                     INTERNAL COORDINATES
                     --------------------

                 - - ATOMS - -         COORDINATE      COORDINATE
 NO.   TYPE    I  J  K  L  M  N        (BOHR,RAD)       (ANG,DEG)
 ----------------------------------------------------------------
   1 STRETCH   1  4                     2.0460502       1.0827232
   2 STRETCH   1  5                     2.0564306       1.0882163
   3 STRETCH   1  2                     2.6468297       1.4006421
   4 STRETCH   1  6                     2.0564360       1.0882192
   5 STRETCH   2  3                     2.6469024       1.4006806
   6 STRETCH   3  8                     2.0564434       1.0882231
   7 STRETCH   3  7                     2.0460475       1.0827218
   8 STRETCH   3  9                     2.0564240       1.0882128
   9 BEND      1  2  3                  2.0179770     115.6215624
  10 BEND      2  3  7                  1.8706901     107.1826461
  11 BEND      2  1  5                  1.9505788     111.7599326
  12 BEND      2  1  4                  1.8707069     107.1836107
  13 BEND      2  1  6                  1.9505701     111.7594354
  14 BEND      2  3  9                  1.9506651     111.7648758
  15 BEND      2  3  8                  1.9505082     111.7558891
  16 BEND      4  1  5                  1.8968034     108.6788288
  17 BEND      4  1  6                  1.8967656     108.6766623
  18 BEND      5  1  6                  1.8969663     108.6881617
  19 BEND      7  3  9                  1.8967777     108.6773572
  20 BEND      7  3  8                  1.8967542     108.6760095
  21 BEND      8  3  9                  1.8969931     108.6896998
  22 TORSION   1  2  3  9               1.0637167      60.9464768
  23 TORSION   1  2  3  7               3.1401765     179.9188589
  24 TORSION   1  2  3  8              -1.0666678     -61.1155657
  25 TORSION   3  2  1  6               1.0652753      61.0357808
  26 TORSION   3  2  1  5              -1.0650568     -61.0232616
  27 TORSION   3  2  1  4              -3.1415090    -179.9952052

          INTERNUCLEAR DISTANCES (ANGS.)


 =====================================================
   GAMESS/COSab RESULTS
 =====================================================

   Dielectric Constant                  = INFTY
   Basic Grid Size                      =                 1082
   Number of Segments                   =                   92
   Number of Segments located on spheres=                  168
   Number of Segments of the cavity     =                  351
   Solvent Radius (rsolv)               = 1.40
   Outlying Charge Error Method         = double cavity

 =====================================================

  Total solvated Energy (a.u.)          =  -154.1136420416
  Total Energy corrected (a.u.)         =  -154.1134711180

  Outlying charge effect (a.u.)         =     0.0001709236
  Outlying charge effect (kcal/mol)     =     0.1072562523

  Dielectric Energy (a.u.)              =    -0.0068793940
  Dielectric energy corr. (a.u.)        =    -0.0067084704

  Sum of polarization charges           =     0.0176886987
  Sum of polarization charges(cor.)     =    -0.0176886987

  Total surface area of cavity (A**2)   =   88.79
  Total volume of cavity (A**3)         =   70.72

 =====================================================
 NPS=                   351
NR.  ATOM  (X, Y, Z)(a.u.)                  CHARGE(e)  AREA(A**2) SIGMA(e/A**2)
   1   1   6.188250   0.107074  -1.221716   0.000436   0.371649   0.001173
   2   1   7.405301   5.011176   2.666309   0.000261   0.325193   0.000803
   3   1   4.751067  -0.510905   4.857427   0.000140   0.278737   0.000501
   4   1   7.269162  -1.371234   2.202023   0.000117   0.418105   0.000280
   5   1   8.886065   1.888174   0.612386  -0.000191   0.371649  -0.000514
   6   1   4.006291   1.050390  -1.413050   0.000292   0.139368   0.002096
   7   1   4.745180   0.873522  -1.576570   0.000402   0.185824   0.002163
   8   1   9.138247   1.952383   1.677188  -0.000113   0.371649  -0.000303
   9   1   7.676563  -0.946177   2.968042  -0.000054   0.278737  -0.000195
  10   1   5.726442  -0.356295   5.024964   0.000214   0.325193   0.000659
  11   1   7.983339   4.304197   3.296487   0.000290   0.371649   0.000780
  12   1   5.104878   0.215708  -1.368131   0.000253   0.185824   0.001361
  13   1   5.728587   0.873401  -1.613898   0.000424   0.278737   0.001522
  14   1   7.006913   4.884142   3.641926   0.000436   0.325193   0.001341
  15   1   4.951957   0.346187   5.430731   0.000446   0.232280   0.001918
  16   1   5.367784  -1.141277   4.261649   0.000784   0.371649   0.002110
  17   1   6.624602  -1.441723   3.273194   0.000583   0.278737   0.002091
  18   1   8.229895  -0.563814   1.705283  -0.000728   0.464561  -0.001568
  19   1   8.795612   0.690839   0.944868  -0.000940   0.464561  -0.002023
  20   1   8.885270   3.101967   1.306890   0.000690   0.418105   0.001651
  21   1   8.257367   4.334292   1.915764   0.000846   0.418105   0.002024
  22   1   7.257513   5.154882   1.700035   0.000279   0.325193   0.000859
  23   1   6.524132   5.459831   2.495528   0.000110   0.232280   0.000472
  24   1   3.747135  -0.294249   4.626320   0.000377   0.325193   0.001159
  25   1   4.085583  -0.993710   4.079994   0.000308   0.325193   0.000946
  26   1   7.398829  -1.073669   0.832018  -0.000811   0.418105  -0.001940
  27   1   7.026971  -0.470858  -0.434026  -0.000614   0.418105  -0.001467
  28   1   7.340333   0.533332  -0.919095  -0.000581   0.464561  -0.001251
  29   1   8.341375   1.158569  -0.214139  -0.000776   0.371649  -0.002087
  30   1   4.058667   0.409116  -1.209517   0.000172   0.139368   0.001236
  31   1   4.717769   1.603560  -1.702691   0.000483   0.232280   0.002080
  32   1   8.822945   0.353828   1.870394  -0.000577   0.278737  -0.002069
  33   1   6.403382  -1.095142   4.080843   0.000481   0.278737   0.001724
  34   1   5.481191   0.873235   5.645869  -0.000263   0.185824  -0.001417
  35   1   6.953359   4.365761   4.390124   0.000026   0.232280   0.000113
  36   1   8.748165   3.555644   2.372694   0.000458   0.325193   0.001408
  37   1   6.113065   5.565577   1.509389   0.000535   0.325193   0.001646
  38   1   3.082832  -0.620239   3.657442   0.000386   0.232280   0.001661
  39   1   5.671076  -1.570943   3.490718   0.000217   0.185824   0.001166
  40   1   8.070118  -0.120236   0.287218  -0.001243   0.464561  -0.002676
  41   2   4.227832   5.959985   4.732647   0.006542   0.343589   0.019041
  42   2   3.361212   3.193650   6.428854   0.006373   0.343589   0.018548
  43   2   3.123892   5.869693   5.046812   0.003651   0.274871   0.013282
  44   2   2.075975   4.490992   5.859459   0.002551   0.171795   0.014851
  45   2   2.528901   3.956360   6.221237   0.006038   0.343589   0.017572
  46   2   3.997850   5.279583   5.627777   0.006400   0.343589   0.018626
  47   2   3.705074   4.317060   6.226038   0.007063   0.377948   0.018688
  48   2   2.577911   2.556367   6.249351   0.006602   0.343589   0.019214
  49   2   1.898144   1.826146   5.694029   0.005357   0.274871   0.019490
  50   2   3.924104   6.340755   3.947815   0.005813   0.309230   0.018798
  51   2   4.987701   5.282436   5.138402   0.005078   0.274871   0.018474
  52   2   5.426145   4.716303   5.245843   0.002133   0.137436   0.015520
  53   2   4.917421   3.711426   6.016761   0.002626   0.171795   0.015283
  54   2   4.431744   3.215203   6.264251   0.004984   0.309230   0.016117
  55   2   3.857818   2.237738   6.243120   0.006104   0.343589   0.017765
  56   2   3.499155   1.375963   5.850694   0.002390   0.206154   0.011592
  57   2   2.582915   0.956911   5.355772   0.003213   0.171795   0.018700
  58   2   2.064400   0.794563   4.867184   0.003168   0.240512   0.013173
  59   2   5.096962   6.002560   3.197810   0.001932   0.103077   0.018740
  60   2   4.841920   6.086865   3.745467   0.003511   0.206154   0.017029
  61   2   2.804737   5.150894   5.726608   0.006491   0.377948   0.017173
  62   2   1.754994   3.102701   5.974356   0.003909   0.309230   0.012642
  63   2   4.831929   4.478172   5.818992   0.004710   0.274871   0.017134
  64   2   2.722760   1.556199   5.882539   0.004264   0.240512   0.017729
  65   2   4.629610   6.200505   2.709094   0.002480   0.206154   0.012028
  66   2   5.252358   5.648334   4.316545   0.002612   0.206154   0.012669
  67   3   0.028416   3.205012  -1.859167   0.000435   0.371649   0.001171
  68   3  -0.547884   1.635185   4.293206   0.000243   0.325193   0.000747
  69   3   2.123525   7.271380   2.439501   0.000053   0.278737   0.000188
  70   3  -0.711855   6.471968   0.104184   0.000117   0.418105   0.000280
  71   3  -2.372272   2.970410   0.968572  -0.000192   0.371649  -0.000517
  72   3   2.209159   2.253223  -1.698372   0.000108   0.139368   0.000778
  73   3   1.450187   2.325077  -1.849286   0.000404   0.185824   0.002172
  74   3  -2.498906   3.563106   1.881917  -0.000113   0.371649  -0.000304
  75   3  -1.012679   6.602916   1.012915  -0.000055   0.278737  -0.000196
  76   3   1.180266   7.283557   2.776315   0.000208   0.325193   0.000640
  77   3  -1.077253   2.599381   4.438693   0.000323   0.371649   0.000869
  78   3   1.091450   2.990288  -2.034625   0.000251   0.185824   0.001349
  79   3   0.469658   2.339511  -1.766601   0.000422   0.278737   0.001516
  80   3  -0.046200   2.303880   4.947300  -0.000001   0.325193  -0.000004
  81   3   2.022441   6.933263   3.428995   0.000195   0.232280   0.000842
  82   3   1.419122   7.444693   1.660759   0.000788   0.371649   0.002121
  83   3   0.047278   7.143121   0.839782   0.000582   0.278737   0.002089
  84   3  -1.691027   5.564028   0.300529  -0.000729   0.464561  -0.001569
  85   3  -2.290815   4.125515   0.508753  -0.000940   0.464561  -0.002024
  86   3  -2.245571   2.410973   2.243958   0.000690   0.418105   0.001650
  87   3  -1.505347   1.762290   3.390645   0.000847   0.418105   0.002026
  88   3  -0.505646   0.938367   3.594036   0.000273   0.325193   0.000839
  89   3   0.324758   1.140765   4.324181   0.000515   0.232280   0.002218
  90   3   3.102220   6.922488   2.270207   0.000726   0.325193   0.002232
  91   3   2.677033   7.170338   1.457771   0.000305   0.325193   0.000938
  92   3  -0.985094   5.421386  -0.792415  -0.000811   0.418105  -0.001941
  93   3  -0.736831   4.169317  -1.481773  -0.000614   0.418105  -0.001467
  94   3  -1.064407   3.086438  -1.232869  -0.000582   0.464561  -0.001253
  95   3  -1.953795   3.042527  -0.185477  -0.000777   0.371649  -0.002090
  96   3   2.155596   2.890810  -1.912884   0.000179   0.139368   0.001287
  97   3   1.491206   1.663382  -1.517487   0.000441   0.232280   0.001897
  98   3  -2.225570   4.948587   1.046542  -0.000577   0.278737  -0.002070
  99   3   0.372228   7.338435   1.662956   0.000479   0.278737   0.001717
 100   3   1.541877   6.658526   3.974643   0.000031   0.185824   0.000167
 101   3   0.072158   3.163681   5.226800   0.000328   0.232280   0.001413
 102   3  -1.970600   2.677432   3.345751   0.000456   0.325193   0.001401
 103   3   0.624638   0.452751   3.556498   0.000317   0.325193   0.000975
 104   3   3.638807   6.581591   1.229939   0.000186   0.232280   0.000800
 105   3   1.013670   7.340958   0.826624   0.000215   0.185824   0.001159
 106   3  -1.676760   4.356922  -0.580318  -0.001244   0.464561  -0.002677
 107   4   8.718724   1.513733   4.997642  -0.004570   0.608459  -0.007510
 108   4   7.329898   2.777156   5.543312  -0.001681   0.353299  -0.004758
 109   4   8.675492   3.208540   4.099068  -0.001550   0.372926  -0.004157
 110   4   9.314001   1.449547   3.218821  -0.001675   0.353299  -0.004741
 111   4   8.227187  -0.205062   4.151361  -0.001694   0.372926  -0.004541
 112   4   7.011759   0.608052   5.581727  -0.001689   0.412182  -0.004099
 113   4   8.217203   2.925973   5.034863  -0.002647   0.471065  -0.005620
 114   4   9.214337   2.301222   3.831385  -0.002677   0.490692  -0.005455
 115   4   9.010895   0.557121   3.802303  -0.002966   0.510320  -0.005812
 116   4   7.906152   0.209908   5.045435  -0.002906   0.510320  -0.005694
 117   4   7.396372   1.670875   5.784645  -0.003313   0.529948  -0.006252
 118   5   4.436824  -2.294744   0.655663  -0.003078   0.490692  -0.006272
 119   5   4.123621  -0.911851  -0.763739  -0.001219   0.353299  -0.003451
 120   5   3.331987  -1.726547   2.370107  -0.001520   0.353299  -0.004302
 121   5   5.255682  -2.248189   2.236161  -0.001315   0.372926  -0.003526
 122   5   5.944188  -1.862591   0.348930  -0.001774   0.412182  -0.004305
 123   5   3.627835  -1.548807  -0.090370  -0.002368   0.412182  -0.005744
 124   5   3.298964  -1.914308   1.060867  -0.002695   0.431809  -0.006241
 125   5   4.161754  -2.218685   2.228020  -0.002034   0.451437  -0.004506
 126   5   5.539143  -2.313667   1.271895  -0.002088   0.431809  -0.004836
 127   5   5.116743  -1.536509  -0.457170  -0.002277   0.510320  -0.004462
 128   6   7.233546   3.996798  -1.515690  -0.003034   0.490692  -0.006184
 129   6   5.650905   2.779389  -2.039703  -0.001395   0.353299  -0.003950
 130   6   7.289471   2.201322  -1.666180  -0.001493   0.353299  -0.004226
 131   6   8.365555   3.561962  -0.332302  -0.001488   0.372926  -0.003989
 132   6   7.107595   5.130632   0.142003  -0.001089   0.372926  -0.002921
 133   6   6.074611   4.005100  -1.821880  -0.002713   0.431809  -0.006284
 134   6   6.606839   2.728549  -2.028034  -0.001858   0.392554  -0.004734
 135   6   7.996588   2.892221  -1.198883  -0.002332   0.471065  -0.004951
 136   6   7.843600   4.468184  -0.374801  -0.002132   0.471065  -0.004525
 137   6   6.462876   5.036971  -0.784678  -0.002804   0.490692  -0.005715
 138   7  -1.721261   5.878852   4.211371  -0.004571   0.608459  -0.007512
 139   7  -0.231629   5.139235   5.239376  -0.001683   0.353299  -0.004764
 140   7  -1.715266   3.982315   4.502549  -0.001550   0.372926  -0.004157
 141   7  -2.517240   4.891991   2.827464  -0.001676   0.353299  -0.004743
 142   7  -1.395967   6.734492   2.458054  -0.001695   0.372926  -0.004544
 143   7   0.004885   6.889904   3.940561  -0.001694   0.412182  -0.004109
 144   7  -1.164650   4.749777   5.025436  -0.002648   0.471065  -0.005621
 145   7  -2.315690   4.570441   3.810571  -0.002677   0.490692  -0.005456
 146   7  -2.184329   5.944289   2.724565  -0.002967   0.510320  -0.005814
 147   7  -0.959447   6.922768   3.379268  -0.002908   0.510320  -0.005698
 148   7  -0.312826   6.172813   4.779332  -0.003318   0.529948  -0.006261
 149   8   1.888066   6.185532  -1.998976  -0.003078   0.490692  -0.006272
 150   8   2.090787   4.218619  -2.338610  -0.001219   0.353299  -0.003452
 151   8   3.202051   6.710807  -0.424060  -0.001520   0.353299  -0.004303
 152   8   1.256912   7.120833  -0.621469  -0.001315   0.372926  -0.003527
 153   8   0.373403   5.712114  -1.812809  -0.001774   0.412182  -0.004304
 154   8   2.635049   5.112463  -2.239788  -0.002369   0.412182  -0.005747
 155   8   3.078504   6.079676  -1.580289  -0.002697   0.431809  -0.006246
 156   8   2.343117   7.051653  -0.735443  -0.002036   0.451437  -0.004509
 157   8   0.863181   6.609046  -1.394449  -0.002089   0.431809  -0.004837
 158   8   1.115652   4.939282  -2.353725  -0.002277   0.510320  -0.004461
 159   9  -0.892660  -0.050843   0.345269  -0.003036   0.490692  -0.006187
 160   9   0.571874   0.554232  -0.977776  -0.001398   0.353299  -0.003957
 161   9  -1.034583   1.301488  -0.838186  -0.001495   0.353299  -0.004230
 162   9  -1.898499   1.045509   1.155967  -0.001489   0.372926  -0.003992
 163   9  -0.535141   0.023400   2.324173  -0.001090   0.372926  -0.002922
 164   9   0.223328  -0.283161  -0.025606  -0.002714   0.431809  -0.006284
 165   9  -0.377761   0.637530  -0.889532  -0.001860   0.392554  -0.004738
 166   9  -1.656713   1.052285   0.025859  -0.002334   0.471065  -0.004954
 167   9  -1.350208   0.273964   1.602706  -0.002133   0.471065  -0.004527
 168   9  -0.004220  -0.477928   1.458168  -0.002803   0.490692  -0.005713
 169   1   5.049751   5.739851   1.620734   0.000490   0.055804   0.008784
 170   2   4.684854   5.924833   1.847226   0.000739   0.055804   0.013234
 171   3   4.334750   6.049424   1.563354   0.000472   0.055804   0.008454
 172   1   2.412622   0.032409   3.688862   0.000457   0.055804   0.008194
 173   2   2.092865   0.315086   3.879953   0.000760   0.055804   0.013621
 174   3   1.697622   0.341984   3.631480   0.000517   0.055804   0.009262
 175   1   5.742100   2.283620   5.752080   0.000034   0.011990   0.002829
 176   2   5.351741   2.526354   5.831608   0.000137   0.011990   0.011408
 177   4   6.034555   2.215384   5.734901  -0.000053   0.011990  -0.004424
 178   1   6.288699   3.466469   5.323572   0.000062   0.011990   0.005192
 179   2   5.875291   3.659326   5.421169   0.000218   0.011990   0.018203
 180   4   6.530894   3.289469   5.345794  -0.000021   0.011990  -0.001781
 181   2   2.519546   0.338905   4.369321   0.002240   0.170805   0.013114
 182   2   3.667785   1.078041   5.455162   0.005344   0.355654   0.015027
 183   2   4.801157   2.303397   5.962896   0.001944   0.170805   0.011384
 184   1   3.416738   0.148401   4.600472   0.002526   0.366798   0.006888
 185   1   4.895704   1.421808   5.633446   0.002094   0.366798   0.005708
 186   2   5.685483   4.217126   5.269588   0.002047   0.170826   0.011981
 187   2   5.627696   5.319591   3.918376   0.005416   0.355705   0.015226
 188   2   5.081568   5.883735   2.360164   0.002015   0.170826   0.011796
 189   1   6.273834   4.404228   4.552915   0.002021   0.366845   0.005508
 190   1   5.882370   5.484542   2.666995   0.002521   0.366845   0.006872
 191   1   2.530002  -0.503630   2.841119  -0.000078   0.059080  -0.001321
 192   3   1.850179  -0.130415   2.756376   0.000024   0.059080   0.000413
 193   5   2.617365  -0.699723   2.624496  -0.000267   0.059080  -0.004516
 194   1   4.226009   2.598276  -1.556832  -0.000146   0.059076  -0.002470
 195   3   3.511341   2.910476  -1.536559  -0.000184   0.059076  -0.003117
 196   6   4.464358   2.781297  -1.608859  -0.000258   0.059076  -0.004373
 197   1   4.780122   5.602773   0.664218   0.000025   0.059041   0.000418
 198   3   4.100776   5.978391   0.586582  -0.000072   0.059041  -0.001219
 199   8   3.981610   6.009950   0.307628  -0.000265   0.059041  -0.004483
 200   1   2.757341   0.669085  -0.744648  -0.000186   0.059110  -0.003144
 201   3   2.033727   0.934510  -0.865333  -0.000145   0.059110  -0.002450
 202   9   1.798304   0.765517  -0.770319  -0.000260   0.059110  -0.004395
 203   3   2.886507   2.528385  -1.652112  -0.000137   0.304143  -0.000451
 204   3   2.330428   1.324657  -1.217235  -0.000136   0.304143  -0.000447
 205   1   3.630383   1.497651  -1.315047  -0.000867   0.610607  -0.001419
 206   3   1.434624   0.068623   3.168630   0.000410   0.189872   0.002159
 207   1   2.468933  -0.313875   3.384010   0.000483   0.189872   0.002545
 208   3   4.230792   6.147402   1.122182   0.000470   0.189075   0.002486
 209   1   5.247482   5.673074   1.061668   0.000414   0.189075   0.002188
 210   4   6.322059   1.816778   5.775832  -0.000266   0.066257  -0.004010
 211   4   6.390891   0.766601   5.551484  -0.000645   0.146174  -0.004415
 212   4   6.901875  -0.208992   4.855146  -0.000600   0.146174  -0.004102
 213   4   7.741321  -0.489924   3.899018  -0.000696   0.146174  -0.004761
 214   4   8.583920   0.032674   3.053624  -0.000833   0.146174  -0.005699
 215   4   9.103143   1.156282   2.646578  -0.000888   0.146174  -0.006074
 216   4   9.097777   2.445470   2.835619  -0.000621   0.146174  -0.004251
 217   4   8.569902   3.400645   3.547491  -0.000615   0.146174  -0.004204
 218   4   7.724082   3.651651   4.506323  -0.000669   0.146174  -0.004576
 219   4   7.011227   3.308147   5.235557  -0.000210   0.066257  -0.003176
 220   1   5.908347   1.413287   5.675819  -0.000479   0.146106  -0.003278
 221   1   6.201276   0.072592   5.165599  -0.000480   0.146106  -0.003289
 222   1   6.999640  -0.670257   4.188673  -0.000405   0.146106  -0.002771
 223   1   7.994054  -0.527386   3.123626  -0.000644   0.146106  -0.004406
 224   1   8.799153   0.445839   2.383192  -0.000804   0.146106  -0.005502
 225   1   9.102942   1.872267   2.254309  -0.000643   0.146106  -0.004398
 226   1   8.787693   3.199119   2.786922  -0.000424   0.146106  -0.002905
 227   1   7.975574   3.912205   3.774631  -0.000520   0.146106  -0.003556
 228   1   6.981304   3.735184   4.834670  -0.000504   0.146106  -0.003450
 229   1   3.117006   0.344781  -0.685624  -0.000205   0.084324  -0.002433
 230   5   3.135962   0.058504  -0.577463  -0.000316   0.084324  -0.003749
 231   9   2.173814   0.513201  -0.583058  -0.000254   0.084324  -0.003012
 232   5   3.766156  -0.248926  -0.810504  -0.000256   0.066952  -0.003819
 233   5   4.797322  -0.540791  -0.927562  -0.000598   0.147520  -0.004056
 234   5   5.894396  -1.046962  -0.433117  -0.000785   0.147520  -0.005324
 235   5   6.426937  -1.557270   0.644029  -0.000824   0.147520  -0.005588
 236   5   6.189255  -1.874613   1.887837  -0.000662   0.147520  -0.004489
 237   5   5.273153  -1.876421   2.817896  -0.000590   0.147520  -0.003997
 238   5   4.032467  -1.561995   3.074980  -0.000538   0.147520  -0.003650
 239   5   3.084440  -1.159126   2.756967  -0.000322   0.066952  -0.004807
 240   1   4.229920   0.041485  -1.030440  -0.000384   0.147862  -0.002598
 241   1   5.610094  -0.438898  -0.903228  -0.000521   0.147862  -0.003521
 242   1   6.573351  -1.039733   0.025731  -0.000790   0.147862  -0.005341
 243   1   6.747641  -1.528953   1.397634  -0.000684   0.147862  -0.004627
 244   1   6.065646  -1.717602   2.682596  -0.000401   0.147862  -0.002713
 245   1   4.790780  -1.532814   3.384310  -0.000327   0.147862  -0.002209
 246   1   3.415449  -1.045964   3.231746  -0.000472   0.147862  -0.003194
 247   1   5.223596   5.440521   0.546120  -0.000138   0.084361  -0.001638
 248   6   5.365427   5.369102   0.283821  -0.000330   0.084361  -0.003912
 249   8   4.361275   5.716590   0.215150  -0.000182   0.084361  -0.002153
 250   6   6.095806   5.356736   0.396766  -0.000308   0.066962  -0.004601
 251   6   7.098908   5.072596   0.671623  -0.000574   0.147547  -0.003887
 252   6   8.097590   4.234297   0.603993  -0.000482   0.147547  -0.003268
 253   6   8.489604   3.102549   0.084227  -0.000753   0.147547  -0.005106
 254   6   8.123497   2.114591  -0.686870  -0.000878   0.147547  -0.005951
 255   6   7.140712   1.652110  -1.411391  -0.000821   0.147547  -0.005566
 256   6   5.920938   1.893781  -1.809426  -0.000547   0.147547  -0.003704
 257   6   5.046036   2.523875  -1.814268  -0.000273   0.066962  -0.004076
 258   1   6.362204   5.329800   0.922261  -0.000510   0.147883  -0.003446
 259   1   7.673389   4.703657   1.125012  -0.000330   0.147883  -0.002231
 260   1   8.495432   3.539158   0.777801  -0.000412   0.147883  -0.002786
 261   1   8.510746   2.286195   0.014769  -0.000698   0.147883  -0.004720
 262   1   7.713413   1.428837  -0.869294  -0.000788   0.147883  -0.005328
 263   1   6.411476   1.298316  -1.532840  -0.000530   0.147883  -0.003587
 264   1   5.107924   1.945057  -1.719514  -0.000444   0.147883  -0.003000
 265   2   1.232759   4.305129   5.501826   0.000244   0.011989   0.020351
 266   3   0.803769   4.416963   5.356573   0.000043   0.011989   0.003598
 267   7   0.559019   4.581150   5.296414  -0.000028   0.011989  -0.002373
 268   2   1.755396   5.438890   5.092735   0.000169   0.011989   0.014101
 269   3   1.349415   5.600638   4.929472   0.000018   0.011989   0.001460
 270   7   1.054493   5.655984   4.908586  -0.000059   0.011989  -0.004958
 271   3   1.157953   0.673113   3.996954   0.000992   0.186714   0.005311
 272   3   0.762103   2.130301   4.991020   0.002630   0.366461   0.007177
 273   3   0.814540   3.882244   5.433966   0.000777   0.186714   0.004159
 274   2   1.581625   1.179657   4.707475   0.005273   0.355290   0.014840
 275   2   1.375842   3.102664   5.568575   0.004569   0.355290   0.012861
 276   3   1.743670   5.897074   4.706477   0.000712   0.187095   0.003808
 277   3   2.803173   6.552277   3.391690   0.002462   0.367207   0.006705
 278   3   3.829363   6.456069   1.902332   0.000886   0.187095   0.004738
 279   2   2.696747   5.965697   4.533930   0.004740   0.356093   0.013312
 280   2   3.946541   6.300660   2.853624   0.005269   0.356093   0.014797
 281   4   6.484503   2.824517   5.577864  -0.000766   0.285833  -0.002681
 282   2   5.424744   3.110092   5.818295   0.002670   0.348326   0.007665
 283   7   0.613506   5.090629   5.198366  -0.000777   0.285815  -0.002718
 284   2   1.703999   4.965575   5.438490   0.002712   0.348303   0.007786
 285   3   1.390383  -0.054043   2.616305  -0.000138   0.084353  -0.001636
 286   5   2.218803  -0.505474   2.419342  -0.000182   0.084353  -0.002159
 287   9   1.217173  -0.147977   2.381386  -0.000330   0.084353  -0.003911
 288   3   3.148584   3.219627  -1.641921  -0.000203   0.084327  -0.002404
 289   6   4.103204   3.109687  -1.567447  -0.000253   0.084327  -0.003001
 290   8   3.130916   3.514417  -1.724396  -0.000316   0.084327  -0.003752
 291   7   0.758322   6.010736   4.736370  -0.000274   0.066256  -0.004136
 292   7   0.623849   6.721725   3.939905  -0.000655   0.146173  -0.004482
 293   7  -0.000434   7.107915   2.863379  -0.000600   0.146173  -0.004108
 294   7  -0.953526   6.794324   2.032081  -0.000696   0.146173  -0.004764
 295   7  -1.866072   5.902479   1.768165  -0.000833   0.146173  -0.005700
 296   7  -2.384431   4.777998   2.173908  -0.000888   0.146173  -0.006075
 297   7  -2.307722   3.856655   3.092070  -0.000621   0.146173  -0.004252
 298   7  -1.665673   3.495499   4.166834  -0.000615   0.146173  -0.004209
 299   7  -0.707097   3.834491   4.981695  -0.000669   0.146173  -0.004578
 300   7   0.070339   4.518288   5.274885  -0.000219   0.066256  -0.003299
 301   3   1.142043   6.259313   4.369043  -0.000511   0.146104  -0.003499
 302   3   0.741315   7.041167   3.197836  -0.000491   0.146104  -0.003359
 303   3  -0.191219   7.084087   2.069943  -0.000406   0.146104  -0.002776
 304   3  -1.294172   6.371441   1.422460  -0.000644   0.146104  -0.004408
 305   3  -2.140114   5.179403   1.506307  -0.000804   0.146104  -0.005503
 306   3  -2.401214   3.969925   2.288990  -0.000643   0.146104  -0.004400
 307   3  -1.976289   3.211720   3.467195  -0.000425   0.146104  -0.002907
 308   3  -1.030010   3.198617   4.584329  -0.000521   0.146104  -0.003563
 309   3   0.070909   3.935693   5.207466  -0.000544   0.146104  -0.003727
 310   8   2.466810   3.645820  -2.021206  -0.000256   0.066981  -0.003825
 311   8   1.418092   3.848261  -2.170540  -0.000599   0.147595  -0.004059
 312   8   0.365272   4.589961  -1.953814  -0.000786   0.147595  -0.005325
 313   8  -0.060425   5.661595  -1.340706  -0.000825   0.147595  -0.005589
 314   8   0.305554   6.648929  -0.568210  -0.000662   0.147595  -0.004488
 315   8   1.321740   7.170313   0.065070  -0.000590   0.147595  -0.003999
 316   8   2.595332   7.024208   0.314342  -0.000539   0.147595  -0.003653
 317   8   3.515603   6.475245   0.192554  -0.000321   0.066981  -0.004790
 318   3   1.992505   3.298934  -1.969949  -0.000387   0.147915  -0.002619
 319   3   0.617681   3.811293  -1.997558  -0.000521   0.147915  -0.003523
 320   3  -0.256296   4.883188  -1.507028  -0.000790   0.147915  -0.005342
 321   3  -0.291597   6.100281  -0.687973  -0.000684   0.147915  -0.004627
 322   3   0.525426   6.992111   0.143007  -0.000402   0.147915  -0.002714
 323   3   1.878955   7.213945   0.664699  -0.000327   0.147915  -0.002214
 324   3   3.245790   6.680035   0.675446  -0.000457   0.147915  -0.003090
 325   9   0.504762  -0.043003   2.546869  -0.000307   0.066935  -0.004594
 326   9  -0.470396   0.386305   2.709429  -0.000572   0.147477  -0.003876
 327   9  -1.501001   1.055340   2.269240  -0.000482   0.147477  -0.003269
 328   9  -1.992120   1.667309   1.226255  -0.000754   0.147477  -0.005111
 329   9  -1.754151   1.985952  -0.016869  -0.000878   0.147477  -0.005954
 330   9  -0.878964   1.888256  -0.980209  -0.000821   0.147477  -0.005569
 331   9   0.295564   1.411935  -1.291856  -0.000547   0.147477  -0.003710
 332   9   1.187648   0.871390  -1.020451  -0.000274   0.066935  -0.004094
 333   3   0.298921   0.302000   2.978509  -0.000475   0.147832  -0.003213
 334   3  -1.003123   0.973969   2.914884  -0.000328   0.147832  -0.002220
 335   3  -1.902586   1.731146   2.038208  -0.000413   0.147832  -0.002792
 336   3  -2.052218   2.281213   0.686933  -0.000699   0.147832  -0.004725
 337   3  -1.394253   2.411810  -0.617267  -0.000788   0.147832  -0.005331
 338   3  -0.182705   2.072519  -1.370888  -0.000531   0.147832  -0.003592
 339   3   1.114691   1.394328  -1.282986  -0.000440   0.147832  -0.002975
 340   9   1.587984   0.226756  -0.644485  -0.000194   0.257083  -0.000755
 341   9   1.230957  -0.431694   0.244779  -0.001263   0.514109  -0.002457
 342   9   1.066144  -0.550981   1.645472  -0.001044   0.514109  -0.002031
 343   5   2.835317  -0.650643  -0.212171  -0.001014   0.514109  -0.001973
 344   5   2.491918  -1.209568   1.042027  -0.001269   0.514109  -0.002469
 345   5   2.457788  -1.073121   2.196163  -0.000253   0.257083  -0.000983
 346   8   4.076938   6.048024  -0.273197  -0.000253   0.256985  -0.000983
 347   8   3.906236   5.470955  -1.266940  -0.001268   0.513912  -0.002467
 348   8   3.443811   4.289009  -1.891037  -0.001012   0.513912  -0.001969
 349   6   5.416246   5.247952  -0.557899  -0.001043   0.513912  -0.002029
 350   6   5.097538   4.324131  -1.580303  -0.001260   0.513912  -0.002451
 351   6   4.666991   3.280364  -1.853893  -0.000192   0.256985  -0.000747
 =====================================================

              1135466  WORDS OF DYNAMIC MEMORY USED
 EXECUTION OF GAMESS TERMINATED NORMALLY Thu Nov 24 00:11:14 2016
 DDI: 263640 bytes (0.3 MB / 0 MWords) used by master data server.

 ----------------------------------------
 CPU timing information for all processes
 ========================================
 0: 39.684 + 0.68 = 39.752
 ----------------------------------------
 ddikick.x: exited gracefully.
