----- GAMESS execution script -----

          ******************************************************
          *         GAMESS VERSION =  5 DEC 2014 (R1)          *
          *             FROM IOWA STATE UNIVERSITY             *
          * M.W.SCHMIDT, K.K.BALDRIDGE, J.A.BOATZ, S.T.ELBERT, *
          *   M.S.GORDON, J.H.JENSEN, S.KOSEKI, N.MATSUNAGA,   *
          *          K.A.NGUYEN, S.J.SU, T.L.WINDUS,           *
          *       TOGETHER WITH M.DUPUIS, J.A.MONTGOMERY       *
          *         J.COMPUT.CHEM.  14, 1347-1363(1993)        *
          **************** 64 BIT LINUX VERSION ****************

 EXECUTION OF GAMESS BEGUN Thu Nov 24 00:35:32 2016

            ECHO OF THE FIRST FEW INPUT CARDS -
 INPUT CARD>! SELECT RESTRICTED HARTREE-FOCK AS DEFAULT                                     
 INPUT CARD>$contrl scftyp=rhf $end                                                         
 INPUT CARD>                                                                                
 INPUT CARD>! THEORY: HF OR DFT                                                             
 INPUT CARD> $contrl mplevl=0 $end                                                          
 INPUT CARD>                                                                                
 INPUT CARD> $system timlim=10000 mwords=20 $end                                            
 INPUT CARD> $SCF DIRSCF=.TRUE. $end                                                        
 INPUT CARD>                                                                                
 INPUT CARD>                                                                                
 INPUT CARD>! BASIS SETS                                                                    
 INPUT CARD>! 6-311G(d,p)                                                                   
 INPUT CARD> $BASIS GBASIS=N311 NGAUSS=6 NDFUNC=1 NPFUNC=1 $END                             
 INPUT CARD>                                                                                
 INPUT CARD>! One of the following                                                          
 INPUT CARD> $guess guess=HUCKEL $end                                                       
 INPUT CARD>                                                                                
 INPUT CARD> $statpt projct=.FALSE. $end                                                    
 INPUT CARD> $STATPT IFREEZ(1)=1,2,3 $END                                                   
 INPUT CARD>                                                                                
 INPUT CARD>! Optimize the geometry with COSMO effects                                      
 INPUT CARD> $statpt opttol=0.0005 nstep=50 $end                                            
 INPUT CARD> $contrl nzvar=1 $end                                                           
 INPUT CARD> $zmat dlc=.t. auto=.t. $end                                                    
 INPUT CARD> $contrl runtyp=OPTIMIZE maxit=200 $end                                         
 INPUT CARD>                                                                                
 INPUT CARD>! Run COSMO on perfect conductor                                                
 INPUT CARD> $COSGMS PRFCND=.TRUE. $end                                                     
 INPUT CARD>                                                                                
 INPUT CARD>! Specifying RSOLV                                                              
 INPUT CARD> $COSGMS COSRAD = 1.4 $end                                                      
 INPUT CARD>                                                                                
 INPUT CARD>! available memory                                                              
 INPUT CARD> $SYSTEM MWORDS=40 $END                                                         
 INPUT CARD>                                                                                
 INPUT CARD> $DATA                                                                          
 INPUT CARD>                                                                                
 INPUT CARD>C1                                                                              
 INPUT CARD>C      6.0      1.1265000000    0.9063000000    0.9707000000                    
 INPUT CARD>C      6.0      1.8231000000    2.1303000000    1.5257000000                    
 INPUT CARD>O      8.0      3.2040000000    1.8429000000    1.6874000000                    
 INPUT CARD>H      1.0      0.0576000000    1.0933000000    0.8349000000                    
 INPUT CARD>H      1.0      1.2531000000    0.0519000000    1.6440000000                    
 INPUT CARD>H      1.0      1.5603000000    0.6189000000    0.0074000000                    
 INPUT CARD>H      1.0      1.7172000000    2.9764000000    0.8398000000                    
 INPUT CARD>H      1.0      1.4035000000    2.4030000000    2.4984000000                    
 INPUT CARD>H      1.0      3.6223000000    2.6448000000    2.0452000000                    
 INPUT CARD> $END                                                                           
 INPUT CARD>                                                                                
 INPUT CARD>                                                                                
   40000000 WORDS OF MEMORY AVAILABLE

     BASIS OPTIONS
     -------------
     GBASIS=N311         IGAUSS=       6      POLAR=POPN311 
     NDFUNC=       1     NFFUNC=       0     DIFFSP=       F
     NPFUNC=       1      DIFFS=       F     BASNAM=        


     RUN TITLE
     ---------
                                                                                 

 THE POINT GROUP OF THE MOLECULE IS C1      
 THE ORDER OF THE PRINCIPAL AXIS IS     0

 ATOM      ATOMIC                      COORDINATES (BOHR)
           CHARGE         X                   Y                   Z
 C           6.0     2.1287763252        1.7126586627        1.8343570163
 C           6.0     3.4451594482        4.0256832716        2.8831549395
 O           8.0     6.0546820647        3.4825760228        3.1887236317
 H           1.0     0.1088482169        2.0660374224        1.5777322271
 H           1.0     2.3680156352        0.0980767788        3.1067095238
 H           1.0     2.9485394586        1.1695514138        0.0139839723
 H           1.0     3.2450374661        5.6245804299        1.5869918845
 H           1.0     2.6522304238        4.5410115485        4.7212914077
 H           1.0     6.8451544453        4.9979472923        3.8648675901

          INTERNUCLEAR DISTANCES (ANGS.)




     $CONTRL OPTIONS
     ---------------
 SCFTYP=RHF          RUNTYP=OPTIMIZE     EXETYP=RUN     
 MPLEVL=       0     CITYP =NONE         CCTYP =NONE         VBTYP =NONE    
 DFTTYP=NONE         TDDFT =NONE    
 MULT  =       1     ICHARG=       0     NZVAR =       1     COORD =UNIQUE  
 PP    =NONE         RELWFN=NONE         LOCAL =NONE         NUMGRD=       F
 ISPHER=      -1     NOSYM =       0     MAXIT =     200     UNITS =ANGS    
 PLTORB=       F     MOLPLT=       F     AIMPAC=       F     FRIEND=        
 NPRINT=       7     IREST =       0     GEOM  =INPUT   
 NORMF =       0     NORMP =       0     ITOL  =      20     ICUT  =       9
 INTTYP=BEST         GRDTYP=BEST         QMTTOL= 1.0E-06

     $SYSTEM OPTIONS
     ---------------
  REPLICATED MEMORY=    40000000 WORDS (ON EVERY NODE).
 DISTRIBUTED MEMDDI=           0 MILLION WORDS IN AGGREGATE,
 MEMDDI DISTRIBUTED OVER   1 PROCESSORS IS           0 WORDS/PROCESSOR.
 TOTAL MEMORY REQUESTED ON EACH PROCESSOR=    40000000 WORDS.
 TIMLIM=       10000.00 MINUTES, OR       6.9 DAYS.
 PARALL= F  BALTYP=  DLB     KDIAG=    0  COREFL= F
 MXSEQ2=     300 MXSEQ3=     150  mem10=         0

     $COSGMS OPTIONS
     ---------------
     EPSI  =   INFTY     NSPA  =      92     COSRAD=    1.40
     DISEX =   10.00     OUTCHG=DBLCAV       COSBUG=       F
     COSWRT=       F     DCOSMO=       F

     SYMMETRY COORDINATES WILL NOT BE USED FOR 
     THE COSMO CALCULATION, EVEN IF SPECIFIED:
         -- SWITCHING TO C1 POINT GROUP --


     DEFINITION OF CAVITY
     ---------------------------
     ATOM         COORDINATES           RADIUS 
     1    2.1288    1.7127    1.8344    2.0000
     2    3.4452    4.0257    2.8832    2.0000
     3    6.0547    3.4826    3.1887    1.7200
     4    0.1088    2.0660    1.5777    1.3000
     5    2.3680    0.0981    3.1067    1.3000
     6    2.9485    1.1696    0.0140    1.3000
     7    3.2450    5.6246    1.5870    1.3000
     8    2.6522    4.5410    4.7213    1.3000
     9    6.8452    4.9979    3.8649    1.3000

          ----------------
          PROPERTIES INPUT
          ----------------

     MOMENTS            FIELD           POTENTIAL          DENSITY
 IEMOM =       1   IEFLD =       0   IEPOT =       0   IEDEN =       0
 WHERE =COMASS     WHERE =NUCLEI     WHERE =NUCLEI     WHERE =NUCLEI  
 OUTPUT=BOTH       OUTPUT=BOTH       OUTPUT=BOTH       OUTPUT=BOTH    
 IEMINT=       0   IEFINT=       0                     IEDINT=       0
                                                       MORB  =       0
          EXTRAPOLATION IN EFFECT
          SOSCF IN EFFECT
 ORBITAL PRINTING OPTION: NPREO=     1    93     2     1

     -------------------------------
     INTEGRAL TRANSFORMATION OPTIONS
     -------------------------------
     NWORD  =            0
     CUTOFF = 1.0E-09     MPTRAN =       0
     DIRTRF =       T     AOINTS =DUP     

          ----------------------
          INTEGRAL INPUT OPTIONS
          ----------------------
 NOPK  =       1 NORDER=       0 SCHWRZ=       T


 -----------------------------------------------
  STATISTICS ON AUTOMATIC COORDINATE GENERATION 
 -----------------------------------------------
  NUMBER OF USER SPECIFIED BONDS                             0
  NUMBER OF BONDS                                            8
  NUMBER OF ANGLES                                          13
  NUMBER OF TORSIONS                                        12
  NUMBER OF EXTRA COORD.                                     0
  NUMBER OF EXTRA COORD. FOR CONSTRAINTS                     0
  NUMBER OF CONSTRAINED COORD.                               0

  TOTAL NUMBER OF PRIMITIVES                                33
 -----------------------------------------------

   --- ENCODED Z MATRIX ---
 COORD  TYPE   I   J   K   L   M   N
    1      1    1   5
    2      1    1   4
    3      1    1   2
    4      1    1   6
    5      1    2   7
    6      1    2   8
    7      1    2   3
    8      1    3   9
    9      2    1   2   3
   10      2    1   2   7
   11      2    1   2   8
   12      2    2   3   9
   13      2    2   1   6
   14      2    2   1   4
   15      2    2   1   5
   16      2    3   2   8
   17      2    3   2   7
   18      2    4   1   6
   19      2    4   1   5
   20      2    5   1   6
   21      2    7   2   8
   22      3    1   2   3   9
   23      3    3   2   1   5
   24      3    3   2   1   6
   25      3    3   2   1   4
   26      3    4   1   2   7
   27      3    4   1   2   8
   28      3    5   1   2   7
   29      3    5   1   2   8
   30      3    6   1   2   7
   31      3    6   1   2   8
   32      3    7   2   3   9
   33      3    8   2   3   9

          INDEP./SYM. INTERNAL COORDINATES
          --------------------------------
 CRD  1=   0.2114 (  3)  0.1507 (  8)  0.7211 (  9) -0.1612 ( 10) -0.1612 ( 11)
          -0.2342 ( 12)  0.1812 ( 13) -0.1989 ( 14)  0.1820 ( 15) -0.2596 ( 16)
          -0.2593 ( 17) -0.1085 ( 20)  0.1149 ( 21)
 CRD  2=  -0.6055 (  3) -0.3486 (  7) -0.1624 (  8) -0.4553 ( 12) -0.3331 ( 14)
           0.2092 ( 18)  0.2095 ( 19)  0.1113 ( 20)
 CRD  3=  -0.2919 ( 10)  0.2910 ( 11) -0.5391 ( 13)  0.5381 ( 15)  0.1868 ( 18)
          -0.1862 ( 19) -0.2946 ( 22)  0.1858 ( 25)
 CRD  4=   0.2969 (  3) -0.4128 (  7) -0.1631 (  8) -0.1193 (  9)  0.2607 ( 10)
           0.2613 ( 11) -0.5377 ( 12)  0.2886 ( 14) -0.1384 ( 16) -0.1381 ( 17)
          -0.1220 ( 18) -0.1224 ( 19) -0.1383 ( 21) -0.1147 ( 28)  0.1146 ( 31)
          -0.1626 ( 32)  0.1627 ( 33)
 CRD  5=  -0.1119 (  1)  0.2105 (  2) -0.1783 (  3) -0.1112 (  4) -0.1179 (  5)
          -0.1178 (  6)  0.1083 (  7)  0.2663 (  9) -0.1144 ( 10) -0.1137 ( 11)
          -0.3711 ( 13)  0.5511 ( 14) -0.3730 ( 15)  0.3387 ( 20)  0.1470 ( 21)
 CRD  6=   0.1290 (  1) -0.1294 (  4)  0.4443 ( 10) -0.4444 ( 11) -0.2206 ( 13)
           0.2197 ( 15)  0.3598 ( 16) -0.3601 ( 17)  0.1272 ( 18) -0.1274 ( 19)
           0.1254 ( 22)  0.1661 ( 23)  0.1660 ( 24)  0.1531 ( 25) -0.1982 ( 32)
          -0.1981 ( 33)
 CRD  7=   0.1363 (  1) -0.1368 (  4)  0.4116 (  5) -0.4114 (  6) -0.1992 ( 13)
           0.1989 ( 15) -0.1942 ( 16)  0.1945 ( 17)  0.1287 ( 18) -0.1290 ( 19)
           0.3551 ( 22) -0.2836 ( 23) -0.2836 ( 24) -0.3126 ( 25)  0.1330 ( 32)
           0.1328 ( 33)
 CRD  8=  -0.4995 (  1) -0.4860 (  2) -0.1576 (  3) -0.4995 (  4)  0.1792 ( 13)
           0.2023 ( 14)  0.1790 ( 15) -0.2014 ( 18) -0.2013 ( 19) -0.1836 ( 20)
 CRD  9=  -0.6160 (  5) -0.6163 (  6)  0.1344 ( 10)  0.1346 ( 11)  0.1753 ( 12)
          -0.2577 ( 21) -0.1556 ( 32)  0.1556 ( 33)
 CRD 10=   0.5568 (  1) -0.5599 (  4) -0.2886 ( 18)  0.2903 ( 19)  0.2233 ( 25)
           0.2069 ( 26)  0.2070 ( 27) -0.1030 ( 28) -0.1029 ( 29) -0.1011 ( 30)
          -0.1010 ( 31)
 CRD 11=   0.3194 (  1) -0.6475 (  2)  0.3136 (  4) -0.1649 ( 18) -0.1621 ( 19)
           0.3358 ( 20)  0.1788 ( 23) -0.1795 ( 24)  0.1926 ( 28)  0.1650 ( 29)
          -0.1656 ( 30) -0.1933 ( 31)
 CRD 12=  -0.3054 (  5)  0.3075 (  6) -0.1097 ( 17) -0.2234 ( 23) -0.2223 ( 24)
          -0.2249 ( 25) -0.3251 ( 26) -0.3134 ( 27) -0.3235 ( 28) -0.3118 ( 29)
          -0.3225 ( 30) -0.3107 ( 31)
 CRD 13=  -0.6433 (  7)  0.1607 (  8)  0.5598 ( 12) -0.1669 ( 16) -0.1586 ( 17)
           0.2166 ( 21) -0.1344 ( 26)  0.1595 ( 27) -0.1493 ( 28)  0.1445 ( 29)
          -0.1195 ( 30)  0.1744 ( 31)
 CRD 14=  -0.1031 (  1) -0.1652 (  2) -0.1031 (  4)  0.1238 (  5)  0.1236 (  6)
           0.1143 (  7)  0.8232 (  8)  0.1708 ( 10)  0.1708 ( 11) -0.1550 ( 12)
          -0.1187 ( 14)  0.1308 ( 18)  0.1307 ( 19) -0.1443 ( 21) -0.1203 ( 32)
           0.1192 ( 33)
 CRD 15=  -0.1127 (  1)  0.1127 (  4)  0.3408 (  5) -0.3405 (  6) -0.4738 ( 22)
          -0.1248 ( 23) -0.1246 ( 24) -0.1705 ( 28) -0.1706 ( 29) -0.1703 ( 30)
          -0.1704 ( 31) -0.4054 ( 32) -0.4050 ( 33)
 CRD 16=  -0.2258 (  1) -0.2426 (  2)  0.1852 (  3) -0.2263 (  4)  0.1019 (  5)
           0.1026 (  6)  0.1794 (  7) -0.4338 (  8)  0.1616 (  9)  0.1478 ( 10)
           0.1479 ( 11)  0.1922 ( 12) -0.2209 ( 13) -0.2350 ( 14) -0.2207 ( 15)
          -0.1689 ( 16) -0.1686 ( 17)  0.2433 ( 18)  0.2429 ( 19)  0.2212 ( 20)
          -0.1297 ( 21) -0.1744 ( 32)  0.1757 ( 33)
 CRD 17=   0.2138 (  1) -0.5265 (  3)  0.2135 (  4)  0.3488 (  7) -0.1294 (  8)
           0.1018 (  9)  0.1720 ( 10)  0.1721 ( 11)  0.1127 ( 13)  0.1402 ( 14)
           0.1126 ( 15) -0.2297 ( 16) -0.2296 ( 17) -0.2777 ( 20) -0.1012 ( 23)
           0.1014 ( 24) -0.1139 ( 26)  0.1137 ( 27) -0.2150 ( 28)  0.2153 ( 31)
          -0.1318 ( 32)  0.1323 ( 33)
 CRD 18=  -0.3622 (  2)  0.3512 (  3) -0.2119 (  5) -0.2167 (  6)  0.1672 (  7)
          -0.1166 ( 10) -0.1159 ( 11) -0.1621 ( 12)  0.1830 ( 18)  0.1864 ( 19)
          -0.1635 ( 20)  0.3190 ( 21) -0.1622 ( 23)  0.1637 ( 24) -0.1227 ( 26)
           0.1243 ( 27) -0.2880 ( 28)  0.2848 ( 31)  0.1988 ( 32) -0.1927 ( 33)
 CRD 19=  -0.2808 (  1)  0.2793 (  4)  0.2393 (  5) -0.2353 (  6)  0.1869 ( 16)
          -0.1871 ( 17) -0.2169 ( 18)  0.2139 ( 19)  0.1779 ( 22)  0.3618 ( 25)
           0.1136 ( 26)  0.1112 ( 27) -0.1906 ( 28) -0.1930 ( 29) -0.1933 ( 30)
          -0.1957 ( 31)  0.3276 ( 32)  0.3314 ( 33)
 CRD 20=  -0.1254 (  1)  0.2558 (  2) -0.1445 (  4) -0.1397 (  5) -0.1595 (  6)
           0.2823 (  7) -0.2181 (  9)  0.1018 ( 11)  0.1164 ( 13) -0.2199 ( 14)
           0.1010 ( 15) -0.1111 ( 17) -0.1009 ( 19)  0.1991 ( 20)  0.2336 ( 21)
           0.2045 ( 23) -0.1793 ( 24) -0.2230 ( 26)  0.1940 ( 27)  0.4002 ( 29)
          -0.4005 ( 30)
 CRD 21=   0.2380 (  1) -0.2270 (  4)  0.2393 (  5) -0.2266 (  6) -0.2000 ( 10)
           0.1921 ( 11)  0.1824 ( 13) -0.1913 ( 15)  0.1537 ( 16) -0.1449 ( 17)
           0.1820 ( 18) -0.1744 ( 19) -0.1288 ( 22)  0.2948 ( 23)  0.3105 ( 24)
          -0.3413 ( 26) -0.3591 ( 27)  0.1959 ( 32)  0.2029 ( 33)

 THE DETERMINANT OF THE G MATRIX IS 10**(    -5)


                     --------------------
                     INTERNAL COORDINATES
                     --------------------

                 - - ATOMS - -         COORDINATE      COORDINATE
 NO.   TYPE    I  J  K  L  M  N        (BOHR,RAD)       (ANG,DEG)
 ----------------------------------------------------------------
   1 STRETCH   1  5                     2.0695388       1.0951529
   2 STRETCH   1  4                     2.0666017       1.0935986
   3 STRETCH   1  2                     2.8605811       1.5137545
   4 STRETCH   1  6                     2.0689937       1.0948644
   5 STRETCH   2  7                     2.0679844       1.0943303
   6 STRETCH   2  8                     2.0671346       1.0938806
   7 STRETCH   2  3                     2.6828988       1.4197290
   8 STRETCH   3  9                     1.8380335       0.9726455
   9 BEND      1  2  3                  1.9025149     109.0060748
  10 BEND      1  2  7                  1.9292636     110.5386603
  11 BEND      1  2  8                  1.9295195     110.5533237
  12 BEND      2  3  9                  1.8684767     107.0558311
  13 BEND      2  1  6                  1.9310415     110.6405269
  14 BEND      2  1  4                  1.9359054     110.9192102
  15 BEND      2  1  5                  1.9307428     110.6234135
  16 BEND      3  2  8                  1.8989392     108.8012040
  17 BEND      3  2  7                  1.8986650     108.7854925
  18 BEND      4  1  6                  1.8995837     108.8381273
  19 BEND      4  1  5                  1.8994172     108.8285913
  20 BEND      5  1  6                  1.8653661     106.8776054
  21 BEND      7  2  8                  1.9044249     109.1155091
  22 TORSION   1  2  3  9              -3.1401995    -179.9201797
  23 TORSION   3  2  1  5               1.0306050      59.0493162
  24 TORSION   3  2  1  6              -1.0331644     -59.1959572
  25 TORSION   3  2  1  4               3.1401079     179.9149275
  26 TORSION   4  1  2  7              -1.0570211     -60.5628507
  27 TORSION   4  1  2  8               1.0535589      60.3644770
  28 TORSION   5  1  2  7               3.1166613     178.5715380
  29 TORSION   5  1  2  8              -1.0559440     -60.5011342
  30 TORSION   6  1  2  7               1.0528919      60.3262646
  31 TORSION   6  1  2  8              -3.1197133    -178.7464076
  32 TORSION   7  2  3  9               1.0380403      59.4753272
  33 TORSION   8  2  3  9              -1.0347779     -59.2884084

     ------------------------------------------
     THE POINT GROUP IS C1 , NAXIS= 1, ORDER= 1
     ------------------------------------------

     DIMENSIONS OF THE SYMMETRY SUBSPACES ARE
 A   =   93

 ..... DONE SETTING UP THE RUN .....
 STEP CPU TIME =     0.00 TOTAL CPU TIME =        0.0 (    0.0 MIN)
 TOTAL WALL CLOCK TIME=        0.0 SECONDS, CPU UTILIZATION IS   0.00%


          -----------------------------
          STATIONARY POINT LOCATION RUN
          -----------------------------

 OBTAINING INITIAL HESSIAN, HESS=GUESS   
 DIAGONAL GUESS HESSIAN IN INTERNAL COORDS IS
     1  0.3429     2  0.3440     3  0.3789     4  0.3431     5  0.3435
     6  0.3438     7  0.3674     8  0.3514     9  0.2447    10  0.2248
    11  0.2248    12  0.2145    13  0.2248    14  0.2248    15  0.2247
    16  0.2197    17  0.2197    18  0.2030    19  0.2030    20  0.2029
    21  0.2030    22  0.2500    23  0.2500    24  0.2500    25  0.2500
    26  0.2500    27  0.2500    28  0.2500    29  0.2500    30  0.2500
    31  0.2500    32  0.2500    33  0.2500
 TRANSFORMING HESSIAN TO SYMMETRY COORDINATES

          PARAMETERS CONTROLLING GEOMETRY SEARCH ARE
          METHOD =QA                  UPHESS =BFGS    
          NNEG   =         0          NFRZ   =         3
          NSTEP  =        50          IFOLOW =         1
          HESS   =GUESS               RESTAR =         F
          IHREP  =         0          HSSEND =         F
          NPRT   =         0          NPUN   =         0
          OPTTOL = 5.000E-04          RMIN   = 1.500E-03
          RMAX   = 1.000E-01          RLIM   = 7.000E-02
          DXMAX  = 3.000E-01          PURIFY =         F
          MOVIE  =         F          TRUPD  =         T
          TRMAX  = 5.000E-01          TRMIN  = 5.000E-02
          ITBMAT =         5          STPT   =         F
          STSTEP = 1.000E-02          PROJCT=          F
          FROZEN COORD(S)=   1   2   3


      ***** EQUILIBRIUM GEOMETRY LOCATED *****
            (SUBJECT TO   3 CONSTRAINT(S))
 COORDINATES OF ALL ATOMS ARE (ANGS)
   ATOM   CHARGE       X              Y              Z
 ------------------------------------------------------------
 C           6.0   1.1258011854   0.9023312285   0.9692280405
 C           6.0   1.8285539920   2.1278394115   1.5258240668
 O           8.0   3.2043890414   1.8488789260   1.6895481751
 H           1.0   0.0667790253   1.1091895845   0.8419695733
 H           1.0   1.2264177241   0.0541930601   1.6406575983
 H           1.0   1.5340808773   0.6216298276   0.0023891395
 H           1.0   1.7004083660   2.9676507330   0.8475345496
 H           1.0   1.3911718876   2.4023769547   2.4824258998
 H           1.0   3.6323486669   2.6149232607   2.0366792781


                     --------------------
                     INTERNAL COORDINATES
                     --------------------

                 - - ATOMS - -         COORDINATE      COORDINATE
 NO.   TYPE    I  J  K  L  M  N        (BOHR,RAD)       (ANG,DEG)
 ----------------------------------------------------------------
   1 STRETCH   1  5                     2.0530111       1.0864068
   2 STRETCH   1  4                     2.0532141       1.0865142
   3 STRETCH   1  2                     2.8693552       1.5183975
   4 STRETCH   1  6                     2.0529966       1.0863991
   5 STRETCH   2  7                     2.0543164       1.0870975
   6 STRETCH   2  8                     2.0542991       1.0870883
   7 STRETCH   2  3                     2.6708365       1.4133459
   8 STRETCH   3  9                     1.7832380       0.9436490
   9 BEND      1  2  3                  1.9110245     109.4936356
  10 BEND      1  2  7                  1.9179632     109.8911960
  11 BEND      1  2  8                  1.9179080     109.8880338
  12 BEND      2  3  9                  1.9006081     108.8968237
  13 BEND      2  1  6                  1.9399546     111.1512095
  14 BEND      2  1  4                  1.9181240     109.9004080
  15 BEND      2  1  5                  1.9397931     111.1419601
  16 BEND      3  2  8                  1.9172600     109.8509090
  17 BEND      3  2  7                  1.9171890     109.8468404
  18 BEND      4  1  6                  1.8873120     108.1350096
  19 BEND      4  1  5                  1.8873457     108.1369444
  20 BEND      5  1  6                  1.8896693     108.2700733
  21 BEND      7  2  8                  1.8823385     107.8500517
  22 TORSION   1  2  3  9              -3.1401829    -179.9192245
  23 TORSION   3  2  1  5               1.0516786      60.2567477
  24 TORSION   3  2  1  6              -1.0543218     -60.4081892
  25 TORSION   3  2  1  4               3.1402407     179.9225400
  26 TORSION   4  1  2  7              -1.0357034     -59.3414361
  27 TORSION   4  1  2  8               1.0329465      59.1834760
  28 TORSION   5  1  2  7              -3.1242655    -179.0072284
  29 TORSION   5  1  2  8              -1.0556156     -60.4823163
  30 TORSION   6  1  2  7               1.0529193      60.3278347
  31 TORSION   6  1  2  8               3.1215693     178.8527468
  32 TORSION   7  2  3  9               1.0352911      59.3178081
  33 TORSION   8  2  3  9              -1.0324951     -59.1576095

          INTERNUCLEAR DISTANCES (ANGS.)


 =====================================================
   GAMESS/COSab RESULTS
 =====================================================

   Dielectric Constant                  = INFTY
   Basic Grid Size                      =                 1082
   Number of Segments                   =                   92
   Number of Segments located on spheres=                  162
   Number of Segments of the cavity     =                  361
   Solvent Radius (rsolv)               = 1.40
   Outlying Charge Error Method         = double cavity

 =====================================================

  Total solvated Energy (a.u.)          =  -154.1350060679
  Total Energy corrected (a.u.)         =  -154.1349687922

  Outlying charge effect (a.u.)         =     0.0000372757
  Outlying charge effect (kcal/mol)     =     0.0233908882

  Dielectric Energy (a.u.)              =    -0.0103839142
  Dielectric energy corr. (a.u.)        =    -0.0103466385

  Sum of polarization charges           =     0.0172443720
  Sum of polarization charges(cor.)     =    -0.0172443720

  Total surface area of cavity (A**2)   =   87.37
  Total volume of cavity (A**3)         =   69.17

 =====================================================
 NPS=                   361
NR.  ATOM  (X, Y, Z)(a.u.)                  CHARGE(e)  AREA(A**2) SIGMA(e/A**2)
   1   1   0.623521   1.756218  -1.635393   0.000947   0.232280   0.004076
   2   1   0.039694  -1.324666   0.968039   0.000673   0.371649   0.001812
   3   1  -0.341009   0.296362   4.322794   0.001532   0.371649   0.004122
   4   1   5.258056  -0.151515   0.813517   0.000501   0.139368   0.003596
   5   1   4.770993  -0.790475   0.798202   0.000629   0.185824   0.003385
   6   1   4.934510  -0.800640   2.186163   0.000463   0.139368   0.003325
   7   1  -0.971502   0.715968   3.755674   0.000965   0.278737   0.003463
   8   1  -0.789768  -0.550636   1.003652   0.000857   0.418105   0.002051
   9   1  -0.016915   2.145749  -1.249307   0.001434   0.371649   0.003858
  10   1   0.124783   4.343344   0.011269   0.000105   0.185824   0.000565
  11   1   3.523245  -1.616616   0.690560   0.001576   0.371649   0.004241
  12   1   3.569390  -1.761574   1.399238   0.000937   0.232280   0.004032
  13   1   0.799738   3.951358  -0.902655   0.000534   0.278737   0.001915
  14   1   0.998133   2.966871  -1.547330   0.001307   0.371649   0.003517
  15   1   0.176866   0.630469  -1.222036   0.002079   0.511017   0.004069
  16   1  -0.040817  -0.638477  -0.190864   0.000922   0.418105   0.002206
  17   1  -0.230058  -1.226367   2.195643   0.001325   0.418105   0.003170
  18   1  -0.550296  -0.458848   3.390723   0.001488   0.325193   0.004574
  19   1  -0.509749   1.548496   4.534312   0.000907   0.325193   0.002788
  20   1  -0.252730   2.329115   4.700297   0.000256   0.139368   0.001839
  21   1   2.819834   3.482051  -1.431486   0.000073   0.139368   0.000524
  22   1   2.113329  -1.614887   0.025634   0.001119   0.371649   0.003010
  23   1   0.959638  -1.516238   0.236860   0.000939   0.464561   0.002020
  24   1   0.837470  -1.833157   1.514478   0.000743   0.325193   0.002284
  25   1   0.324427   0.827781   5.035243   0.000731   0.278737   0.002621
  26   1   1.327659   1.265575   5.499174   0.000147   0.185824   0.000789
  27   1   4.621060  -1.120284   1.543233   0.001381   0.371649   0.003717
  28   1  -0.731328   2.598120   4.136818   0.000199   0.185824   0.001073
  29   1  -0.874351  -0.506818   2.448464   0.001083   0.325193   0.003331
  30   1  -0.457113   0.185503  -0.469497   0.000712   0.278737   0.002555
  31   1   0.180945   3.395945  -0.931864   0.000606   0.232280   0.002610
  32   1   2.078901  -1.994140   1.058825   0.001353   0.418105   0.003235
  33   1   1.822561   3.589292  -1.430536   0.000636   0.278737   0.002283
  34   1   0.903320  -0.704936  -0.809874   0.000869   0.371649   0.002338
  35   1   0.421068   1.572205   5.201255   0.000396   0.232280   0.001706
  36   2   5.084775   4.414000  -0.504119   0.000314   0.185824   0.001691
  37   2   0.075552   5.709111   2.779507  -0.000349   0.232280  -0.001504
  38   2   2.755442   7.446583   4.318574   0.000938   0.418105   0.002243
  39   2   3.158853   2.315670   6.243154   0.000100   0.139368   0.000720
  40   2   3.967957   1.939946   5.996378   0.000237   0.139368   0.001700
  41   2   4.368675   3.324576   6.484117   0.000249   0.092912   0.002685
  42   2   5.055896   7.402280   2.344875  -0.000160   0.092912  -0.001722
  43   2   2.650158   7.679210   3.386784   0.000603   0.278737   0.002162
  44   2   0.452414   6.125222   1.967812  -0.000549   0.371649  -0.001477
  45   2   5.189924   5.161159  -0.275097   0.000150   0.185824   0.000805
  46   2   0.551577   6.394820   3.348967   0.000090   0.371649   0.000243
  47   2   1.570760   7.143292   3.875138   0.000725   0.325193   0.002228
  48   2   4.029030   7.565550   4.063055   0.000209   0.371649   0.000564
  49   2   4.649271   7.564484   3.433822  -0.000362   0.092912  -0.003896
  50   2   0.088047   5.449154   3.834794  -0.000398   0.278737  -0.001429
  51   2   3.836408   7.121290   5.011175  -0.000150   0.371649  -0.000405
  52   2   4.459077   6.239268   5.774132  -0.000117   0.046456  -0.002510
  53   2   3.861330   2.605275   6.364073   0.000387   0.185824   0.002083
  54   2   4.199136   7.716693   3.154016  -0.000033   0.232280  -0.000141
  55   2   1.126317   6.989834   3.096650   0.000299   0.278737   0.001072
  56   2   4.400009   4.646622  -0.722267   0.000015   0.139368   0.000104
  57   2   5.596284   6.003313   0.480950   0.000405   0.092912   0.004362
  58   3   6.678120   0.707938   4.746968   0.006083   0.309230   0.019672
  59   3   8.039610   1.463861   1.609542   0.004426   0.240512   0.018403
  60   3   9.002837   2.932124   4.442492   0.001622   0.274871   0.005902
  61   3   8.461279   4.746841   1.402120   0.003124   0.343589   0.009092
  62   3   6.273286   3.710999   6.428529   0.002085   0.240512   0.008671
  63   3   6.666552   0.391756   3.946484   0.002792   0.137436   0.020312
  64   3   7.234579   0.839542   1.733759   0.005304   0.274871   0.019295
  65   3   7.396055   0.583931   3.740135   0.005911   0.309230   0.019115
  66   3   7.829363   0.833148   2.611147   0.006425   0.343589   0.018700
  67   3   7.488875   1.794216   0.821921   0.008344   0.377948   0.022078
  68   3   7.098278   2.705582   0.216939   0.004836   0.240512   0.020106
  69   3   5.983820   1.156114   5.449871   0.005563   0.240512   0.023129
  70   3   9.293640   3.448495   3.469288   0.000747   0.274871   0.002718
  71   3   9.125023   4.072584   2.294342   0.001676   0.309230   0.005420
  72   3   7.718095   5.282268   1.047622   0.002275   0.240512   0.009458
  73   3   7.050282   5.819377   1.151497   0.001010   0.171795   0.005877
  74   3   7.401067   3.270747   6.143053   0.002698   0.309230   0.008725
  75   3   8.344223   3.015180   5.450405   0.002025   0.309230   0.006549
  76   3   7.733143   1.171153   4.727341   0.006856   0.377948   0.018141
  77   3   8.491234   2.036228   4.776041   0.004801   0.377948   0.012703
  78   3   9.055162   2.281680   3.503808   0.005426   0.481025   0.011280
  79   3   8.653851   1.653178   2.541165   0.006185   0.377948   0.016364
  80   3   8.562025   2.342107   1.473784   0.007098   0.412307   0.017214
  81   3   8.657585   3.551997   1.246009   0.006665   0.446666   0.014921
  82   3   7.768618   4.268104   0.541351   0.006185   0.377948   0.016366
  83   3   6.896182   3.882330   0.077208   0.006433   0.343589   0.018724
  84   3   5.967218   2.989080   6.402468   0.003247   0.240512   0.013502
  85   3   6.741842   2.538646   6.222804   0.004106   0.274871   0.014937
  86   3   6.800324   1.518093   5.663832   0.006442   0.343589   0.018750
  87   3   6.929663   0.383515   2.837775   0.004651   0.240512   0.019339
  88   3   8.318054   1.204502   3.644335   0.006356   0.377948   0.016818
  89   3   7.871336   3.028200   0.537565   0.006488   0.343589   0.018882
  90   3   5.805094   1.983598   6.060028   0.004428   0.274871   0.016109
  91   3   9.159713   2.976626   2.380135   0.004494   0.412307   0.010900
  92   3   6.973691   5.017849   0.472700   0.002611   0.206154   0.012667
  93   3   7.693447   2.113828   5.637571   0.005711   0.377948   0.015111
  94   4  -2.278903   2.493803   1.287028  -0.003810   0.588831  -0.006470
  95   4  -1.266261   2.442938  -0.402858  -0.000993   0.372926  -0.002663
  96   4  -1.142761   4.036510   0.778973  -0.001148   0.353299  -0.003249
  97   4  -1.573964   3.310175   2.883593  -0.001330   0.353299  -0.003765
  98   4  -1.901349   1.283586   2.715417  -0.001046   0.372926  -0.002805
  99   4  -1.756999   0.766845   0.741459  -0.001292   0.412182  -0.003134
 100   4  -1.515694   3.308928   0.224244  -0.002111   0.471065  -0.004481
 101   4  -1.744703   3.673721   1.805303  -0.002346   0.490692  -0.004780
 102   4  -1.985356   2.386424   2.812654  -0.002071   0.471065  -0.004395
 103   4  -2.115166   1.097167   1.707940  -0.002132   0.471065  -0.004526
 104   4  -1.804116   1.693110   0.125951  -0.002200   0.490692  -0.004484
 105   5   2.396142  -1.890404   4.534822  -0.003240   0.549575  -0.005896
 106   5   3.339664  -0.616888   5.215357  -0.001475   0.333671  -0.004421
 107   5   4.061141  -1.600890   3.406778  -0.000874   0.333671  -0.002620
 108   5   2.311483  -2.333136   2.779262  -0.000920   0.353299  -0.002605
 109   5   0.718960  -1.511709   4.035308  -0.000879   0.372926  -0.002357
 110   5   1.552788  -0.225795   5.411769  -0.000956   0.353299  -0.002706
 111   5   3.690774  -1.384983   4.492194  -0.002495   0.471065  -0.005297
 112   5   3.234044  -2.171136   3.262123  -0.001831   0.490692  -0.003732
 113   5   1.486154  -2.177407   3.482758  -0.001899   0.490692  -0.003870
 114   5   1.196639  -1.148714   4.892943  -0.001860   0.471065  -0.003948
 115   5   2.447988  -0.638160   5.439121  -0.001774   0.412182  -0.004303
 116   6   3.768897   0.491185  -2.188933  -0.003495   0.588831  -0.005935
 117   6   4.128202  -0.822564  -0.726967  -0.000671   0.314043  -0.002138
 118   6   4.908246   0.879863  -1.377921  -0.001716   0.353299  -0.004858
 119   6   3.690708   2.403840  -1.969716  -0.001125   0.353299  -0.003184
 120   6   2.017222   1.245783  -2.287331  -0.000882   0.372926  -0.002364
 121   6   2.388232  -0.635723  -1.575537  -0.001077   0.412182  -0.002613
 122   6   4.813920  -0.049401  -0.928091  -0.001669   0.431809  -0.003866
 123   6   4.449305   1.689518  -1.830334  -0.002105   0.412182  -0.005107
 124   6   2.967462   1.814612  -2.366347  -0.001833   0.471065  -0.003891
 125   6   2.321285   0.248422  -2.196250  -0.001874   0.471065  -0.003979
 126   6   3.487486  -0.721191  -1.442676  -0.001856   0.471065  -0.003941
 127   7   2.997428   7.535342   0.093630  -0.003605   0.608459  -0.005926
 128   7   2.473770   6.156379  -0.676004  -0.001447   0.353299  -0.004096
 129   7   4.462066   6.342021  -0.382575  -0.000881   0.333671  -0.002640
 130   7   4.514266   7.641262   1.144869  -0.001351   0.353299  -0.003824
 131   7   2.485309   7.933911   1.910517  -0.000988   0.372926  -0.002649
 132   7   1.187619   6.759835   0.823762  -0.001255   0.353299  -0.003552
 133   7   3.471030   6.215686  -0.764709  -0.001965   0.490692  -0.004004
 134   7   4.450066   7.195255   0.192254  -0.002073   0.490692  -0.004225
 135   7   3.515975   8.038958   1.416902  -0.001925   0.510320  -0.003771
 136   7   1.866150   7.606654   1.126429  -0.002187   0.490692  -0.004457
 137   7   1.763861   6.648358  -0.087161  -0.002008   0.490692  -0.004092
 138   8   1.598227   5.195378   6.822551  -0.003213   0.549575  -0.005847
 139   8   3.475871   4.424429   6.994256  -0.001052   0.372926  -0.002820
 140   8   1.970923   3.264258   6.684866  -0.001125   0.353299  -0.003185
 141   8   0.367483   4.659077   5.643357  -0.001653   0.392554  -0.004211
 142   8   1.224950   6.414904   5.431426  -0.001099   0.372926  -0.002946
 143   8   3.080649   6.349751   6.289625  -0.001262   0.412182  -0.003063
 144   8   2.467126   4.015743   7.085744  -0.002193   0.490692  -0.004469
 145   8   0.987048   3.963122   6.425112  -0.002021   0.490692  -0.004119
 146   8   0.692271   5.599176   5.769199  -0.001934   0.431809  -0.004479
 147   8   2.016761   6.445689   6.115216  -0.001924   0.471065  -0.004084
 148   8   3.082553   5.435709   6.933150  -0.002154   0.490692  -0.004390
 149   9   7.979152   6.888603   4.849083  -0.008811   0.471065  -0.018705
 150   9   8.914030   5.878633   2.871607  -0.006053   0.451437  -0.013409
 151   9   8.980860   4.896382   5.094789  -0.006828   0.471065  -0.014494
 152   9   6.947075   5.430867   6.254746  -0.006838   0.471065  -0.014517
 153   9   6.745493   7.139606   4.939336  -0.006683   0.353299  -0.018915
 154   9   7.283620   7.147965   2.853454  -0.005888   0.353299  -0.016665
 155   9   8.953663   6.147414   4.312200  -0.008637   0.490692  -0.017601
 156   9   8.216207   5.960837   5.628645  -0.008555   0.490692  -0.017435
 157   9   6.763796   6.476919   5.763841  -0.007136   0.451437  -0.015808
 158   9   6.977559   7.394879   3.904992  -0.007058   0.412182  -0.017123
 159   9   8.263996   6.928306   3.490849  -0.007877   0.451437  -0.017448
 160   9   9.317284   5.072592   3.852024  -0.005341   0.412182  -0.012957
 161   9   8.079601   4.807252   5.979432  -0.004503   0.372926  -0.012074
 162   9   7.902149   6.503171   2.261686  -0.004479   0.392554  -0.011411
 163   1  -0.008837   4.628375   0.721354  -0.000086   0.027220  -0.003171
 164   2   0.247734   5.001620   0.921158  -0.000093   0.027220  -0.003406
 165   4  -0.265040   4.475572   0.774493  -0.000120   0.027220  -0.004424
 166   1  -0.568682   3.595704   3.701914  -0.000077   0.027220  -0.002818
 167   2  -0.304860   3.982321   3.863124  -0.000100   0.027220  -0.003672
 168   4  -0.774743   3.535389   3.488109  -0.000088   0.027220  -0.003243
 169   1   2.222898   1.139095   5.574153  -0.000039   0.025587  -0.001519
 170   2   2.457399   1.551657   5.714931  -0.000020   0.025587  -0.000773
 171   5   2.269124   0.841986   5.537708  -0.000080   0.025587  -0.003120
 172   1   3.498699   3.490096  -1.213123  -0.000026   0.025573  -0.001033
 173   2   3.718161   3.874947  -0.992347  -0.000014   0.025573  -0.000545
 174   6   3.563613   3.227629  -1.349631  -0.000047   0.025573  -0.001844
 175   1   3.152546   4.155663  -1.004941  -0.000011   0.027274  -0.000398
 176   2   3.387459   4.567772  -0.863360  -0.000048   0.027274  -0.001772
 177   7   3.326916   4.863110  -0.830358  -0.000074   0.027274  -0.002720
 178   1   0.503172   4.982579   0.519421  -0.000089   0.027274  -0.003252
 179   2   0.703326   5.405537   0.681001  -0.000127   0.027274  -0.004666
 180   7   0.883197   5.625838   0.575676  -0.000178   0.027274  -0.006523
 181   1  -0.196923   3.703064   4.220526  -0.000083   0.027278  -0.003033
 182   2  -0.004135   4.112556   4.421058  -0.000117   0.027278  -0.004291
 183   8   0.105165   4.203846   4.688825  -0.000132   0.027278  -0.004826
 184   1   1.883163   1.834786   5.707783  -0.000027   0.027278  -0.000974
 185   2   2.103240   2.219768   5.927826  -0.000057   0.027278  -0.002098
 186   8   2.023786   2.480591   6.060635  -0.000102   0.027278  -0.003722
 187   2   0.511264   5.319287   0.796355  -0.000084   0.047806  -0.001749
 188   1   0.149208   4.744484   0.583172  -0.000030   0.047806  -0.000628
 189   2  -0.151160   4.162000   4.180808  -0.000083   0.046074  -0.001794
 190   1  -0.464180   3.560037   3.965514  -0.000019   0.046074  -0.000413
 191   2   2.286001   1.980197   5.907544   0.000005   0.076530   0.000067
 192   1   2.037981   1.361824   5.646312   0.000027   0.076530   0.000351
 193   2   3.655071   4.301750  -0.932564   0.000018   0.075068   0.000241
 194   1   3.247899   3.774019  -1.192425   0.000056   0.075068   0.000741
 195   1   4.995473  -0.458790   3.099307   0.000360   0.056220   0.006404
 196   3   5.623118   0.020202   3.312933   0.001027   0.056220   0.018266
 197   5   4.804078  -0.603211   3.285794   0.000032   0.056220   0.000561
 198   1   5.477215   0.430302   0.539829   0.000342   0.056088   0.006101
 199   3   6.081655   0.866660   0.876344   0.000904   0.056088   0.016111
 200   6   5.374207   0.449045   0.254702   0.000085   0.056088   0.001521
 201   3   6.260500   0.185473   2.884897   0.004864   0.329908   0.014744
 202   3   6.522111   0.668288   1.495547   0.004781   0.329908   0.014493
 203   1   5.418343  -0.105608   1.821970   0.003954   0.724229   0.005459
 204   4  -0.544741   4.161537   0.441284  -0.000197   0.067958  -0.002906
 205   4  -0.608890   3.369111  -0.313051  -0.000409   0.150337  -0.002721
 206   4  -0.820518   2.096649  -0.620353  -0.000392   0.150337  -0.002608
 207   4  -1.114357   0.914080  -0.097313  -0.000406   0.150337  -0.002699
 208   4  -1.372712   0.295074   1.046568  -0.000465   0.150337  -0.003094
 209   4  -1.492101   0.487569   2.353118  -0.000332   0.150337  -0.002211
 210   4  -1.424703   1.414463   3.299008  -0.000434   0.150337  -0.002884
 211   4  -1.197514   2.704494   3.505368  -0.000515   0.150337  -0.003423
 212   1  -0.178884   4.003482   0.001446  -0.000348   0.149491  -0.002331
 213   1  -0.330650   2.744993  -0.781345  -0.000175   0.149491  -0.001169
 214   1  -0.629982   1.291148  -0.653587  -0.000085   0.149491  -0.000570
 215   1  -0.956987   0.224273   0.333547  -0.000266   0.149491  -0.001780
 216   1  -1.180683  -0.028303   1.784669  -0.000193   0.149491  -0.001294
 217   1  -1.211471   0.634588   3.118541  -0.000083   0.149491  -0.000557
 218   1  -1.037020   1.947430   3.800892  -0.000218   0.149491  -0.001461
 219   1  -0.799919   3.132693   3.754439  -0.000157   0.083025  -0.001896
 220   5   1.908036   0.437756   5.498078  -0.000170   0.070616  -0.002407
 221   5   0.955436  -0.012148   5.072521  -0.000419   0.157500  -0.002663
 222   5   0.361570  -0.822569   4.137820  -0.000299   0.157500  -0.001898
 223   5   0.659724  -1.632072   3.070611  -0.000384   0.157500  -0.002439
 224   5   1.721134  -2.091060   2.331787  -0.000432   0.157500  -0.002745
 225   5   3.087415  -2.001313   2.240419  -0.000254   0.157500  -0.001611
 226   5   4.168515  -1.401588   2.835967  -0.000333   0.157500  -0.002117
 227   1   1.376959   0.676721   5.337318  -0.000311   0.154127  -0.002018
 228   1   0.292815  -0.079486   4.544564  -0.000131   0.154127  -0.000853
 229   1   0.116981  -1.042712   3.354205  -0.000137   0.154127  -0.000887
 230   1   0.925394  -1.796972   2.280316  -0.000168   0.154127  -0.001087
 231   1   2.368928  -2.016527   1.786674  -0.000095   0.154127  -0.000613
 232   1   3.824169  -1.606559   2.086465   0.000024   0.154127   0.000154
 233   1   4.637008  -0.956474   2.785824   0.000079   0.086273   0.000917
 234   6   5.021353  -0.057797  -0.069759  -0.000075   0.070643  -0.001056
 235   6   4.198814  -0.832620  -0.192155  -0.000305   0.157575  -0.001933
 236   6   2.936316  -1.137173  -0.636870  -0.000309   0.157575  -0.001961
 237   6   1.849700  -0.574544  -1.259076  -0.000411   0.157575  -0.002606
 238   6   1.408599   0.612102  -1.789858  -0.000289   0.157575  -0.001834
 239   6   1.803656   1.909898  -1.999813  -0.000368   0.157575  -0.002336
 240   6   2.864128   2.757941  -1.798199  -0.000483   0.157575  -0.003065
 241   1   4.765670  -0.449681   0.312569  -0.000031   0.154173  -0.000199
 242   1   3.484089  -1.249268   0.003516   0.000059   0.154173   0.000382
 243   1   2.087217  -1.095806  -0.630915  -0.000163   0.154173  -0.001056
 244   1   1.178780  -0.055621  -1.316525  -0.000154   0.154173  -0.000997
 245   1   1.151400   1.421721  -1.756995   0.000001   0.154173   0.000007
 246   1   2.016912   2.697718  -1.761955  -0.000120   0.154173  -0.000782
 247   1   3.095937   3.267892  -1.471835  -0.000080   0.086306  -0.000931
 248   7   2.937567   5.151576  -0.824873  -0.000620   0.211514  -0.002933
 249   7   1.622204   5.556445  -0.164442  -0.002330   0.434901  -0.005358
 250   1   2.018261   4.315666  -0.891691  -0.000234   0.577562  -0.000406
 251   1   0.604012   4.762251   0.009808   0.000038   0.298005   0.000129
 252   8   0.239431   4.003559   5.109241  -0.000873   0.211540  -0.004125
 253   8   1.178316   3.070294   5.869743  -0.002132   0.434958  -0.004902
 254   1   0.131257   2.792633   4.844050  -0.000448   0.577628  -0.000776
 255   1   1.327085   1.800530   5.617820   0.000212   0.298041   0.000712
 256   2   4.227058   1.316085   5.460597   0.000469   0.094859   0.004940
 257   3   4.697502   1.305758   5.408471   0.001145   0.094859   0.012074
 258   5   3.902818   0.675148   5.225673   0.000159   0.094859   0.001681
 259   2   5.328684   3.331126  -0.367557   0.000489   0.094802   0.005154
 260   3   5.754066   3.238499  -0.181531   0.001326   0.094802   0.013982
 261   6   5.019278   2.719531  -0.685995   0.000076   0.094802   0.000803
 262   2   6.142757   6.418166   1.478839  -0.000135   0.038727  -0.003498
 263   3   6.583968   6.274801   1.564099  -0.000125   0.038727  -0.003232
 264   9   6.718841   6.433118   1.810300  -0.000370   0.038727  -0.009563
 265   2   5.243176   4.768757   6.227867  -0.000135   0.038727  -0.003480
 266   3   5.701249   4.656310   6.224106  -0.000133   0.038727  -0.003440
 267   9   5.890391   4.914131   6.183812  -0.000382   0.038727  -0.009870
 268   3   5.521402   4.125950   6.335918   0.000730   0.166545   0.004380
 269   3   5.221837   2.486179   6.059367   0.004994   0.345341   0.014462
 270   2   4.735246   3.619373   6.329132   0.001431   0.357807   0.003999
 271   2   4.447003   1.945194   5.898815   0.001298   0.182206   0.007124
 272   3   6.234879   3.911268  -0.025274   0.002548   0.167021   0.015254
 273   3   6.450029   5.413919   0.726998   0.003278   0.346423   0.009463
 274   2   5.700782   4.679100   0.021192   0.002558   0.358824   0.007128
 275   2   5.894886   6.170070   0.930413   0.000141   0.182727   0.000773
 276   4  -0.957205   3.750572   3.094961  -0.000693   0.211148  -0.003284
 277   4  -0.736696   4.309680   1.694031  -0.002429   0.434106  -0.005594
 278   2  -0.241996   4.765713   3.024292  -0.001659   0.576604  -0.002877
 279   2   0.102011   5.261485   1.399543  -0.000413   0.297493  -0.001387
 280   5   3.055771   0.423752   5.408361  -0.000942   0.293495  -0.003210
 281   2   3.162196   1.513586   5.772591   0.000122   0.412843   0.000297
 282   6   4.059624   2.860038  -1.330721  -0.000972   0.295116  -0.003293
 283   2   4.633563   3.676737  -0.750897   0.000228   0.415111   0.000550
 284   2   5.497474   7.084552   1.990455  -0.000132   0.009118  -0.014490
 285   7   5.278454   7.156416   1.794613  -0.000092   0.009118  -0.010141
 286   9   6.073531   6.980089   2.302088  -0.000240   0.009118  -0.026346
 287   2   5.700376   6.775147   1.569036  -0.000087   0.009118  -0.009489
 288   7   5.460896   6.878210   1.415690  -0.000096   0.009118  -0.010537
 289   9   6.253366   6.705859   1.928580  -0.000175   0.009118  -0.019202
 290   7   5.196501   6.881787   0.912003  -0.000284   0.070209  -0.004049
 291   7   4.973884   6.166000   0.067822  -0.000605   0.156323  -0.003872
 292   7   4.053360   5.452288  -0.641940  -0.000617   0.156323  -0.003946
 293   2   5.437477   6.353675   0.750488  -0.000603   0.153496  -0.003928
 294   2   4.824199   5.416039  -0.294567  -0.000443   0.153496  -0.002884
 295   2   3.818048   4.867473  -0.783679  -0.000156   0.085776  -0.001822
 296   7   0.958533   6.121749   0.771627  -0.000299   0.068557  -0.004362
 297   7   1.138244   6.822682   1.605524  -0.000706   0.151880  -0.004648
 298   7   1.991466   7.543824   2.337200  -0.000533   0.151880  -0.003506
 299   7   3.284749   7.848834   2.470511  -0.000553   0.151880  -0.003641
 300   7   4.492435   7.613740   1.951272  -0.000707   0.151880  -0.004656
 301   2   0.779769   6.119207   1.340136  -0.000740   0.150606  -0.004911
 302   2   1.324759   7.046878   2.385755  -0.000450   0.150606  -0.002988
 303   2   2.596874   7.655022   2.898385  -0.000328   0.150606  -0.002176
 304   2   4.079060   7.696457   2.669667  -0.000509   0.150606  -0.003377
 305   2   5.061560   7.340201   2.042957  -0.000318   0.083757  -0.003796
 306   2   4.819952   5.143046   6.234800  -0.000091   0.009780  -0.009302
 307   8   4.533357   5.162258   6.329603  -0.000084   0.009780  -0.008577
 308   9   5.463998   5.242794   6.111792  -0.000183   0.009780  -0.018739
 309   2   4.726616   5.701547   6.031837  -0.000109   0.009780  -0.011150
 310   8   4.449430   5.664457   6.147101  -0.000107   0.009780  -0.010901
 311   9   5.381271   5.737816   5.931899  -0.000251   0.009780  -0.025632
 312   8   3.950437   5.911797   6.243132  -0.000324   0.068363  -0.004733
 313   8   3.270531   6.610817   5.731645  -0.000596   0.151362  -0.003937
 314   8   2.104735   6.845210   5.131342  -0.000453   0.151362  -0.002991
 315   8   0.958835   6.268254   4.772988  -0.000689   0.151362  -0.004550
 316   8   0.296014   5.113159   4.801433  -0.000785   0.151362  -0.005188
 317   2   4.035368   6.290499   5.791887  -0.000769   0.150264  -0.005120
 318   2   2.921365   6.992811   5.080976  -0.000360   0.150264  -0.002396
 319   2   1.551749   6.789852   4.512998  -0.000378   0.150264  -0.002513
 320   2   0.480132   5.763660   4.317536  -0.000614   0.150264  -0.004086
 321   2   0.069830   4.628031   4.455854  -0.000324   0.083520  -0.003879
 322   8   2.318066   2.794802   6.391326  -0.000201   0.069798  -0.002881
 323   8   3.263146   3.333770   6.668762  -0.000545   0.155212  -0.003511
 324   8   3.987528   4.481156   6.670676  -0.000754   0.155212  -0.004857
 325   2   2.898853   2.661601   6.313714  -0.000479   0.152781  -0.003138
 326   2   4.036287   3.648215   6.550628  -0.000463   0.152781  -0.003028
 327   2   4.500332   4.791376   6.434722  -0.000276   0.085274  -0.003239
 328   9   6.756033   6.650288   1.940068  -0.000401   0.064071  -0.006254
 329   2   5.910773   6.696687   1.512871  -0.000175   0.078276  -0.002231
 330   9   6.383895   7.175907   2.752885  -0.002486   0.181074  -0.013727
 331   9   6.004833   7.238923   4.031236  -0.006666   0.374713  -0.017790
 332   9   5.807725   6.487329   5.443839  -0.005962   0.374713  -0.015910
 333   2   5.342035   7.304363   2.941627  -0.003345   0.429294  -0.007792
 334   2   4.928694   7.011679   4.680169  -0.003918   0.429294  -0.009127
 335   2   4.854698   6.086129   5.823938  -0.001202   0.221222  -0.005435
 336   9   5.929928   5.219970   6.220756  -0.000430   0.061252  -0.007027
 337   2   5.018279   4.974319   6.306437  -0.000111   0.074833  -0.001478
 338   5   4.727223  -0.728333   3.717554   0.000286   0.256550   0.001116
 339   5   4.215054  -0.192752   4.778241  -0.000164   0.516276  -0.000317
 340   3   5.770968   0.293701   4.277302   0.008136   0.634302   0.012826
 341   3   5.146337   0.952663   5.358819   0.003540   0.319604   0.011076
 342   6   5.123965   2.172151  -0.962095  -0.000040   0.255595  -0.000155
 343   6   5.410627   1.037942  -0.420870   0.000108   0.514314   0.000210
 344   3   6.340991   2.404977  -0.006877   0.007877   0.632010   0.012463
 345   3   6.559878   1.187071   0.662328   0.003945   0.318433   0.012390
 346   9   6.449212   4.831336   6.263923  -0.000504   0.083917  -0.006003
 347   9   7.558683   4.312596   6.040865  -0.001619   0.182444  -0.008872
 348   9   8.713098   4.096688   5.094102  -0.002006   0.182444  -0.010993
 349   9   9.193857   4.455325   3.709940  -0.002036   0.182444  -0.011161
 350   9   8.794928   5.234814   2.481565  -0.001743   0.182444  -0.009552
 351   9   7.687274   6.101104   1.935398  -0.001592   0.182444  -0.008726
 352   3   6.667726   4.212301   6.232615  -0.000462   0.179513  -0.002573
 353   3   8.091839   3.689178   5.631321  -0.000682   0.179513  -0.003801
 354   3   9.027890   3.770883   4.296988  -0.001239   0.179513  -0.006903
 355   3   9.074733   4.422401   2.801448  -0.001042   0.179513  -0.005805
 356   3   8.212293   5.364522   1.785616  -0.000580   0.179513  -0.003229
 357   3   7.118732   6.084103   1.545838  -0.000285   0.096083  -0.002971
 358   9   6.515407   6.944472   2.143474  -0.000824   0.158502  -0.005197
 359   7   5.326573   7.210278   1.509524  -0.000133   0.158502  -0.000839
 360   9   5.734199   5.644179   6.142410  -0.001196   0.170008  -0.007035
 361   8   4.413949   5.417395   6.444656  -0.000148   0.170008  -0.000871
 =====================================================

              1135478  WORDS OF DYNAMIC MEMORY USED
 EXECUTION OF GAMESS TERMINATED NORMALLY Thu Nov 24 00:36:38 2016
 DDI: 263640 bytes (0.3 MB / 0 MWords) used by master data server.

 ----------------------------------------
 CPU timing information for all processes
 ========================================
 0: 66.148 + 0.64 = 66.212
 ----------------------------------------
 ddikick.x: exited gracefully.
