----- GAMESS execution script -----

          ******************************************************
          *         GAMESS VERSION =  5 DEC 2014 (R1)          *
          *             FROM IOWA STATE UNIVERSITY             *
          * M.W.SCHMIDT, K.K.BALDRIDGE, J.A.BOATZ, S.T.ELBERT, *
          *   M.S.GORDON, J.H.JENSEN, S.KOSEKI, N.MATSUNAGA,   *
          *          K.A.NGUYEN, S.J.SU, T.L.WINDUS,           *
          *       TOGETHER WITH M.DUPUIS, J.A.MONTGOMERY       *
          *         J.COMPUT.CHEM.  14, 1347-1363(1993)        *
          **************** 64 BIT LINUX VERSION ****************

 EXECUTION OF GAMESS BEGUN Thu Nov 24 00:37:48 2016

            ECHO OF THE FIRST FEW INPUT CARDS -
 INPUT CARD>! SELECT RESTRICTED HARTREE-FOCK AS DEFAULT                                     
 INPUT CARD>$contrl scftyp=rhf $end                                                         
 INPUT CARD>                                                                                
 INPUT CARD>! THEORY: HF OR DFT                                                             
 INPUT CARD> $contrl mplevl=0 $end                                                          
 INPUT CARD>                                                                                
 INPUT CARD> $system timlim=10000 mwords=20 $end                                            
 INPUT CARD> $SCF DIRSCF=.TRUE. $end                                                        
 INPUT CARD>                                                                                
 INPUT CARD>                                                                                
 INPUT CARD>! BASIS SETS                                                                    
 INPUT CARD>! 6-311G(d,p)                                                                   
 INPUT CARD> $BASIS GBASIS=N311 NGAUSS=6 NDFUNC=1 NPFUNC=1 $END                             
 INPUT CARD>                                                                                
 INPUT CARD>! One of the following                                                          
 INPUT CARD> $guess guess=HUCKEL $end                                                       
 INPUT CARD>                                                                                
 INPUT CARD> $statpt projct=.FALSE. $end                                                    
 INPUT CARD> $STATPT IFREEZ(1)=1,2,3 $END                                                   
 INPUT CARD>                                                                                
 INPUT CARD>! Optimize the geometry with COSMO effects                                      
 INPUT CARD> $statpt opttol=0.0005 nstep=50 $end                                            
 INPUT CARD> $contrl nzvar=1 $end                                                           
 INPUT CARD> $zmat dlc=.t. auto=.t. $end                                                    
 INPUT CARD> $contrl runtyp=OPTIMIZE maxit=200 $end                                         
 INPUT CARD>                                                                                
 INPUT CARD>! Run COSMO on perfect conductor                                                
 INPUT CARD> $COSGMS PRFCND=.TRUE. $end                                                     
 INPUT CARD>                                                                                
 INPUT CARD>! Specifying RSOLV                                                              
 INPUT CARD> $COSGMS COSRAD = 1.4 $end                                                      
 INPUT CARD>                                                                                
 INPUT CARD>! available memory                                                              
 INPUT CARD> $SYSTEM MWORDS=40 $END                                                         
 INPUT CARD>                                                                                
 INPUT CARD> $DATA                                                                          
 INPUT CARD>                                                                                
 INPUT CARD>C1                                                                              
 INPUT CARD>C      6.0      1.1114000000    0.8989000000    0.9655000000                    
 INPUT CARD>C      6.0      1.9095000000    2.0680000000    1.5044000000                    
 INPUT CARD>O      8.0      3.2765000000    1.7052000000    1.6308000000                    
 INPUT CARD>H      1.0      0.0526000000    1.1583000000    0.8754000000                    
 INPUT CARD>H      1.0      1.2081000000    0.0300000000    1.6243000000                    
 INPUT CARD>H      1.0      1.4847000000    0.5960000000   -0.0181000000                    
 INPUT CARD>H      1.0      1.8357000000    2.9337000000    0.8396000000                    
 INPUT CARD>H      1.0      1.5416000000    2.3595000000    2.4927000000                    
 INPUT CARD>H      1.0      3.5974000000    1.4593000000    0.7453000000                    
 INPUT CARD> $END                                                                           
 INPUT CARD>                                                                                
 INPUT CARD>                                                                                
   40000000 WORDS OF MEMORY AVAILABLE

     BASIS OPTIONS
     -------------
     GBASIS=N311         IGAUSS=       6      POLAR=POPN311 
     NDFUNC=       1     NFFUNC=       0     DIFFSP=       F
     NPFUNC=       1      DIFFS=       F     BASNAM=        


     RUN TITLE
     ---------
                                                                                 

 THE POINT GROUP OF THE MOLECULE IS C1      
 THE ORDER OF THE PRINCIPAL AXIS IS     0

 ATOM      ATOMIC                      COORDINATES (BOHR)
           CHARGE         X                   Y                   Z
 C           6.0     2.1002414628        1.6986746904        1.8245304411
 C           6.0     3.6084317736        3.9079533426        2.8429037759
 O           8.0     6.1916871988        3.2223607543        3.0817651408
 H           1.0     0.0993995870        2.1888696116        1.6542661297
 H           1.0     2.2829779658        0.0566917796        3.0694819219
 H           1.0     2.8056761740        1.1262766887       -0.0342040404
 H           1.0     3.4689699957        5.5438891302        1.5866139393
 H           1.0     2.9132015827        4.4588084680        4.7105199696
 H           1.0     6.7981002682        2.7576771339        1.4084127786

          INTERNUCLEAR DISTANCES (ANGS.)




     $CONTRL OPTIONS
     ---------------
 SCFTYP=RHF          RUNTYP=OPTIMIZE     EXETYP=RUN     
 MPLEVL=       0     CITYP =NONE         CCTYP =NONE         VBTYP =NONE    
 DFTTYP=NONE         TDDFT =NONE    
 MULT  =       1     ICHARG=       0     NZVAR =       1     COORD =UNIQUE  
 PP    =NONE         RELWFN=NONE         LOCAL =NONE         NUMGRD=       F
 ISPHER=      -1     NOSYM =       0     MAXIT =     200     UNITS =ANGS    
 PLTORB=       F     MOLPLT=       F     AIMPAC=       F     FRIEND=        
 NPRINT=       7     IREST =       0     GEOM  =INPUT   
 NORMF =       0     NORMP =       0     ITOL  =      20     ICUT  =       9
 INTTYP=BEST         GRDTYP=BEST         QMTTOL= 1.0E-06

     $SYSTEM OPTIONS
     ---------------
  REPLICATED MEMORY=    40000000 WORDS (ON EVERY NODE).
 DISTRIBUTED MEMDDI=           0 MILLION WORDS IN AGGREGATE,
 MEMDDI DISTRIBUTED OVER   1 PROCESSORS IS           0 WORDS/PROCESSOR.
 TOTAL MEMORY REQUESTED ON EACH PROCESSOR=    40000000 WORDS.
 TIMLIM=       10000.00 MINUTES, OR       6.9 DAYS.
 PARALL= F  BALTYP=  DLB     KDIAG=    0  COREFL= F
 MXSEQ2=     300 MXSEQ3=     150  mem10=         0

     $COSGMS OPTIONS
     ---------------
     EPSI  =   INFTY     NSPA  =      92     COSRAD=    1.40
     DISEX =   10.00     OUTCHG=DBLCAV       COSBUG=       F
     COSWRT=       F     DCOSMO=       F

     SYMMETRY COORDINATES WILL NOT BE USED FOR 
     THE COSMO CALCULATION, EVEN IF SPECIFIED:
         -- SWITCHING TO C1 POINT GROUP --


     DEFINITION OF CAVITY
     ---------------------------
     ATOM         COORDINATES           RADIUS 
     1    2.1002    1.6987    1.8245    2.0000
     2    3.6084    3.9080    2.8429    2.0000
     3    6.1917    3.2224    3.0818    1.7200
     4    0.0994    2.1889    1.6543    1.3000
     5    2.2830    0.0567    3.0695    1.3000
     6    2.8057    1.1263   -0.0342    1.3000
     7    3.4690    5.5439    1.5866    1.3000
     8    2.9132    4.4588    4.7105    1.3000
     9    6.7981    2.7577    1.4084    1.3000

          ----------------
          PROPERTIES INPUT
          ----------------

     MOMENTS            FIELD           POTENTIAL          DENSITY
 IEMOM =       1   IEFLD =       0   IEPOT =       0   IEDEN =       0
 WHERE =COMASS     WHERE =NUCLEI     WHERE =NUCLEI     WHERE =NUCLEI  
 OUTPUT=BOTH       OUTPUT=BOTH       OUTPUT=BOTH       OUTPUT=BOTH    
 IEMINT=       0   IEFINT=       0                     IEDINT=       0
                                                       MORB  =       0
          EXTRAPOLATION IN EFFECT
          SOSCF IN EFFECT
 ORBITAL PRINTING OPTION: NPREO=     1    93     2     1

     -------------------------------
     INTEGRAL TRANSFORMATION OPTIONS
     -------------------------------
     NWORD  =            0
     CUTOFF = 1.0E-09     MPTRAN =       0
     DIRTRF =       T     AOINTS =DUP     

          ----------------------
          INTEGRAL INPUT OPTIONS
          ----------------------
 NOPK  =       1 NORDER=       0 SCHWRZ=       T


 -----------------------------------------------
  STATISTICS ON AUTOMATIC COORDINATE GENERATION 
 -----------------------------------------------
  NUMBER OF USER SPECIFIED BONDS                             0
  NUMBER OF BONDS                                            8
  NUMBER OF ANGLES                                          13
  NUMBER OF TORSIONS                                        12
  NUMBER OF EXTRA COORD.                                     0
  NUMBER OF EXTRA COORD. FOR CONSTRAINTS                     0
  NUMBER OF CONSTRAINED COORD.                               0

  TOTAL NUMBER OF PRIMITIVES                                33
 -----------------------------------------------

   --- ENCODED Z MATRIX ---
 COORD  TYPE   I   J   K   L   M   N
    1      1    1   5
    2      1    1   4
    3      1    1   2
    4      1    1   6
    5      1    2   7
    6      1    2   8
    7      1    2   3
    8      1    3   9
    9      2    1   2   3
   10      2    1   2   7
   11      2    1   2   8
   12      2    2   3   9
   13      2    2   1   6
   14      2    2   1   4
   15      2    2   1   5
   16      2    3   2   8
   17      2    3   2   7
   18      2    4   1   6
   19      2    4   1   5
   20      2    5   1   6
   21      2    7   2   8
   22      3    1   2   3   9
   23      3    3   2   1   5
   24      3    3   2   1   6
   25      3    3   2   1   4
   26      3    4   1   2   7
   27      3    4   1   2   8
   28      3    5   1   2   7
   29      3    5   1   2   8
   30      3    6   1   2   7
   31      3    6   1   2   8
   32      3    7   2   3   9
   33      3    8   2   3   9

          INDEP./SYM. INTERNAL COORDINATES
          --------------------------------
 CRD  1=  -0.2263 (  3) -0.2002 (  7) -0.6918 (  9)  0.1311 ( 10)  0.2296 ( 11)
          -0.3051 ( 12) -0.2030 ( 13)  0.1407 ( 14) -0.1100 ( 15)  0.2289 ( 16)
           0.2180 ( 17) -0.1033 ( 21) -0.1319 ( 22) -0.1144 ( 28) -0.1236 ( 33)
 CRD  2=  -0.5504 (  3)  0.2390 (  7) -0.3263 ( 10)  0.4079 ( 12) -0.2303 ( 13)
          -0.1780 ( 14)  0.2724 ( 17)  0.1877 ( 18)  0.1391 ( 19)  0.1664 ( 20)
           0.1084 ( 21) -0.1126 ( 22) -0.1138 ( 24)  0.1071 ( 32) -0.1654 ( 33)
 CRD  3=   0.1009 (  2)  0.3688 (  3)  0.2779 (  7) -0.1323 (  9)  0.3147 ( 11)
           0.4232 ( 12) -0.2062 ( 13)  0.4568 ( 14) -0.1703 ( 16)  0.1595 ( 17)
          -0.1354 ( 18) -0.2168 ( 19) -0.1223 ( 21) -0.1425 ( 22) -0.1457 ( 23)
 CRD  4=   0.1033 (  1) -0.1594 (  7)  0.1161 (  9) -0.2990 ( 10)  0.2605 ( 11)
          -0.2447 ( 12) -0.3508 ( 13) -0.2017 ( 14)  0.6083 ( 15) -0.1244 ( 16)
           0.1927 ( 18) -0.1456 ( 19) -0.1014 ( 20) -0.1989 ( 22)  0.1409 ( 25)
           0.1115 ( 33)
 CRD  5=  -0.1308 (  2)  0.1154 (  3)  0.1892 (  4) -0.1079 (  7) -0.1739 (  8)
          -0.1385 (  9) -0.1720 ( 10)  0.3069 ( 11)  0.5162 ( 13) -0.3494 ( 14)
          -0.2069 ( 16)  0.2919 ( 17)  0.1850 ( 19) -0.2131 ( 20) -0.1831 ( 22)
          -0.1460 ( 23) -0.1791 ( 24) -0.1752 ( 25)
 CRD  6=   0.1518 (  1) -0.1346 (  2)  0.1142 (  3)  0.1995 (  5)  0.1203 (  6)
           0.2506 (  7)  0.2435 (  8) -0.2855 (  9)  0.2884 ( 10) -0.1602 ( 11)
           0.2865 ( 12) -0.3363 ( 14)  0.3894 ( 15)  0.3061 ( 16)  0.1317 ( 18)
          -0.2201 ( 20) -0.1439 ( 21)  0.1051 ( 22)
 CRD  7=  -0.1376 (  1) -0.3477 (  5)  0.4931 (  6)  0.2466 (  7)  0.3156 (  8)
          -0.2466 ( 10)  0.1362 ( 11)  0.1681 ( 13) -0.1201 ( 15)  0.1424 ( 16)
          -0.1227 ( 18) -0.1451 ( 22)  0.2517 ( 23)  0.2466 ( 24)  0.2786 ( 25)
           0.1785 ( 32)  0.1110 ( 33)
 CRD  8=   0.4919 (  1)  0.4754 (  2)  0.1485 (  3)  0.5012 (  4) -0.1752 ( 13)
          -0.2073 ( 14) -0.1817 ( 15)  0.2017 ( 18)  0.2065 ( 19)  0.1821 ( 20)
 CRD  9=   0.6611 (  5)  0.4520 (  6)  0.1270 (  7) -0.1820 ( 10) -0.1851 ( 11)
          -0.2366 ( 12)  0.2888 ( 21)  0.1508 ( 32) -0.2197 ( 33)
 CRD 10=   0.5378 (  1) -0.5764 (  4) -0.2778 ( 18)  0.2985 ( 19)  0.2201 ( 25)
           0.2148 ( 26)  0.2084 ( 27) -0.1036 ( 28) -0.1100 ( 29)
 CRD 11=   0.3471 (  1) -0.6562 (  2)  0.2737 (  4) -0.1783 ( 18) -0.1422 ( 19)
           0.3346 ( 20)  0.1773 ( 23) -0.1776 ( 24)  0.1749 ( 28)  0.1655 ( 29)
          -0.1799 ( 30) -0.1894 ( 31)
 CRD 12=  -0.1114 (  3) -0.1032 (  4)  0.4623 (  6) -0.5185 (  7)  0.1374 ( 10)
           0.4592 ( 12) -0.2409 ( 17)  0.1092 ( 21) -0.2096 ( 26) -0.2450 ( 28)
          -0.1881 ( 30)
 CRD 13=   0.3191 (  5) -0.1849 (  6) -0.1577 (  7)  0.1695 (  8)  0.1463 ( 11)
           0.1665 ( 12) -0.2027 ( 16)  0.1084 ( 22)  0.1732 ( 23)  0.1930 ( 24)
           0.1642 ( 25)  0.2449 ( 26)  0.3351 ( 27)  0.2539 ( 28)  0.3442 ( 29)
           0.2737 ( 30)  0.3639 ( 31)  0.1506 ( 33)
 CRD 14=   0.1146 (  2)  0.1385 (  4) -0.2315 (  6) -0.2927 (  7)  0.7082 (  8)
          -0.1217 ( 10) -0.1062 ( 11)  0.1106 ( 13) -0.1368 ( 18)  0.1755 ( 21)
          -0.2260 ( 22) -0.1238 ( 32) -0.3304 ( 33)
 CRD 15=  -0.1886 (  1) -0.1938 (  2) -0.1416 (  4)  0.2513 (  5)  0.1661 (  7)
           0.4702 (  8)  0.2144 ( 11) -0.2293 ( 12) -0.1356 ( 13) -0.1732 ( 14)
          -0.1876 ( 15) -0.1670 ( 16)  0.1690 ( 18)  0.1973 ( 19)  0.1526 ( 20)
          -0.1372 ( 21)  0.1243 ( 22) -0.1254 ( 23) -0.1107 ( 24) -0.1175 ( 25)
          -0.1253 ( 26) -0.1331 ( 28) -0.1069 ( 29) -0.1184 ( 30)  0.3336 ( 33)
 CRD 16=  -0.1913 (  1) -0.1577 (  2)  0.2312 (  3) -0.1274 (  4) -0.1057 (  8)
           0.1200 (  9)  0.1057 ( 10) -0.1764 ( 13) -0.1666 ( 14) -0.1369 ( 15)
          -0.1538 ( 17)  0.1374 ( 18)  0.1998 ( 19)  0.1645 ( 20) -0.4076 ( 22)
           0.1320 ( 25)  0.1146 ( 27) -0.5149 ( 32) -0.3768 ( 33)
 CRD 17=   0.3907 (  3) -0.3608 (  4) -0.2604 (  5)  0.1975 (  6) -0.2308 (  7)
           0.1202 (  8) -0.1549 ( 11) -0.1036 ( 14) -0.1086 ( 15)  0.3038 ( 17)
           0.2174 ( 18) -0.1161 ( 19)  0.1881 ( 20)  0.1479 ( 22) -0.1134 ( 24)
          -0.2762 ( 25) -0.1350 ( 27)  0.2866 ( 28)  0.1530 ( 29)  0.1615 ( 30)
           0.1111 ( 32)
 CRD 18=  -0.3501 (  1)  0.1603 (  2)  0.2610 (  3)  0.2446 (  5) -0.1660 (  6)
          -0.3117 (  7) -0.1324 ( 10)  0.1892 ( 12)  0.2961 ( 16) -0.1673 ( 18)
           0.1274 ( 19)  0.2196 ( 20)  0.1438 ( 23)  0.2337 ( 25)  0.1653 ( 26)
          -0.1517 ( 29) -0.1421 ( 30) -0.3691 ( 31)  0.1676 ( 32)
 CRD 19=   0.3325 (  2) -0.3943 (  3) -0.1242 (  4)  0.1504 (  5)  0.2799 (  6)
           0.1209 (  9)  0.1469 ( 10)  0.1128 ( 11) -0.1011 ( 12)  0.1068 ( 13)
          -0.1371 ( 18) -0.2230 ( 19)  0.1257 ( 20) -0.3138 ( 21)  0.1320 ( 23)
          -0.1529 ( 24)  0.1030 ( 26) -0.1201 ( 27)  0.3028 ( 28) -0.2052 ( 31)
          -0.3333 ( 32)
 CRD 20=   0.1428 (  1) -0.2606 (  2)  0.1300 (  4)  0.1481 (  5)  0.1476 (  6)
          -0.2749 (  7)  0.2191 (  9) -0.1063 ( 13)  0.2204 ( 14) -0.1133 ( 15)
           0.1037 ( 16)  0.1036 ( 17)  0.1007 ( 18) -0.2016 ( 20) -0.2286 ( 21)
          -0.1916 ( 23)  0.1974 ( 24)  0.2043 ( 26) -0.2121 ( 27) -0.3981 ( 29)
           0.4073 ( 30) -0.1059 ( 32)
 CRD 21=   0.2379 (  1) -0.2433 (  4)  0.2205 (  5) -0.2258 (  6) -0.1886 ( 10)
           0.1903 ( 11)  0.1181 ( 12)  0.1905 ( 13) -0.1861 ( 15)  0.1401 ( 16)
          -0.1439 ( 17)  0.1817 ( 18) -0.1856 ( 19) -0.2788 ( 22)  0.3090 ( 23)
           0.3016 ( 24) -0.3535 ( 26) -0.3459 ( 27)

 THE DETERMINANT OF THE G MATRIX IS 10**(    -5)


                     --------------------
                     INTERNAL COORDINATES
                     --------------------

                 - - ATOMS - -         COORDINATE      COORDINATE
 NO.   TYPE    I  J  K  L  M  N        (BOHR,RAD)       (ANG,DEG)
 ----------------------------------------------------------------
   1 STRETCH   1  5                     2.0686722       1.0946943
   2 STRETCH   1  4                     2.0670388       1.0938299
   3 STRETCH   1  2                     2.8622778       1.5146523
   4 STRETCH   1  6                     2.0688575       1.0947923
   5 STRETCH   2  7                     2.0673654       1.0940027
   6 STRETCH   2  8                     2.0675533       1.0941022
   7 STRETCH   2  3                     2.6833376       1.4199612
   8 STRETCH   3  9                     1.8395042       0.9734238
   9 BEND      1  2  3                  1.9195511     109.9821750
  10 BEND      1  2  7                  1.9380277     111.0408051
  11 BEND      1  2  8                  1.9282077     110.4781620
  12 BEND      2  3  9                  1.8764663     107.5135979
  13 BEND      2  1  6                  1.9321499     110.7040336
  14 BEND      2  1  4                  1.9351083     110.8735384
  15 BEND      2  1  5                  1.9304923     110.6090585
  16 BEND      3  2  8                  1.8874411     108.1424085
  17 BEND      3  2  7                  1.8978103     108.7365198
  18 BEND      4  1  6                  1.8982844     108.7636860
  19 BEND      4  1  5                  1.9000234     108.8633244
  20 BEND      5  1  6                  1.8660290     106.9155883
  21 BEND      7  2  8                  1.8916753     108.3850136
  22 TORSION   1  2  3  9               1.0476467      60.0257320
  23 TORSION   3  2  1  5               1.0182454      58.3411637
  24 TORSION   3  2  1  6              -1.0468870     -59.9822060
  25 TORSION   3  2  1  4               3.1278136     179.2105189
  26 TORSION   4  1  2  7              -1.0539335     -60.3859395
  27 TORSION   4  1  2  8               1.0455358      59.9047889
  28 TORSION   5  1  2  7               3.1196836     178.7447053
  29 TORSION   5  1  2  8              -1.0640324     -60.9645663
  30 TORSION   6  1  2  7               1.0545512      60.4213355
  31 TORSION   6  1  2  8              -3.1291648    -179.2879360
  32 TORSION   7  2  3  9              -1.0779176     -61.7601320
  33 TORSION   8  2  3  9              -3.1285314    -179.2516441

     ------------------------------------------
     THE POINT GROUP IS C1 , NAXIS= 1, ORDER= 1
     ------------------------------------------

     DIMENSIONS OF THE SYMMETRY SUBSPACES ARE
 A   =   93

 ..... DONE SETTING UP THE RUN .....
 STEP CPU TIME =     0.00 TOTAL CPU TIME =        0.0 (    0.0 MIN)
 TOTAL WALL CLOCK TIME=        0.0 SECONDS, CPU UTILIZATION IS   0.00%


          -----------------------------
          STATIONARY POINT LOCATION RUN
          -----------------------------

 OBTAINING INITIAL HESSIAN, HESS=GUESS   
 DIAGONAL GUESS HESSIAN IN INTERNAL COORDS IS
     1  0.3432     2  0.3438     3  0.3783     4  0.3432     5  0.3437
     6  0.3436     7  0.3672     8  0.3508     9  0.2447    10  0.2248
    11  0.2247    12  0.2145    13  0.2247    14  0.2248    15  0.2247
    16  0.2197    17  0.2197    18  0.2030    19  0.2030    20  0.2029
    21  0.2030    22  0.2500    23  0.2500    24  0.2500    25  0.2500
    26  0.2500    27  0.2500    28  0.2500    29  0.2500    30  0.2500
    31  0.2500    32  0.2500    33  0.2500
 TRANSFORMING HESSIAN TO SYMMETRY COORDINATES

          PARAMETERS CONTROLLING GEOMETRY SEARCH ARE
          METHOD =QA                  UPHESS =BFGS    
          NNEG   =         0          NFRZ   =         3
          NSTEP  =        50          IFOLOW =         1
          HESS   =GUESS               RESTAR =         F
          IHREP  =         0          HSSEND =         F
          NPRT   =         0          NPUN   =         0
          OPTTOL = 5.000E-04          RMIN   = 1.500E-03
          RMAX   = 1.000E-01          RLIM   = 7.000E-02
          DXMAX  = 3.000E-01          PURIFY =         F
          MOVIE  =         F          TRUPD  =         T
          TRMAX  = 5.000E-01          TRMIN  = 5.000E-02
          ITBMAT =         5          STPT   =         F
          STSTEP = 1.000E-02          PROJCT=          F
          FROZEN COORD(S)=   1   2   3


      ***** EQUILIBRIUM GEOMETRY LOCATED *****
            (SUBJECT TO   3 CONSTRAINT(S))
 COORDINATES OF ALL ATOMS ARE (ANGS)
   ATOM   CHARGE       X              Y              Z
 ------------------------------------------------------------
 C           6.0   1.1055324261   0.8972305744   0.9634839610
 C           6.0   1.9154939236   2.0604022283   1.5050704495
 O           8.0   3.2778714541   1.7132328572   1.6283571372
 H           1.0   0.0628771643   1.1711134213   0.8377782605
 H           1.0   1.1666759011   0.0503720458   1.6405412283
 H           1.0   1.4949703942   0.5891234674  -0.0042752384
 H           1.0   1.8113456513   2.9325986589   0.8642602779
 H           1.0   1.5764532553   2.3368803272   2.4962349477
 H           1.0   3.5845072433   1.4395677722   0.7794522239


                     --------------------
                     INTERNAL COORDINATES
                     --------------------

                 - - ATOMS - -         COORDINATE      COORDINATE
 NO.   TYPE    I  J  K  L  M  N        (BOHR,RAD)       (ANG,DEG)
 ----------------------------------------------------------------
   1 STRETCH   1  5                     2.0521715       1.0859624
   2 STRETCH   1  4                     2.0509785       1.0853312
   3 STRETCH   1  2                     2.8673576       1.5173404
   4 STRETCH   1  6                     2.0555058       1.0877269
   5 STRETCH   2  7                     2.0546903       1.0872953
   6 STRETCH   2  8                     2.0473642       1.0834186
   7 STRETCH   2  3                     2.6669911       1.4113110
   8 STRETCH   3  9                     1.7823208       0.9431636
   9 BEND      1  2  3                  1.9368168     110.9714299
  10 BEND      1  2  7                  1.9320420     110.6978527
  11 BEND      1  2  8                  1.9338361     110.8006462
  12 BEND      2  3  9                  1.8824064     107.8539417
  13 BEND      2  1  6                  1.9215321     110.0956820
  14 BEND      2  1  4                  1.9398221     111.1436221
  15 BEND      2  1  5                  1.9232618     110.1947863
  16 BEND      3  2  8                  1.8597428     106.5554154
  17 BEND      3  2  7                  1.9190707     109.9546517
  18 BEND      4  1  6                  1.8884970     108.2029055
  19 BEND      4  1  5                  1.8997876     108.8498132
  20 BEND      5  1  6                  1.8898315     108.2793712
  21 BEND      7  2  8                  1.8802052     107.7278205
  22 TORSION   1  2  3  9               1.0004580      57.3220223
  23 TORSION   3  2  1  5               1.0655239      61.0500216
  24 TORSION   3  2  1  6              -1.0178597     -58.3190627
  25 TORSION   3  2  1  4              -3.1101061    -178.1959530
  26 TORSION   4  1  2  7              -0.9741851     -55.8166936
  27 TORSION   4  1  2  8               1.1106832      63.6374625
  28 TORSION   5  1  2  7              -3.0817404    -176.5707190
  29 TORSION   5  1  2  8              -0.9968721     -57.1165630
  30 TORSION   6  1  2  7               1.1180614      64.0601967
  31 TORSION   6  1  2  8              -3.0802556    -176.4856473
  32 TORSION   7  2  3  9              -1.1429780     -65.4878147
  33 TORSION   8  2  3  9               3.1072496     178.0322869

          INTERNUCLEAR DISTANCES (ANGS.)


 =====================================================
   GAMESS/COSab RESULTS
 =====================================================

   Dielectric Constant                  = INFTY
   Basic Grid Size                      =                 1082
   Number of Segments                   =                   92
   Number of Segments located on spheres=                  161
   Number of Segments of the cavity     =                  347
   Solvent Radius (rsolv)               = 1.40
   Outlying Charge Error Method         = double cavity

 =====================================================

  Total solvated Energy (a.u.)          =  -154.1347082233
  Total Energy corrected (a.u.)         =  -154.1345963000

  Outlying charge effect (a.u.)         =     0.0001119233
  Outlying charge effect (kcal/mol)     =     0.0702330045

  Dielectric Energy (a.u.)              =    -0.0104921384
  Dielectric energy corr. (a.u.)        =    -0.0103802151

  Sum of polarization charges           =     0.0168938797
  Sum of polarization charges(cor.)     =    -0.0168938797

  Total surface area of cavity (A**2)   =   87.10
  Total volume of cavity (A**3)         =   69.29

 =====================================================
 NPS=                   347
NR.  ATOM  (X, Y, Z)(a.u.)                  CHARGE(e)  AREA(A**2) SIGMA(e/A**2)
   1   1   0.579246   1.814708  -1.641977   0.000871   0.232280   0.003752
   2   1  -0.194186  -1.199407   0.990033   0.000687   0.371649   0.001848
   3   1  -0.152492   0.595456   4.657810   0.001047   0.325193   0.003219
   4   1   4.561186  -0.975416   0.801162   0.000536   0.185824   0.002886
   5   1   4.728692  -0.984364   2.188656   0.000480   0.139368   0.003446
   6   1  -0.548244   3.511488   3.828347  -0.000050   0.092912  -0.000537
   7   1  -0.977521   0.896903   3.880310   0.001381   0.371649   0.003716
   8   1  -0.971460  -0.372812   1.021402   0.000864   0.418105   0.002067
   9   1  -0.033128   2.248328  -1.257364   0.001344   0.371649   0.003617
  10   1   0.255620   4.442721  -0.016471   0.000124   0.185824   0.000669
  11   1   3.262009  -1.719574   0.704533   0.001659   0.371649   0.004463
  12   1   3.301186  -1.861182   1.414307   0.000893   0.232280   0.003844
  13   1   0.900380   3.999911  -0.928982   0.000521   0.278737   0.001868
  14   1   1.032057   2.999151  -1.565632   0.001206   0.371649   0.003246
  15   1   0.061868   0.723943  -1.217445   0.001990   0.511017   0.003895
  16   1  -0.234104  -0.519334  -0.174570   0.000915   0.418105   0.002189
  17   1  -0.526539  -1.023427   2.043730   0.001228   0.371649   0.003304
  18   1  -0.668885  -0.091255   3.687502   0.001641   0.371649   0.004414
  19   1  -0.384794   1.746340   4.677498   0.001259   0.464561   0.002710
  20   1  -0.273015   2.779730   4.564589   0.000194   0.185824   0.001041
  21   1   2.883791   3.395772  -1.459828   0.000029   0.139368   0.000210
  22   1   1.852800  -1.631849   0.043904   0.001137   0.371649   0.003061
  23   1   0.708727  -1.456606   0.257764   0.000967   0.464561   0.002081
  24   1   0.570822  -1.754014   1.538467   0.000805   0.325193   0.002475
  25   1   0.652142   1.020783   5.250577   0.000426   0.232280   0.001832
  26   1   1.540014   1.304990   5.539608   0.000004   0.092912   0.000046
  27   1   4.392819  -1.288419   1.549498   0.001468   0.371649   0.003951
  28   1  -0.721262   2.607212   4.177530   0.000193   0.139368   0.001384
  29   1  -1.051594  -0.272273   2.560804   0.000971   0.278737   0.003482
  30   1  -0.596974   0.327564  -0.459125   0.000686   0.278737   0.002461
  31   1   0.246700   3.485675  -0.951458   0.000559   0.232280   0.002407
  32   1   1.797519  -1.999245   1.080468   0.001430   0.418105   0.003420
  33   1   1.895605   3.567628  -1.456785   0.000553   0.278737   0.001984
  34   1   0.701484  -0.652306  -0.795842   0.000829   0.371649   0.002230
  35   1  -0.421854  -0.874792   2.992290   0.000752   0.232280   0.003239
  36   1   0.563282   1.750321   5.278015   0.000206   0.185824   0.001108
  37   2   0.355382   5.778310   3.119677  -0.000284   0.185824  -0.001530
  38   2   3.329836   7.311053   4.431970   0.000865   0.418105   0.002068
  39   2   3.424753   2.097096   6.163632   0.000053   0.139368   0.000382
  40   2   4.177446   1.663425   5.844104   0.000312   0.139368   0.002242
  41   2   5.793488   6.888020   2.074409   0.000768   0.185824   0.004134
  42   2   3.176608   7.585894   3.518506   0.000569   0.278737   0.002041
  43   2   0.889466   6.500855   2.665556  -0.000197   0.325193  -0.000607
  44   2   4.975139   4.931322  -0.527823  -0.000119   0.139368  -0.000856
  45   2   0.560419   5.923973   1.948498  -0.000378   0.232280  -0.001626
  46   2   0.976333   6.405912   3.836521  -0.000003   0.325193  -0.000008
  47   2   2.093630   7.125870   4.071979   0.000737   0.325193   0.002265
  48   2   4.552516   7.409837   3.868961   0.000487   0.464561   0.001048
  49   2   5.576623   7.093612   3.307610   0.000308   0.278737   0.001106
  50   2   0.337106   5.466467   3.861263  -0.000389   0.278737  -0.001397
  51   2   4.426530   6.869978   5.029223   0.000246   0.371649   0.000661
  52   2   5.232111   5.822833   5.665972  -0.000004   0.232280  -0.000018
  53   2   4.156861   2.321422   6.238880  -0.000104   0.185824  -0.000560
  54   2   4.988063   7.416624   2.858634   0.000143   0.185824   0.000768
  55   2   1.581088   7.039410   3.325688   0.000344   0.278737   0.001234
  56   2   4.345901   4.569030  -0.802854  -0.000436   0.139368  -0.003128
  57   2   5.741886   5.774165   0.345314  -0.000192   0.092912  -0.002067
  58   2   0.250993   4.761569   4.321417  -0.000312   0.139368  -0.002237
  59   2   5.332411   6.697259   4.712455   0.000658   0.325193   0.002025
  60   3   8.018498   5.419774   4.650258   0.006703   0.343589   0.019509
  61   3   7.904785   2.213579   5.644312   0.006307   0.343589   0.018358
  62   3   9.430244   3.156470   2.782948   0.001634   0.274871   0.005945
  63   3   7.580480   0.297905   3.036412   0.003177   0.309230   0.010273
  64   3   7.489378   5.534260   1.176526   0.002039   0.240512   0.008477
  65   3   6.597362   4.724669   5.939072   0.002881   0.206154   0.013974
  66   3   7.162268   5.245666   5.442533   0.005934   0.343589   0.017271
  67   3   6.340372   3.498482   6.313694   0.004293   0.309230   0.013883
  68   3   7.182444   2.941862   6.159479   0.005950   0.343589   0.017316
  69   3   8.280316   4.485555   5.234814   0.007119   0.377948   0.018836
  70   3   8.206521   3.366861   5.626421   0.006938   0.377948   0.018358
  71   3   7.016242   1.619705   5.773751   0.008618   0.446666   0.019294
  72   3   6.070953   1.193588   5.601380   0.005437   0.274871   0.019781
  73   3   7.166615   6.006760   4.473779   0.005505   0.343589   0.016023
  74   3   9.207569   2.040870   2.847632   0.000711   0.274871   0.002586
  75   3   8.472728   0.923285   2.944739   0.001664   0.309230   0.005382
  76   3   6.864419   0.079607   2.698936   0.001829   0.206154   0.008871
  77   3   8.513651   5.018507   1.658264   0.002689   0.309230   0.008697
  78   3   9.178444   4.185730   2.205213   0.002021   0.309230   0.006535
  79   3   8.855812   4.746365   4.174546   0.006773   0.377948   0.017921
  80   3   9.325864   4.051298   3.386281   0.004825   0.377948   0.012765
  81   3   9.312149   2.709216   3.828396   0.005382   0.481025   0.011189
  82   3   8.773123   2.433817   4.884972   0.006047   0.377948   0.016000
  83   3   8.128563   1.335369   4.867386   0.006992   0.412307   0.016959
  84   3   7.819962   0.598360   4.055182   0.005652   0.377948   0.014954
  85   3   6.770018   0.122985   3.807048   0.004793   0.274871   0.017435
  86   3   6.281215   0.496406   4.821660   0.005059   0.240512   0.021035
  87   3   7.377412   6.022697   1.890698   0.003646   0.274871   0.013266
  88   3   8.087985   5.758682   2.288295   0.004615   0.309230   0.014925
  89   3   8.193355   5.763597   3.509942   0.007910   0.412307   0.019185
  90   3   7.345770   4.140161   5.979558   0.005757   0.343589   0.016755
  91   3   6.031560   2.224313   6.161233   0.005784   0.377948   0.015304
  92   3   8.984176   3.638300   4.695937   0.006277   0.377948   0.016608
  93   3   7.081457   0.677595   4.872777   0.005121   0.274871   0.018631
  94   3   7.334657   6.278698   3.201539   0.006202   0.343589   0.018052
  95   3   8.821907   1.477881   3.828020   0.004420   0.412307   0.010720
  96   3   8.898417   5.031776   2.895696   0.005662   0.377948   0.014982
  97   4  -2.259698   2.784256   1.356122  -0.003842   0.588831  -0.006525
  98   4  -1.255318   2.632751  -0.409493  -0.001018   0.372926  -0.002731
  99   4  -1.018314   4.197613   0.686693  -0.001237   0.353299  -0.003502
 100   4  -1.494180   3.546128   2.870176  -0.001353   0.353299  -0.003828
 101   4  -1.953176   1.543752   2.720706  -0.001039   0.372926  -0.002786
 102   4  -1.849819   1.001920   0.750909  -0.001280   0.412182  -0.003105
 103   4  -1.513205   3.469182   0.243836  -0.002292   0.490692  -0.004671
 104   4  -1.560715   3.995420   1.777019  -0.002228   0.490692  -0.004540
 105   4  -1.964986   2.650507   2.808560  -0.002068   0.471065  -0.004391
 106   4  -2.182280   1.363051   1.715550  -0.002136   0.471065  -0.004535
 107   4  -1.838857   1.924011   0.127478  -0.002209   0.490692  -0.004502
 108   5   2.189189  -1.887797   4.550204  -0.003251   0.549575  -0.005915
 109   5   3.209298  -0.663262   5.209823  -0.001463   0.333671  -0.004383
 110   5   3.854782  -1.699616   3.401766  -0.000962   0.333671  -0.002884
 111   5   2.060338  -2.338687   2.799415  -0.000873   0.353299  -0.002470
 112   5   0.529961  -1.420688   4.065807  -0.000861   0.372926  -0.002310
 113   5   1.449107  -0.172336   5.422374  -0.000981   0.353299  -0.002777
 114   5   3.509213  -1.455171   4.489307  -0.002504   0.471065  -0.005315
 115   5   2.995845  -2.224294   3.270858  -0.001793   0.490692  -0.003654
 116   5   1.252888  -2.132082   3.510515  -0.001861   0.490692  -0.003793
 117   5   1.036643  -1.078095   4.915150  -0.001859   0.471065  -0.003947
 118   5   2.320397  -0.633407   5.443430  -0.001794   0.412182  -0.004351
 119   6   3.350913   0.237840  -2.242414  -0.002661   0.451437  -0.005894
 120   6   4.379294  -0.657358  -0.704066  -0.001100   0.372926  -0.002950
 121   6   3.621603   2.289730  -2.012246  -0.001536   0.353299  -0.004346
 122   6   1.948360   1.236959  -2.299625  -0.000958   0.372926  -0.002569
 123   6   2.198794  -0.663290  -1.584993  -0.001143   0.412182  -0.002773
 124   6   4.373489   0.027214  -1.575897  -0.002470   0.431809  -0.005720
 125   6   4.174925   1.183839  -2.059449  -0.002569   0.412182  -0.006233
 126   6   2.894198   1.720979  -2.387381  -0.001797   0.431809  -0.004161
 127   6   2.128191   0.250936  -2.200298  -0.001699   0.431809  -0.003935
 128   6   3.311569  -0.954571  -1.241949  -0.001783   0.510320  -0.003493
 129   7   3.265270   7.534637   0.205336  -0.003612   0.608459  -0.005936
 130   7   2.567621   6.234317  -0.563133  -0.001493   0.353299  -0.004225
 131   7   4.580776   6.239704  -0.417998  -0.001048   0.333671  -0.003139
 132   7   4.859186   7.472758   1.139533  -0.000973   0.353299  -0.002753
 133   7   2.925805   7.908099   2.067456  -0.000996   0.372926  -0.002671
 134   7   1.453646   6.889115   1.048680  -0.001229   0.353299  -0.003478
 135   7   3.556939   6.212036  -0.726433  -0.001926   0.490692  -0.003926
 136   7   4.685942   7.069154   0.181614  -0.002053   0.490692  -0.004183
 137   7   3.922339   7.943426   1.499447  -0.002104   0.510320  -0.004122
 138   7   2.224098   7.663612   1.323762  -0.002148   0.490692  -0.004378
 139   7   1.948943   6.762746   0.093183  -0.002144   0.490692  -0.004369
 140   8   2.053400   5.296754   6.815457  -0.003678   0.549575  -0.006692
 141   8   3.759633   3.826636   6.970735  -0.001360   0.392554  -0.003465
 142   8   2.477517   3.210828   6.798308  -0.002052   0.471065  -0.004356
 143   8   0.821536   4.578993   5.880681  -0.001756   0.353299  -0.004971
 144   8   1.885630   6.379089   5.710206  -0.001462   0.372926  -0.003920
 145   8   3.741703   6.067038   6.368798  -0.001312   0.372926  -0.003519
 146   8   2.721035   4.373382   7.159893  -0.002543   0.431809  -0.005889
 147   8   1.418997   3.931489   6.552015  -0.002453   0.490692  -0.004998
 148   8   1.103078   5.609962   5.761438  -0.002037   0.451437  -0.004512
 149   8   2.788751   6.395140   6.160169  -0.001859   0.431809  -0.004306
 150   8   3.808186   5.143645   6.912264  -0.002722   0.510320  -0.005333
 151   9   7.463614   2.040355  -0.784638  -0.010245   0.510320  -0.020076
 152   9   8.152230   0.722062   1.096785  -0.005563   0.412182  -0.013496
 153   9   9.130456   2.797341   0.783714  -0.006499   0.451437  -0.014396
 154   9   7.548032   4.310003  -0.232547  -0.006844   0.490692  -0.013948
 155   9   8.560415   1.678229   0.147524  -0.007765   0.451437  -0.017200
 156   9   8.348630   3.001160  -0.391447  -0.008733   0.510320  -0.017112
 157   9   6.982407   3.333808  -0.896708  -0.010335   0.549575  -0.018805
 158   9   7.480592   0.963187  -0.091549  -0.008543   0.451437  -0.018924
 159   9   8.954032   1.606584   1.270904  -0.005119   0.392554  -0.013041
 160   9   8.660105   3.886620   0.416240  -0.004542   0.372926  -0.012179
 161   9   7.240181   0.361950   0.967728  -0.004140   0.274788  -0.015066
 162   1   0.144106   4.777927   0.795117  -0.000083   0.025495  -0.003259
 163   2   0.434634   5.128103   0.989130  -0.000088   0.025495  -0.003467
 164   4  -0.120058   4.638266   0.841404  -0.000117   0.025495  -0.004605
 165   1  -0.436503   3.865465   3.623125  -0.000074   0.025495  -0.002885
 166   2  -0.138316   4.227678   3.779832  -0.000107   0.025495  -0.004203
 167   4  -0.648515   3.807763   3.415396  -0.000085   0.025495  -0.003323
 168   1   2.174889   1.146506   5.566577  -0.000051   0.026797  -0.001908
 169   2   2.445059   1.537788   5.703008  -0.000036   0.026797  -0.001350
 170   5   2.206534   0.847351   5.532751  -0.000095   0.026797  -0.003557
 171   1   3.518647   3.385811  -1.251788  -0.000118   0.027055  -0.004343
 172   2   3.773279   3.751149  -1.036376  -0.000137   0.027055  -0.005072
 173   6   3.572070   3.119328  -1.387027  -0.000118   0.027055  -0.004346
 174   1   3.054694   4.183931  -1.004668  -0.000060   0.026245  -0.002269
 175   2   3.322396   4.576929  -0.868369  -0.000088   0.026245  -0.003351
 176   7   3.291078   4.874966  -0.821409  -0.000099   0.026245  -0.003762
 177   1   0.638640   5.101798   0.637296  -0.000089   0.026245  -0.003388
 178   2   0.874254   5.506986   0.795403  -0.000128   0.026245  -0.004871
 179   7   1.062657   5.721551   0.693039  -0.000177   0.026245  -0.006763
 180   1   0.088901   3.690892   4.489836  -0.000092   0.025812  -0.003583
 181   2   0.318602   4.080882   4.689403  -0.000131   0.025812  -0.005082
 182   8   0.455005   4.165364   4.944635  -0.000143   0.025812  -0.005528
 183   1   2.063675   1.749051   5.707005  -0.000044   0.025812  -0.001705
 184   2   2.319607   2.113247   5.922740  -0.000081   0.025812  -0.003153
 185   8   2.276495   2.374250   6.067327  -0.000133   0.025812  -0.005133
 186   2   3.667830   4.226064  -0.965051  -0.000189   0.109871  -0.001722
 187   1   3.178942   3.755868  -1.210840  -0.000074   0.109871  -0.000671
 188   2   0.695403   5.430272   0.894009  -0.000066   0.037853  -0.001742
 189   1   0.291625   4.886433   0.679097  -0.000025   0.037853  -0.000653
 190   2   0.086220   4.297223   4.238506  -0.000225   0.124489  -0.001810
 191   1  -0.251900   3.670300   4.103839  -0.000096   0.124489  -0.000768
 192   2   2.409400   1.908267   5.894893  -0.000015   0.042091  -0.000356
 193   1   2.073065   1.336257   5.639622   0.000013   0.042091   0.000317
 194   1   4.841561  -0.638412   3.043917   0.000252   0.056624   0.004446
 195   3   5.510939  -0.197777   3.238793   0.000862   0.056624   0.015231
 196   5   4.645542  -0.768106   3.236008  -0.000006   0.056624  -0.000106
 197   1   5.611011  -0.167394   1.728051   0.000057   0.075945   0.000754
 198   3   6.344516   0.130083   1.963876   0.000130   0.075945   0.001706
 199   9   6.442685   0.194568   1.662037  -0.000386   0.075945  -0.005076
 200   3   6.149287  -0.085038   2.806847   0.003047   0.324334   0.009395
 201   1   5.204971  -0.587838   2.241427   0.001008   0.358262   0.002815
 202   4  -0.422324   4.350854   0.501178  -0.000208   0.069090  -0.003004
 203   4  -0.531791   3.571622  -0.288700  -0.000449   0.153480  -0.002926
 204   4  -0.825414   2.299722  -0.624483  -0.000441   0.153480  -0.002876
 205   4  -1.199626   1.116092  -0.099429  -0.000438   0.153480  -0.002851
 206   4  -1.498842   0.512849   1.068160  -0.000493   0.153480  -0.003211
 207   4  -1.598656   0.740803   2.392837  -0.000360   0.153480  -0.002346
 208   4  -1.457569   1.705177   3.323843  -0.000472   0.153480  -0.003075
 209   4  -1.134241   3.005015   3.474095  -0.000562   0.153480  -0.003661
 210   1  -0.065647   4.178412   0.053294  -0.000403   0.151362  -0.002666
 211   1  -0.293842   2.930417  -0.773138  -0.000213   0.151362  -0.001408
 212   1  -0.690111   1.473395  -0.660832  -0.000126   0.151362  -0.000831
 213   1  -1.089698   0.413130   0.343521  -0.000292   0.151362  -0.001926
 214   1  -1.326468   0.190447   1.822340  -0.000211   0.151362  -0.001393
 215   1  -1.301978   0.897931   3.160780  -0.000132   0.151362  -0.000873
 216   1  -1.026412   2.241431   3.802359  -0.000272   0.151362  -0.001799
 217   1  -0.702936   3.423907   3.695659  -0.000136   0.084408  -0.001613
 218   5   1.820357   0.466503   5.497026  -0.000185   0.070121  -0.002638
 219   5   0.850018   0.064404   5.081716  -0.000437   0.156202  -0.002799
 220   5   0.211048  -0.716315   4.162916  -0.000328   0.156202  -0.002101
 221   5   0.451397  -1.544472   3.105378  -0.000372   0.156202  -0.002380
 222   5   1.468485  -2.066610   2.360459  -0.000406   0.156202  -0.002600
 223   5   2.828217  -2.059880   2.246091  -0.000260   0.156202  -0.001663
 224   5   3.950262  -1.527156   2.811085  -0.000364   0.156202  -0.002333
 225   1   1.303492   0.731246   5.337900  -0.000334   0.153221  -0.002179
 226   1   0.183661   0.029599   4.561424  -0.000143   0.153221  -0.000934
 227   1  -0.053207  -0.926424   3.387048  -0.000122   0.153221  -0.000798
 228   1   0.693985  -1.728794   2.315996  -0.000130   0.153221  -0.000851
 229   1   2.106334  -2.035059   1.805392  -0.000079   0.153221  -0.000517
 230   1   3.581051  -1.714505   2.073162  -0.000038   0.153221  -0.000249
 231   1   4.443043  -1.115040   2.745117  -0.000032   0.085668  -0.000369
 232   1   5.137165  -0.169953   0.427456  -0.000251   0.079244  -0.003163
 233   6   5.074357  -0.118830   0.132209  -0.000379   0.079244  -0.004783
 234   9   5.915843   0.295504   0.480867  -0.001075   0.079244  -0.013570
 235   6   4.589342  -0.596925  -0.078841  -0.000186   0.067036  -0.002768
 236   6   3.669245  -1.125299  -0.280884  -0.000281   0.147785  -0.001902
 237   6   2.454206  -1.142551  -0.764340  -0.000362   0.147785  -0.002452
 238   6   1.546854  -0.414124  -1.361378  -0.000406   0.147785  -0.002748
 239   6   1.299237   0.777355  -1.840350  -0.000308   0.147785  -0.002082
 240   6   1.807431   1.969596  -2.015415  -0.000394   0.147785  -0.002669
 241   6   2.874258   2.700016  -1.818651  -0.000523   0.147785  -0.003541
 242   1   4.247476  -0.930508   0.267530  -0.000081   0.147968  -0.000545
 243   1   2.907553  -1.387815  -0.126082   0.000026   0.147968   0.000173
 244   1   1.652735  -0.967348  -0.764901  -0.000161   0.147968  -0.001085
 245   1   0.969884   0.167755  -1.401069  -0.000124   0.147968  -0.000840
 246   1   1.123945   1.577079  -1.787754  -0.000030   0.147968  -0.000203
 247   1   2.055142   2.713812  -1.774925  -0.000182   0.147968  -0.001231
 248   1   3.113414   3.189222  -1.500417  -0.000169   0.081899  -0.002063
 249   7   2.939688   5.183613  -0.782014  -0.000689   0.204721  -0.003365
 250   7   1.736276   5.636249  -0.057380  -0.002238   0.419788  -0.005330
 251   1   1.978735   4.400208  -0.824933  -0.000417   0.560038  -0.000745
 252   1   0.692659   4.892931   0.133996   0.000008   0.288387   0.000027
 253   8   0.609159   3.962725   5.332087  -0.000905   0.201760  -0.004484
 254   8   1.504470   2.999655   5.961586  -0.002219   0.413396  -0.005368
 255   1   0.393131   2.783371   5.028658  -0.000581   0.552284  -0.001052
 256   1   1.524465   1.746223   5.655223   0.000145   0.284238   0.000509
 257   9   6.515227   0.216309   1.139377  -0.002251   0.243549  -0.009243
 258   1   5.314309  -0.387886   0.965210   0.000021   0.343175   0.000061
 259   2   4.314187   1.124994   5.371975   0.000393   0.092395   0.004257
 260   3   4.781019   1.094028   5.305638   0.000971   0.092395   0.010506
 261   5   3.931606   0.518935   5.149879   0.000110   0.092395   0.001193
 262   2   5.222557   4.907334   6.117119   0.000039   0.014125   0.002766
 263   3   5.654321   4.739500   6.036108   0.000155   0.014125   0.011002
 264   8   4.952439   4.927966   6.248707  -0.000048   0.014125  -0.003389
 265   2   4.810638   3.391035   6.399179   0.000067   0.014125   0.004771
 266   3   5.259789   3.287204   6.306262   0.000214   0.014125   0.015143
 267   8   4.578375   3.551014   6.504846  -0.000020   0.014125  -0.001424
 268   2   6.256798   5.348905   0.423451  -0.000125   0.039002  -0.003214
 269   3   6.693713   5.196944   0.512041  -0.000120   0.039002  -0.003066
 270   9   6.779013   4.964145   0.306430  -0.000313   0.039002  -0.008028
 271   3   6.705774   5.606172   0.911250   0.000715   0.166202   0.004303
 272   3   6.737132   6.279203   2.459890   0.004790   0.344651   0.013899
 273   3   6.492806   6.039946   4.485994   0.005010   0.344651   0.014538
 274   3   6.117817   5.030413   5.786943   0.001847   0.166202   0.011116
 275   2   6.121703   6.178279   1.363415   0.001380   0.357059   0.003864
 276   2   6.043995   6.617241   3.458133   0.002788   0.357059   0.007808
 277   2   5.640452   5.707012   5.354237   0.001807   0.357059   0.005062
 278   3   5.498863   2.754492   6.217775   0.001701   0.161045   0.010559
 279   3   5.252807   1.617911   5.736269   0.002155   0.161045   0.013384
 280   2   4.716321   2.314125   6.012083   0.001651   0.346082   0.004771
 281   4  -0.813071   4.009001   3.037707  -0.000668   0.199619  -0.003345
 282   4  -0.572607   4.505897   1.707886  -0.002076   0.408621  -0.005081
 283   2  -0.018318   4.955145   2.984282  -0.001544   0.546781  -0.002824
 284   2   0.327536   5.390284   1.444162  -0.000358   0.281189  -0.001274
 285   5   3.029333   0.344361   5.366837  -0.001234   0.319342  -0.003865
 286   2   3.199901   1.425243   5.728608  -0.000136   0.449123  -0.000302
 287   2   4.839517   3.483904  -0.782958  -0.001668   0.144151  -0.011570
 288   6   4.563833   2.851366  -1.085223  -0.001332   0.144151  -0.009239
 289   9   5.444221   3.213171  -0.767157  -0.002909   0.144151  -0.020183
 290   6   3.833381   2.883671  -1.477108  -0.000600   0.138198  -0.004345
 291   2   4.312914   3.774003  -0.986880  -0.000566   0.194851  -0.002903
 292   7   1.174051   6.205491   0.899820  -0.000306   0.068856  -0.004441
 293   7   1.419397   6.864271   1.756601  -0.000731   0.152659  -0.004791
 294   7   2.339133   7.510421   2.486587  -0.000501   0.152659  -0.003281
 295   7   3.656468   7.737984   2.582221  -0.000489   0.152659  -0.003202
 296   7   4.831869   7.453760   2.004335  -0.000563   0.152659  -0.003690
 297   7   5.383933   6.774155   0.989610  -0.000610   0.152659  -0.003995
 298   7   5.086555   5.977512  -0.046357  -0.000684   0.152659  -0.004482
 299   7   4.061529   5.390108  -0.679273  -0.000719   0.152659  -0.004711
 300   2   1.014125   6.190397   1.474966  -0.000753   0.151151  -0.004980
 301   2   1.645655   7.047854   2.539399  -0.000458   0.151151  -0.003027
 302   2   2.971980   7.565866   3.028896  -0.000268   0.151151  -0.001770
 303   2   4.449884   7.532272   2.742977  -0.000304   0.151151  -0.002012
 304   2   5.474072   6.960833   1.798743  -0.000376   0.151151  -0.002485
 305   2   5.625071   6.085589   0.582919  -0.000466   0.151151  -0.003082
 306   2   4.841038   5.265008  -0.406536  -0.000602   0.151151  -0.003985
 307   2   3.770324   4.837136  -0.814890  -0.000250   0.084122  -0.002971
 308   8   2.636367   2.657265   6.390414  -0.000261   0.075050  -0.003475
 309   8   3.708609   3.164615   6.615670  -0.000854   0.170170  -0.005020
 310   2   3.227467   2.503216   6.271728  -0.000708   0.161264  -0.004391
 311   2   4.364413   3.167202   6.475423  -0.000113   0.091690  -0.001227
 312   8   4.603841   5.308503   6.323873  -0.000248   0.073096  -0.003399
 313   8   4.028764   6.231244   5.869765  -0.000708   0.164669  -0.004297
 314   8   2.817921   6.726689   5.317375  -0.000604   0.164669  -0.003671
 315   8   1.508375   6.283178   4.993138  -0.000842   0.164669  -0.005116
 316   8   0.712733   5.108187   5.048733  -0.000993   0.164669  -0.006030
 317   2   4.736007   5.722382   5.889780  -0.000538   0.158010  -0.003407
 318   2   3.686594   6.736860   5.247828  -0.000470   0.158010  -0.002977
 319   2   2.180843   6.767887   4.724107  -0.000481   0.158010  -0.003046
 320   2   0.923144   5.800948   4.563612  -0.000796   0.158010  -0.005038
 321   2   0.421460   4.612082   4.723631  -0.000366   0.089302  -0.004096
 322   9   6.041066   3.771701  -0.693566  -0.003537   0.217147  -0.016289
 323   9   6.641243   4.685268  -0.094712  -0.002151   0.217147  -0.009908
 324   2   5.545978   4.668269  -0.268107  -0.004261   0.509094  -0.008369
 325   5   4.574544  -0.889991   3.660292   0.000221   0.248747   0.000889
 326   5   4.150620  -0.344124   4.703666  -0.000253   0.500223  -0.000505
 327   3   5.717526   0.054184   4.173486   0.007608   0.615733   0.012356
 328   3   5.196083   0.724062   5.243932   0.003346   0.310111   0.010790
 329   8   4.628783   4.146293   6.538248  -0.000921   0.334218  -0.002756
 330   3   5.717997   4.100157   6.226411   0.003034   0.407199   0.007452
 331   9   7.313935   4.816627   0.312640  -0.000436   0.079537  -0.005488
 332   9   8.318182   4.422156   0.802552  -0.001478   0.171405  -0.008625
 333   9   9.078314   3.365832   1.417643  -0.001796   0.171405  -0.010478
 334   9   9.023939   1.991185   1.841135  -0.001906   0.171405  -0.011120
 335   9   8.176088   0.829948   1.909217  -0.001714   0.171405  -0.009998
 336   9   7.135356   0.302051   1.703462  -0.000516   0.079537  -0.006481
 337   3   7.640794   4.990365   0.835358  -0.000417   0.171050  -0.002438
 338   3   8.802547   4.201501   1.509301  -0.000568   0.171050  -0.003323
 339   3   9.204320   2.817599   2.100545  -0.001113   0.171050  -0.006508
 340   3   8.690701   1.373973   2.380388  -0.001075   0.171050  -0.006286
 341   3   7.460366   0.429036   2.240583  -0.000694   0.171050  -0.004057
 342   9   6.431698   0.432301   0.167843  -0.002384   0.234687  -0.010158
 343   9   6.405392   1.228091  -0.625554  -0.006492   0.469416  -0.013829
 344   9   6.035528   2.491900  -1.010841  -0.006819   0.469416  -0.014526
 345   6   5.185869   0.209714  -0.621834  -0.001933   0.469416  -0.004119
 346   6   5.017167   1.333172  -1.391145  -0.002571   0.469416  -0.005478
 347   6   4.627169   2.382711  -1.490240  -0.000888   0.234687  -0.003786
 =====================================================

              1135478  WORDS OF DYNAMIC MEMORY USED
 EXECUTION OF GAMESS TERMINATED NORMALLY Thu Nov 24 00:39:42 2016
 DDI: 263640 bytes (0.3 MB / 0 MWords) used by master data server.

 ----------------------------------------
 CPU timing information for all processes
 ========================================
 0: 114.144 + 0.116 = 114.260
 ----------------------------------------
 ddikick.x: exited gracefully.
