----- GAMESS execution script -----

          ******************************************************
          *         GAMESS VERSION =  5 DEC 2014 (R1)          *
          *             FROM IOWA STATE UNIVERSITY             *
          * M.W.SCHMIDT, K.K.BALDRIDGE, J.A.BOATZ, S.T.ELBERT, *
          *   M.S.GORDON, J.H.JENSEN, S.KOSEKI, N.MATSUNAGA,   *
          *          K.A.NGUYEN, S.J.SU, T.L.WINDUS,           *
          *       TOGETHER WITH M.DUPUIS, J.A.MONTGOMERY       *
          *         J.COMPUT.CHEM.  14, 1347-1363(1993)        *
          **************** 64 BIT LINUX VERSION ****************

 EXECUTION OF GAMESS BEGUN Thu Nov 24 00:35:05 2016

            ECHO OF THE FIRST FEW INPUT CARDS -
 INPUT CARD>! SELECT RESTRICTED HARTREE-FOCK AS DEFAULT                                     
 INPUT CARD>$contrl scftyp=rhf $end                                                         
 INPUT CARD>                                                                                
 INPUT CARD>! THEORY: HF OR DFT                                                             
 INPUT CARD> $contrl mplevl=0 $end                                                          
 INPUT CARD>                                                                                
 INPUT CARD> $system timlim=10000 mwords=20 $end                                            
 INPUT CARD> $SCF DIRSCF=.TRUE. $end                                                        
 INPUT CARD>                                                                                
 INPUT CARD>                                                                                
 INPUT CARD>! BASIS SETS                                                                    
 INPUT CARD>! 6-311G(d,p)                                                                   
 INPUT CARD> $BASIS GBASIS=N311 NGAUSS=6 NDFUNC=1 NPFUNC=1 $END                             
 INPUT CARD>                                                                                
 INPUT CARD>! One of the following                                                          
 INPUT CARD> $guess guess=HUCKEL $end                                                       
 INPUT CARD>                                                                                
 INPUT CARD> $statpt projct=.FALSE. $end                                                    
 INPUT CARD> $STATPT IFREEZ(1)=1,2,3 $END                                                   
 INPUT CARD>                                                                                
 INPUT CARD>! Optimize the geometry with COSMO effects                                      
 INPUT CARD> $statpt opttol=0.0005 nstep=50 $end                                            
 INPUT CARD> $contrl nzvar=1 $end                                                           
 INPUT CARD> $zmat dlc=.t. auto=.t. $end                                                    
 INPUT CARD> $contrl runtyp=OPTIMIZE maxit=200 $end                                         
 INPUT CARD>                                                                                
 INPUT CARD>! Run COSMO on perfect conductor                                                
 INPUT CARD> $COSGMS PRFCND=.TRUE. $end                                                     
 INPUT CARD>                                                                                
 INPUT CARD>! Specifying RSOLV                                                              
 INPUT CARD> $COSGMS COSRAD = 1.4 $end                                                      
 INPUT CARD>                                                                                
 INPUT CARD>! available memory                                                              
 INPUT CARD> $SYSTEM MWORDS=40 $END                                                         
 INPUT CARD>                                                                                
 INPUT CARD> $DATA                                                                          
 INPUT CARD>Ethane, ID: C74840                                                              
 INPUT CARD>C1                                                                              
 INPUT CARD>H      1.0      0.5480000000    1.7661000000    0.0000000000                    
 INPUT CARD>C      6.0      0.7286000000    0.8978000000    0.6468000000                    
 INPUT CARD>H      1.0      0.4974000000    0.0000000000    0.0588000000                    
 INPUT CARD>H      1.0      0.0000000000    0.9459000000    1.4666000000                    
 INPUT CARD>C      6.0      2.1421000000    0.8746000000    1.1615000000                    
 INPUT CARD>H      1.0      2.3239000000    0.0050000000    1.8065000000                    
 INPUT CARD>H      1.0      2.8705000000    0.8295000000    0.3416000000                    
 INPUT CARD>H      1.0      2.3722000000    1.7711000000    1.7518000000                    
 INPUT CARD> $END                                                                           
 INPUT CARD>                                                                                
 INPUT CARD>                                                                                
   40000000 WORDS OF MEMORY AVAILABLE

     BASIS OPTIONS
     -------------
     GBASIS=N311         IGAUSS=       6      POLAR=POPN311 
     NDFUNC=       1     NFFUNC=       0     DIFFSP=       F
     NPFUNC=       1      DIFFS=       F     BASNAM=        


     RUN TITLE
     ---------
 Ethane, ID: C74840                                                              

 THE POINT GROUP OF THE MOLECULE IS C1      
 THE ORDER OF THE PRINCIPAL AXIS IS     0

 ATOM      ATOMIC                      COORDINATES (BOHR)
           CHARGE         X                   Y                   Z
 H           1.0     1.0355698413        3.3374450669        0.0000000000
 C           6.0     1.3768543547        1.6965959918        1.2222747689
 H           1.0     0.9399497063        0.0000000000        0.1111158881
 H           1.0     0.0000000000        1.7874918118        2.7714721336
 C           6.0     4.0479820383        1.6527543489        2.1949167347
 H           1.0     4.3915342229        0.0094486299        3.4137899968
 H           1.0     5.4244584478        1.5675277068        0.6455303974
 H           1.0     4.4828079881        3.3468936969        3.3104219853

          INTERNUCLEAR DISTANCES (ANGS.)




     $CONTRL OPTIONS
     ---------------
 SCFTYP=RHF          RUNTYP=OPTIMIZE     EXETYP=RUN     
 MPLEVL=       0     CITYP =NONE         CCTYP =NONE         VBTYP =NONE    
 DFTTYP=NONE         TDDFT =NONE    
 MULT  =       1     ICHARG=       0     NZVAR =       1     COORD =UNIQUE  
 PP    =NONE         RELWFN=NONE         LOCAL =NONE         NUMGRD=       F
 ISPHER=      -1     NOSYM =       0     MAXIT =     200     UNITS =ANGS    
 PLTORB=       F     MOLPLT=       F     AIMPAC=       F     FRIEND=        
 NPRINT=       7     IREST =       0     GEOM  =INPUT   
 NORMF =       0     NORMP =       0     ITOL  =      20     ICUT  =       9
 INTTYP=BEST         GRDTYP=BEST         QMTTOL= 1.0E-06

     $SYSTEM OPTIONS
     ---------------
  REPLICATED MEMORY=    40000000 WORDS (ON EVERY NODE).
 DISTRIBUTED MEMDDI=           0 MILLION WORDS IN AGGREGATE,
 MEMDDI DISTRIBUTED OVER   1 PROCESSORS IS           0 WORDS/PROCESSOR.
 TOTAL MEMORY REQUESTED ON EACH PROCESSOR=    40000000 WORDS.
 TIMLIM=       10000.00 MINUTES, OR       6.9 DAYS.
 PARALL= F  BALTYP=  DLB     KDIAG=    0  COREFL= F
 MXSEQ2=     300 MXSEQ3=     150  mem10=         0

     $COSGMS OPTIONS
     ---------------
     EPSI  =   INFTY     NSPA  =      92     COSRAD=    1.40
     DISEX =   10.00     OUTCHG=DBLCAV       COSBUG=       F
     COSWRT=       F     DCOSMO=       F

     SYMMETRY COORDINATES WILL NOT BE USED FOR 
     THE COSMO CALCULATION, EVEN IF SPECIFIED:
         -- SWITCHING TO C1 POINT GROUP --


     DEFINITION OF CAVITY
     ---------------------------
     ATOM         COORDINATES           RADIUS 
     1    1.0356    3.3374    0.0000    1.3000
     2    1.3769    1.6966    1.2223    2.0000
     3    0.9399    0.0000    0.1111    1.3000
     4    0.0000    1.7875    2.7715    1.3000
     5    4.0480    1.6528    2.1949    2.0000
     6    4.3915    0.0094    3.4138    1.3000
     7    5.4245    1.5675    0.6455    1.3000
     8    4.4828    3.3469    3.3104    1.3000

          ----------------
          PROPERTIES INPUT
          ----------------

     MOMENTS            FIELD           POTENTIAL          DENSITY
 IEMOM =       1   IEFLD =       0   IEPOT =       0   IEDEN =       0
 WHERE =COMASS     WHERE =NUCLEI     WHERE =NUCLEI     WHERE =NUCLEI  
 OUTPUT=BOTH       OUTPUT=BOTH       OUTPUT=BOTH       OUTPUT=BOTH    
 IEMINT=       0   IEFINT=       0                     IEDINT=       0
                                                       MORB  =       0
          EXTRAPOLATION IN EFFECT
          SOSCF IN EFFECT
 ORBITAL PRINTING OPTION: NPREO=     1    74     2     1

     -------------------------------
     INTEGRAL TRANSFORMATION OPTIONS
     -------------------------------
     NWORD  =            0
     CUTOFF = 1.0E-09     MPTRAN =       0
     DIRTRF =       T     AOINTS =DUP     

          ----------------------
          INTEGRAL INPUT OPTIONS
          ----------------------
 NOPK  =       1 NORDER=       0 SCHWRZ=       T


 -----------------------------------------------
  STATISTICS ON AUTOMATIC COORDINATE GENERATION 
 -----------------------------------------------
  NUMBER OF USER SPECIFIED BONDS                             0
  NUMBER OF BONDS                                            7
  NUMBER OF ANGLES                                          12
  NUMBER OF TORSIONS                                         9
  NUMBER OF EXTRA COORD.                                     0
  NUMBER OF EXTRA COORD. FOR CONSTRAINTS                     0
  NUMBER OF CONSTRAINED COORD.                               0

  TOTAL NUMBER OF PRIMITIVES                                28
 -----------------------------------------------

   --- ENCODED Z MATRIX ---
 COORD  TYPE   I   J   K   L   M   N
    1      1    1   2
    2      1    2   4
    3      1    2   5
    4      1    2   3
    5      1    5   7
    6      1    5   8
    7      1    5   6
    8      2    1   2   5
    9      2    1   2   4
   10      2    1   2   3
   11      2    2   5   7
   12      2    2   5   8
   13      2    2   5   6
   14      2    3   2   5
   15      2    3   2   4
   16      2    4   2   5
   17      2    6   5   8
   18      2    6   5   7
   19      2    7   5   8
   20      3    1   2   5   6
   21      3    1   2   5   7
   22      3    1   2   5   8
   23      3    3   2   5   6
   24      3    3   2   5   7
   25      3    3   2   5   8
   26      3    4   2   5   6
   27      3    4   2   5   7
   28      3    4   2   5   8

          INDEP./SYM. INTERNAL COORDINATES
          --------------------------------
 CRD  1=  -0.7109 (  3) -0.1923 (  8)  0.2073 (  9)  0.2069 ( 10) -0.1917 ( 11)
          -0.1932 ( 12) -0.1927 ( 13) -0.1920 ( 14)  0.2073 ( 15) -0.1933 ( 16)
           0.2075 ( 17)  0.2070 ( 18)  0.2070 ( 19)
 CRD  2=   0.5275 (  8)  0.2764 ( 11)  0.2514 ( 12) -0.5274 ( 13) -0.2524 ( 14)
           0.1814 ( 15) -0.2749 ( 16) -0.1816 ( 19)  0.1324 ( 25) -0.1285 ( 27)
 CRD  3=  -0.1592 (  9)  0.1554 ( 10) -0.4497 ( 11)  0.4636 ( 12) -0.4637 ( 14)
           0.4502 ( 16) -0.1544 ( 17)  0.1600 ( 18)  0.1507 ( 20)
 CRD  4=  -0.1671 (  2)  0.1993 (  4) -0.1667 (  5)  0.1995 (  6)  0.2330 (  9)
          -0.1953 ( 10) -0.3695 ( 11)  0.4423 ( 12)  0.4416 ( 14) -0.3702 ( 16)
          -0.1950 ( 17)  0.2334 ( 18)
 CRD  5=  -0.2116 (  1)  0.1337 (  2)  0.1343 (  5) -0.2115 (  7) -0.4688 (  8)
           0.1564 ( 10)  0.2973 ( 11)  0.1712 ( 12) -0.4685 ( 13)  0.1726 ( 14)
          -0.2474 ( 15)  0.2963 ( 16)  0.1568 ( 17) -0.2471 ( 19)
 CRD  6=  -0.3241 (  1) -0.3243 (  2) -0.3242 (  4)  0.3241 (  5)  0.3241 (  6)
           0.3243 (  7)  0.1689 (  8) -0.1818 (  9) -0.1817 ( 10) -0.1689 ( 11)
          -0.1689 ( 12) -0.1689 ( 13)  0.1689 ( 14) -0.1818 ( 15)  0.1689 ( 16)
           0.1817 ( 17)  0.1818 ( 18)  0.1817 ( 19)
 CRD  7=   0.3701 (  1)  0.3702 (  2)  0.2047 (  3)  0.3701 (  4)  0.3701 (  5)
           0.3701 (  6)  0.3703 (  7) -0.1025 (  8)  0.1103 (  9)  0.1103 ( 10)
          -0.1026 ( 11) -0.1025 ( 12) -0.1025 ( 13) -0.1025 ( 14)  0.1103 ( 15)
          -0.1025 ( 16)  0.1103 ( 17)  0.1104 ( 18)  0.1103 ( 19)
 CRD  8=  -0.1337 (  1)  0.4503 (  2) -0.3170 (  4)  0.4497 (  5) -0.3184 (  6)
          -0.1313 (  7)  0.1604 (  9) -0.2279 ( 10) -0.2277 ( 17)  0.1611 ( 18)
           0.1637 ( 21)  0.2313 ( 22) -0.2320 ( 23) -0.1632 ( 26)
 CRD  9=  -0.4434 (  1)  0.1067 (  2)  0.3364 (  4)  0.1070 (  5)  0.3362 (  6)
          -0.4429 (  7) -0.1704 (  9)  0.2245 ( 15) -0.1701 ( 18)  0.2243 ( 19)
          -0.1731 ( 21) -0.2281 ( 24)  0.1732 ( 26)  0.2283 ( 28)
 CRD 10=  -0.1784 (  1)  0.4484 (  2) -0.2703 (  4) -0.4489 (  5)  0.2707 (  6)
           0.1783 (  7)  0.1404 (  9) -0.2330 ( 10)  0.2332 ( 17) -0.1406 ( 18)
           0.2846 ( 20)  0.1239 ( 21) -0.1424 ( 24) -0.2483 ( 25)  0.1242 ( 26)
          -0.1424 ( 28)
 CRD 11=   0.4147 (  1) -0.3625 (  4)  0.3615 (  6) -0.4156 (  7)  0.1884 (  9)
          -0.2154 ( 15) -0.1877 ( 18)  0.2160 ( 19)  0.1223 ( 20)  0.1546 ( 22)
           0.1533 ( 23)  0.1855 ( 25) -0.3076 ( 27)
 CRD 12=  -0.3334 ( 20) -0.3334 ( 21) -0.3334 ( 22) -0.3333 ( 23) -0.3334 ( 24)
          -0.3333 ( 25) -0.3333 ( 26) -0.3333 ( 27) -0.3332 ( 28)
 CRD 13=  -0.2480 (  1) -0.2482 (  2) -0.2481 (  4)  0.2481 (  5)  0.2480 (  6)
           0.2482 (  7) -0.2207 (  8)  0.2375 (  9)  0.2376 ( 10)  0.2207 ( 11)
           0.2207 ( 12)  0.2207 ( 13) -0.2207 ( 14)  0.2374 ( 15) -0.2207 ( 16)
          -0.2375 ( 17) -0.2376 ( 18) -0.2374 ( 19)
 CRD 14=   0.1651 (  1)  0.1649 (  2) -0.6729 (  3)  0.1648 (  4)  0.1651 (  5)
           0.1650 (  6)  0.1648 (  7)  0.1722 (  8) -0.1854 (  9) -0.1854 ( 10)
           0.1722 ( 11)  0.1722 ( 12)  0.1722 ( 13)  0.1722 ( 14) -0.1851 ( 15)
           0.1722 ( 16) -0.1852 ( 17) -0.1853 ( 18) -0.1854 ( 19)
 CRD 15=   0.2784 (  1) -0.3265 (  2)  0.3268 (  5) -0.2780 (  7) -0.2451 ( 10)
           0.2093 ( 15)  0.2455 ( 17) -0.2088 ( 19)  0.2623 ( 20)  0.2110 ( 21)
          -0.1314 ( 24) -0.4230 ( 25)  0.2120 ( 26)  0.1608 ( 27) -0.1308 ( 28)
 CRD 16=  -0.2161 (  1) -0.1331 (  2)  0.3494 (  4)  0.1322 (  5) -0.3490 (  6)
           0.2168 (  7)  0.2623 (  9) -0.1001 ( 10) -0.1624 ( 15) -0.2623 ( 18)
           0.1629 ( 19)  0.3370 ( 20)  0.1983 ( 22)  0.1973 ( 23) -0.1690 ( 24)
          -0.3957 ( 27) -0.1682 ( 28)
 CRD 17=  -0.2250 (  1)  0.2437 (  2)  0.2440 (  5) -0.2245 (  7)  0.1853 (  8)
           0.1815 ( 10) -0.2011 ( 11)  0.1850 ( 13) -0.1675 ( 15) -0.2008 ( 16)
           0.1817 ( 17) -0.1672 ( 19) -0.3693 ( 22)  0.3700 ( 23)  0.3404 ( 24)
          -0.3409 ( 28)
 CRD 18=   0.1516 (  1)  0.1190 (  2) -0.2705 (  4)  0.1183 (  5) -0.2705 (  6)
           0.1521 (  7) -0.1249 (  8) -0.2014 (  9)  0.2229 ( 12) -0.1253 ( 13)
           0.2229 ( 14)  0.1128 ( 15) -0.2014 ( 18)  0.1133 ( 19) -0.4104 ( 21)
          -0.1798 ( 22)  0.1802 ( 23) -0.2300 ( 24)  0.4099 ( 26)  0.2304 ( 28)

 THE DETERMINANT OF THE G MATRIX IS 10**(    -3)


                     --------------------
                     INTERNAL COORDINATES
                     --------------------

                 - - ATOMS - -         COORDINATE      COORDINATE
 NO.   TYPE    I  J  K  L  M  N        (BOHR,RAD)       (ANG,DEG)
 ----------------------------------------------------------------
   1 STRETCH   1  2                     2.0743231       1.0976846
   2 STRETCH   2  4                     2.0746090       1.0978359
   3 STRETCH   2  5                     2.8430402       1.5044722
   4 STRETCH   2  3                     2.0746078       1.0978353
   5 STRETCH   5  7                     2.0742586       1.0976505
   6 STRETCH   5  8                     2.0744960       1.0977761
   7 STRETCH   5  6                     2.0746406       1.0978526
   8 BEND      1  2  5                  1.9480457     111.6147959
   9 BEND      1  2  4                  1.8714665     107.2271333
  10 BEND      1  2  3                  1.8719796     107.2565332
  11 BEND      2  5  7                  1.9482577     111.6269433
  12 BEND      2  5  8                  1.9479764     111.6108270
  13 BEND      2  5  6                  1.9485060     111.6411704
  14 BEND      3  2  5                  1.9481771     111.6223231
  15 BEND      3  2  4                  1.8713180     107.2186237
  16 BEND      4  2  5                  1.9484537     111.6381750
  17 BEND      6  5  8                  1.8715441     107.2315769
  18 BEND      6  5  7                  1.8717296     107.2422079
  19 BEND      7  5  8                  1.8714218     107.2245724
  20 TORSION   1  2  5  6              -3.1391751    -179.8614846
  21 TORSION   1  2  5  7              -1.0443845     -59.8388224
  22 TORSION   1  2  5  8               1.0496497      60.1404958
  23 TORSION   3  2  5  6              -1.0444370     -59.8418304
  24 TORSION   3  2  5  7               1.0503537      60.1808318
  25 TORSION   3  2  5  8              -3.1387975    -179.8398500
  26 TORSION   4  2  5  6               1.0497370      60.1454971
  27 TORSION   4  2  5  7              -3.1386577    -179.8318406
  28 TORSION   4  2  5  8              -1.0446236     -59.8525225

     ------------------------------------------
     THE POINT GROUP IS C1 , NAXIS= 1, ORDER= 1
     ------------------------------------------

     DIMENSIONS OF THE SYMMETRY SUBSPACES ARE
 A   =   74

 ..... DONE SETTING UP THE RUN .....
 STEP CPU TIME =     0.00 TOTAL CPU TIME =        0.0 (    0.0 MIN)
 TOTAL WALL CLOCK TIME=        0.0 SECONDS, CPU UTILIZATION IS   0.00%


          -----------------------------
          STATIONARY POINT LOCATION RUN
          -----------------------------

 OBTAINING INITIAL HESSIAN, HESS=GUESS   
 DIAGONAL GUESS HESSIAN IN INTERNAL COORDS IS
     1  0.3412     2  0.3411     3  0.3858     4  0.3411     5  0.3413
     6  0.3412     7  0.3411     8  0.2251     9  0.2026    10  0.2026
    11  0.2251    12  0.2251    13  0.2251    14  0.2251    15  0.2026
    16  0.2251    17  0.2026    18  0.2026    19  0.2026    20  0.2500
    21  0.2500    22  0.2500    23  0.2500    24  0.2500    25  0.2500
    26  0.2500    27  0.2500    28  0.2500
 TRANSFORMING HESSIAN TO SYMMETRY COORDINATES

          PARAMETERS CONTROLLING GEOMETRY SEARCH ARE
          METHOD =QA                  UPHESS =BFGS    
          NNEG   =         0          NFRZ   =         3
          NSTEP  =        50          IFOLOW =         1
          HESS   =GUESS               RESTAR =         F
          IHREP  =         0          HSSEND =         F
          NPRT   =         0          NPUN   =         0
          OPTTOL = 5.000E-04          RMIN   = 1.500E-03
          RMAX   = 1.000E-01          RLIM   = 7.000E-02
          DXMAX  = 3.000E-01          PURIFY =         F
          MOVIE  =         F          TRUPD  =         T
          TRMAX  = 5.000E-01          TRMIN  = 5.000E-02
          ITBMAT =         5          STPT   =         F
          STSTEP = 1.000E-02          PROJCT=          F
          FROZEN COORD(S)=   1   2   3


      ***** EQUILIBRIUM GEOMETRY LOCATED *****
            (SUBJECT TO   3 CONSTRAINT(S))
 COORDINATES OF ALL ATOMS ARE (ANGS)
   ATOM   CHARGE       X              Y              Z
 ------------------------------------------------------------
 H           1.0   0.5492075199   1.7603572828   0.0041717525
 C           6.0   0.7179416279   0.8979486648   0.6429232547
 H           1.0   0.4988784736   0.0060973332   0.0625274601
 H           1.0   0.0049199021   0.9455543129   1.4612071220
 C           6.0   2.1527479380   0.8744468688   1.1654124109
 H           1.0   2.3227042882   0.0108081496   1.8021882067
 H           1.0   2.8656324521   0.8296659526   0.3468579921
 H           1.0   2.3707816014   1.7651701497   1.7479228016


                     --------------------
                     INTERNAL COORDINATES
                     --------------------

                 - - ATOMS - -         COORDINATE      COORDINATE
 NO.   TYPE    I  J  K  L  M  N        (BOHR,RAD)       (ANG,DEG)
 ----------------------------------------------------------------
   1 STRETCH   1  2                     2.0529621       1.0863808
   2 STRETCH   2  4                     2.0529894       1.0863953
   3 STRETCH   2  5                     2.8859132       1.5271596
   4 STRETCH   2  3                     2.0529825       1.0863916
   5 STRETCH   5  7                     2.0529775       1.0863890
   6 STRETCH   5  8                     2.0529810       1.0863908
   7 STRETCH   5  6                     2.0529770       1.0863887
   8 BEND      1  2  5                  1.9383162     111.0573357
   9 BEND      1  2  4                  1.8819276     107.8265105
  10 BEND      1  2  3                  1.8820486     107.8334432
  11 BEND      2  5  7                  1.9383831     111.0611735
  12 BEND      2  5  8                  1.9384083     111.0626171
  13 BEND      2  5  6                  1.9387980     111.0849439
  14 BEND      3  2  5                  1.9386314     111.0753966
  15 BEND      3  2  4                  1.8818136     107.8199761
  16 BEND      4  2  5                  1.9386423     111.0760190
  17 BEND      6  5  8                  1.8818954     107.8246658
  18 BEND      6  5  7                  1.8820059     107.8309932
  19 BEND      7  5  8                  1.8818888     107.8242862
  20 TORSION   1  2  5  6              -3.1390515    -179.8544007
  21 TORSION   1  2  5  7              -1.0444796     -59.8442720
  22 TORSION   1  2  5  8               1.0496846      60.1424955
  23 TORSION   3  2  5  6              -1.0445815     -59.8501112
  24 TORSION   3  2  5  7               1.0499904      60.1600175
  25 TORSION   3  2  5  8              -3.1390308    -179.8532150
  26 TORSION   4  2  5  6               1.0498094      60.1496461
  27 TORSION   4  2  5  7              -3.1388041    -179.8402252
  28 TORSION   4  2  5  8              -1.0446399     -59.8534577

          INTERNUCLEAR DISTANCES (ANGS.)


 =====================================================
   GAMESS/COSab RESULTS
 =====================================================

   Dielectric Constant                  = INFTY
   Basic Grid Size                      =                 1082
   Number of Segments                   =                   92
   Number of Segments located on spheres=                  140
   Number of Segments of the cavity     =                  308
   Solvent Radius (rsolv)               = 1.40
   Outlying Charge Error Method         = double cavity

 =====================================================

  Total solvated Energy (a.u.)          =   -79.2524536254
  Total Energy corrected (a.u.)         =   -79.2523973206

  Outlying charge effect (a.u.)         =     0.0000563049
  Outlying charge effect (kcal/mol)     =     0.0353318756

  Dielectric Energy (a.u.)              =    -0.0006669082
  Dielectric energy corr. (a.u.)        =    -0.0006106033

  Sum of polarization charges           =     0.0206388314
  Sum of polarization charges(cor.)     =    -0.0206388314

  Total surface area of cavity (A**2)   =   77.05
  Total volume of cavity (A**3)         =   58.55

 =====================================================
 NPS=                   308
NR.  ATOM  (X, Y, Z)(a.u.)                  CHARGE(e)  AREA(A**2) SIGMA(e/A**2)
   1   1   0.577526   5.279252  -1.409974  -0.003348   0.608459  -0.005502
   2   1   2.071867   5.440752  -0.696562  -0.001210   0.353299  -0.003425
   3   1   0.459072   5.663563   0.496391  -0.000625   0.333671  -0.001872
   4   1  -0.940330   4.673929  -0.545788  -0.000712   0.353299  -0.002014
   5   1   0.013483   3.614947  -2.206308  -0.000688   0.372926  -0.001846
   6   1   2.042554   3.964414  -2.141279  -0.000676   0.353299  -0.001913
   7   1   1.371715   5.759674  -0.053141  -0.001640   0.490692  -0.003343
   8   1  -0.267515   5.399006  -0.182330  -0.001598   0.490692  -0.003257
   9   1  -0.586565   4.329511  -1.538247  -0.001712   0.510320  -0.003356
  10   1   0.938874   4.100333  -2.321636  -0.001702   0.490692  -0.003468
  11   1   2.048147   4.896622  -1.588812  -0.001771   0.490692  -0.003609
  12   2  -1.699542  -0.507939   1.501965   0.002218   0.418105   0.005304
  13   2   0.982530   5.008652   2.997170   0.000714   0.278737   0.002562
  14   2   2.835692   1.834989  -2.260369   0.000763   0.278737   0.002738
  15   2  -0.778539   1.297857  -1.877909   0.001818   0.418105   0.004348
  16   2  -2.115464   3.183431   1.350451   0.001424   0.371649   0.003833
  17   2   0.769110  -0.577000   4.176110   0.000623   0.278737   0.002233
  18   2   1.245745  -1.957640   2.172294   0.000671   0.232280   0.002888
  19   2   0.693384  -1.525708   3.074853   0.000933   0.325193   0.002870
  20   2  -0.461132  -1.280979   2.668258   0.001256   0.278737   0.004508
  21   2  -1.629314   3.968631   0.759991   0.001549   0.371649   0.004168
  22   2  -0.498477   2.208581  -2.037850   0.001146   0.278737   0.004113
  23   2   2.084441   2.280477  -2.447578   0.000987   0.278737   0.003542
  24   2   0.678498   5.327796   2.015341   0.000922   0.278737   0.003307
  25   2  -0.841205  -1.319024   1.813109   0.001030   0.232280   0.004435
  26   2  -1.144086  -0.783238   2.585832   0.001249   0.278737   0.004483
  27   2   3.038097   2.850880  -1.967110   0.000543   0.232280   0.002339
  28   2   1.730399   1.136423  -2.503996   0.001354   0.325193   0.004163
  29   2   0.400259   1.352419  -2.425221   0.001720   0.325193   0.005290
  30   2  -1.589506   2.068625  -1.122969   0.001455   0.464561   0.003133
  31   2  -2.153631   2.675821   0.213256   0.001336   0.464561   0.002875
  32   2  -1.342923   4.252374   1.897296   0.001881   0.371649   0.005060
  33   2  -0.209887   4.793310   2.712294   0.001817   0.418105   0.004345
  34   2   0.612797   4.464368   3.679043   0.000942   0.325193   0.002897
  35   2   2.711872   0.757592  -2.185874   0.000903   0.325193   0.002778
  36   2  -1.642902   0.781011  -0.894029   0.001221   0.418105   0.002920
  37   2  -1.991298   0.160259   0.370017   0.001452   0.418105   0.003474
  38   2  -2.262990   0.624819   1.395811   0.001626   0.464561   0.003500
  39   2  -2.409015   2.015480   1.259914   0.000925   0.325193   0.002843
  40   2   0.337067  -1.789355   2.259371   0.000789   0.232280   0.003398
  41   2   0.118286  -0.977341   3.581199   0.000805   0.232280   0.003467
  42   2  -1.690367   3.027046  -0.582325   0.000774   0.278737   0.002778
  43   2   1.095473   1.925654  -2.548521   0.001295   0.278737   0.004647
  44   2   1.536996   5.410626   1.892997   0.000591   0.232280   0.002544
  45   2  -0.494624   4.950139   1.737466   0.001417   0.325193   0.004356
  46   2   1.048612   3.832209   4.318111   0.000127   0.092912   0.001365
  47   2   3.007292   0.017177  -1.741149   0.000300   0.139368   0.002151
  48   2  -2.230572   1.416101   0.058743   0.001114   0.464561   0.002397
  49   3   0.442335  -1.961095  -1.257885  -0.003207   0.588831  -0.005446
  50   3  -0.439992  -1.966282   0.578035  -0.000621   0.372926  -0.001664
  51   3   1.434908  -2.375781   0.424252  -0.000867   0.353299  -0.002455
  52   3   2.174427  -1.338239  -1.523849  -0.000987   0.353299  -0.002793
  53   3   0.504469  -0.387867  -2.265848  -0.000681   0.372926  -0.001826
  54   3  -1.073886  -0.794857  -1.029919  -0.000850   0.412182  -0.002063
  55   3   0.480094  -2.400366   0.180576  -0.001808   0.490692  -0.003685
  56   3   1.793800  -2.130770  -0.731195  -0.001829   0.490692  -0.003728
  57   3   1.345149  -1.079035  -2.046060  -0.001575   0.471065  -0.003344
  58   3  -0.323446  -0.836321  -1.808765  -0.001618   0.471065  -0.003435
  59   3  -0.799991  -1.649353  -0.371242  -0.001684   0.490692  -0.003431
  60   4  -1.656301   1.849812   4.565993  -0.003348   0.608459  -0.005502
  61   4  -0.142025   1.592969   5.205594  -0.001211   0.353299  -0.003427
  62   4  -0.982623   0.058976   4.198545  -0.000622   0.333671  -0.001863
  63   4  -2.309138   1.025771   3.045505  -0.000713   0.353299  -0.002019
  64   4  -1.964483   3.180919   3.203869  -0.000694   0.372926  -0.001860
  65   4  -0.373390   3.509599   4.470313  -0.000677   0.353299  -0.001916
  66   4  -0.518842   0.712866   4.906695  -0.001639   0.490692  -0.003340
  67   4  -1.815232   0.549460   3.845319  -0.001597   0.490692  -0.003254
  68   4  -2.373227   2.110352   3.265337  -0.001715   0.510320  -0.003361
  69   4  -1.410592   3.287052   4.091105  -0.001701   0.490692  -0.003467
  70   4  -0.406589   2.591431   5.044880  -0.001771   0.490692  -0.003610
  71   5   7.172893   3.764627   1.774123   0.002219   0.418105   0.005307
  72   5   2.587895   1.858642   5.673729   0.000714   0.278737   0.002563
  73   5   4.343338  -1.810446   0.713459   0.000763   0.278737   0.002739
  74   5   7.374000  -0.165923   1.981564   0.001817   0.418105   0.004347
  75   5   6.482506   2.174132   5.062870   0.001424   0.371649   0.003832
  76   5   3.915102   5.327437   1.333114   0.000621   0.278737   0.002228
  77   5   4.828772   4.071700  -0.600007   0.000670   0.232280   0.002883
  78   5   4.758406   4.820610   0.260494   0.000933   0.325193   0.002868
  79   5   5.839036   4.716878   0.876609   0.001257   0.278737   0.004508
  80   5   6.102908   1.187638   5.353145   0.001548   0.371649   0.004166
  81   5   6.936724  -0.777858   2.587995   0.001146   0.278737   0.004111
  82   5   4.925805  -1.935131   1.379094   0.000988   0.278737   0.003543
  83   5   3.188950   0.977222   5.815535   0.000922   0.278737   0.003309
  84   5   6.554424   4.119723   0.782753   0.001031   0.232280   0.004437
  85   5   6.301274   4.638365   1.584520   0.001250   0.278737   0.004485
  86   5   3.736239  -2.058429   1.567238   0.000545   0.232280   0.002346
  87   5   5.592589  -1.384799   0.548478   0.001354   0.325193   0.004162
  88   5   6.611586  -1.010147   1.350609   0.001720   0.325193   0.005289
  89   5   7.485806   0.389535   3.206574   0.001455   0.464561   0.003132
  90   5   7.177899   1.435801   4.339244   0.001335   0.464561   0.002874
  91   5   5.265820   1.947564   5.774798   0.001880   0.371649   0.005058
  92   5   3.783885   2.067691   5.948119   0.001817   0.418105   0.004345
  93   5   2.756127   2.784344   5.561159   0.000942   0.325193   0.002897
  94   5   4.737578  -1.246637  -0.128183   0.000903   0.325193   0.002778
  95   5   7.814530   1.153972   2.196232   0.001221   0.418105   0.002921
  96   5   7.726245   2.601685   2.166915   0.001453   0.418105   0.003476
  97   5   7.354552   3.356976   2.962696   0.001627   0.464561   0.003503
  98   5   7.120892   2.687482   4.175506   0.000925   0.325193   0.002844
  99   5   5.503728   4.347045  -0.025361   0.000789   0.232280   0.003398
 100   5   4.850197   5.189048   1.122851   0.000805   0.232280   0.003465
 101   5   7.040016   0.468137   4.214607   0.000774   0.278737   0.002775
 102   5   5.909861  -1.570804   1.493328   0.001295   0.278737   0.004647
 103   5   2.496658   0.579023   5.467663   0.000592   0.232280   0.002550
 104   5   4.414300   1.256194   5.944954   0.001416   0.325193   0.004356
 105   5   2.292149   3.468869   5.000697   0.000127   0.092912   0.001365
 106   5   4.511545  -0.638743  -0.770555   0.000299   0.139368   0.002149
 107   5   7.690314   1.868929   3.259189   0.001114   0.464561   0.002398
 108   6   4.827222  -1.887259   4.890233  -0.003348   0.608459  -0.005503
 109   6   3.200838  -1.799276   4.550784  -0.001210   0.353299  -0.003426
 110   6   3.955113  -0.394036   5.787819  -0.000624   0.333671  -0.001871
 111   6   5.897969  -0.434484   5.290314  -0.000712   0.353299  -0.002016
 112   6   6.159316  -1.679916   3.510112  -0.000689   0.372926  -0.001847
 113   6   4.317811  -2.385638   2.914877  -0.000675   0.353299  -0.001911
 114   6   3.405174  -1.177882   5.311067  -0.001640   0.490692  -0.003342
 115   6   4.950834  -0.639324   5.704434  -0.001599   0.490692  -0.003258
 116   6   6.149550  -1.237751   4.569054  -0.001714   0.510320  -0.003358
 117   6   5.286708  -2.265322   3.476907  -0.001702   0.490692  -0.003469
 118   6   3.785005  -2.317753   3.856032  -0.001772   0.490692  -0.003611
 119   7   7.046858   1.394940  -1.172953  -0.003207   0.588831  -0.005446
 120   7   6.966141   3.225629  -0.283464  -0.000620   0.372926  -0.001663
 121   7   5.580580   2.706301  -1.515172  -0.000867   0.353299  -0.002454
 122   7   5.521820   0.379395  -1.491945  -0.000987   0.353299  -0.002794
 123   7   6.974889  -0.157984  -0.134616  -0.000681   0.372926  -0.001826
 124   7   7.870026   1.544189   0.562306  -0.000850   0.412182  -0.002062
 125   7   6.500844   2.796876  -1.173761  -0.001809   0.490692  -0.003686
 126   7   5.724043   1.509368  -1.780996  -0.001829   0.490692  -0.003727
 127   7   6.376345   0.073100  -1.040767  -0.001575   0.471065  -0.003344
 128   7   7.600887   0.673098  -0.020998  -0.001618   0.471065  -0.003434
 129   7   7.600299   2.389707  -0.109545  -0.001683   0.490692  -0.003430
 130   8   5.051888   5.346231   4.593797  -0.003348   0.608459  -0.005502
 131   8   3.567534   5.545199   3.869093  -0.001210   0.353299  -0.003426
 132   8   5.187919   5.600505   2.666936  -0.000622   0.333671  -0.001863
 133   8   6.531751   4.602764   3.772588  -0.000713   0.353299  -0.002018
 134   8   5.523403   3.707326   5.495943  -0.000694   0.372926  -0.001860
 135   8   3.516965   4.165032   5.405394  -0.000677   0.353299  -0.001916
 136   8   4.283177   5.782564   3.207711  -0.001640   0.490692  -0.003341
 137   8   5.899886   5.339643   3.362375  -0.001597   0.490692  -0.003254
 138   8   6.161210   4.342930   4.784485  -0.001715   0.510320  -0.003360
 139   8   4.626879   4.250173   5.578467  -0.001701   0.490692  -0.003467
 140   8   3.562502   5.058816   4.794380  -0.001771   0.490692  -0.003609
 141   1   3.112532   3.880558  -1.363556  -0.000016   0.025768  -0.000608
 142   2   3.341155   3.686026  -1.323277   0.000017   0.025768   0.000656
 143   5   3.793962   3.656785  -1.118344   0.000043   0.025768   0.001679
 144   1   2.336115   5.356980   0.834924  -0.000013   0.025768  -0.000488
 145   2   2.488042   5.308294   1.092376   0.000029   0.025768   0.001116
 146   5   2.952226   5.257417   1.265092   0.000072   0.025768   0.002804
 147   2   1.982472   5.425600   1.151580   0.000009   0.084574   0.000111
 148   2   0.779216   5.379466   1.407141  -0.000147   0.151707  -0.000968
 149   2  -0.608684   4.867290   1.082253   0.000086   0.151707   0.000570
 150   2  -1.367131   3.994371   0.104034  -0.000032   0.151707  -0.000210
 151   2  -1.181001   3.123395  -1.121077  -0.000057   0.151707  -0.000376
 152   2  -0.127628   2.616241  -2.084064   0.000076   0.151707   0.000499
 153   2   1.355324   2.683627  -2.384817   0.000072   0.151707   0.000477
 154   2   2.651709   3.297553  -1.898377  -0.000171   0.151707  -0.001129
 155   1   1.412140   5.534282   0.879078  -0.000350   0.153741  -0.002275
 156   1   0.082188   5.322321   0.944217  -0.000227   0.153741  -0.001477
 157   1  -0.926983   4.671076   0.331522  -0.000188   0.153741  -0.001223
 158   1  -1.196076   3.851130  -0.704442  -0.000295   0.153741  -0.001916
 159   1  -0.613285   3.203160  -1.733243  -0.000264   0.153741  -0.001717
 160   1   0.579246   2.996390  -2.327430  -0.000145   0.153741  -0.000945
 161   1   1.886037   3.316729  -2.240124  -0.000304   0.153741  -0.001978
 162   1   2.703306   3.865170  -1.715536  -0.000100   0.069225  -0.001451
 163   5   4.027908   4.054906  -0.842930   0.000615   0.282961   0.002173
 164   5   3.608179   4.981624   0.443646   0.000705   0.550319   0.001282
 165   1   2.878252   4.645634  -0.783640  -0.001157   0.411240  -0.002813
 166   1   2.427633   5.361394   0.384655  -0.000257   0.200921  -0.001278
 167   2   3.219571  -0.567476  -1.180836   0.000027   0.025742   0.001062
 168   3   2.980058  -0.750769  -1.208619  -0.000014   0.025742  -0.000551
 169   5   3.673694  -0.550460  -0.977444   0.000071   0.025742   0.002764
 170   2   2.280970  -1.973140   1.333435   0.000018   0.025742   0.000701
 171   3   2.125843  -2.030055   1.079601  -0.000015   0.025742  -0.000584
 172   5   2.747615  -1.937372   1.503284   0.000042   0.025742   0.001645
 173   3   1.609941  -2.175899   1.014785  -0.000090   0.069247  -0.001300
 174   3   0.525774  -2.064715   1.253152  -0.000240   0.153797  -0.001559
 175   3  -0.682782  -1.559225   0.932564  -0.000220   0.153797  -0.001428
 176   3  -1.314670  -0.804192   0.010856  -0.000219   0.153797  -0.001422
 177   3  -1.107200  -0.113501  -1.128795  -0.000291   0.153797  -0.001895
 178   3  -0.146622   0.225711  -2.012609  -0.000169   0.153797  -0.001096
 179   3   1.167729   0.072425  -2.273164  -0.000239   0.153797  -0.001554
 180   3   2.289445  -0.509634  -1.802139  -0.000352   0.153797  -0.002286
 181   2   1.321158  -2.023279   1.516478  -0.000178   0.151744  -0.001172
 182   2  -0.157112  -1.696164   1.571791   0.000041   0.151744   0.000272
 183   2  -1.249158  -0.948221   0.834663   0.000036   0.151744   0.000235
 184   2  -1.500991  -0.090385  -0.388465  -0.000037   0.151744  -0.000242
 185   2  -0.807918   0.520718  -1.589109  -0.000008   0.151744  -0.000050
 186   2   0.541935   0.631039  -2.268132   0.000030   0.151744   0.000200
 187   2   1.987399   0.194715  -2.143247   0.000002   0.151744   0.000013
 188   2   2.864660  -0.417519  -1.533586  -0.000004   0.084600  -0.000046
 189   2   1.082924   0.305410   4.725803   0.000019   0.025743   0.000739
 190   4   0.821444   0.450770   4.773114  -0.000015   0.025743  -0.000597
 191   5   1.562600   0.316395   4.858754   0.000073   0.025743   0.002829
 192   2   1.169227   3.332207   4.624894   0.000015   0.025743   0.000577
 193   4   0.899988   3.205437   4.681277  -0.000016   0.025743  -0.000640
 194   5   1.647752   3.302811   4.759191   0.000044   0.025743   0.001706
 195   4   0.402680   3.390121   4.580247  -0.000101   0.069248  -0.001463
 196   4  -0.342110   3.871354   3.903266  -0.000286   0.153801  -0.001857
 197   4  -1.358068   3.744744   3.025366  -0.000156   0.153801  -0.001017
 198   4  -2.128128   2.825738   2.407836  -0.000277   0.153801  -0.001800
 199   4  -2.332165   1.496381   2.307394  -0.000294   0.153801  -0.001912
 200   4  -1.885355   0.309310   2.765795  -0.000181   0.153801  -0.001175
 201   4  -0.973446  -0.241991   3.592474  -0.000218   0.153801  -0.001420
 202   4   0.024467   0.071664   4.443767  -0.000345   0.153801  -0.002243
 203   2   0.455200   3.809932   4.156698  -0.000147   0.151749  -0.000971
 204   2  -0.645756   4.161089   3.176935   0.000114   0.151749   0.000750
 205   2  -1.705507   3.540662   2.289608   0.000091   0.151749   0.000600
 206   2  -2.283497   2.206575   1.863592  -0.000082   0.151749  -0.000542
 207   2  -2.139445   0.713428   2.075990  -0.000071   0.151749  -0.000470
 208   2  -1.333236  -0.318052   2.838505   0.000093   0.151749   0.000612
 209   2  -0.200025  -0.459061   3.834146  -0.000045   0.151749  -0.000294
 210   2   0.656850   0.059110   4.550644  -0.000014   0.084602  -0.000166
 211   2   1.632962  -0.316977   4.529688   0.000072   0.025729   0.002817
 212   5   2.085782  -0.346348   4.734568   0.000029   0.025729   0.001130
 213   6   2.314759  -0.540536   4.774509  -0.000012   0.025729  -0.000483
 214   2   2.475062  -1.909033   2.145635   0.000043   0.025729   0.001689
 215   5   2.939271  -1.959934   2.318276   0.000017   0.025729   0.000668
 216   6   3.091511  -2.009046   2.575463  -0.000015   0.025729  -0.000599
 217   2   3.778504   0.054521  -1.345689   0.000071   0.025763   0.002763
 218   5   4.257047   0.025221  -1.211432   0.000027   0.025763   0.001059
 219   7   4.526094   0.152481  -1.267599  -0.000014   0.025763  -0.000553
 220   2   3.860872   3.043323  -1.437500   0.000042   0.025763   0.001637
 221   5   4.340528   3.054426  -1.304485   0.000018   0.025763   0.000691
 222   7   4.602071   2.909350  -1.352286  -0.000015   0.025763  -0.000590
 223   2   2.674317   5.286240   1.921735   0.000073   0.025760   0.002818
 224   5   3.140929   5.321999   2.091677   0.000019   0.025760   0.000724
 225   8   3.295866   5.378475   2.345723  -0.000016   0.025760  -0.000602
 226   2   1.748789   3.891649   4.400605   0.000044   0.025760   0.001705
 227   5   2.202889   3.908556   4.604057   0.000015   0.025760   0.000574
 228   8   2.442160   4.092105   4.632231  -0.000017   0.025760  -0.000643
 229   5   3.169089   5.335370   1.662231   0.000162   0.090462   0.001791
 230   2   2.461415   5.350656   1.520056   0.000203   0.090462   0.002245
 231   5   2.023830   3.674128   4.732508   0.000147   0.087616   0.001675
 232   2   1.332729   3.596144   4.540631   0.000147   0.087616   0.001675
 233   5   1.902983   0.009450   4.899596   0.000205   0.091108   0.002248
 234   2   1.248413  -0.076408   4.607050   0.000164   0.091108   0.001796
 235   5   2.926599  -1.997592   1.998431   0.000154   0.087901   0.001748
 236   2   2.292042  -1.990818   1.655090   0.000172   0.087901   0.001957
 237   5   4.070842  -0.337681  -1.069118   0.000180   0.090875   0.001978
 238   2   3.421530  -0.234448  -1.367602   0.000180   0.090875   0.001979
 239   5   4.192368   3.331226  -1.237881   0.000170   0.087251   0.001953
 240   2   3.506435   3.434952  -1.435780   0.000152   0.087251   0.001743
 241   6   2.438814  -0.952714   4.615333  -0.000255   0.200662  -0.001272
 242   6   2.799049  -1.773980   3.488180  -0.001150   0.410671  -0.002800
 243   2   1.532842  -1.093858   3.778450   0.000709   0.549646   0.001290
 244   2   2.035270  -1.916003   2.453786   0.000616   0.282594   0.002179
 245   7   4.684621   0.523720  -1.486962  -0.000276   0.200888  -0.001374
 246   7   4.714094   1.960677  -1.604571  -0.001162   0.411167  -0.002826
 247   2   3.590668   1.033568  -1.777976   0.000670   0.550234   0.001218
 248   2   3.645061   2.672493  -1.761393   0.000563   0.282914   0.001989
 249   8   3.205652   5.416824   2.794520  -0.000258   0.200867  -0.001282
 250   8   2.717901   4.803902   4.005113  -0.001158   0.411121  -0.002816
 251   2   2.005594   5.100851   2.757725   0.000707   0.550178   0.001284
 252   2   1.537044   4.283674   4.099899   0.000574   0.282884   0.002030
 253   5   3.185907  -1.988735   1.196857   0.000564   0.282713   0.001994
 254   5   3.731478  -1.282336  -0.177461   0.000671   0.549864   0.001221
 255   3   2.429649  -1.870691   0.153851  -0.001158   0.410855  -0.002819
 256   3   2.833450  -1.144483  -1.023468  -0.000275   0.200746  -0.001370
 257   5   1.843000   2.942190   5.106301   0.000575   0.282726   0.002032
 258   5   1.805618   1.308330   5.227607   0.000709   0.549890   0.001289
 259   4   0.735411   2.283242   4.993142  -0.001155   0.410876  -0.002810
 260   4   0.684250   0.843306   4.967783  -0.000257   0.200756  -0.001279
 261   6   3.598567  -2.179143   2.650326  -0.000100   0.069256  -0.001450
 262   6   4.686897  -2.144439   2.406904  -0.000304   0.153823  -0.001979
 263   6   5.922670  -1.687864   2.696307  -0.000146   0.153823  -0.000947
 264   6   6.597713  -0.911716   3.568809  -0.000265   0.153823  -0.001722
 265   6   6.431318  -0.138744   4.661593  -0.000296   0.153823  -0.001921
 266   6   5.492679   0.309621   5.520240  -0.000189   0.153823  -0.001226
 267   6   4.172115   0.246933   5.787692  -0.000228   0.153823  -0.001481
 268   6   3.018765  -0.300741   5.352734  -0.000350   0.153823  -0.002274
 269   5   3.894444  -2.075464   2.140289  -0.000171   0.151761  -0.001129
 270   5   5.388783  -1.835912   2.066332   0.000072   0.151761   0.000474
 271   5   6.522602  -1.104453   2.755770   0.000075   0.151761   0.000496
 272   5   6.824418  -0.185254   3.921909  -0.000058   0.151761  -0.000380
 273   5   6.168724   0.539450   5.079828  -0.000032   0.151761  -0.000213
 274   5   4.828183   0.768298   5.748020   0.000086   0.151761   0.000568
 275   5   3.360240   0.406129   5.648627  -0.000147   0.151761  -0.000970
 276   5   2.449099  -0.194147   5.077676   0.000010   0.084612   0.000116
 277   7   5.109144   3.071828  -1.262402  -0.000090   0.069231  -0.001301
 278   7   5.881070   3.552345  -0.616420  -0.000239   0.153755  -0.001557
 279   7   6.889896   3.425025   0.269140  -0.000219   0.153755  -0.001424
 280   7   7.608302   2.505725   0.945108  -0.000218   0.153755  -0.001420
 281   7   7.737766   1.176444   1.130597  -0.000291   0.153755  -0.001893
 282   7   7.224491  -0.010455   0.748529  -0.000168   0.153755  -0.001095
 283   7   6.281761  -0.561773  -0.042332  -0.000239   0.153755  -0.001554
 284   7   5.301313  -0.248420  -0.913358  -0.000351   0.153755  -0.002286
 285   5   5.081160   3.519984  -0.866570  -0.000178   0.151717  -0.001174
 286   5   6.201912   3.870205   0.090336   0.000041   0.151717   0.000273
 287   5   7.226757   3.249198   1.016861   0.000036   0.151717   0.000236
 288   5   7.729837   1.915012   1.528003  -0.000036   0.151717  -0.000240
 289   5   7.502104   0.422049   1.411364  -0.000008   0.151717  -0.000049
 290   5   6.638190  -0.609314   0.715412   0.000030   0.151717   0.000198
 291   5   5.497081  -0.750510  -0.270662   0.000002   0.151717   0.000012
 292   5   4.669067  -0.232675  -1.020121  -0.000004   0.084581  -0.000048
 293   8   2.850487   4.076356   4.985253  -0.000101   0.069232  -0.001464
 294   8   3.636599   3.517539   5.545500  -0.000286   0.153759  -0.001858
 295   8   4.923588   3.130516   5.655587  -0.000156   0.153759  -0.001017
 296   8   6.124881   3.231536   5.051487  -0.000277   0.153759  -0.001799
 297   8   6.741267   3.778620   3.984240  -0.000293   0.153759  -0.001908
 298   8   6.516600   4.544420   2.897354  -0.000180   0.153759  -0.001173
 299   8   5.544243   5.210700   2.242496  -0.000218   0.153759  -0.001418
 300   8   4.228269   5.500579   2.291799  -0.000345   0.153759  -0.002245
 301   5   2.870433   3.519597   5.204199  -0.000147   0.151719  -0.000972
 302   5   4.131208   2.866169   5.731455   0.000114   0.151719   0.000749
 303   5   5.607624   2.696469   5.438333   0.000091   0.151719   0.000600
 304   5   6.686140   3.081020   4.446643  -0.000082   0.151719  -0.000540
 305   5   6.918565   3.860016   3.168494  -0.000071   0.151719  -0.000467
 306   5   6.208314   4.709737   2.135034   0.000094   0.151719   0.000618
 307   5   4.850538   5.277072   1.775730  -0.000044   0.151719  -0.000290
 308   5   3.652161   5.406791   2.025919  -0.000014   0.084582  -0.000164
 =====================================================

              1075895  WORDS OF DYNAMIC MEMORY USED
 EXECUTION OF GAMESS TERMINATED NORMALLY Thu Nov 24 00:35:29 2016
 DDI: 263640 bytes (0.3 MB / 0 MWords) used by master data server.

 ----------------------------------------
 CPU timing information for all processes
 ========================================
 0: 23.608 + 0.48 = 23.656
 ----------------------------------------
 ddikick.x: exited gracefully.
