----- GAMESS execution script -----

          ******************************************************
          *         GAMESS VERSION =  5 DEC 2014 (R1)          *
          *             FROM IOWA STATE UNIVERSITY             *
          * M.W.SCHMIDT, K.K.BALDRIDGE, J.A.BOATZ, S.T.ELBERT, *
          *   M.S.GORDON, J.H.JENSEN, S.KOSEKI, N.MATSUNAGA,   *
          *          K.A.NGUYEN, S.J.SU, T.L.WINDUS,           *
          *       TOGETHER WITH M.DUPUIS, J.A.MONTGOMERY       *
          *         J.COMPUT.CHEM.  14, 1347-1363(1993)        *
          **************** 64 BIT LINUX VERSION ****************

 EXECUTION OF GAMESS BEGUN Thu Nov 24 00:54:17 2016

            ECHO OF THE FIRST FEW INPUT CARDS -
 INPUT CARD>! SELECT RESTRICTED HARTREE-FOCK AS DEFAULT                                     
 INPUT CARD>$contrl scftyp=rhf $end                                                         
 INPUT CARD>                                                                                
 INPUT CARD>! THEORY: HF OR DFT                                                             
 INPUT CARD> $contrl mplevl=0 $end                                                          
 INPUT CARD>                                                                                
 INPUT CARD> $system timlim=10000 mwords=20 $end                                            
 INPUT CARD> $SCF DIRSCF=.TRUE. $end                                                        
 INPUT CARD>                                                                                
 INPUT CARD>                                                                                
 INPUT CARD>! BASIS SETS                                                                    
 INPUT CARD>! 6-311G(d,p)                                                                   
 INPUT CARD> $BASIS GBASIS=N311 NGAUSS=6 NDFUNC=1 NPFUNC=1 $END                             
 INPUT CARD>                                                                                
 INPUT CARD>! One of the following                                                          
 INPUT CARD> $guess guess=HUCKEL $end                                                       
 INPUT CARD>                                                                                
 INPUT CARD> $statpt projct=.FALSE. $end                                                    
 INPUT CARD> $STATPT IFREEZ(1)=1,2,3 $END                                                   
 INPUT CARD>                                                                                
 INPUT CARD>! Optimize the geometry with COSMO effects                                      
 INPUT CARD> $statpt opttol=0.0005 nstep=50 $end                                            
 INPUT CARD> $contrl nzvar=1 $end                                                           
 INPUT CARD> $zmat dlc=.t. auto=.t. $end                                                    
 INPUT CARD> $contrl runtyp=OPTIMIZE maxit=200 $end                                         
 INPUT CARD>                                                                                
 INPUT CARD>! Run COSMO on perfect conductor                                                
 INPUT CARD> $COSGMS PRFCND=.TRUE. $end                                                     
 INPUT CARD>                                                                                
 INPUT CARD>! Specifying RSOLV                                                              
 INPUT CARD> $COSGMS COSRAD = 1.4 $end                                                      
 INPUT CARD>                                                                                
 INPUT CARD>! available memory                                                              
 INPUT CARD> $SYSTEM MWORDS=40 $END                                                         
 INPUT CARD>                                                                                
 INPUT CARD> $DATA                                                                          
 INPUT CARD>                                                                                
 INPUT CARD>C1                                                                              
 INPUT CARD>O      8.0     -0.0181000000   -1.1252000000    0.0190000000                    
 INPUT CARD>C      6.0      0.7538000000   -0.0056000000   -0.0111000000                    
 INPUT CARD>C      6.0     -1.3783000000   -0.7389000000    0.0416000000                    
 INPUT CARD>C      6.0     -1.3681000000    0.7564000000    0.0418000000                    
 INPUT CARD>O      8.0     -0.0036000000    1.1244000000   -0.0032000000                    
 INPUT CARD>O      8.0      1.9724000000   -0.0138000000   -0.0413000000                    
 INPUT CARD>H      1.0     -1.8614000000   -1.1463000000    0.9354000000                    
 INPUT CARD>H      1.0     -1.8904000000   -1.1462000000   -0.8362000000                    
 INPUT CARD>H      1.0     -1.8306000000    1.1703000000    0.9439000000                    
 INPUT CARD>H      1.0     -1.8896000000    1.1706000000   -0.8270000000                    
 INPUT CARD> $END                                                                           
 INPUT CARD>                                                                                
   40000000 WORDS OF MEMORY AVAILABLE

     BASIS OPTIONS
     -------------
     GBASIS=N311         IGAUSS=       6      POLAR=POPN311 
     NDFUNC=       1     NFFUNC=       0     DIFFSP=       F
     NPFUNC=       1      DIFFS=       F     BASNAM=        


     RUN TITLE
     ---------
                                                                                 

 THE POINT GROUP OF THE MOLECULE IS C1      
 THE ORDER OF THE PRINCIPAL AXIS IS     0

 ATOM      ATOMIC                      COORDINATES (BOHR)
           CHARGE         X                   Y                   Z
 O           8.0    -0.0342040404       -2.1263196814        0.0359047938
 C           6.0     1.4244754495       -0.0105824655       -0.0209759585
 C           6.0    -2.6046093289       -1.3963185323        0.0786126011
 C           6.0    -2.5853341238        1.4293887371        0.0789905463
 O           8.0    -0.0068030136        2.1248079006       -0.0060471232
 O           8.0     3.7272955382       -0.0260782186       -0.0780456833
 H           1.0    -3.5175359535       -2.1661928997        1.7676496889
 H           1.0    -3.5723380072       -2.1660039271       -1.5801888709
 H           1.0    -3.4593323931        2.2115463234        1.7837123598
 H           1.0    -3.5708262264        2.2121132412       -1.5628033918

          INTERNUCLEAR DISTANCES (ANGS.)




     $CONTRL OPTIONS
     ---------------
 SCFTYP=RHF          RUNTYP=OPTIMIZE     EXETYP=RUN     
 MPLEVL=       0     CITYP =NONE         CCTYP =NONE         VBTYP =NONE    
 DFTTYP=NONE         TDDFT =NONE    
 MULT  =       1     ICHARG=       0     NZVAR =       1     COORD =UNIQUE  
 PP    =NONE         RELWFN=NONE         LOCAL =NONE         NUMGRD=       F
 ISPHER=      -1     NOSYM =       0     MAXIT =     200     UNITS =ANGS    
 PLTORB=       F     MOLPLT=       F     AIMPAC=       F     FRIEND=        
 NPRINT=       7     IREST =       0     GEOM  =INPUT   
 NORMF =       0     NORMP =       0     ITOL  =      20     ICUT  =       9
 INTTYP=BEST         GRDTYP=BEST         QMTTOL= 1.0E-06

     $SYSTEM OPTIONS
     ---------------
  REPLICATED MEMORY=    40000000 WORDS (ON EVERY NODE).
 DISTRIBUTED MEMDDI=           0 MILLION WORDS IN AGGREGATE,
 MEMDDI DISTRIBUTED OVER   1 PROCESSORS IS           0 WORDS/PROCESSOR.
 TOTAL MEMORY REQUESTED ON EACH PROCESSOR=    40000000 WORDS.
 TIMLIM=       10000.00 MINUTES, OR       6.9 DAYS.
 PARALL= F  BALTYP=  DLB     KDIAG=    0  COREFL= F
 MXSEQ2=     300 MXSEQ3=     150  mem10=         0

     $COSGMS OPTIONS
     ---------------
     EPSI  =   INFTY     NSPA  =      92     COSRAD=    1.40
     DISEX =   10.00     OUTCHG=DBLCAV       COSBUG=       F
     COSWRT=       F     DCOSMO=       F

     SYMMETRY COORDINATES WILL NOT BE USED FOR 
     THE COSMO CALCULATION, EVEN IF SPECIFIED:
         -- SWITCHING TO C1 POINT GROUP --


     DEFINITION OF CAVITY
     ---------------------------
     ATOM         COORDINATES           RADIUS 
     1   -0.0342   -2.1263    0.0359    1.7200
     2    1.4245   -0.0106   -0.0210    2.0000
     3   -2.6046   -1.3963    0.0786    2.0000
     4   -2.5853    1.4294    0.0790    2.0000
     5   -0.0068    2.1248   -0.0060    1.7200
     6    3.7273   -0.0261   -0.0780    1.7200
     7   -3.5175   -2.1662    1.7676    1.3000
     8   -3.5723   -2.1660   -1.5802    1.3000
     9   -3.4593    2.2115    1.7837    1.3000
    10   -3.5708    2.2121   -1.5628    1.3000

          ----------------
          PROPERTIES INPUT
          ----------------

     MOMENTS            FIELD           POTENTIAL          DENSITY
 IEMOM =       1   IEFLD =       0   IEPOT =       0   IEDEN =       0
 WHERE =COMASS     WHERE =NUCLEI     WHERE =NUCLEI     WHERE =NUCLEI  
 OUTPUT=BOTH       OUTPUT=BOTH       OUTPUT=BOTH       OUTPUT=BOTH    
 IEMINT=       0   IEFINT=       0                     IEDINT=       0
                                                       MORB  =       0
          EXTRAPOLATION IN EFFECT
          SOSCF IN EFFECT
 ORBITAL PRINTING OPTION: NPREO=     1   138     2     1

     -------------------------------
     INTEGRAL TRANSFORMATION OPTIONS
     -------------------------------
     NWORD  =            0
     CUTOFF = 1.0E-09     MPTRAN =       0
     DIRTRF =       T     AOINTS =DUP     

          ----------------------
          INTEGRAL INPUT OPTIONS
          ----------------------
 NOPK  =       1 NORDER=       0 SCHWRZ=       T


 -----------------------------------------------
  STATISTICS ON AUTOMATIC COORDINATE GENERATION 
 -----------------------------------------------
  NUMBER OF USER SPECIFIED BONDS                             0
  NUMBER OF BONDS                                           10
  NUMBER OF ANGLES                                          17
  NUMBER OF TORSIONS                                        19
  NUMBER OF EXTRA COORD.                                     0
  NUMBER OF EXTRA COORD. FOR CONSTRAINTS                     0
  NUMBER OF CONSTRAINED COORD.                               0

  TOTAL NUMBER OF PRIMITIVES                                46
 -----------------------------------------------

   --- ENCODED Z MATRIX ---
 COORD  TYPE   I   J   K   L   M   N
    1      1    1   2
    2      1    1   3
    3      1    2   6
    4      1    2   5
    5      1    3   4
    6      1    3   7
    7      1    3   8
    8      1    4  10
    9      1    4   5
   10      1    4   9
   11      2    1   3   4
   12      2    1   2   5
   13      2    1   2   6
   14      2    1   3   8
   15      2    1   3   7
   16      2    2   1   3
   17      2    2   5   4
   18      2    3   4   9
   19      2    3   4   5
   20      2    3   4  10
   21      2    4   3   8
   22      2    4   3   7
   23      2    5   4  10
   24      2    5   2   6
   25      2    5   4   9
   26      2    7   3   8
   27      2    9   4  10
   28      3    1   3   4   5
   29      3    1   2   5   4
   30      3    1   3   4  10
   31      3    1   3   4   9
   32      3    2   1   3   4
   33      3    2   5   4   9
   34      3    2   5   4  10
   35      3    2   1   3   7
   36      3    2   5   4   3
   37      3    2   1   3   8
   38      3    3   1   2   6
   39      3    3   1   2   5
   40      3    4   5   2   6
   41      3    5   4   3   8
   42      3    5   4   3   7
   43      3    7   3   4  10
   44      3    7   3   4   9
   45      3    8   3   4  10
   46      3    8   3   4   9

          INDEP./SYM. INTERNAL COORDINATES
          --------------------------------
 CRD  1=   0.3212 (  1)  0.2263 (  2) -0.3212 (  4)  0.1049 (  6)  0.1036 (  7)
          -0.1049 (  8) -0.2263 (  9) -0.1036 ( 10) -0.3282 ( 11)  0.3572 ( 13)
           0.1740 ( 14)  0.1751 ( 15)  0.3282 ( 19) -0.1751 ( 23) -0.3572 ( 24)
          -0.1740 ( 25) -0.1079 ( 26)  0.1079 ( 27)
 CRD  2=   0.1015 (  3) -0.6516 (  5) -0.1415 ( 12)  0.1089 ( 14)  0.1096 ( 15)
          -0.2339 ( 18) -0.2363 ( 20) -0.2337 ( 21) -0.2363 ( 22)  0.1096 ( 23)
           0.1091 ( 25)  0.1691 ( 26)  0.1691 ( 27) -0.1679 ( 33)  0.1689 ( 34)
           0.1690 ( 35) -0.1678 ( 37)  0.1206 ( 43) -0.1210 ( 46)
 CRD  3=  -0.2331 ( 14)  0.2294 ( 15) -0.3427 ( 18)  0.3427 ( 20)  0.3426 ( 21)
          -0.3425 ( 22) -0.2295 ( 23)  0.2331 ( 25) -0.2483 ( 29) -0.1449 ( 32)
          -0.1394 ( 33) -0.1382 ( 34)  0.1381 ( 35)  0.1449 ( 36)  0.1394 ( 37)
           0.1398 ( 38)  0.2483 ( 39) -0.1398 ( 40)
 CRD  4=  -0.2048 (  1) -0.3920 (  2) -0.4359 (  3) -0.2048 (  4) -0.1620 (  5)
          -0.1095 (  6) -0.1078 (  7) -0.1095 (  8) -0.3919 (  9) -0.1078 ( 10)
           0.3115 ( 12) -0.1557 ( 13) -0.2494 ( 16) -0.2494 ( 17) -0.1558 ( 24)
 CRD  5=  -0.2065 (  2)  0.2065 (  9) -0.3294 ( 11) -0.3569 ( 13)  0.3248 ( 16)
          -0.3247 ( 17) -0.1736 ( 18)  0.3294 ( 19) -0.1587 ( 20)  0.1736 ( 21)
           0.1587 ( 22)  0.3569 ( 24) -0.1588 ( 26)  0.1588 ( 27)
 CRD  6=   0.1975 (  6) -0.1878 (  7) -0.1975 (  8)  0.1877 ( 10) -0.1266 ( 14)
           0.1341 ( 15)  0.1252 ( 18) -0.1409 ( 20) -0.1253 ( 21)  0.1410 ( 22)
          -0.1341 ( 23)  0.1266 ( 25) -0.2294 ( 30) -0.2301 ( 31)  0.2347 ( 33)
           0.2403 ( 34) -0.2403 ( 35) -0.2347 ( 37)  0.3697 ( 38) -0.3697 ( 40)
           0.2300 ( 41)  0.2293 ( 42)
 CRD  7=   0.2832 (  6) -0.2855 (  7)  0.2832 (  8) -0.2855 ( 10)  0.1151 ( 14)
          -0.1164 ( 15) -0.3034 ( 18)  0.3023 ( 20) -0.3034 ( 21)  0.3024 ( 22)
          -0.1164 ( 23)  0.1150 ( 25) -0.1208 ( 28) -0.1986 ( 33) -0.1981 ( 34)
          -0.1982 ( 35) -0.1986 ( 37)
 CRD  8=  -0.1662 (  3)  0.1403 (  5)  0.4134 (  6)  0.4125 (  7)  0.4136 (  8)
           0.4128 ( 10)  0.1638 ( 12) -0.1124 ( 16) -0.1124 ( 17) -0.1125 ( 18)
          -0.1115 ( 20) -0.1124 ( 21) -0.1114 ( 22)  0.1806 ( 26)  0.1808 ( 27)
          -0.1125 ( 33)  0.1134 ( 34)  0.1132 ( 35) -0.1124 ( 37)
 CRD  9=  -0.4128 (  6) -0.4139 (  7)  0.4125 (  8)  0.4136 ( 10)  0.1226 ( 13)
          -0.1287 ( 18) -0.1299 ( 20)  0.1288 ( 21)  0.1299 ( 22) -0.1225 ( 24)
          -0.2151 ( 26)  0.2150 ( 27) -0.1378 ( 33)  0.1384 ( 34) -0.1385 ( 35)
           0.1379 ( 37)
 CRD 10=  -0.3372 (  6)  0.3419 (  7) -0.3376 (  8)  0.3422 ( 10)  0.1931 ( 14)
          -0.1922 ( 15) -0.1160 ( 18)  0.1177 ( 20) -0.1159 ( 21)  0.1177 ( 22)
          -0.1923 ( 23)  0.1932 ( 25) -0.1163 ( 33) -0.1155 ( 34) -0.1155 ( 35)
          -0.1163 ( 37) -0.2432 ( 43) -0.2418 ( 44) -0.2417 ( 45) -0.2403 ( 46)
 CRD 11=   0.4604 (  1)  0.4603 (  4)  0.2416 (  5) -0.1425 (  6) -0.1183 (  7)
          -0.1290 (  8) -0.1322 ( 10)  0.1672 ( 11)  0.2728 ( 12) -0.1362 ( 13)
          -0.3036 ( 16) -0.3037 ( 17)  0.1672 ( 19) -0.1366 ( 24)  0.1271 ( 43)
          -0.1355 ( 46)
 CRD 12=  -0.3309 (  6)  0.3367 (  7)  0.3362 (  8) -0.3313 ( 10)  0.1004 ( 14)
          -0.1002 ( 25)  0.1035 ( 31)  0.4747 ( 38) -0.4746 ( 40) -0.1008 ( 41)
          -0.1015 ( 42)
 CRD 13=   0.2035 (  1) -0.3960 (  2)  0.5866 (  3)  0.2048 (  4) -0.3991 (  9)
          -0.1476 ( 12) -0.1189 ( 14) -0.1193 ( 15) -0.1204 ( 23) -0.1199 ( 25)
           0.1343 ( 26)  0.1349 ( 27) -0.1861 ( 43)  0.1865 ( 46)
 CRD 14=   0.1945 (  1) -0.4587 (  2) -0.1937 (  4)  0.1026 (  7)  0.4558 (  9)
          -0.1022 ( 10)  0.3223 ( 13) -0.1431 ( 14) -0.1465 ( 15)  0.1088 ( 16)
          -0.1084 ( 17)  0.1458 ( 23) -0.3216 ( 24)  0.1423 ( 25) -0.1889 ( 44)
           0.1890 ( 45)
 CRD 15=  -0.2713 ( 28) -0.2543 ( 30) -0.2533 ( 31)  0.2240 ( 32)  0.2681 ( 33)
           0.2685 ( 34)  0.2685 ( 35)  0.2241 ( 36)  0.2681 ( 37) -0.2533 ( 41)
          -0.2543 ( 42) -0.2374 ( 43) -0.2363 ( 44) -0.2363 ( 45) -0.2353 ( 46)
 CRD 16=  -0.3242 (  1)  0.2069 (  2)  0.3241 (  4)  0.1729 (  6)  0.1672 (  7)
          -0.1729 (  8) -0.2070 (  9) -0.1672 ( 10)  0.1780 ( 13) -0.1272 ( 14)
          -0.1290 ( 15) -0.2031 ( 18) -0.2028 ( 20)  0.2032 ( 21)  0.2027 ( 22)
           0.1291 ( 23) -0.1780 ( 24)  0.1273 ( 25) -0.2228 ( 26)  0.2227 ( 27)
          -0.2127 ( 33)  0.2120 ( 34) -0.2120 ( 35)  0.2127 ( 37)
 CRD 17=   0.3649 (  1) -0.6324 (  3)  0.3647 (  4) -0.1481 (  5) -0.3418 ( 12)
           0.1709 ( 13)  0.1201 ( 16)  0.1201 ( 17)  0.1709 ( 24) -0.1221 ( 43)
           0.1249 ( 46)
 CRD 18=  -0.4713 (  1) -0.1045 (  2)  0.4714 (  4)  0.1046 (  9) -0.1151 ( 11)
           0.3063 ( 13)  0.1247 ( 14)  0.1087 ( 15)  0.2487 ( 16) -0.2487 ( 17)
           0.1152 ( 19)  0.1033 ( 20) -0.1033 ( 22) -0.1088 ( 23) -0.3062 ( 24)
          -0.1247 ( 25)  0.1049 ( 33) -0.1393 ( 34)  0.1393 ( 35) -0.1049 ( 37)
 CRD 19=  -0.2775 (  6)  0.2697 (  7)  0.2775 (  8) -0.2696 ( 10) -0.1040 ( 14)
           0.1232 ( 15) -0.1232 ( 23)  0.1040 ( 25) -0.1771 ( 29) -0.1678 ( 30)
          -0.1639 ( 31) -0.1033 ( 32)  0.2352 ( 33)  0.2181 ( 34) -0.2182 ( 35)
           0.1033 ( 36) -0.2352 ( 37) -0.3407 ( 38)  0.1771 ( 39)  0.3407 ( 40)
           0.1639 ( 41)  0.1678 ( 42)
 CRD 20=   0.3761 (  2)  0.1457 (  3) -0.3898 (  5)  0.3762 (  9)  0.1743 ( 12)
          -0.1931 ( 14) -0.1908 ( 15) -0.1503 ( 16) -0.1503 ( 17)  0.1182 ( 18)
           0.1183 ( 20)  0.1182 ( 21)  0.1183 ( 22) -0.1908 ( 23) -0.1931 ( 25)
          -0.1291 ( 30)  0.1281 ( 31)  0.1281 ( 41) -0.1290 ( 42) -0.2562 ( 43)
           0.2581 ( 46)
 CRD 21=   0.1292 (  2)  0.4552 (  5) -0.2097 (  6) -0.2048 (  7) -0.2098 (  8)
           0.1293 (  9) -0.2048 ( 10) -0.1134 ( 11)  0.1134 ( 16)  0.1135 ( 17)
          -0.1093 ( 18) -0.1135 ( 19) -0.1073 ( 20) -0.1093 ( 21) -0.1073 ( 22)
           0.3001 ( 26)  0.3001 ( 27) -0.1168 ( 30)  0.1163 ( 31) -0.1901 ( 33)
           0.1879 ( 34)  0.1878 ( 35) -0.1901 ( 37)  0.1162 ( 41) -0.1168 ( 42)
          -0.2309 ( 43)  0.2351 ( 46)
 CRD 22=  -0.1599 (  6)  0.1629 (  7)  0.1597 (  8) -0.1629 ( 10) -0.1558 ( 14)
           0.1554 ( 15) -0.1554 ( 23)  0.1557 ( 25)  0.4485 ( 29) -0.1977 ( 30)
          -0.1955 ( 31)  0.2617 ( 32) -0.1610 ( 33) -0.1579 ( 34)  0.1580 ( 35)
          -0.2616 ( 36)  0.1610 ( 37) -0.4485 ( 39)  0.1955 ( 41)  0.1977 ( 42)
 CRD 23=  -0.2686 (  2)  0.1362 (  6)  0.1334 (  7) -0.1369 (  8)  0.2685 (  9)
          -0.1327 ( 10)  0.2067 ( 11)  0.1094 ( 14)  0.1074 ( 15) -0.2067 ( 19)
          -0.1069 ( 23) -0.1097 ( 25) -0.2080 ( 26)  0.2079 ( 27) -0.2034 ( 30)
           0.2079 ( 31) -0.2081 ( 41)  0.2034 ( 42)  0.4117 ( 44) -0.4111 ( 45)
 CRD 24=   0.2276 (  6) -0.2303 (  7)  0.2273 (  8) -0.2308 ( 10)  0.1475 ( 14)
          -0.1489 ( 15)  0.1951 ( 18) -0.1937 ( 20)  0.1949 ( 21) -0.1940 ( 22)
          -0.1493 ( 23)  0.1473 ( 25)  0.3355 ( 28)  0.1135 ( 29) -0.2770 ( 32)
          -0.2771 ( 36)  0.1134 ( 38)  0.1134 ( 39)  0.1135 ( 40) -0.2378 ( 43)
          -0.2333 ( 44) -0.2344 ( 45) -0.2299 ( 46)

 THE DETERMINANT OF THE G MATRIX IS 10**(   -12)


                     --------------------
                     INTERNAL COORDINATES
                     --------------------

                 - - ATOMS - -         COORDINATE      COORDINATE
 NO.   TYPE    I  J  K  L  M  N        (BOHR,RAD)       (ANG,DEG)
 ----------------------------------------------------------------
   1 STRETCH   1  2                     2.5704718       1.3602352
   2 STRETCH   1  3                     2.6723976       1.4141720
   3 STRETCH   2  6                     2.3035793       1.2190017
   4 STRETCH   2  5                     2.5707339       1.3603739
   5 STRETCH   3  4                     2.8257730       1.4953348
   6 STRETCH   3  7                     2.0685715       1.0946410
   7 STRETCH   3  8                     2.0689458       1.0948390
   8 STRETCH   4 10                     2.0686565       1.0946860
   9 STRETCH   4  5                     2.6720146       1.4139693
  10 STRETCH   4  9                     2.0692317       1.0949904
  11 BEND      1  3  4                  1.8406582     105.4619440
  12 BEND      1  2  5                  1.9472557     111.5695317
  13 BEND      1  2  6                  2.1679606     124.2149938
  14 BEND      1  3  8                  1.9128833     109.6001410
  15 BEND      1  3  7                  1.9133275     109.6255908
  16 BEND      2  1  3                  1.8979325     108.7435236
  17 BEND      2  5  4                  1.8978755     108.7402588
  18 BEND      3  4  9                  1.9554245     112.0375682
  19 BEND      3  4  5                  1.8409012     105.4758685
  20 BEND      3  4 10                  1.9552026     112.0248585
  21 BEND      4  3  8                  1.9555246     112.0433062
  22 BEND      4  3  7                  1.9552679     112.0286010
  23 BEND      5  4 10                  1.9134540     109.6328385
  24 BEND      5  2  6                  2.1679690     124.2154743
  25 BEND      5  4  9                  1.9128717     109.5994762
  26 BEND      7  3  8                  1.8857496     108.0454960
  27 BEND      9  4 10                  1.8855730     108.0353750
  28 TORSION   1  3  4  5               0.0165207       0.9465669
  29 TORSION   1  2  5  4               0.0055487       0.3179176
  30 TORSION   1  3  4 10               2.0972061     120.1610566
  31 TORSION   1  3  4  9              -2.0635819    -118.2345310
  32 TORSION   2  1  3  4              -0.0136659      -0.7829996
  33 TORSION   2  5  4  9               2.0945249     120.0074352
  34 TORSION   2  5  4 10              -2.1218169    -121.5711532
  35 TORSION   2  1  3  7              -2.1217297    -121.5661559
  36 TORSION   2  5  4  3              -0.0136222      -0.7804939
  37 TORSION   2  1  3  8               2.0944655     120.0040361
  38 TORSION   3  1  2  6              -3.1360458    -179.6821886
  39 TORSION   3  1  2  5               0.0056268       0.3223899
  40 TORSION   4  5  2  6              -3.1359640    -179.6775038
  41 TORSION   5  4  3  8              -2.0635000    -118.2298415
  42 TORSION   5  4  3  7               2.0969385     120.1457277
  43 TORSION   7  3  4 10              -2.1055614    -120.6397826
  44 TORSION   7  3  4  9               0.0168360       0.9646298
  45 TORSION   8  3  4 10               0.0171854       0.9846482
  46 TORSION   8  3  4  9               2.1395827     122.5890606

     ------------------------------------------
     THE POINT GROUP IS C1 , NAXIS= 1, ORDER= 1
     ------------------------------------------

     DIMENSIONS OF THE SYMMETRY SUBSPACES ARE
 A   =  138

 ..... DONE SETTING UP THE RUN .....
 STEP CPU TIME =     0.01 TOTAL CPU TIME =        0.0 (    0.0 MIN)
 TOTAL WALL CLOCK TIME=        0.0 SECONDS, CPU UTILIZATION IS  50.00%


          -----------------------------
          STATIONARY POINT LOCATION RUN
          -----------------------------

 OBTAINING INITIAL HESSIAN, HESS=GUESS   
 DIAGONAL GUESS HESSIAN IN INTERNAL COORDS IS
     1  0.4124     2  0.3714     3  0.5427     4  0.4123     5  0.3928
     6  0.3433     7  0.3431     8  0.3432     9  0.3715    10  0.3430
    11  0.2464    12  0.2469    13  0.2571    14  0.2200    15  0.2200
    16  0.2433    17  0.2433    18  0.2259    19  0.2464    20  0.2259
    21  0.2259    22  0.2259    23  0.2200    24  0.2571    25  0.2200
    26  0.2029    27  0.2029    28  0.2500    29  0.2500    30  0.2500
    31  0.2500    32  0.2500    33  0.2500    34  0.2500    35  0.2500
    36  0.2500    37  0.2500    38  0.2500    39  0.2500    40  0.2500
    41  0.2500    42  0.2500    43  0.2500    44  0.2500    45  0.2500
    46  0.2500
 TRANSFORMING HESSIAN TO SYMMETRY COORDINATES

          PARAMETERS CONTROLLING GEOMETRY SEARCH ARE
          METHOD =QA                  UPHESS =BFGS    
          NNEG   =         0          NFRZ   =         3
          NSTEP  =        50          IFOLOW =         1
          HESS   =GUESS               RESTAR =         F
          IHREP  =         0          HSSEND =         F
          NPRT   =         0          NPUN   =         0
          OPTTOL = 5.000E-04          RMIN   = 1.500E-03
          RMAX   = 1.000E-01          RLIM   = 7.000E-02
          DXMAX  = 3.000E-01          PURIFY =         F
          MOVIE  =         F          TRUPD  =         T
          TRMAX  = 5.000E-01          TRMIN  = 5.000E-02
          ITBMAT =         5          STPT   =         F
          STSTEP = 1.000E-02          PROJCT=          F
          FROZEN COORD(S)=   1   2   3


      ***** EQUILIBRIUM GEOMETRY LOCATED *****
            (SUBJECT TO   3 CONSTRAINT(S))
 COORDINATES OF ALL ATOMS ARE (ANGS)
   ATOM   CHARGE       X              Y              Z
 ------------------------------------------------------------
 O           8.0   0.0033152696  -1.0858304205   0.0182918082
 C           6.0   0.7507830059  -0.0055542274  -0.0110084545
 C           6.0  -1.3838585669  -0.7486623377   0.0414469274
 C           6.0  -1.3736510937   0.7662455692   0.0422493167
 O           8.0   0.0173906923   1.0847138087  -0.0035637311
 O           8.0   1.9333783649  -0.0135280464  -0.0403333768
 H           1.0  -1.8327026698  -1.1378686028   0.9386125011
 H           1.0  -1.8617382074  -1.1369511763  -0.8411537184
 H           1.0  -1.8018643325   1.1606301994   0.9473668767
 H           1.0  -1.8612028361   1.1617623075  -0.8316718225


                     --------------------
                     INTERNAL COORDINATES
                     --------------------

                 - - ATOMS - -         COORDINATE      COORDINATE
 NO.   TYPE    I  J  K  L  M  N        (BOHR,RAD)       (ANG,DEG)
 ----------------------------------------------------------------
   1 STRETCH   1  2                     2.4830763       1.3139875
   2 STRETCH   1  3                     2.6980561       1.4277499
   3 STRETCH   2  6                     2.2355189       1.1829858
   4 STRETCH   2  5                     2.4831058       1.3140031
   5 STRETCH   3  4                     2.8628262       1.5149425
   6 STRETCH   3  7                     2.0334089       1.0760337
   7 STRETCH   3  8                     2.0336482       1.0761603
   8 STRETCH   4 10                     2.0334350       1.0760476
   9 STRETCH   4  5                     2.6980881       1.4277668
  10 STRETCH   4  9                     2.0336679       1.0761708
  11 BEND      1  3  4                  1.8024736     103.2741288
  12 BEND      1  2  5                  1.9439205     111.3784416
  13 BEND      1  2  6                  2.1696282     124.3105404
  14 BEND      1  3  8                  1.9102082     109.4468666
  15 BEND      1  3  7                  1.9106805     109.4739300
  16 BEND      2  1  3                  1.9378847     111.0326157
  17 BEND      2  5  4                  1.9378717     111.0318705
  18 BEND      3  4  9                  1.9435983     111.3599793
  19 BEND      3  4  5                  1.8024588     103.2732793
  20 BEND      3  4 10                  1.9434335     111.3505397
  21 BEND      4  3  8                  1.9435997     111.3600573
  22 BEND      4  3  7                  1.9434253     111.3500650
  23 BEND      5  4 10                  1.9106977     109.4749126
  24 BEND      5  2  6                  2.1696366     124.3110179
  25 BEND      5  4  9                  1.9101888     109.4457541
  26 BEND      7  3  8                  1.9477302     111.5967197
  27 BEND      9  4 10                  1.9477385     111.5971937
  28 TORSION   1  3  4  5               0.0165600       0.9488176
  29 TORSION   1  2  5  4               0.0060373       0.3459112
  30 TORSION   1  3  4 10               2.0653495     118.3358097
  31 TORSION   1  3  4  9              -2.0317105    -116.4084394
  32 TORSION   2  1  3  4              -0.0143753      -0.8236446
  33 TORSION   2  5  4  9               2.0572288     117.8705294
  34 TORSION   2  5  4 10              -2.0860506    -119.5218973
  35 TORSION   2  1  3  7              -2.0860278    -119.5205862
  36 TORSION   2  5  4  3              -0.0143886      -0.8244040
  37 TORSION   2  1  3  8               2.0572605     117.8723449
  38 TORSION   3  1  2  6              -3.1355982    -179.6565443
  39 TORSION   3  1  2  5               0.0060141       0.3445808
  40 TORSION   4  5  2  6              -3.1355357    -179.6529637
  41 TORSION   5  4  3  8              -2.0317423    -116.4102567
  42 TORSION   5  4  3  7               2.0653339     118.3349143
  43 TORSION   7  3  4 10              -2.1690619    -124.2780936
  44 TORSION   7  3  4  9               0.0170633       0.9776573
  45 TORSION   8  3  4 10               0.0170472       0.9767355
  46 TORSION   8  3  4  9               2.2031725     126.2324864

          INTERNUCLEAR DISTANCES (ANGS.)


 =====================================================
   GAMESS/COSab RESULTS
 =====================================================

   Dielectric Constant                  = INFTY
   Basic Grid Size                      =                 1082
   Number of Segments                   =                   92
   Number of Segments located on spheres=                  218
   Number of Segments of the cavity     =                  429
   Solvent Radius (rsolv)               = 1.40
   Outlying Charge Error Method         = double cavity

 =====================================================

  Total solvated Energy (a.u.)          =  -340.6421638004
  Total Energy corrected (a.u.)         =  -340.6418699593

  Outlying charge effect (a.u.)         =     0.0002938412
  Outlying charge effect (kcal/mol)     =     0.1843882817

  Dielectric Energy (a.u.)              =    -0.0275679704
  Dielectric energy corr. (a.u.)        =    -0.0272741292

  Sum of polarization charges           =     0.0116306538
  Sum of polarization charges(cor.)     =    -0.0116306538

  Total surface area of cavity (A**2)   =  107.90
  Total volume of cavity (A**3)         =   92.69

 =====================================================
 NPS=                   429
NR.  ATOM  (X, Y, Z)(a.u.)                  CHARGE(e)  AREA(A**2) SIGMA(e/A**2)
   1   1   0.761105  -4.342798   2.213268   0.003779   0.309230   0.012220
   2   1   1.379631  -4.803420  -1.017968   0.004425   0.343589   0.012878
   3   1  -0.106264  -3.503554  -2.871429   0.001746   0.206154   0.008470
   4   1  -0.441084  -5.115075   1.025334   0.001337   0.171795   0.007782
   5   1  -0.127105  -4.799343   1.766192   0.003371   0.309230   0.010903
   6   1  -0.488155  -5.254511  -0.217717   0.002034   0.240512   0.008459
   7   1   0.392615  -5.215868  -0.601728   0.004113   0.343589   0.011971
   8   1   1.174203  -4.803094   1.311922   0.004915   0.377948   0.013005
   9   1   1.341115  -5.013061   0.155058   0.004979   0.377948   0.013174
  10   1   0.680519  -4.625537  -1.832676   0.004784   0.377948   0.012659
  11   1  -0.044005  -4.174791  -2.426247   0.003078   0.274871   0.011197
  12   1  -0.087052  -3.965886   2.659951   0.002786   0.309230   0.009010
  13   1   1.854977  -3.961740   1.905264   0.004017   0.377948   0.010629
  14   1   2.136279  -4.448475  -0.498607   0.002662   0.240512   0.011069
  15   1   1.960267  -4.143468  -1.505572   0.002559   0.240512   0.010639
  16   1   1.505660  -3.866313  -2.206977   0.002685   0.240512   0.011164
  17   1   0.688520  -3.096595  -2.966750   0.001912   0.206154   0.009273
  18   1  -0.015700  -2.697215  -3.150997   0.000763   0.137436   0.005552
  19   1   0.612440  -2.878782   3.118955   0.000897   0.137436   0.006524
  20   1   1.059201  -3.490776   2.752221   0.003864   0.343589   0.011246
  21   1   0.244390  -5.241737   0.611668   0.003881   0.343589   0.011294
  22   1  -0.303695  -4.908044  -1.485692   0.002908   0.309230   0.009403
  23   1   2.172210  -4.375721   0.722548   0.004066   0.377948   0.010758
  24   1   0.987263  -3.627071  -2.634004   0.001986   0.206154   0.009636
  25   1   0.086529  -2.845743   3.185439   0.001774   0.206154   0.008606
  26   2   0.526039  -0.071359   3.651191  -0.002531   0.185824  -0.013619
  27   2   2.607203   1.689615   3.138542  -0.000806   0.232280  -0.003471
  28   2   2.688487  -2.352058   2.660465  -0.000152   0.232280  -0.000656
  29   2   2.352514   0.146215  -3.679746  -0.001248   0.232280  -0.005373
  30   2   2.429992   0.656593   3.559231  -0.002171   0.371649  -0.005842
  31   2   2.673263  -1.303363   3.301697  -0.000770   0.232280  -0.003314
  32   2   2.640123  -2.603860  -2.483952  -0.000026   0.185824  -0.000142
  33   2   2.510380  -1.017090  -3.496357  -0.001084   0.278737  -0.003891
  34   2   2.529344   1.498920  -3.302961  -0.000862   0.232280  -0.003710
  35   2   2.740094   2.608491  -2.403921   0.000199   0.092912   0.002137
  36   2   2.636074   2.255803   2.747999  -0.000594   0.185824  -0.003194
  37   2   1.761615   1.394283   3.471081  -0.001955   0.278737  -0.007015
  38   2   1.132473   0.617513   3.695088  -0.004269   0.371649  -0.011486
  39   2   1.136717  -0.779578   3.668803  -0.003950   0.371649  -0.010627
  40   2   1.973773  -1.641390   3.343186  -0.001823   0.278737  -0.006540
  41   2   1.024470  -1.054756  -3.631669  -0.003138   0.325193  -0.009649
  42   2   1.737407  -0.528992  -3.750942  -0.002287   0.278737  -0.008204
  43   2   1.826331   0.916895  -3.661973  -0.002505   0.325193  -0.007702
  44   2   1.047051   1.240288  -3.567862  -0.002389   0.278737  -0.008571
  45   2   0.690702   0.106862  -3.727611  -0.005815   0.464561  -0.012517
  46   2   2.319265  -0.390990   3.630029  -0.003009   0.418105  -0.007197
  47   2   2.113637  -1.891904  -3.224206  -0.001668   0.371649  -0.004488
  48   2   2.212390   2.075044  -3.071204  -0.000571   0.185824  -0.003071
  49   3  -6.384275  -1.238613   0.294411  -0.002318   0.278737  -0.008318
  50   3  -4.283113  -4.773477  -0.391967  -0.000352   0.232280  -0.001516
  51   3  -2.034779  -0.800458  -3.605431  -0.000988   0.139368  -0.007088
  52   3  -1.643422  -1.201129  -3.567823  -0.000496   0.092912  -0.005333
  53   3  -1.444388  -2.385530  -3.381626  -0.000121   0.046456  -0.002600
  54   3  -2.011793  -4.410533   2.302218  -0.000646   0.232280  -0.002781
  55   3  -4.821087  -4.425202   0.674397  -0.000696   0.371649  -0.001873
  56   3  -6.237601  -1.901649   1.040013  -0.001638   0.278737  -0.005875
  57   3  -1.546590  -1.486291   3.702881  -0.000879   0.139368  -0.006306
  58   3  -6.145235  -1.031703   1.372854  -0.001022   0.232280  -0.004398
  59   3  -6.262896  -2.390145   0.241552  -0.001293   0.325193  -0.003976
  60   3  -5.630770  -3.676746  -0.192962  -0.000504   0.325193  -0.001549
  61   3  -3.622207  -5.025668   0.559453  -0.001158   0.464561  -0.002493
  62   3  -2.373610  -5.018383   1.191854  -0.001581   0.418105  -0.003780
  63   3  -6.305574  -0.823011  -0.482581  -0.001392   0.232280  -0.005992
  64   3  -6.271514  -1.734207  -0.823339  -0.001413   0.278737  -0.005069
  65   3  -5.029286  -4.279509  -0.421029  -0.000574   0.278737  -0.002059
  66   3  -3.513906  -4.991006  -0.750535  -0.000979   0.325193  -0.003009
  67   3  -2.458797  -4.726222  -1.736649  -0.001333   0.325193  -0.004099
  68   3  -1.583991  -1.884533  -3.527273  -0.000766   0.092912  -0.008244
  69   3  -3.149235  -4.859467   1.538832  -0.000794   0.185824  -0.004274
  70   3  -5.877819  -3.243731   0.620518  -0.000956   0.278737  -0.003429
  71   3  -5.790130  -0.699106   1.999626  -0.000899   0.092912  -0.009676
  72   3  -1.959350  -0.916456   3.766946  -0.001150   0.139368  -0.008250
  73   3  -1.381155  -2.164777   3.571047  -0.000647   0.139368  -0.004642
  74   3  -6.033498  -0.962478  -1.469048  -0.001341   0.185824  -0.007219
  75   3  -6.113017  -2.697868  -0.556217  -0.001115   0.232280  -0.004802
  76   3  -2.468023  -5.159362  -0.412275  -0.001798   0.511017  -0.003519
  77   4  -3.006446   5.204122   0.164529  -0.001047   0.325193  -0.003220
  78   4  -6.223886   2.447903  -0.268979  -0.001102   0.278737  -0.003955
  79   4  -1.805032   1.215382  -3.608616  -0.002218   0.278737  -0.007956
  80   4  -5.725533   0.889219   2.123623  -0.000699   0.092912  -0.007526
  81   4  -5.902105   3.150696   0.753376  -0.001282   0.371649  -0.003449
  82   4  -3.553416   4.967951   1.068389  -0.001025   0.325193  -0.003153
  83   4  -1.267527   2.443021   3.475403  -0.000175   0.092912  -0.001882
  84   4  -2.133837   0.752690   3.765954  -0.001020   0.139368  -0.007322
  85   4  -1.604249   3.301937  -3.060838   0.000103   0.046456   0.002215
  86   4  -1.578566   1.100180   3.703169  -0.000478   0.092912  -0.005143
  87   4  -2.434998   5.058984   1.184001  -0.000971   0.325193  -0.002987
  88   4  -4.140380   4.893804   0.238087  -0.000479   0.325193  -0.001472
  89   4  -5.321332   4.056554  -0.146740  -0.000323   0.325193  -0.000994
  90   4  -6.303700   1.922617   0.637274  -0.002148   0.418105  -0.005139
  91   4  -6.186078   1.016408   1.179004  -0.002090   0.232280  -0.008998
  92   4  -2.239805   5.172801  -0.452429  -0.001359   0.325193  -0.004178
  93   4  -3.315023   5.016196  -0.937485  -0.001324   0.418105  -0.003166
  94   4  -5.826189   3.362593  -0.348380  -0.000936   0.278737  -0.003357
  95   4  -6.254934   1.750834  -0.816552  -0.001673   0.232280  -0.007203
  96   4  -6.059732   1.078408  -1.386121  -0.001010   0.139368  -0.007249
  97   4  -1.496184   2.517341  -3.374355  -0.000494   0.139368  -0.003548
  98   4  -6.083955   1.586855   1.528294  -0.000866   0.139368  -0.006217
  99   4  -4.908524   4.382530   0.649259  -0.000608   0.278737  -0.002182
 100   4  -2.032784   4.651774   2.004176  -0.001095   0.232280  -0.004715
 101   4  -1.336255   1.720845   3.632774  -0.001118   0.139368  -0.008022
 102   4  -2.234650   4.765657  -1.694107  -0.000848   0.325193  -0.002609
 103   4  -4.444752   4.684094  -0.547388  -0.000605   0.232280  -0.002605
 104   4  -6.329965   0.981129  -0.270233  -0.002363   0.371649  -0.006357
 105   5   0.709449   4.331007  -2.221018   0.003777   0.309230   0.012215
 106   5   1.493697   4.782228   0.975384   0.004426   0.343589   0.012880
 107   5   0.084227   3.501909   2.900748   0.001747   0.206154   0.008477
 108   5  -0.421801   5.119032  -0.975167   0.001336   0.171795   0.007775
 109   5  -0.149251   4.799334  -1.730581   0.003366   0.309230   0.010885
 110   5  -0.405250   5.258694   0.268640   0.002039   0.240512   0.008478
 111   5   0.492889   5.208068   0.608487   0.004114   0.343589   0.011974
 112   5   1.172927   4.785409  -1.341443   0.004915   0.377948   0.013005
 113   5   1.399851   4.992741  -0.194360   0.004979   0.377948   0.013174
 114   5   0.833539   4.613521   1.823841   0.004786   0.377948   0.012664
 115   5   0.133355   4.172388   2.452790   0.003083   0.274871   0.011217
 116   5  -0.164828   3.965697  -2.624934   0.002783   0.309230   0.009000
 117   5   1.812025   3.935149  -1.967538   0.004015   0.377948   0.010623
 118   5   2.218792   4.417287   0.419242   0.002662   0.240512   0.011068
 119   5   2.088870   4.114359   1.433807   0.002561   0.240512   0.010648
 120   5   1.665935   3.843131   2.157004   0.002688   0.240512   0.011175
 121   5   0.877207   3.084249   2.956657   0.001913   0.206154   0.009278
 122   5   0.177681   2.694334   3.175762   0.000767   0.137436   0.005578
 123   5   0.496319   2.869414  -3.117699   0.000893   0.137436   0.006494
 124   5   0.968931   3.475217  -2.773800   0.003864   0.343589   0.011246
 125   5   0.284999   5.236316  -0.596068   0.003881   0.343589   0.011296
 126   5  -0.162784   4.909371   1.526022   0.002911   0.309230   0.009412
 127   5   2.193102   4.344444  -0.802166   0.004065   0.377948   0.010755
 128   5   1.166190   3.610758   2.609311   0.001987   0.206154   0.009641
 129   5  -0.032640   2.843485  -3.157993   0.001771   0.206154   0.008589
 130   6   6.901646   0.046227  -0.173439   0.004828   0.377948   0.012774
 131   6   5.176050   1.885744   2.067038   0.005021   0.343589   0.014613
 132   6   5.101633   2.658320  -1.200736   0.005565   0.343589   0.016196
 133   6   5.098527  -0.156506  -2.984763   0.004518   0.343589   0.013149
 134   6   5.183032  -2.782893  -0.865208   0.005630   0.343589   0.016385
 135   6   5.114918  -1.557223   2.390165   0.004306   0.309230   0.013926
 136   6   6.693415   0.688637   0.825917   0.005435   0.412307   0.013182
 137   6   6.064150   1.419670   1.556262   0.005403   0.377948   0.014296
 138   6   6.648497   1.155612  -0.523271   0.005642   0.412307   0.013683
 139   6   6.017123   2.075660  -0.826629   0.005300   0.343589   0.015424
 140   6   6.642354  -0.039180  -1.353566   0.005339   0.412307   0.012949
 141   6   6.007636  -0.327908  -2.296943   0.004986   0.377948   0.013192
 142   6   6.698325  -1.077986  -0.508054   0.005123   0.377948   0.013554
 143   6   6.128791  -2.055973  -0.637763   0.005178   0.343589   0.015070
 144   6   6.710449  -0.743682   0.763055   0.006365   0.481025   0.013231
 145   6   6.100959  -1.237397   1.686256   0.005721   0.412307   0.013875
 146   6   5.380260   2.465383   1.097805   0.005388   0.343589   0.015682
 147   6   5.351541   2.745733  -0.038269   0.006182   0.377948   0.016356
 148   6   5.403771   1.964779  -1.957708   0.005635   0.377948   0.014909
 149   6   5.308700   0.893440  -2.718311   0.005608   0.412307   0.013602
 150   6   5.228375  -1.334094  -2.600581   0.005740   0.412307   0.013921
 151   6   5.303039  -2.224906  -1.810229   0.006274   0.412307   0.015216
 152   6   5.317541  -2.801914   0.219892   0.006172   0.377948   0.016330
 153   6   5.335001  -2.333646   1.476239   0.006315   0.412307   0.015316
 154   6   5.386610  -0.562319   2.620637   0.005971   0.446666   0.013367
 155   6   5.418205   0.774442   2.533499   0.006042   0.446666   0.013526
 156   6   4.411640   2.575539   1.719387   0.005013   0.343589   0.014589
 157   6   4.467711   3.068741  -0.648154   0.003315   0.206154   0.016082
 158   6   4.235416   2.651110  -1.825947   0.003936   0.274871   0.014320
 159   6   4.116073   1.029984  -3.115397   0.001779   0.206154   0.008631
 160   6   4.222410   0.263427  -3.263318   0.002907   0.240512   0.012088
 161   6   4.236027  -0.939863  -3.140446   0.004088   0.377948   0.010816
 162   6   4.226629  -2.858778  -1.562539   0.005059   0.343589   0.014723
 163   6   4.408242  -3.184428  -0.205308   0.003653   0.240512   0.015187
 164   6   4.354243  -2.241821   2.195749   0.004832   0.343589   0.014063
 165   6   4.300593  -1.142421   2.906826   0.002889   0.274871   0.010512
 166   6   4.367583   1.508810   2.698752   0.004044   0.343589   0.011771
 167   6   6.238831   1.881928   0.416233   0.006177   0.412307   0.014981
 168   6   6.210513   1.016622  -1.791019   0.006642   0.481025   0.013809
 169   6   6.181688  -1.363589  -1.619897   0.005768   0.412307   0.013988
 170   6   6.165630  -1.991026   0.549163   0.006729   0.446666   0.015065
 171   6   6.261920   0.093465   1.859476   0.005438   0.412307   0.013189
 172   6   4.515931   3.031688   0.612385   0.004516   0.274871   0.016429
 173   6   4.453776   1.849986  -2.607359   0.005375   0.377948   0.014222
 174   6   4.258677  -2.124008  -2.483509   0.004655   0.343589   0.013549
 175   6   4.505418  -2.945170   1.070449   0.005168   0.309230   0.016713
 176   6   4.432526   0.204215   3.071002   0.004802   0.412307   0.011647
 177   7  -4.416735  -3.081705   3.837329  -0.005824   0.588831  -0.009891
 178   7  -2.775551  -2.283424   4.128365  -0.002893   0.431809  -0.006700
 179   7  -3.111902  -4.181458   3.110089  -0.002315   0.353299  -0.006553
 180   7  -5.043068  -3.978188   2.218862  -0.002234   0.333671  -0.006696
 181   7  -5.742386  -2.119641   2.690201  -0.003214   0.412182  -0.007797
 182   7  -3.782148  -1.753002   4.176968  -0.004923   0.510320  -0.009647
 183   7  -2.954021  -3.398194   3.827595  -0.004217   0.510320  -0.008263
 184   7  -4.189281  -4.233495   2.854562  -0.004024   0.510320  -0.007886
 185   7  -5.470609  -3.181335   2.744656  -0.004366   0.510320  -0.008555
 186   7  -5.040349  -1.737893   3.611642  -0.004873   0.510320  -0.009548
 187   8  -4.645847  -3.112713  -3.547556  -0.005454   0.549575  -0.009924
 188   8  -2.667873  -3.243753  -3.617483  -0.002398   0.353299  -0.006788
 189   8  -3.540678  -1.603519  -3.984860  -0.003350   0.392554  -0.008534
 190   8  -5.548450  -1.588742  -2.854356  -0.003254   0.353299  -0.009212
 191   8  -5.600573  -3.393059  -1.976710  -0.002261   0.333671  -0.006777
 192   8  -3.962841  -4.448213  -2.330371  -0.001939   0.314043  -0.006174
 193   8  -3.315838  -2.570895  -4.001129  -0.003809   0.471065  -0.008086
 194   8  -4.744932  -1.781731  -3.686120  -0.004356   0.451437  -0.009649
 195   8  -5.707384  -2.563106  -2.624254  -0.004018   0.471065  -0.008529
 196   8  -4.882824  -3.997341  -2.458304  -0.003847   0.471065  -0.008167
 197   8  -3.451514  -3.990875  -3.213243  -0.004266   0.529948  -0.008049
 198   9  -4.421015   3.171901   3.801528  -0.005453   0.549575  -0.009921
 199   9  -2.440423   3.276275   3.773130  -0.002397   0.353299  -0.006785
 200   9  -3.315919   1.647817   4.183927  -0.003339   0.392554  -0.008506
 201   9  -5.377355   1.660455   3.154496  -0.003244   0.353299  -0.009183
 202   9  -5.448685   3.465607   2.279923  -0.002265   0.333671  -0.006789
 203   9  -3.781358   4.498495   2.551495  -0.001932   0.314043  -0.006152
 204   9  -3.077544   2.612072   4.188694  -0.003805   0.471065  -0.008078
 205   9  -4.531010   1.842327   3.945281  -0.004354   0.451437  -0.009645
 206   9  -5.534382   2.636947   2.932246  -0.004022   0.471065  -0.008538
 207   9  -4.699843   4.060007   2.725091  -0.003846   0.471065  -0.008165
 208   9  -3.233036   4.034017   3.408045  -0.004260   0.529948  -0.008039
 209  10  -4.559201   3.140270  -3.585711  -0.005827   0.588831  -0.009895
 210  10  -2.945380   2.320060  -3.957566  -0.002898   0.431809  -0.006712
 211  10  -3.205195   4.222118  -2.924503  -0.002328   0.353299  -0.006590
 212  10  -5.092311   4.044578  -1.938460  -0.002234   0.333671  -0.006694
 213  10  -5.839118   2.195768  -2.373874  -0.003218   0.412182  -0.007808
 214  10  -3.960199   1.803255  -3.955970  -0.004928   0.510320  -0.009656
 215  10  -3.093678   3.437034  -3.648692  -0.004223   0.510320  -0.008276
 216  10  -4.267766   4.288573  -2.615838  -0.004027   0.510320  -0.007891
 217  10  -5.556110   3.253725  -2.442115  -0.004366   0.510320  -0.008556
 218  10  -5.188882   1.804903  -3.328891  -0.004877   0.510320  -0.009557
 219   1  -0.238820  -1.863690  -3.222034  -0.000274   0.054797  -0.004996
 220   2   0.003102  -1.506623  -3.294254  -0.000605   0.054797  -0.011040
 221   3  -0.699477  -1.750531  -3.273689  -0.000570   0.054797  -0.010406
 222   1  -0.108950  -1.776880   3.292158  -0.000294   0.054797  -0.005370
 223   2   0.135468  -1.418144   3.345143  -0.000668   0.054797  -0.012182
 224   3  -0.567243  -1.662141   3.359096  -0.000496   0.054797  -0.009049
 225   1   2.642102  -3.195018   1.778336   0.000183   0.024780   0.007377
 226   2   2.969418  -2.914179   1.843592   0.000167   0.024780   0.006734
 227   6   3.336548  -2.812475   1.759350   0.000225   0.024780   0.009060
 228   1   2.552748  -3.230648  -1.815063   0.000230   0.024780   0.009280
 229   2   2.876278  -2.951319  -1.902057   0.000162   0.024780   0.006518
 230   6   3.247091  -2.848146  -1.838196   0.000218   0.024780   0.008780
 231   2   0.829090  -1.586196   3.370207  -0.001069   0.168096  -0.006357
 232   2   2.114459  -2.495981   2.617610  -0.000361   0.329096  -0.001098
 233   1   0.953207  -2.425791   3.021669   0.000780   0.330678   0.002358
 234   1   2.141440  -3.271138   2.166827   0.000935   0.157536   0.005937
 235   2   2.455062  -2.864559  -2.282957   0.000251   0.166076   0.001511
 236   2   1.200409  -2.018962  -3.113502  -0.001442   0.325181  -0.004435
 237   1   1.588846  -3.016007  -2.524064   0.001516   0.326249   0.004647
 238   1   0.324423  -2.159556  -3.203637   0.000086   0.155643   0.000550
 239   3  -1.117877  -2.339206  -3.278768  -0.000816   0.192145  -0.004245
 240   3  -1.481449  -3.895209  -2.402693  -0.000880   0.377398  -0.002332
 241   3  -1.704642  -4.947124  -0.457175  -0.001317   0.377398  -0.003490
 242   3  -1.570176  -4.543791   1.724710  -0.000921   0.377398  -0.002441
 243   3  -1.140682  -2.873070   3.126710  -0.001270   0.377398  -0.003366
 244   1  -0.595065  -3.067757  -2.874467   0.001226   0.365473   0.003355
 245   1  -0.952387  -4.634231  -1.471638   0.001526   0.365473   0.004176
 246   1  -0.997673  -4.965265   0.634974   0.001011   0.365473   0.002767
 247   1  -0.709830  -3.906675   2.464177   0.001629   0.365473   0.004456
 248   1  -0.326086  -2.381722   3.248147   0.000158   0.175654   0.000902
 249   6   3.623744  -3.022234   1.442010   0.002345   0.256238   0.009150
 250   6   3.735620  -3.304939  -0.045752   0.005796   0.513616   0.011285
 251   6   3.549807  -3.051717  -1.531427   0.002015   0.256238   0.007864
 252   1   2.696195  -3.712255   0.911831   0.003066   0.513616   0.005969
 253   1   2.650091  -3.730639  -0.942237   0.003295   0.513616   0.006415
 254   2  -0.475141   0.000473   3.409174  -0.002412   0.098501  -0.024486
 255   3  -1.177810  -0.243294   3.454938  -0.001999   0.098501  -0.020299
 256   4  -1.174463   0.253657   3.455201  -0.001910   0.098501  -0.019395
 257   2  -0.642961   0.005198  -3.352596  -0.002431   0.098501  -0.024682
 258   3  -1.347043  -0.238530  -3.363786  -0.001901   0.098501  -0.019295
 259   4  -1.343696   0.258422  -3.363521  -0.001990   0.098501  -0.020199
 260   3  -1.158338  -0.963847  -3.456557  -0.003251   0.326374  -0.009962
 261   2  -0.069650  -0.863389  -3.467276  -0.003757   0.326374  -0.011510
 262   3  -0.918655  -1.158862   3.533912  -0.002746   0.300508  -0.009137
 263   2   0.003855  -0.581071   3.522779  -0.003626   0.300508  -0.012065
 264   2   0.187526   1.503493   3.318325  -0.000593   0.054800  -0.010821
 265   4  -0.511866   1.756847   3.332561  -0.000545   0.054800  -0.009948
 266   5  -0.052854   1.863818   3.258072  -0.000268   0.054800  -0.004897
 267   2  -0.010923   1.415348  -3.319424  -0.000675   0.054800  -0.012311
 268   4  -0.710118   1.668791  -3.298577  -0.000506   0.054800  -0.009225
 269   5  -0.247561   1.777335  -3.254503  -0.000297   0.054800  -0.005416
 270   4  -1.076502   1.170383  -3.455570  -0.002585   0.300483  -0.008602
 271   2  -0.162422   0.580237  -3.490025  -0.003671   0.300483  -0.012217
 272   4  -0.971642   0.976343   3.538248  -0.003229   0.326380  -0.009895
 273   2   0.114796   0.861232   3.494969  -0.003761   0.326380  -0.011524
 274   2   3.007198   2.909734   1.784992   0.000164   0.024781   0.006627
 275   5   2.683540   3.193435   1.714051   0.000231   0.024781   0.009304
 276   6   3.372967   2.801601   1.702861   0.000237   0.024781   0.009559
 277   2   2.914058   2.872671  -1.960711   0.000143   0.024781   0.005775
 278   5   2.594186   3.157878  -1.879398   0.000175   0.024781   0.007075
 279   6   3.283509   2.766003  -1.894736   0.000211   0.024781   0.008517
 280   5   2.075931   3.240862  -2.242635   0.000919   0.157550   0.005833
 281   5   0.835409   2.411832  -3.037254   0.000822   0.330709   0.002484
 282   2   2.016166   2.466259  -2.691287  -0.000320   0.329125  -0.000971
 283   2   0.682830   1.574065  -3.378933  -0.001057   0.168110  -0.006286
 284   5   0.512696   2.152066   3.211662   0.000094   0.155636   0.000602
 285   5   1.753209   2.991584   2.469990   0.001517   0.326231   0.004649
 286   2   1.381137   1.999681   3.078260  -0.001440   0.325166  -0.004427
 287   2   2.604266   2.828533   2.186308   0.000287   0.166069   0.001725
 288   6   3.729117   2.416779   2.062941   0.001376   0.136835   0.010056
 289   6   3.740457   1.004603   2.903869   0.002292   0.289296   0.007922
 290   6   3.727474  -0.996598   2.924004   0.002547   0.289296   0.008803
 291   6   3.697705  -2.425142   2.111658   0.001453   0.136835   0.010620
 292   2   3.192853   1.974904   2.532835   0.001125   0.284436   0.003956
 293   2   3.196456   0.010486   3.211792   0.000674   0.284436   0.002369
 294   2   3.167279  -1.966982   2.572496   0.000926   0.284436   0.003256
 295   6   3.590102  -2.468042  -2.215628   0.001182   0.136838   0.008641
 296   6   3.578761  -1.055856  -3.056603   0.002326   0.289303   0.008041
 297   6   3.591743   0.945382  -3.076759   0.002243   0.289303   0.007755
 298   6   3.621514   2.373953  -2.264395   0.001401   0.136838   0.010235
 299   2   3.037205  -2.018829  -2.658529   0.000954   0.284442   0.003355
 300   2   3.033601  -0.054386  -3.337532   0.000444   0.284442   0.001563
 301   2   3.062777   1.923122  -2.698231   0.001053   0.284442   0.003700
 302   3  -5.419588  -0.440107   2.427749  -0.000445   0.024465  -0.018194
 303   4  -5.381943   0.051643   2.402410  -0.000496   0.024465  -0.020287
 304   7  -5.362294  -0.672057   2.605649  -0.000441   0.024465  -0.018033
 305   3  -2.904603  -0.453906  -3.572384  -0.000356   0.024461  -0.014562
 306   4  -2.900196   0.038031  -3.529302  -0.000438   0.024461  -0.017910
 307   8  -3.085482  -0.684222  -3.627213  -0.000397   0.024461  -0.016215
 308   3  -2.720934  -0.002050   3.697669  -0.000428   0.024461  -0.017507
 309   4  -2.716585   0.489887   3.740753  -0.000271   0.024461  -0.011078
 310   9  -2.891407   0.722600   3.804420  -0.000367   0.024461  -0.014994
 311   3  -5.494059   0.019669  -2.103547  -0.000507   0.024467  -0.020718
 312   4  -5.526305   0.511889  -2.127150  -0.000409   0.024467  -0.016700
 313  10  -5.474796   0.743113  -2.307762  -0.000445   0.024467  -0.018197
 314   4  -2.120918   0.369283  -3.527465  -0.002071   0.192848  -0.010740
 315   3  -2.357199  -0.337152  -3.551285  -0.001841   0.192848  -0.009547
 316   4  -5.805146   0.393102  -1.645260  -0.002221   0.196808  -0.011283
 317   4  -6.131753   0.394339   0.166910  -0.005608   0.398502  -0.014073
 318   4  -5.715611   0.390582   1.960635  -0.002052   0.196808  -0.010424
 319   3  -5.980682  -0.314118  -0.961885  -0.005254   0.398502  -0.013184
 320   3  -5.924871  -0.315689   1.285826  -0.005358   0.398502  -0.013445
 321   4  -2.172574   0.365793   3.692556  -0.001841   0.192826  -0.009546
 322   3  -1.947308  -0.343746   3.657277  -0.002075   0.192826  -0.010762
 323   3  -2.857092  -0.364333   3.727370  -0.000666   0.050363  -0.013225
 324   7  -3.039345  -0.593944   3.784311  -0.000598   0.050363  -0.011873
 325   9  -3.031650   0.366228   3.743028  -0.000708   0.050363  -0.014050
 326   7  -5.558839  -1.170452   2.597669  -0.000907   0.068048  -0.013326
 327   7  -5.848692  -2.096949   2.050726  -0.001607   0.151612  -0.010598
 328   7  -5.541801  -3.348945   1.661118  -0.001464   0.151612  -0.009659
 329   7  -4.572696  -4.280501   1.741822  -0.001349   0.151612  -0.008898
 330   7  -3.348799  -4.499979   2.258908  -0.001342   0.151612  -0.008850
 331   7  -2.384650  -3.915110   2.994989  -0.001418   0.151612  -0.009354
 332   7  -2.085585  -2.771777   3.640608  -0.001481   0.151612  -0.009768
 333   7  -2.577336  -1.550651   3.924340  -0.001665   0.151612  -0.010980
 334   3  -5.777371  -1.265659   2.054450  -0.001901   0.148573  -0.012798
 335   3  -5.882729  -2.630083   1.409827  -0.001485   0.148573  -0.009992
 336   3  -5.125141  -3.926507   1.226423  -0.001223   0.148573  -0.008234
 337   3  -3.823107  -4.609902   1.581345  -0.001151   0.148573  -0.007745
 338   3  -2.524014  -4.392961   2.325379  -0.001258   0.148573  -0.008470
 339   3  -1.774015  -3.366888   3.145725  -0.001321   0.148573  -0.008889
 340   3  -1.888417  -1.963056   3.697502  -0.001490   0.148573  -0.010028
 341   3  -2.532824  -0.923553   3.826071  -0.000916   0.083135  -0.011012
 342   3  -5.443472  -0.343950  -2.230601  -0.000767   0.050360  -0.015232
 343   8  -5.387330  -0.575123  -2.411220  -0.000674   0.050360  -0.013384
 344  10  -5.347427   0.384795  -2.385564  -0.000811   0.050360  -0.016107
 345   8  -2.970963  -1.184646  -3.780818  -0.000657   0.068073  -0.009647
 346   8  -2.366971  -2.117487  -3.697460  -0.001585   0.151667  -0.010448
 347   8  -2.239475  -3.368862  -3.215969  -0.001486   0.151667  -0.009795
 348   8  -2.874894  -4.290138  -2.466621  -0.001446   0.151667  -0.009533
 349   8  -4.006052  -4.493941  -1.764497  -0.001306   0.151667  -0.008612
 350   8  -5.157324  -3.894577  -1.404823  -0.001355   0.151667  -0.008935
 351   8  -5.844630  -2.744064  -1.538833  -0.001587   0.151667  -0.010462
 352   8  -5.778977  -1.526163  -2.110178  -0.001807   0.151667  -0.011915
 353   3  -2.402185  -1.285375  -3.645238  -0.001789   0.148630  -0.012038
 354   3  -1.829654  -2.654914  -3.352726  -0.001531   0.148630  -0.010301
 355   3  -2.131223  -3.944877  -2.621943  -0.001240   0.148630  -0.008341
 356   3  -3.180088  -4.612867  -1.760164  -0.001233   0.148630  -0.008296
 357   3  -4.535229  -4.378012  -1.129745  -0.001164   0.148630  -0.007831
 358   3  -5.626844  -3.339062  -0.995762  -0.001352   0.148630  -0.009098
 359   3  -5.995937  -1.932869  -1.414551  -0.001672   0.148630  -0.011248
 360   3  -5.717434  -0.899156  -2.020112  -0.000942   0.083166  -0.011327
 361   9  -3.002645   0.849228   3.898576  -0.000134   0.008460  -0.015853
 362   3  -2.739377  -0.235307   3.807668  -0.000019   0.011933  -0.001632
 363  10  -5.485904   0.869088  -2.453757  -0.000162   0.008556  -0.018922
 364   3  -5.575691  -0.213112  -2.181173  -0.000047   0.012069  -0.003862
 365   5  -0.454090   2.385039  -3.199990   0.000145   0.175658   0.000826
 366   5  -0.777918   3.914784  -2.398486   0.001587   0.365480   0.004344
 367   5  -0.960378   4.976583  -0.557618   0.001036   0.365480   0.002835
 368   5  -0.815072   4.644297   1.544280   0.001558   0.365480   0.004263
 369   5  -0.409679   3.072695   2.928199   0.001232   0.365480   0.003372
 370   4  -1.254984   2.887265  -3.038458  -0.001193   0.377405  -0.003160
 371   4  -1.591874   4.563187  -1.617461  -0.001006   0.377405  -0.002667
 372   4  -1.612471   4.967605   0.568279  -0.001437   0.377405  -0.003806
 373   4  -1.307181   3.912152   2.500702  -0.000826   0.377405  -0.002189
 374   4  -0.921544   2.351104   3.358196  -0.000788   0.192149  -0.004101
 375   4  -5.320197   0.414520   2.526717  -0.000695   0.050359  -0.013811
 376   7  -5.226387  -0.315496   2.676950  -0.000817   0.050359  -0.016221
 377   9  -5.252054   0.644862   2.704250  -0.000649   0.050359  -0.012884
 378   7  -5.367816  -0.797912   2.752074  -0.000161   0.008566  -0.018798
 379   4  -5.456471   0.285479   2.483932  -0.000011   0.012083  -0.000920
 380   4  -3.032658   0.402094  -3.552335  -0.000673   0.050365  -0.013368
 381   8  -3.217594  -0.326041  -3.559061  -0.000718   0.050365  -0.014258
 382  10  -3.214416   0.634160  -3.600245  -0.000601   0.050365  -0.011935
 383   8  -3.202882  -0.809328  -3.715686  -0.000139   0.008436  -0.016421
 384   4  -2.920889   0.271538  -3.638327  -0.000023   0.011899  -0.001914
 385   9  -2.762685   1.221389   3.951984  -0.000628   0.068075  -0.009231
 386   9  -2.151081   2.146057   3.838424  -0.001586   0.151670  -0.010455
 387   9  -2.030831   3.395772   3.350769  -0.001482   0.151670  -0.009773
 388   9  -2.690232   4.325762   2.633577  -0.001427   0.151670  -0.009408
 389   9  -3.852022   4.544988   1.988410  -0.001285   0.151670  -0.008475
 390   9  -5.027695   3.961272   1.686545  -0.001366   0.151670  -0.009008
 391   9  -5.722910   2.820051   1.854909  -0.001611   0.151670  -0.010621
 392   9  -5.645345   1.601182   2.422709  -0.001799   0.151670  -0.011861
 393   4  -2.200031   1.314503   3.788292  -0.001710   0.148634  -0.011504
 394   4  -1.624360   2.676325   3.467249  -0.001522   0.148634  -0.010239
 395   4  -1.944469   3.970476   2.751898  -0.001280   0.148634  -0.008611
 396   4  -3.025760   4.652798   1.943027  -0.001278   0.148634  -0.008596
 397   4  -4.413576   4.436390   1.380748  -0.001139   0.148634  -0.007664
 398   4  -5.524375   3.412247   1.301485  -0.001328   0.148634  -0.008932
 399   4  -5.891091   2.010996   1.738566  -0.001683   0.148634  -0.011324
 400   4  -5.596782   0.973428   2.329908  -0.000829   0.083168  -0.009966
 401  10  -5.663989   1.244108  -2.290207  -0.000921   0.068051  -0.013528
 402  10  -5.913855   2.174251  -1.729860  -0.001615   0.151618  -0.010649
 403  10  -5.571189   3.421892  -1.356379  -0.001444   0.151618  -0.009527
 404  10  -4.594829   4.340366  -1.485389  -0.001338   0.151618  -0.008825
 405  10  -3.395244   4.543538  -2.062654  -0.001367   0.151618  -0.009018
 406  10  -2.476750   3.945993  -2.845486  -0.001457   0.151618  -0.009607
 407  10  -2.225490   2.798944  -3.504776  -0.001482   0.151618  -0.009776
 408  10  -2.747095   1.584620  -3.763354  -0.001689   0.151618  -0.011142
 409   4  -5.853991   1.342063  -1.736829  -0.001870   0.148581  -0.012587
 410   4  -5.908865   2.707584  -1.088223  -0.001516   0.148581  -0.010206
 411   4  -5.125729   3.993655  -0.943075  -0.001221   0.148581  -0.008219
 412   4  -3.833822   4.659602  -1.362406  -0.001157   0.148581  -0.007788
 413   4  -2.576271   4.425453  -2.169926  -0.001375   0.148581  -0.009255
 414   4  -1.881762   3.389649  -3.026146  -0.001389   0.148581  -0.009346
 415   4  -2.042272   1.987649  -3.571105  -0.001609   0.148581  -0.010830
 416   4  -2.706190   0.956935  -3.667194  -0.000967   0.083139  -0.011634
 417   6   3.588886   2.971769  -1.592085   0.002203   0.256244   0.008597
 418   6   3.778170   3.252424  -0.111763   0.005873   0.513630   0.011434
 419   6   3.662824   3.001192   1.381398   0.002205   0.256244   0.008605
 420   5   2.698130   3.674047  -1.016791   0.003066   0.513630   0.005969
 421   5   2.744234   3.692393   0.837306   0.003287   0.513630   0.006399
 422   9  -5.119459   0.724723   3.140112  -0.001922   0.276420  -0.006953
 423   9  -3.939867   0.706422   3.790086  -0.004833   0.553653  -0.008728
 424   7  -4.703666  -0.653491   3.422124  -0.005094   0.553653  -0.009200
 425   7  -3.464316  -0.672126   3.949289  -0.001755   0.276420  -0.006350
 426  10  -3.645977   0.718105  -3.743963  -0.001762   0.276432  -0.006376
 427  10  -4.857822   0.715970  -3.155910  -0.005102   0.553677  -0.009215
 428   8  -4.131555  -0.653974  -3.560866  -0.004846   0.553677  -0.008752
 429   8  -5.277616  -0.656618  -2.853112  -0.001940   0.276432  -0.007019
 =====================================================

              1657478  WORDS OF DYNAMIC MEMORY USED
 EXECUTION OF GAMESS TERMINATED NORMALLY Thu Nov 24 00:57:18 2016
 DDI: 263640 bytes (0.3 MB / 0 MWords) used by master data server.

 ----------------------------------------
 CPU timing information for all processes
 ========================================
 0: 180.916 + 0.68 = 180.984
 ----------------------------------------
 ddikick.x: exited gracefully.
