----- GAMESS execution script -----

          ******************************************************
          *         GAMESS VERSION =  5 DEC 2014 (R1)          *
          *             FROM IOWA STATE UNIVERSITY             *
          * M.W.SCHMIDT, K.K.BALDRIDGE, J.A.BOATZ, S.T.ELBERT, *
          *   M.S.GORDON, J.H.JENSEN, S.KOSEKI, N.MATSUNAGA,   *
          *          K.A.NGUYEN, S.J.SU, T.L.WINDUS,           *
          *       TOGETHER WITH M.DUPUIS, J.A.MONTGOMERY       *
          *         J.COMPUT.CHEM.  14, 1347-1363(1993)        *
          **************** 64 BIT LINUX VERSION ****************

 EXECUTION OF GAMESS BEGUN Thu Nov 24 04:21:06 2016

            ECHO OF THE FIRST FEW INPUT CARDS -
 INPUT CARD>! SELECT RESTRICTED HARTREE-FOCK AS DEFAULT                                     
 INPUT CARD>$contrl scftyp=rhf $end                                                         
 INPUT CARD>                                                                                
 INPUT CARD>! THEORY: HF OR DFT                                                             
 INPUT CARD> $contrl mplevl=0 $end                                                          
 INPUT CARD>                                                                                
 INPUT CARD> $system timlim=10000 mwords=20 $end                                            
 INPUT CARD> $SCF DIRSCF=.TRUE. $end                                                        
 INPUT CARD>                                                                                
 INPUT CARD>                                                                                
 INPUT CARD>! BASIS SETS                                                                    
 INPUT CARD>! 6-311G(d,p)                                                                   
 INPUT CARD> $BASIS GBASIS=N311 NGAUSS=6 NDFUNC=1 NPFUNC=1 $END                             
 INPUT CARD>                                                                                
 INPUT CARD>! One of the following                                                          
 INPUT CARD> $guess guess=HUCKEL $end                                                       
 INPUT CARD>                                                                                
 INPUT CARD> $statpt projct=.FALSE. $end                                                    
 INPUT CARD> $STATPT IFREEZ(1)=1,2,3 $END                                                   
 INPUT CARD>                                                                                
 INPUT CARD>! Optimize the geometry with COSMO effects                                      
 INPUT CARD> $statpt opttol=0.0005 nstep=50 $end                                            
 INPUT CARD> $contrl nzvar=1 $end                                                           
 INPUT CARD> $zmat dlc=.t. auto=.t. $end                                                    
 INPUT CARD> $contrl runtyp=OPTIMIZE maxit=200 $end                                         
 INPUT CARD>                                                                                
 INPUT CARD>! Run COSMO on perfect conductor                                                
 INPUT CARD> $COSGMS PRFCND=.TRUE. $end                                                     
 INPUT CARD>                                                                                
 INPUT CARD>! Specifying RSOLV                                                              
 INPUT CARD> $COSGMS COSRAD = 1.4 $end                                                      
 INPUT CARD>                                                                                
 INPUT CARD>! available memory                                                              
 INPUT CARD> $SYSTEM MWORDS=40 $END                                                         
 INPUT CARD>                                                                                
 INPUT CARD> $DATA                                                                          
 INPUT CARD>                                                                                
 INPUT CARD>C1                                                                              
 INPUT CARD>O      8.0      2.1242000000    1.2772000000    0.8603000000                    
 INPUT CARD>C      6.0      1.0029000000    1.0728000000   -0.0106000000                    
 INPUT CARD>C      6.0      3.3990000000    1.4862000000    0.2615000000                    
 INPUT CARD>C      6.0      1.1843000000   -0.1710000000   -0.8878000000                    
 INPUT CARD>C      6.0      0.7268000000    2.3187000000   -0.8620000000                    
 INPUT CARD>C      6.0     -0.1941000000    0.8453000000    0.9248000000                    
 INPUT CARD>C      6.0      4.3025000000    0.3095000000    0.5805000000                    
 INPUT CARD>H      1.0      3.8214000000    2.3919000000    0.7104000000                    
 INPUT CARD>H      1.0      3.3486000000    1.6463000000   -0.8176000000                    
 INPUT CARD>H      1.0      2.0082000000   -0.0494000000   -1.5986000000                    
 INPUT CARD>H      1.0      0.2789000000   -0.3891000000   -1.4641000000                    
 INPUT CARD>H      1.0      1.4236000000   -1.0473000000   -0.2750000000                    
   40000000 WORDS OF MEMORY AVAILABLE

     BASIS OPTIONS
     -------------
     GBASIS=N311         IGAUSS=       6      POLAR=POPN311 
     NDFUNC=       1     NFFUNC=       0     DIFFSP=       F
     NPFUNC=       1      DIFFS=       F     BASNAM=        


     RUN TITLE
     ---------
                                                                                 

 THE POINT GROUP OF THE MOLECULE IS C1      
 THE ORDER OF THE PRINCIPAL AXIS IS     0

 ATOM      ATOMIC                      COORDINATES (BOHR)
           CHARGE         X                   Y                   Z
 O           8.0     4.0141559431        2.4135580315        1.6257312672
 C           6.0     1.8952061931        2.0272980396       -0.0200310955
 C           6.0     6.4231786323        2.8085107630        0.4941633458
 C           6.0     2.2380024873       -0.3231431439       -1.6776987319
 C           6.0     1.3734528479        4.3817076477       -1.6289438014
 C           6.0    -0.3667958142        1.5973853774        1.7476185934
 C           6.0     8.1305460622        0.5848701932        1.0969859359
 H           1.0     7.2213988895        4.5200355900        1.3424613417
 H           1.0     6.3279364425        3.1110558936       -1.5450399676
 H           1.0     3.7949477285       -0.0933524638       -3.0209159640
 H           1.0     0.5270445780       -0.7352923818       -2.7667478186
 H           1.0     2.6902139161       -1.9791100269       -0.5196746466
 H           1.0     2.8517854881        4.6950242165       -3.0413250046
 H           1.0     1.3120367533        6.0807602833       -0.4469201961
 H           1.0    -0.4240545116        4.2191912128       -2.6425928212
 H           1.0    -0.0368496568       -0.0323143144        2.9831214442
 H           1.0    -2.1176269418        1.2732973705        0.6925845745
 H           1.0    -0.6474201234        3.2280299322        2.9942708275
 H           1.0     8.2261661972        0.2658844465        3.1380789752
 H           1.0    10.0416259536        0.9144384055        0.3813467043
 H           1.0     7.4024346391       -1.1553784689        0.2490658852

          INTERNUCLEAR DISTANCES (ANGS.)




     $CONTRL OPTIONS
     ---------------
 SCFTYP=RHF          RUNTYP=OPTIMIZE     EXETYP=RUN     
 MPLEVL=       0     CITYP =NONE         CCTYP =NONE         VBTYP =NONE    
 DFTTYP=NONE         TDDFT =NONE    
 MULT  =       1     ICHARG=       0     NZVAR =       1     COORD =UNIQUE  
 PP    =NONE         RELWFN=NONE         LOCAL =NONE         NUMGRD=       F
 ISPHER=      -1     NOSYM =       0     MAXIT =     200     UNITS =ANGS    
 PLTORB=       F     MOLPLT=       F     AIMPAC=       F     FRIEND=        
 NPRINT=       7     IREST =       0     GEOM  =INPUT   
 NORMF =       0     NORMP =       0     ITOL  =      20     ICUT  =       9
 INTTYP=BEST         GRDTYP=BEST         QMTTOL= 1.0E-06

     $SYSTEM OPTIONS
     ---------------
  REPLICATED MEMORY=    40000000 WORDS (ON EVERY NODE).
 DISTRIBUTED MEMDDI=           0 MILLION WORDS IN AGGREGATE,
 MEMDDI DISTRIBUTED OVER   1 PROCESSORS IS           0 WORDS/PROCESSOR.
 TOTAL MEMORY REQUESTED ON EACH PROCESSOR=    40000000 WORDS.
 TIMLIM=       10000.00 MINUTES, OR       6.9 DAYS.
 PARALL= F  BALTYP=  DLB     KDIAG=    0  COREFL= F
 MXSEQ2=     300 MXSEQ3=     150  mem10=         0

     $COSGMS OPTIONS
     ---------------
     EPSI  =   INFTY     NSPA  =      92     COSRAD=    1.40
     DISEX =   10.00     OUTCHG=DBLCAV       COSBUG=       F
     COSWRT=       F     DCOSMO=       F

     SYMMETRY COORDINATES WILL NOT BE USED FOR 
     THE COSMO CALCULATION, EVEN IF SPECIFIED:
         -- SWITCHING TO C1 POINT GROUP --


     DEFINITION OF CAVITY
     ---------------------------
     ATOM         COORDINATES           RADIUS 
     1    4.0142    2.4136    1.6257    1.7200
     2    1.8952    2.0273   -0.0200    2.0000
     3    6.4232    2.8085    0.4942    2.0000
     4    2.2380   -0.3231   -1.6777    2.0000
     5    1.3735    4.3817   -1.6289    2.0000
     6   -0.3668    1.5974    1.7476    2.0000
     7    8.1305    0.5849    1.0970    2.0000
     8    7.2214    4.5200    1.3425    1.3000
     9    6.3279    3.1111   -1.5450    1.3000
    10    3.7949   -0.0934   -3.0209    1.3000
    11    0.5270   -0.7353   -2.7667    1.3000
    12    2.6902   -1.9791   -0.5197    1.3000
    13    2.8518    4.6950   -3.0413    1.3000
    14    1.3120    6.0808   -0.4469    1.3000
    15   -0.4241    4.2192   -2.6426    1.3000
    16   -0.0368   -0.0323    2.9831    1.3000
    17   -2.1176    1.2733    0.6926    1.3000
    18   -0.6474    3.2280    2.9943    1.3000
    19    8.2262    0.2659    3.1381    1.3000
    20   10.0416    0.9144    0.3813    1.3000
    21    7.4024   -1.1554    0.2491    1.3000

          ----------------
          PROPERTIES INPUT
          ----------------

     MOMENTS            FIELD           POTENTIAL          DENSITY
 IEMOM =       1   IEFLD =       0   IEPOT =       0   IEDEN =       0
 WHERE =COMASS     WHERE =NUCLEI     WHERE =NUCLEI     WHERE =NUCLEI  
 OUTPUT=BOTH       OUTPUT=BOTH       OUTPUT=BOTH       OUTPUT=BOTH    
 IEMINT=       0   IEFINT=       0                     IEDINT=       0
                                                       MORB  =       0
          EXTRAPOLATION IN EFFECT
          SOSCF IN EFFECT
 ORBITAL PRINTING OPTION: NPREO=     1   217     2     1

     -------------------------------
     INTEGRAL TRANSFORMATION OPTIONS
     -------------------------------
     NWORD  =            0
     CUTOFF = 1.0E-09     MPTRAN =       0
     DIRTRF =       T     AOINTS =DUP     

          ----------------------
          INTEGRAL INPUT OPTIONS
          ----------------------
 NOPK  =       1 NORDER=       0 SCHWRZ=       T


 -----------------------------------------------
  STATISTICS ON AUTOMATIC COORDINATE GENERATION 
 -----------------------------------------------
  NUMBER OF USER SPECIFIED BONDS                             0
  NUMBER OF BONDS                                           20
  NUMBER OF ANGLES                                          37
  NUMBER OF TORSIONS                                        42
  NUMBER OF EXTRA COORD.                                     0
  NUMBER OF EXTRA COORD. FOR CONSTRAINTS                     0
  NUMBER OF CONSTRAINED COORD.                               0

  TOTAL NUMBER OF PRIMITIVES                                99
 -----------------------------------------------

   --- ENCODED Z MATRIX ---
 COORD  TYPE   I   J   K   L   M   N
    1      1    1   2
    2      1    1   3
    3      1    2   4
    4      1    2   6
    5      1    2   5
    6      1    3   7
    7      1    3   8
    8      1    3   9
    9      1    4  12
   10      1    4  11
   11      1    4  10
   12      1    5  15
   13      1    5  14
   14      1    5  13
   15      1    6  16
   16      1    6  18
   17      1    6  17
   18      1    7  21
   19      1    7  20
   20      1    7  19
   21      2    1   2   4
   22      2    1   3   9
   23      2    1   2   5
   24      2    1   3   7
   25      2    1   2   6
   26      2    1   3   8
   27      2    2   6  16
   28      2    2   4  10
   29      2    2   4  12
   30      2    2   1   3
   31      2    2   5  14
   32      2    2   4  11
   33      2    2   5  13
   34      2    2   6  18
   35      2    2   6  17
   36      2    2   5  15
   37      2    3   7  19
   38      2    3   7  20
   39      2    3   7  21
   40      2    4   2   5
   41      2    4   2   6
   42      2    5   2   6
   43      2    7   3   9
   44      2    7   3   8
   45      2    8   3   9
   46      2   10   4  11
   47      2   10   4  12
   48      2   11   4  12
   49      2   13   5  14
   50      2   13   5  15
   51      2   14   5  15
   52      2   16   6  17
   53      2   16   6  18
   54      2   17   6  18
   55      2   19   7  20
   56      2   19   7  21
   57      2   20   7  21
   58      3    1   2   6  16
   59      3    1   2   5  15
   60      3    1   3   7  19
   61      3    1   2   4  11
   62      3    1   3   7  20
   63      3    1   3   7  21
   64      3    1   2   4  10
   65      3    1   2   4  12
   66      3    1   2   5  13
   67      3    1   2   6  17
   68      3    1   2   5  14
   69      3    1   2   6  18
   70      3    2   1   3   7
   71      3    2   1   3   9
   72      3    2   1   3   8
   73      3    3   1   2   4
   74      3    3   1   2   6
   75      3    3   1   2   5
   76      3    4   2   5  15
   77      3    4   2   6  17
   78      3    4   2   6  18
   79      3    4   2   5  13
   80      3    4   2   6  16
   81      3    4   2   5  14
   82      3    5   2   4  12
   83      3    5   2   6  17
   84      3    5   2   4  10
   85      3    5   2   6  18
   86      3    5   2   6  16
   87      3    5   2   4  11
   88      3    6   2   4  12
   89      3    6   2   5  15
   90      3    6   2   4  10
   91      3    6   2   5  13
   92      3    6   2   4  11
   93      3    6   2   5  14
   94      3    8   3   7  21
   95      3    8   3   7  20
   96      3    8   3   7  19
   97      3    9   3   7  21
   98      3    9   3   7  20
   99      3    9   3   7  19

          INDEP./SYM. INTERNAL COORDINATES
          --------------------------------
 CRD  1=   0.1551 (  1)  0.1443 ( 21) -0.1479 ( 24) -0.1804 ( 25)  0.7999 ( 30)
          -0.1284 ( 40)  0.1090 ( 59) -0.1055 ( 64)  0.1165 ( 66) -0.1805 ( 70)
          -0.1061 ( 71) -0.1014 ( 73)
 CRD  2=   0.1716 (  1)  0.1730 (  2)  0.1399 ( 21) -0.1870 ( 22) -0.1459 ( 23)
           0.6008 ( 24) -0.2091 ( 26)  0.1594 ( 30) -0.1037 ( 38) -0.1161 ( 41)
          -0.1147 ( 43) -0.1742 ( 44) -0.1118 ( 70) -0.1090 ( 72)  0.2766 ( 73)
           0.2426 ( 74)  0.2469 ( 75)
 CRD  3=   0.1995 ( 21) -0.2665 ( 23)  0.1059 ( 26) -0.2505 ( 30) -0.1259 ( 37)
           0.1001 ( 39) -0.1830 ( 41)  0.1541 ( 42)  0.1830 ( 43) -0.1398 ( 44)
          -0.1474 ( 58) -0.1121 ( 67) -0.1391 ( 69) -0.4348 ( 70) -0.3021 ( 71)
          -0.2871 ( 72) -0.1549 ( 73) -0.2390 ( 74) -0.1600 ( 75) -0.1060 ( 84)
 CRD  4=  -0.1768 (  1) -0.2150 (  2) -0.2105 (  6)  0.2542 ( 21) -0.1414 ( 23)
          -0.2042 ( 24) -0.1621 ( 25) -0.1461 ( 33) -0.1231 ( 39) -0.1490 ( 40)
          -0.1539 ( 41)  0.3586 ( 42)  0.1487 ( 44)  0.1078 ( 68) -0.1026 ( 69)
           0.1922 ( 70)  0.1301 ( 71)  0.1285 ( 72)  0.2372 ( 73)  0.3487 ( 75)
          -0.1346 ( 84) -0.1282 ( 87)  0.1611 ( 88)  0.1189 ( 90)  0.1253 ( 92)
 CRD  5=  -0.1575 (  2) -0.1505 ( 22)  0.1821 ( 23)  0.2153 ( 24) -0.2430 ( 25)
          -0.1735 ( 28)  0.1634 ( 29) -0.2154 ( 30)  0.1058 ( 31)  0.1157 ( 35)
          -0.4045 ( 40)  0.3479 ( 41) -0.1132 ( 70) -0.1123 ( 72) -0.2519 ( 73)
           0.1016 ( 78)  0.1308 ( 79)  0.1570 ( 80)  0.1038 ( 81) -0.1424 ( 83)
          -0.1386 ( 85) -0.1665 ( 89)  0.1021 ( 92) -0.1252 ( 93)
 CRD  6=  -0.1547 (  1) -0.1475 (  2)  0.3493 (  3) -0.1370 (  4) -0.2443 (  5)
          -0.1703 (  6)  0.1422 ( 27) -0.2149 ( 31) -0.2464 ( 34)  0.1252 ( 40)
           0.2098 ( 41) -0.2732 ( 42)  0.1442 ( 59) -0.1864 ( 67) -0.1003 ( 69)
           0.3272 ( 74)  0.1309 ( 85)  0.1476 ( 86) -0.1514 ( 91) -0.1324 ( 93)
 CRD  7=  -0.1726 (  1) -0.3243 (  2) -0.3278 (  4)  0.3839 (  5) -0.1259 ( 22)
           0.2116 ( 24) -0.1582 ( 25) -0.1243 ( 26) -0.2129 ( 27)  0.1006 ( 28)
          -0.1322 ( 29)  0.1677 ( 33) -0.1082 ( 34)  0.1036 ( 36) -0.1349 ( 38)
           0.1179 ( 39)  0.1245 ( 40) -0.1178 ( 50)  0.1110 ( 53) -0.1639 ( 61)
          -0.1281 ( 65) -0.1068 ( 75) -0.1414 ( 78)  0.1111 ( 88)  0.1426 ( 90)
 CRD  8=  -0.3451 (  3) -0.5159 (  4) -0.3311 (  5) -0.2501 ( 32) -0.2522 ( 35)
          -0.2510 ( 36)  0.1061 ( 46)  0.1129 ( 48)  0.1046 ( 50)  0.1077 ( 51)
           0.1532 ( 52)  0.1122 ( 53)  0.1527 ( 54) -0.1336 ( 81)  0.1352 ( 82)
 CRD  9=  -0.3165 (  1) -0.4180 (  3) -0.2033 (  5) -0.1134 ( 21)  0.1483 ( 22)
          -0.1731 ( 26) -0.2234 ( 28) -0.2363 ( 29)  0.1549 ( 30) -0.1584 ( 31)
           0.1268 ( 32) -0.1426 ( 33)  0.1351 ( 35)  0.1384 ( 36) -0.1674 ( 37)
           0.1916 ( 39)  0.1794 ( 47)  0.1109 ( 49)  0.1659 ( 60)  0.2107 ( 62)
           0.1752 ( 63)  0.1239 ( 81) -0.1109 ( 82)
 CRD 10=  -0.1717 (  1)  0.1597 (  4)  0.1985 (  5) -0.4473 (  6)  0.1262 ( 22)
           0.2123 ( 27)  0.1775 ( 31) -0.1729 ( 32)  0.1957 ( 33)  0.1245 ( 34)
          -0.1957 ( 35) -0.2047 ( 36) -0.2303 ( 37) -0.2857 ( 38)  0.1381 ( 39)
          -0.1514 ( 44) -0.1533 ( 49) -0.1347 ( 53)  0.2294 ( 55)  0.1200 ( 62)
           0.1029 ( 72)
 CRD 11=  -0.2240 (  1) -0.1127 (  2)  0.1129 (  4)  0.4478 (  6) -0.1902 ( 26)
           0.2089 ( 27)  0.1275 ( 28)  0.1057 ( 31) -0.1997 ( 32) -0.1710 ( 35)
          -0.1166 ( 36) -0.1402 ( 37)  0.2961 ( 38)  0.2292 ( 39)  0.1959 ( 43)
           0.2073 ( 44) -0.1189 ( 45) -0.1121 ( 53) -0.2335 ( 57)  0.1162 ( 60)
           0.1273 ( 62)  0.1571 ( 71) -0.1302 ( 72)
 CRD 12=  -0.2247 (  4)  0.2942 (  5) -0.1090 ( 11)  0.3014 ( 27) -0.3846 ( 28)
           0.3246 ( 29) -0.1550 ( 33) -0.2397 ( 34) -0.2522 ( 35)  0.3592 ( 36)
           0.1781 ( 46) -0.1203 ( 48) -0.1045 ( 50) -0.1850 ( 51)  0.2192 ( 54)
 CRD 13=   0.2740 (  3) -0.1901 (  4) -0.2011 ( 27) -0.1263 ( 28)  0.3489 ( 31)
           0.3483 ( 32) -0.3608 ( 33)  0.3033 ( 34) -0.2618 ( 35) -0.1622 ( 37)
           0.1687 ( 39) -0.1077 ( 46) -0.1645 ( 48)  0.1813 ( 50) -0.1136 ( 51)
           0.2049 ( 52)
 CRD 14=  -0.1840 (  1) -0.1010 (  2)  0.1086 ( 16)  0.1449 ( 22) -0.1700 ( 26)
           0.1560 ( 29) -0.1915 ( 31)  0.3839 ( 34) -0.2585 ( 35)  0.4183 ( 37)
          -0.2081 ( 38) -0.1428 ( 39) -0.2360 ( 43)  0.2302 ( 44)  0.1363 ( 52)
          -0.1287 ( 53) -0.1156 ( 56)  0.1278 ( 57) -0.1346 ( 71) -0.1662 ( 72)
 CRD 15=   0.1441 (  9) -0.1199 ( 15) -0.4252 ( 27) -0.2889 ( 28)  0.4720 ( 29)
          -0.1625 ( 31) -0.1580 ( 32)  0.2392 ( 33)  0.1578 ( 34)  0.2176 ( 35)
          -0.2023 ( 37)  0.1952 ( 46) -0.1433 ( 48)  0.1116 ( 53) -0.1603 ( 54)
 CRD 16=  -0.1328 ( 10)  0.1121 ( 11)  0.1056 ( 12) -0.1346 ( 14) -0.1083 ( 27)
           0.3701 ( 28)  0.1238 ( 29) -0.4310 ( 32) -0.4056 ( 33)  0.1083 ( 35)
           0.3403 ( 36) -0.1357 ( 38)  0.1937 ( 39) -0.2133 ( 47)  0.1317 ( 48)
           0.1659 ( 49) -0.1625 ( 51)
 CRD 17=  -0.1369 (  1) -0.1032 ( 12)  0.1581 ( 13)  0.1565 ( 22) -0.1404 ( 26)
           0.1351 ( 29)  0.4492 ( 31) -0.1259 ( 33) -0.2549 ( 34)  0.2913 ( 35)
          -0.2987 ( 36)  0.1666 ( 37) -0.1918 ( 39) -0.1978 ( 43)  0.1668 ( 44)
          -0.1460 ( 49)  0.1950 ( 50)  0.1407 ( 53) -0.1607 ( 71) -0.1614 ( 72)
 CRD 18=  -0.1836 (  6) -0.1504 (  7) -0.1228 ( 18)  0.1779 ( 19)  0.1859 ( 24)
          -0.1371 ( 26)  0.1400 ( 28)  0.1518 ( 34)  0.1157 ( 36) -0.2482 ( 37)
           0.4942 ( 38) -0.4383 ( 39) -0.1176 ( 43)  0.1145 ( 45) -0.1017 ( 55)
           0.3109 ( 56) -0.1137 ( 71)
 CRD 19=  -0.1332 (  2) -0.2101 (  7)  0.2188 (  8) -0.1398 ( 18)  0.1652 ( 20)
          -0.1859 ( 22)  0.1353 ( 26) -0.1074 ( 32)  0.2713 ( 37) -0.2463 ( 39)
           0.4199 ( 43) -0.2898 ( 44) -0.1392 ( 55)  0.1654 ( 57) -0.2004 ( 70)
           0.1642 ( 71)  0.1027 ( 72)  0.1119 ( 74)  0.1006 ( 76)  0.1118 ( 79)
           0.1110 ( 81)
 CRD 20=   0.3508 (  2)  0.3099 (  8)  0.1079 ( 15)  0.1199 ( 16) -0.1399 ( 17)
           0.1222 ( 22) -0.1159 ( 30) -0.1097 ( 35)  0.1104 ( 37) -0.1010 ( 44)
          -0.1159 ( 59)  0.1482 ( 61)  0.1063 ( 62)  0.1485 ( 64)  0.1665 ( 65)
          -0.1026 ( 66) -0.1352 ( 68) -0.1310 ( 76) -0.1177 ( 79) -0.1503 ( 81)
           0.1894 ( 82)  0.1714 ( 84)  0.1711 ( 87)  0.2189 ( 88) -0.1767 ( 89)
           0.2009 ( 90) -0.1634 ( 91)  0.2006 ( 92) -0.1960 ( 93)
 CRD 21=   0.1481 (  1)  0.2136 (  7)  0.1001 (  9) -0.1412 ( 13) -0.1142 ( 24)
           0.1082 ( 36)  0.2431 ( 44) -0.1064 ( 45) -0.2100 ( 58)  0.1176 ( 64)
           0.1270 ( 66) -0.2046 ( 67) -0.2018 ( 69) -0.1160 ( 71) -0.2411 ( 72)
           0.1531 ( 74) -0.1785 ( 77) -0.1757 ( 78)  0.1289 ( 79) -0.1839 ( 80)
           0.1058 ( 82) -0.2097 ( 83)  0.1378 ( 84) -0.2069 ( 85) -0.2151 ( 86)
           0.1159 ( 87)  0.1185 ( 91)
 CRD 22=  -0.1759 ( 58) -0.2058 ( 59) -0.2049 ( 61) -0.1805 ( 64) -0.1816 ( 65)
          -0.1816 ( 66) -0.1956 ( 67) -0.1818 ( 68) -0.1763 ( 69) -0.2064 ( 76)
          -0.1935 ( 77) -0.1741 ( 78) -0.1822 ( 79) -0.1737 ( 80) -0.1824 ( 81)
          -0.1833 ( 82) -0.1930 ( 83) -0.1822 ( 84) -0.1737 ( 85) -0.1733 ( 86)
          -0.2066 ( 87) -0.1826 ( 88) -0.2070 ( 89) -0.1815 ( 90) -0.1828 ( 91)
          -0.2058 ( 92) -0.1831 ( 93)
 CRD 23=   0.2745 (  9)  0.3750 ( 10)  0.3181 ( 11) -0.3909 ( 12) -0.2949 ( 13)
          -0.3410 ( 14) -0.1248 ( 28) -0.1588 ( 29)  0.1646 ( 31) -0.1164 ( 32)
           0.1323 ( 33)  0.1275 ( 36)  0.1209 ( 46)  0.1597 ( 47)  0.1457 ( 48)
          -0.1664 ( 49) -0.1317 ( 50) -0.1548 ( 51)
 CRD 24=   0.1015 (  4) -0.2178 (  9) -0.2269 ( 10) -0.1637 ( 11) -0.2131 ( 12)
          -0.2021 ( 13) -0.1489 ( 14)  0.3682 ( 15)  0.3678 ( 16)  0.4413 ( 17)
          -0.1678 ( 27)  0.1147 ( 28)  0.1096 ( 33) -0.1688 ( 34) -0.1442 ( 35)
          -0.1064 ( 46)  0.1628 ( 52)  0.1838 ( 53)  0.1634 ( 54)
 CRD 25=   0.1421 (  6) -0.1397 (  9) -0.1010 ( 10) -0.1398 ( 11)  0.4654 ( 18)
           0.4498 ( 19)  0.4736 ( 20) -0.1660 ( 37) -0.1937 ( 38) -0.1719 ( 39)
           0.1889 ( 55)  0.1740 ( 56)  0.1945 ( 57)
 CRD 26=  -0.2746 (  9) -0.2577 ( 10) -0.2776 ( 11) -0.2563 ( 12) -0.2789 ( 13)
          -0.2790 ( 14) -0.2830 ( 15) -0.2833 ( 16) -0.2643 ( 17) -0.1620 ( 18)
          -0.1560 ( 19) -0.1590 ( 20)  0.1136 ( 32)  0.1171 ( 35)  0.1144 ( 36)
          -0.1139 ( 46) -0.1107 ( 48) -0.1157 ( 50) -0.1106 ( 51) -0.1158 ( 52)
          -0.1155 ( 54)
 CRD 27=   0.1069 (  1) -0.6131 (  7) -0.5304 (  8)  0.1514 ( 43)  0.1628 ( 44)
          -0.2952 ( 45)  0.1669 ( 71) -0.1756 ( 72)  0.1056 ( 96) -0.1082 ( 97)
 CRD 28=  -0.1468 (  9) -0.1405 ( 10)  0.2925 ( 11)  0.1192 ( 12)  0.1022 ( 13)
          -0.2568 ( 14) -0.1232 ( 15)  0.1864 ( 16)  0.3947 ( 18) -0.4246 ( 20)
          -0.1549 ( 48)  0.1320 ( 51) -0.1009 ( 52) -0.2037 ( 55)  0.2188 ( 57)
           0.1500 ( 62)  0.1666 ( 95)  0.1548 ( 98)
 CRD 29=  -0.1073 ( 10)  0.1672 ( 11)  0.1271 ( 12)  0.1494 ( 13) -0.2806 ( 14)
          -0.3538 ( 15)  0.2971 ( 16) -0.3579 ( 18)  0.3251 ( 20)  0.1521 ( 51)
          -0.1660 ( 52)  0.1881 ( 54)  0.1856 ( 55) -0.1691 ( 57) -0.1270 ( 62)
           0.1268 ( 67)  0.1201 ( 77)  0.1128 ( 83) -0.1317 ( 95) -0.1304 ( 98)
 CRD 30=   0.1689 (  9) -0.2218 ( 11) -0.2498 ( 13)  0.3275 ( 14) -0.3973 ( 15)
           0.4202 ( 16)  0.1205 ( 18)  0.1154 ( 48)  0.1319 ( 50) -0.1740 ( 51)
          -0.2152 ( 52)  0.2049 ( 54)  0.1259 ( 59)  0.1747 ( 67)  0.1251 ( 76)
           0.1673 ( 77)  0.1698 ( 83)  0.1296 ( 89)
 CRD 31=   0.4032 (  9) -0.4289 ( 11)  0.3153 ( 13) -0.3243 ( 14)  0.1376 ( 17)
           0.1004 ( 18) -0.1088 ( 20) -0.2153 ( 46)  0.2334 ( 48) -0.1657 ( 50)
           0.1785 ( 51) -0.1210 ( 59)  0.1626 ( 61) -0.1015 ( 76) -0.1076 ( 82)
           0.1434 ( 87) -0.1165 ( 89)  0.1544 ( 92)
 CRD 32=   0.1589 (  9) -0.2018 ( 10)  0.1027 ( 14) -0.2874 ( 18)  0.6115 ( 19)
          -0.2804 ( 20)  0.1488 ( 55) -0.3071 ( 56)  0.1433 ( 57)  0.1566 ( 60)
          -0.1698 ( 63) -0.1677 ( 94)  0.1587 ( 96) -0.1488 ( 97)  0.1776 ( 99)
 CRD 33=   0.1831 (  9) -0.4003 ( 10)  0.2243 ( 11) -0.3340 ( 12)  0.1681 ( 13)
           0.1730 ( 14) -0.1286 ( 15) -0.1437 ( 16)  0.2475 ( 17)  0.1172 ( 18)
          -0.2134 ( 19) -0.1034 ( 46)  0.2255 ( 47) -0.1220 ( 48)  0.1872 ( 49)
          -0.1419 ( 53)  0.1079 ( 56) -0.1079 ( 64)  0.1353 ( 65) -0.1141 ( 68)
          -0.1346 ( 81)  0.1539 ( 82)  0.1421 ( 88) -0.1012 ( 90) -0.1223 ( 93)
 CRD 34=  -0.3389 (  9)  0.3536 ( 10) -0.2894 ( 15) -0.1862 ( 16)  0.4605 ( 17)
           0.1739 ( 46) -0.1888 ( 47)  0.1041 ( 52) -0.2538 ( 53)  0.1482 ( 54)
           0.1207 ( 58)  0.1391 ( 64) -0.1550 ( 69) -0.1708 ( 78)  0.1049 ( 80)
           0.1470 ( 84) -0.1599 ( 85)  0.1158 ( 86)  0.1587 ( 90)
 CRD 35=  -0.1506 (  9)  0.1600 ( 10) -0.4647 ( 12)  0.4229 ( 13)  0.2087 ( 16)
          -0.2848 ( 17)  0.2589 ( 49) -0.2263 ( 50) -0.1097 ( 52)  0.1612 ( 53)
          -0.1139 ( 58)  0.1834 ( 66)  0.1889 ( 79) -0.1204 ( 80) -0.1376 ( 86)
           0.2016 ( 91)
 CRD 36=  -0.3571 (  1)  0.1122 (  2) -0.1303 (  5)  0.2047 (  7) -0.4849 (  8)
          -0.1277 ( 12)  0.1174 ( 20) -0.1545 ( 22)  0.2274 ( 26)  0.1371 ( 30)
          -0.1570 ( 44) -0.1123 ( 77) -0.1657 ( 78)  0.1566 ( 90)  0.1170 ( 92)
           0.2153 ( 94)  0.1510 ( 95)  0.1723 ( 96)  0.1164 ( 97)
 CRD 37=   0.1876 (  2)  0.1715 (  3)  0.1060 (  6) -0.4223 (  7)  0.1499 (  8)
           0.1345 (  9)  0.1397 ( 11) -0.1517 ( 13) -0.1637 ( 16)  0.1651 ( 22)
          -0.1058 ( 31) -0.1108 ( 34)  0.1185 ( 42) -0.1535 ( 43) -0.1383 ( 47)
           0.1080 ( 66)  0.1562 ( 72) -0.1468 ( 74)  0.1001 ( 76)  0.1235 ( 79)
          -0.1223 ( 80)  0.1151 ( 81) -0.1093 ( 85) -0.1337 ( 86)  0.1072 ( 89)
           0.1305 ( 91)  0.1221 ( 93) -0.1660 ( 97) -0.1813 ( 98) -0.2043 ( 99)
 CRD 38=  -0.4189 (  2)  0.1670 (  4) -0.1569 (  5)  0.1169 (  9) -0.1207 ( 11)
          -0.2026 ( 14)  0.1978 ( 15) -0.1277 ( 26)  0.1305 ( 27)  0.1208 ( 30)
          -0.1326 ( 33) -0.1206 ( 41)  0.1564 ( 45)  0.1416 ( 49) -0.1102 ( 52)
          -0.1109 ( 53)  0.1011 ( 65) -0.1142 ( 68) -0.1235 ( 74) -0.1070 ( 75)
          -0.1043 ( 76) -0.1047 ( 78) -0.1588 ( 81)  0.1604 ( 82)  0.1411 ( 84)
           0.1138 ( 87)  0.1339 ( 88)  0.1146 ( 90) -0.2069 ( 94) -0.2074 ( 95)
          -0.1977 ( 96)
 CRD 39=  -0.2175 (  1)  0.1542 (  2) -0.1263 (  3) -0.1296 ( 10)  0.1314 ( 13)
           0.1120 ( 16)  0.1139 ( 30) -0.1021 ( 49) -0.2763 ( 60) -0.2772 ( 62)
          -0.2712 ( 63)  0.1391 ( 74)  0.1469 ( 86) -0.1346 ( 91) -0.2060 ( 94)
          -0.2119 ( 95) -0.2111 ( 96) -0.2843 ( 97) -0.2903 ( 98) -0.2895 ( 99)
 CRD 40=  -0.1853 (  2) -0.1512 (  7) -0.1416 (  9) -0.1148 ( 11)  0.1256 ( 12)
           0.1300 ( 13)  0.1079 ( 16)  0.2078 ( 18)  0.2392 ( 19)  0.1836 ( 20)
           0.1023 ( 21)  0.1665 ( 22)  0.1378 ( 26) -0.1047 ( 29)  0.1062 ( 31)
           0.1007 ( 36)  0.1876 ( 37)  0.2083 ( 38)  0.1977 ( 39) -0.1948 ( 43)
          -0.1799 ( 44)  0.1457 ( 45)  0.1455 ( 47) -0.1453 ( 51) -0.1232 ( 54)
          -0.2138 ( 55) -0.1776 ( 56) -0.2306 ( 57) -0.1255 ( 67) -0.1463 ( 71)
           0.2213 ( 72)  0.1027 ( 74)
 CRD 41=  -0.1558 (  1) -0.1398 (  2) -0.1459 (  3)  0.1631 (  4) -0.1184 (  5)
          -0.1593 (  8)  0.1676 ( 10)  0.1952 ( 11)  0.1416 ( 12)  0.1803 ( 14)
          -0.1874 ( 15) -0.1943 ( 16)  0.1579 ( 25) -0.1554 ( 27)  0.1473 ( 28)
           0.1146 ( 29)  0.1542 ( 30)  0.1459 ( 32)  0.1238 ( 33) -0.1589 ( 34)
          -0.1273 ( 35)  0.1212 ( 36) -0.2079 ( 46) -0.1219 ( 47) -0.1043 ( 48)
          -0.1885 ( 50)  0.1260 ( 52)  0.2123 ( 53)  0.1312 ( 54) -0.1981 ( 59)
           0.1783 ( 61)  0.1151 ( 64)  0.1340 ( 65) -0.1261 ( 66) -0.1442 ( 68)
          -0.1154 ( 94) -0.1021 ( 96)
 CRD 42=  -0.3603 (  1)  0.1253 (  2) -0.1506 (  3) -0.2270 (  4)  0.2449 ( 10)
           0.1964 ( 12)  0.1309 ( 15)  0.1151 ( 16)  0.2948 ( 17)  0.1649 ( 27)
           0.1035 ( 28)  0.1056 ( 29)  0.1520 ( 32)  0.1593 ( 34)  0.2094 ( 35)
          -0.1586 ( 46) -0.1941 ( 48) -0.1186 ( 50) -0.1236 ( 51) -0.2404 ( 52)
          -0.2281 ( 54) -0.1123 ( 64) -0.1018 ( 81)  0.1031 ( 82)  0.1043 ( 91)
 CRD 43=   0.1862 (  3) -0.3209 (  5)  0.2682 (  6) -0.1249 (  7) -0.1271 (  9)
           0.1784 ( 12)  0.1922 ( 13)  0.1627 ( 14) -0.1460 ( 19) -0.1903 ( 20)
          -0.1013 ( 22) -0.1094 ( 28)  0.1713 ( 31) -0.1020 ( 32)  0.1829 ( 33)
           0.1783 ( 36) -0.1451 ( 37) -0.1482 ( 38) -0.1308 ( 39)  0.1110 ( 47)
           0.1288 ( 48) -0.1853 ( 49) -0.1751 ( 50) -0.2079 ( 51)  0.1987 ( 55)
           0.1386 ( 56)  0.1072 ( 57)  0.1451 ( 70)  0.1107 ( 71) -0.1250 ( 73)
          -0.1152 ( 75)
 CRD 44=  -0.3492 (  1)  0.3010 (  3)  0.2379 (  4)  0.2522 (  5)  0.1076 (  6)
          -0.1943 (  9) -0.1871 ( 11) -0.1914 ( 13) -0.1596 ( 14) -0.1651 ( 15)
          -0.1741 ( 16) -0.1149 ( 28) -0.1200 ( 29) -0.1051 ( 31)  0.2417 ( 47)
           0.2257 ( 49)  0.2180 ( 53)  0.1180 ( 78) -0.1134 ( 81)  0.1158 ( 82)
          -0.1232 ( 86) -0.1202 ( 90)  0.1271 ( 91)
 CRD 45=   0.1199 (  2)  0.3629 (  3) -0.2808 (  4) -0.1160 (  5) -0.1918 (  6)
           0.1663 (  7) -0.1946 (  8) -0.1626 ( 10) -0.1098 ( 13)  0.1780 ( 14)
           0.1524 ( 15)  0.1045 ( 17)  0.2293 ( 20) -0.1836 ( 26)  0.1620 ( 48)
          -0.1366 ( 50) -0.1705 ( 52) -0.1289 ( 55) -0.1151 ( 56) -0.1819 ( 59)
           0.1617 ( 62)  0.1300 ( 67) -0.2202 ( 94) -0.1376 ( 96) -0.1032 ( 97)
 CRD 46=  -0.1013 (  1)  0.2099 (  2)  0.2364 (  4) -0.2426 (  5) -0.4349 (  6)
           0.1860 (  8)  0.1040 (  9) -0.1644 ( 11)  0.1433 ( 12) -0.1307 ( 16)
           0.1963 ( 18) -0.1852 ( 22)  0.1016 ( 37)  0.1078 ( 38)  0.1118 ( 43)
           0.1504 ( 44) -0.1097 ( 45)  0.1093 ( 46) -0.1367 ( 51)  0.1327 ( 54)
          -0.1379 ( 56) -0.1507 ( 57) -0.1983 ( 61) -0.1069 ( 62)  0.1142 ( 67)
          -0.2051 ( 72)  0.1038 ( 99)
 CRD 47=   0.1556 (  1) -0.1927 (  2)  0.1682 (  4) -0.2399 (  5)  0.1266 (  6)
           0.2323 (  7)  0.1472 (  9) -0.1220 ( 11) -0.1085 ( 17) -0.2855 ( 18)
           0.1707 ( 19)  0.2450 ( 22) -0.1534 ( 30) -0.1313 ( 45)  0.1170 ( 46)
           0.1189 ( 54) -0.1691 ( 55)  0.1785 ( 56) -0.1759 ( 61)  0.2095 ( 62)
           0.1379 ( 63)  0.1000 ( 67)  0.1679 ( 95) -0.1042 ( 96) -0.1249 ( 97)
          -0.3255 ( 99)
 CRD 48=  -0.2614 (  2)  0.1222 (  3) -0.1427 (  4) -0.1299 (  6)  0.2537 (  8)
          -0.1094 ( 13)  0.1248 ( 14)  0.2825 ( 19) -0.2412 ( 20)  0.1374 ( 26)
           0.1617 ( 30) -0.2197 ( 45)  0.1013 ( 48)  0.1724 ( 56) -0.2254 ( 57)
          -0.1824 ( 59) -0.1547 ( 60)  0.1241 ( 61) -0.1587 ( 62)  0.1232 ( 63)
          -0.1572 ( 72)  0.3361 ( 94)  0.1144 ( 97) -0.1675 ( 98) -0.1635 ( 99)
 CRD 49=   0.1813 (  6) -0.1001 (  7)  0.2197 (  9) -0.2217 ( 11) -0.2175 ( 13)
           0.2356 ( 14)  0.1112 ( 18) -0.1098 ( 19)  0.1064 ( 26) -0.1010 ( 29)
           0.1002 ( 31)  0.1798 ( 46) -0.1562 ( 48) -0.1782 ( 50)  0.1663 ( 51)
           0.1299 ( 55) -0.1927 ( 59) -0.1807 ( 61) -0.1005 ( 62)  0.1032 ( 64)
          -0.1211 ( 70) -0.2389 ( 71) -0.1658 ( 76)  0.1157 ( 79)  0.1230 ( 81)
           0.1137 ( 82)  0.1259 ( 84) -0.1580 ( 87) -0.1852 ( 89)  0.1052 ( 90)
          -0.1788 ( 92)  0.1036 ( 93)  0.1026 ( 96)  0.1051 ( 99)
 CRD 50=  -0.1436 (  9)  0.2824 ( 10) -0.1400 ( 11) -0.2418 ( 12)  0.1064 ( 13)
           0.1362 ( 14)  0.1947 ( 15) -0.1498 ( 16) -0.1284 ( 32)  0.1101 ( 36)
          -0.1107 ( 42) -0.1067 ( 46)  0.2093 ( 47) -0.1049 ( 48) -0.1789 ( 49)
           0.1028 ( 51) -0.1146 ( 52)  0.1473 ( 54) -0.1743 ( 64)  0.1781 ( 65)
          -0.1366 ( 66)  0.1284 ( 67)  0.1659 ( 68) -0.1226 ( 69) -0.1700 ( 78)
          -0.1157 ( 80)  0.2137 ( 81)  0.2208 ( 82) -0.1316 ( 84) -0.1612 ( 85)
          -0.1069 ( 86)  0.1541 ( 88) -0.1983 ( 90) -0.1444 ( 91)  0.1581 ( 93)
 CRD 51=   0.1581 (  9) -0.1256 ( 10) -0.1737 ( 12)  0.1986 ( 13) -0.1246 ( 15)
          -0.2044 ( 16)  0.3226 ( 17) -0.1489 ( 35) -0.1077 ( 40)  0.1177 ( 46)
          -0.1289 ( 49)  0.1478 ( 50) -0.1499 ( 52)  0.2404 ( 53) -0.2173 ( 58)
           0.1404 ( 64) -0.1819 ( 66)  0.1815 ( 69)  0.2076 ( 78) -0.1914 ( 79)
          -0.1912 ( 80)  0.1625 ( 84)  0.1440 ( 85) -0.2548 ( 86)  0.1922 ( 90)
          -0.2408 ( 91)
 CRD 52=   0.1749 (  6) -0.1104 ( 10)  0.1377 ( 11)  0.1332 ( 12) -0.1295 ( 14)
           0.2447 ( 15) -0.2183 ( 16)  0.1375 ( 18) -0.1290 ( 19) -0.1114 ( 27)
          -0.1208 ( 44)  0.1036 ( 48) -0.1660 ( 52)  0.1854 ( 54)  0.1416 ( 55)
           0.1122 ( 60) -0.1430 ( 65)  0.2255 ( 67) -0.1506 ( 68) -0.1279 ( 70)
          -0.1863 ( 71)  0.1590 ( 73)  0.1875 ( 74)  0.1554 ( 75)  0.2309 ( 77)
          -0.1441 ( 81) -0.1428 ( 82)  0.2343 ( 83) -0.1639 ( 88) -0.1564 ( 93)
           0.1383 ( 96) -0.1171 ( 98)
 CRD 53=   0.2267 (  2) -0.2524 (  8)  0.2052 ( 19) -0.2587 ( 20) -0.1834 ( 24)
          -0.1586 ( 26)  0.1997 ( 37) -0.1737 ( 38)  0.1885 ( 43)  0.1853 ( 45)
           0.1598 ( 56) -0.1900 ( 57)  0.3201 ( 63) -0.1228 ( 70)  0.1062 ( 72)
          -0.3688 ( 95) -0.3012 ( 96)  0.3214 ( 97)
 CRD 54=   0.1305 (  2) -0.2673 (  7) -0.1049 ( 16) -0.2370 ( 18)  0.1271 ( 19)
          -0.1542 ( 22) -0.1133 ( 24) -0.1177 ( 38)  0.1919 ( 39)  0.1804 ( 44)
           0.1408 ( 45) -0.1727 ( 55)  0.1028 ( 56) -0.3270 ( 60) -0.1287 ( 63)
           0.1539 ( 70) -0.1694 ( 71)  0.1327 ( 74)  0.1234 ( 77)  0.1420 ( 83)
           0.1473 ( 95) -0.2040 ( 96)  0.2164 ( 97)  0.3694 ( 98)
 CRD 55=   0.1331 (  3) -0.2465 (  4)  0.1346 (  5)  0.1130 (  9) -0.1558 ( 11)
           0.1055 ( 13) -0.1570 ( 14)  0.1769 ( 25)  0.1285 ( 28) -0.1263 ( 29)
           0.1466 ( 30) -0.1200 ( 31)  0.1304 ( 33) -0.1944 ( 40)  0.1012 ( 46)
           0.2083 ( 64)  0.2444 ( 65) -0.1991 ( 66) -0.2484 ( 68) -0.1682 ( 73)
           0.1691 ( 75)  0.2442 ( 76)  0.1402 ( 80) -0.1401 ( 85) -0.2470 ( 87)
           0.2154 ( 89) -0.2197 ( 92)
 CRD 56=  -0.2049 (  3)  0.2153 (  5)  0.1160 (  7)  0.1112 (  9) -0.1007 ( 13)
           0.1649 ( 21) -0.1556 ( 23)  0.1005 ( 24) -0.1125 ( 27)  0.1060 ( 34)
           0.1277 ( 41) -0.1359 ( 42) -0.2167 ( 58)  0.1716 ( 64)  0.1536 ( 66)
           0.1035 ( 68) -0.2267 ( 69)  0.1491 ( 70)  0.3128 ( 71)  0.1710 ( 72)
          -0.2658 ( 73) -0.2617 ( 75)  0.1993 ( 77)  0.1847 ( 83) -0.1465 ( 89)
          -0.1634 ( 92)
 CRD 57=  -0.2462 (  1)  0.1147 (  4) -0.1473 ( 10) -0.1491 ( 12) -0.1321 ( 17)
           0.1233 ( 21)  0.1333 ( 23)  0.1413 ( 32)  0.1258 ( 35)  0.1446 ( 36)
          -0.1005 ( 40) -0.1291 ( 41) -0.1207 ( 42) -0.1021 ( 49)  0.1072 ( 58)
          -0.1500 ( 65)  0.1400 ( 68) -0.1609 ( 76)  0.1311 ( 77) -0.2807 ( 79)
           0.2350 ( 80) -0.1399 ( 83)  0.2716 ( 84) -0.2379 ( 85)  0.1723 ( 87)
          -0.2505 ( 88)  0.1360 ( 89) -0.1201 ( 92)  0.2508 ( 93)

 THE DETERMINANT OF THE G MATRIX IS 10**(   -22)


                     --------------------
                     INTERNAL COORDINATES
                     --------------------

                 - - ATOMS - -         COORDINATE      COORDINATE
 NO.   TYPE    I  J  K  L  M  N        (BOHR,RAD)       (ANG,DEG)
 ----------------------------------------------------------------
   1 STRETCH   1  2                     2.7106602       1.4344197
   2 STRETCH   1  3                     2.6906921       1.4238530
   3 STRETCH   2  4                     2.8965402       1.5327832
   4 STRETCH   2  6                     2.9027682       1.5360789
   5 STRETCH   2  5                     2.8989776       1.5340730
   6 STRETCH   3  7                     2.8675906       1.5174637
   7 STRETCH   3  8                     2.0702856       1.0955480
   8 STRETCH   3  9                     2.0637235       1.0920755
   9 STRETCH   4 12                     2.0706862       1.0957600
  10 STRETCH   4 11                     2.0696067       1.0951888
  11 STRETCH   4 10                     2.0690855       1.0949130
  12 STRETCH   5 15                     2.0700069       1.0954006
  13 STRETCH   5 14                     2.0706838       1.0957588
  14 STRETCH   5 13                     2.0684427       1.0945728
  15 STRETCH   6 16                     2.0715339       1.0962086
  16 STRETCH   6 18                     2.0716886       1.0962904
  17 STRETCH   6 17                     2.0696713       1.0952230
  18 STRETCH   7 21                     2.0682311       1.0944609
  19 STRETCH   7 20                     2.0671190       1.0938724
  20 STRETCH   7 19                     2.0680802       1.0943810
  21 BEND      1  2  4                  1.9504322     111.7515334
  22 BEND      1  3  9                  1.9776825     113.3128617
  23 BEND      1  2  5                  1.9411263     111.2183419
  24 BEND      1  3  7                  1.9079930     109.3199478
  25 BEND      1  2  6                  1.8343722     105.1017867
  26 BEND      1  3  8                  1.8694436     107.1112286
  27 BEND      2  6 16                  1.9343413     110.8295900
  28 BEND      2  4 10                  1.9502963     111.7437467
  29 BEND      2  4 12                  1.9334290     110.7773205
  30 BEND      2  1  3                  2.0549512     117.7400312
  31 BEND      2  5 14                  1.9336248     110.7885400
  32 BEND      2  4 11                  1.9443286     111.4018217
  33 BEND      2  5 13                  1.9534146     111.9224123
  34 BEND      2  6 18                  1.9341628     110.8193654
  35 BEND      2  6 17                  1.9519393     111.8378828
  36 BEND      2  5 15                  1.9436718     111.3641898
  37 BEND      3  7 19                  1.9332939     110.7695805
  38 BEND      3  7 20                  1.9326919     110.7350869
  39 BEND      3  7 21                  1.9355038     110.8961982
  40 BEND      4  2  5                  1.9419752     111.2669846
  41 BEND      4  2  6                  1.8970961     108.6955972
  42 BEND      5  2  6                  1.8944141     108.5419324
  43 BEND      7  3  9                  1.9271722     110.4188360
  44 BEND      7  3  8                  1.9021910     108.9875158
  45 BEND      8  3  9                  1.8770385     107.5463824
  46 BEND     10  4 11                  1.8782046     107.6131959
  47 BEND     10  4 12                  1.8624515     106.7106132
  48 BEND     11  4 12                  1.8918480     108.3949060
  49 BEND     13  5 14                  1.8615665     106.6599036
  50 BEND     13  5 15                  1.8735473     107.3463530
  51 BEND     14  5 15                  1.8946204     108.5537508
  52 BEND     16  6 17                  1.8918630     108.3957678
  53 BEND     16  6 18                  1.8565738     106.3738439
  54 BEND     17  6 18                  1.8916897     108.3858355
  55 BEND     19  7 20                  1.9002530     108.8764782
  56 BEND     19  7 21                  1.8661920     106.9249234
  57 BEND     20  7 21                  1.8940864     108.5231589
  58 TORSION   1  2  6 16              -1.0266275     -58.8214257
  59 TORSION   1  2  5 15              -2.9703595    -170.1890619
  60 TORSION   1  3  7 19              -0.9494812     -54.4012636
  61 TORSION   1  2  4 11               3.0249770     173.3184137
  62 TORSION   1  3  7 20              -3.0595995    -175.3021405
  63 TORSION   1  3  7 21               1.1197679      64.1579725
  64 TORSION   1  2  4 10              -1.1566268     -66.2698337
  65 TORSION   1  2  4 12               0.9175822      52.5735876
  66 TORSION   1  2  5 13               1.2155072      69.6434346
  67 TORSION   1  2  6 17              -3.1398468    -179.8999692
  68 TORSION   1  2  5 14              -0.8597572     -49.2604582
  69 TORSION   1  2  6 18               1.0304650      59.0412965
  70 TORSION   2  1  3  7              -1.9751162    -113.1658210
  71 TORSION   2  1  3  9               0.1824156      10.4516430
  72 TORSION   2  1  3  8               2.2494816     128.8858021
  73 TORSION   3  1  2  4               1.0625952      60.8822197
  74 TORSION   3  1  2  6               3.1171691     178.6006325
  75 TORSION   3  1  2  5              -1.1193686     -64.1350968
  76 TORSION   4  2  5 15               1.1261291      64.5224456
  77 TORSION   4  2  6 17              -1.0494455     -60.1287976
  78 TORSION   4  2  6 18               3.1208663     178.8124681
  79 TORSION   4  2  5 13              -0.9711895     -55.6450580
  80 TORSION   4  2  6 16               1.0637737      60.9497460
  81 TORSION   4  2  5 14              -3.0464539    -174.5489507
  82 TORSION   5  2  4 12               3.0990747     177.5639032
  83 TORSION   5  2  6 17               1.0651435      61.0282265
  84 TORSION   5  2  4 10               1.0248657      58.7204819
  85 TORSION   5  2  6 18              -1.0477300     -60.0305078
  86 TORSION   5  2  6 16              -3.1048226    -177.8932299
  87 TORSION   5  2  4 11              -1.0767158     -61.6912708
  88 TORSION   6  2  4 12              -1.0989799     -62.9669087
  89 TORSION   6  2  5 15              -0.9605976     -55.0381901
  90 TORSION   6  2  4 10               3.1099964     178.1896700
  91 TORSION   6  2  5 13              -3.0579162    -175.2056937
  92 TORSION   6  2  4 11               1.0084149      57.7779174
  93 TORSION   6  2  5 14               1.1500047      65.8904136
  94 TORSION   8  3  7 21              -3.1254558    -179.0754288
  95 TORSION   8  3  7 20              -1.0216379     -58.5355418
  96 TORSION   8  3  7 19               1.0884804      62.3653352
  97 TORSION   9  3  7 21              -1.0673012     -61.1518568
  98 TORSION   9  3  7 20               1.0365167      59.3880303
  99 TORSION   9  3  7 19              -3.1365503    -179.7110928

     ------------------------------------------
     THE POINT GROUP IS C1 , NAXIS= 1, ORDER= 1
     ------------------------------------------

     DIMENSIONS OF THE SYMMETRY SUBSPACES ARE
 A   =  217

 ..... DONE SETTING UP THE RUN .....
 STEP CPU TIME =     0.01 TOTAL CPU TIME =        0.0 (    0.0 MIN)
 TOTAL WALL CLOCK TIME=        0.0 SECONDS, CPU UTILIZATION IS  50.00%


          -----------------------------
          STATIONARY POINT LOCATION RUN
          -----------------------------

 OBTAINING INITIAL HESSIAN, HESS=GUESS   
 DIAGONAL GUESS HESSIAN IN INTERNAL COORDS IS
     1  0.3570     2  0.3644     3  0.3652     4  0.3629     5  0.3643
     6  0.3762     7  0.3427     8  0.3450     9  0.3425    10  0.3429
    11  0.3431    12  0.3428    13  0.3425    14  0.3433    15  0.3422
    16  0.3422    17  0.3429    18  0.3434    19  0.3438    20  0.3434
    21  0.2424    22  0.2196    23  0.2423    24  0.2442    25  0.2422
    26  0.2194    27  0.2233    28  0.2236    29  0.2236    30  0.2377
    31  0.2235    32  0.2236    33  0.2236    34  0.2233    35  0.2234
    36  0.2235    37  0.2246    38  0.2246    39  0.2246    40  0.2480
    41  0.2479    42  0.2478    43  0.2247    44  0.2245    45  0.2030
    46  0.2029    47  0.2029    48  0.2029    49  0.2029    50  0.2029
    51  0.2028    52  0.2028    53  0.2028    54  0.2028    55  0.2030
    56  0.2030    57  0.2030    58  0.2500    59  0.2500    60  0.2500
    61  0.2500    62  0.2500    63  0.2500    64  0.2500    65  0.2500
    66  0.2500    67  0.2500    68  0.2500    69  0.2500    70  0.2500
    71  0.2500    72  0.2500    73  0.2500    74  0.2500    75  0.2500
    76  0.2500    77  0.2500    78  0.2500    79  0.2500    80  0.2500
    81  0.2500    82  0.2500    83  0.2500    84  0.2500    85  0.2500
    86  0.2500    87  0.2500    88  0.2500    89  0.2500    90  0.2500
    91  0.2500    92  0.2500    93  0.2500    94  0.2500    95  0.2500
    96  0.2500    97  0.2500    98  0.2500    99  0.2500
 TRANSFORMING HESSIAN TO SYMMETRY COORDINATES

          PARAMETERS CONTROLLING GEOMETRY SEARCH ARE
          METHOD =QA                  UPHESS =BFGS    
          NNEG   =         0          NFRZ   =         3
          NSTEP  =        50          IFOLOW =         1
          HESS   =GUESS               RESTAR =         F
          IHREP  =         0          HSSEND =         F
          NPRT   =         0          NPUN   =         0
          OPTTOL = 5.000E-04          RMIN   = 1.500E-03
          RMAX   = 1.000E-01          RLIM   = 7.000E-02
          DXMAX  = 3.000E-01          PURIFY =         F
          MOVIE  =         F          TRUPD  =         T
          TRMAX  = 5.000E-01          TRMIN  = 5.000E-02
          ITBMAT =         5          STPT   =         F
          STSTEP = 1.000E-02          PROJCT=          F
          FROZEN COORD(S)=   1   2   3


      ***** EQUILIBRIUM GEOMETRY LOCATED *****
            (SUBJECT TO   3 CONSTRAINT(S))
 COORDINATES OF ALL ATOMS ARE (ANGS)
   ATOM   CHARGE       X              Y              Z
 ------------------------------------------------------------
 O           8.0   2.1117283393   1.2847506794   0.8355459081
 C           6.0   0.9895670160   1.0741897698  -0.0151194293
 C           6.0   3.3937344522   1.4736542059   0.2782737668
 C           6.0   1.1912272215  -0.1632202151  -0.8935956821
 C           6.0   0.7227604104   2.3187481940  -0.8672761611
 C           6.0  -0.1746972067   0.8463849226   0.9451571744
 C           6.0   4.3093324171   0.3007950986   0.5871375236
 H           1.0   3.8031609501   2.3815871140   0.7106252022
 H           1.0   3.3385347592   1.6287401787  -0.7918385578
 H           1.0   2.0285839849  -0.0448111838  -1.5731006493
 H           1.0   0.3041973677  -0.3449985923  -1.4920798091
 H           1.0   1.3726546702  -1.0377265492  -0.2763369102
 H           1.0   1.5217661659   2.5059508262  -1.5765414186
 H           1.0   0.6208271719   3.1919541842  -0.2296711608
 H           1.0  -0.1964111425   2.1970136865  -1.4319889451
 H           1.0   0.0236452953  -0.0100977453   1.5817781646
 H           1.0  -1.0940396347   0.6640881098   0.3974078143
 H           1.0  -0.3179286724   1.7166817559   1.5782243529
 H           1.0   4.3851098546   0.1488448261   1.6596700762
 H           1.0   5.3052284561   0.4937706066   0.1968866468
 H           1.0   3.9383938622  -0.6149756958   0.1389294820


                     --------------------
                     INTERNAL COORDINATES
                     --------------------

                 - - ATOMS - -         COORDINATE      COORDINATE
 NO.   TYPE    I  J  K  L  M  N        (BOHR,RAD)       (ANG,DEG)
 ----------------------------------------------------------------
   1 STRETCH   1  2                     2.6905965       1.4238025
   2 STRETCH   1  3                     2.6656368       1.4105944
   3 STRETCH   2  4                     2.8929297       1.5308726
   4 STRETCH   2  6                     2.8842552       1.5262822
   5 STRETCH   2  5                     2.8946029       1.5317580
   6 STRETCH   3  7                     2.8717089       1.5196430
   7 STRETCH   3  8                     2.0518108       1.0857716
   8 STRETCH   3  9                     2.0460061       1.0826999
   9 STRETCH   4 12                     2.0516243       1.0856729
  10 STRETCH   4 11                     2.0510698       1.0853795
  11 STRETCH   4 10                     2.0500819       1.0848567
  12 STRETCH   5 15                     2.0515464       1.0856317
  13 STRETCH   5 14                     2.0522626       1.0860107
  14 STRETCH   5 13                     2.0497319       1.0846715
  15 STRETCH   6 16                     2.0511917       1.0854440
  16 STRETCH   6 18                     2.0516419       1.0856822
  17 STRETCH   6 17                     2.0514209       1.0855653
  18 STRETCH   7 21                     2.0502630       1.0849525
  19 STRETCH   7 20                     2.0539367       1.0868966
  20 STRETCH   7 19                     2.0520346       1.0858900
  21 BEND      1  2  4                  1.9375238     111.0119348
  22 BEND      1  3  9                  1.9426204     111.3039525
  23 BEND      1  2  5                  1.9278401     110.4571026
  24 BEND      1  3  7                  1.9432818     111.3418481
  25 BEND      1  2  6                  1.8207704     104.3224614
  26 BEND      1  3  8                  1.8727432     107.3002820
  27 BEND      2  6 16                  1.9255834     110.3278031
  28 BEND      2  4 10                  1.9529068     111.8933196
  29 BEND      2  4 12                  1.9249994     110.2943404
  30 BEND      2  1  3                  2.0944741     120.0045268
  31 BEND      2  5 14                  1.9209247     110.0608757
  32 BEND      2  4 11                  1.9221155     110.1291055
  33 BEND      2  5 13                  1.9559492     112.0676364
  34 BEND      2  6 18                  1.9260820     110.3563692
  35 BEND      2  6 17                  1.9322277     110.7084901
  36 BEND      2  5 15                  1.9238361     110.2276886
  37 BEND      3  7 19                  1.9292128     110.5357502
  38 BEND      3  7 20                  1.9199009     110.0022167
  39 BEND      3  7 21                  1.9406625     111.1917707
  40 BEND      4  2  5                  1.9395490     111.1279698
  41 BEND      4  2  6                  1.9186478     109.9304189
  42 BEND      5  2  6                  1.9160331     109.7806103
  43 BEND      7  3  9                  1.9200057     110.0082258
  44 BEND      7  3  8                  1.9147983     109.7098636
  45 BEND      8  3  9                  1.8681742     107.0384971
  46 BEND     10  4 11                  1.8793795     107.6805152
  47 BEND     10  4 12                  1.8913008     108.3635561
  48 BEND     11  4 12                  1.8914311     108.3710178
  49 BEND     13  5 14                  1.8904936     108.3173060
  50 BEND     13  5 15                  1.8785306     107.6318775
  51 BEND     14  5 15                  1.8923984     108.4264414
  52 BEND     16  6 17                  1.8946067     108.5529669
  53 BEND     16  6 18                  1.8908670     108.3387010
  54 BEND     17  6 18                  1.8934739     108.4880630
  55 BEND     19  7 20                  1.8918192     108.3932553
  56 BEND     19  7 21                  1.8899664     108.2870953
  57 BEND     20  7 21                  1.8910440     108.3488429
  58 TORSION   1  2  6 16              -1.0352221     -59.3138574
  59 TORSION   1  2  5 15              -3.0314145    -173.6872596
  60 TORSION   1  3  7 19              -0.9973928     -57.1464002
  61 TORSION   1  2  4 11               3.0819701     176.5838773
  62 TORSION   1  3  7 20              -3.0859517    -176.8120099
  63 TORSION   1  3  7 21               1.1023313      63.1589285
  64 TORSION   1  2  4 10              -1.1115475     -63.6869817
  65 TORSION   1  2  4 12               0.9951462      57.0176776
  66 TORSION   1  2  5 13               1.1600204      66.4642734
  67 TORSION   1  2  6 17              -3.1328525    -179.4992248
  68 TORSION   1  2  5 14              -0.9448782     -54.1375322
  69 TORSION   1  2  6 18               1.0537934      60.3779172
  70 TORSION   2  1  3  7              -1.9521071    -111.8474983
  71 TORSION   2  1  3  9               0.1970563      11.2904918
  72 TORSION   2  1  3  8               2.2355927     128.0900275
  73 TORSION   3  1  2  4               1.0281208      58.9069800
  74 TORSION   3  1  2  6               3.0938134     177.2624505
  75 TORSION   3  1  2  5              -1.1315202     -64.8313313
  76 TORSION   4  2  5 15               1.0932995      62.6414483
  77 TORSION   4  2  6 17              -1.0543014     -60.4070201
  78 TORSION   4  2  6 18               3.1323445     179.4701218
  79 TORSION   4  2  5 13              -0.9984508     -57.2070187
  80 TORSION   4  2  6 16               1.0433290      59.7783473
  81 TORSION   4  2  5 14              -3.1033494    -177.8088243
  82 TORSION   5  2  4 12              -3.1351037    -179.6282085
  83 TORSION   5  2  6 17               1.0843936      62.1311787
  84 TORSION   5  2  4 10               1.0413879      59.6671322
  85 TORSION   5  2  6 18              -1.0121457     -57.9916793
  86 TORSION   5  2  6 16              -3.1011613    -177.6834538
  87 TORSION   5  2  4 11              -1.0482798     -60.0620088
  88 TORSION   6  2  4 12              -1.0103703     -57.8899525
  89 TORSION   6  2  5 15              -1.0329578     -59.1841211
  90 TORSION   6  2  4 10              -3.1170640    -178.5946118
  91 TORSION   6  2  5 13              -3.1247081    -179.0325882
  92 TORSION   6  2  4 11               1.0764536      61.6762472
  93 TORSION   6  2  5 14               1.0535786      60.3656062
  94 TORSION   8  3  7 21              -3.1104071    -178.2131986
  95 TORSION   8  3  7 20              -1.0155048     -58.1841371
  96 TORSION   8  3  7 19               1.0730541      61.4814726
  97 TORSION   9  3  7 21              -1.0597098     -60.7169019
  98 TORSION   9  3  7 20               1.0351925      59.3121596
  99 TORSION   9  3  7 19               3.1237514     178.9777693

          INTERNUCLEAR DISTANCES (ANGS.)


 =====================================================
   GAMESS/COSab RESULTS
 =====================================================

   Dielectric Constant                  = INFTY
   Basic Grid Size                      =                 1082
   Number of Segments                   =                   92
   Number of Segments located on spheres=                  250
   Number of Segments of the cavity     =                  639
   Solvent Radius (rsolv)               = 1.40
   Outlying Charge Error Method         = double cavity

 =====================================================

  Total solvated Energy (a.u.)          =  -310.2998747884
  Total Energy corrected (a.u.)         =  -310.2997212065

  Outlying charge effect (a.u.)         =     0.0001535819
  Outlying charge effect (kcal/mol)     =     0.0963741885

  Dielectric Energy (a.u.)              =    -0.0067594630
  Dielectric energy corr. (a.u.)        =    -0.0066058810

  Sum of polarization charges           =     0.0271272191
  Sum of polarization charges(cor.)     =    -0.0271272191

  Total surface area of cavity (A**2)   =  156.37
  Total volume of cavity (A**3)         =  156.62

 =====================================================
 NPS=                   639
NR.  ATOM  (X, Y, Z)(a.u.)                  CHARGE(e)  AREA(A**2) SIGMA(e/A**2)
   1   1   4.169460   0.619856   4.274108   0.004215   0.171795   0.024537
   2   1   3.555676   3.337830   4.668825   0.005817   0.240512   0.024186
   3   1   4.969864   3.038245   4.617537   0.002970   0.171795   0.017288
   4   1   4.387813   3.277381   4.691033   0.004201   0.240512   0.017467
   5   1   3.909788   1.401467   4.661914   0.006193   0.240512   0.025750
   6   1   3.864005   2.343471   4.825711   0.004174   0.240512   0.017354
   7   1   3.609194   4.321075   4.193281   0.005956   0.309230   0.019261
   8   1   4.111584   5.148650   3.352947   0.004662   0.240512   0.019385
   9   1   4.664065   2.164435   4.747808   0.003044   0.171795   0.017717
  10   1   4.461652   4.257032   4.224076   0.004726   0.274871   0.017193
  11   1   3.423611   5.046112   3.419519   0.004960   0.206154   0.024061
  12   3   6.467625   3.542689   4.228148   0.000033   0.139368   0.000234
  13   3   9.452849   4.376708  -1.058663  -0.000326   0.278737  -0.001169
  14   3   6.712272   5.957864  -1.505502   0.000234   0.139368   0.001678
  15   3   6.816403   6.323150  -0.739734   0.000587   0.278737   0.002105
  16   3   9.364974   5.003239  -0.280310  -0.000348   0.278737  -0.001247
  17   3   6.580874   4.143573   4.048630   0.000195   0.139368   0.001399
  18   3   8.720497   4.972356  -1.517492   0.000176   0.371649   0.000473
  19   3   7.526662   5.756424  -1.526919   0.000681   0.278737   0.002445
  20   3   8.926194   3.958374  -2.041611  -0.000450   0.278737  -0.001616
  21   3   8.315528   5.614926  -1.103809   0.000410   0.278737   0.001470
  22   3   7.232861   3.871375   4.051740   0.000006   0.139368   0.000044
  23   3   6.103277   4.657726   3.793941   0.000079   0.092912   0.000849
  24   4   2.541397  -3.030412  -4.294566   0.000715   0.371649   0.001924
  25   4   1.580300   0.437434  -5.332537   0.001458   0.371649   0.003923
  26   4  -0.110146  -3.043679  -0.580796   0.001049   0.278737   0.003762
  27   4   2.523800   0.398020  -5.391450   0.001002   0.278737   0.003594
  28   4   3.425171  -2.393741  -4.613927   0.001010   0.418105   0.002415
  29   4   0.468479  -3.640792  -1.643807   0.001497   0.325193   0.004605
  30   4  -0.130853  -3.233937  -1.916912   0.000936   0.232280   0.004031
  31   4   4.443269  -3.283646  -2.480302   0.000800   0.232280   0.003444
  32   4   3.632583  -3.295655  -3.546668   0.001008   0.418105   0.002411
  33   4   2.021601  -2.121541  -4.996852   0.001283   0.418105   0.003067
  34   4   1.889638  -0.736625  -5.426324   0.001436   0.325193   0.004416
  35   4   1.672389  -3.976605  -2.391447   0.001193   0.371649   0.003211
  36   4   2.312189  -3.706628  -3.341772   0.001022   0.464561   0.002201
  37   4   1.461607  -3.078688  -4.135416   0.000710   0.325193   0.002184
  38   4  -0.700615  -2.619984  -1.210623   0.000855   0.232280   0.003679
  39   4   2.632488  -1.388432  -5.290364   0.001129   0.325193   0.003471
  40   4   4.473394  -2.852529  -3.383695   0.000805   0.278737   0.002888
  41   4   0.882625  -3.562919  -3.037696   0.001357   0.418105   0.003247
  42   4   3.384000  -3.805193  -2.568116   0.000959   0.371649   0.002581
  43   5   0.689325   4.118715  -5.348009   0.000891   0.232280   0.003834
  44   5   1.108384   7.695090  -3.438954   0.000755   0.371649   0.002031
  45   5   3.626319   7.334980  -0.965732   0.000643   0.185824   0.003458
  46   5  -2.223470   5.430832  -1.090445   0.000499   0.185824   0.002688
  47   5   3.948518   7.122312  -1.960720   0.000511   0.139368   0.003663
  48   5   2.075597   7.323854  -3.902723   0.001006   0.418105   0.002406
  49   5   1.455007   4.388776  -5.417305   0.000907   0.232280   0.003903
  50   5  -1.678318   6.617662  -1.774766   0.001496   0.325193   0.004599
  51   5  -1.444061   6.845228  -1.072873   0.000964   0.232280   0.004150
  52   5   1.037488   3.291936  -5.242887   0.000878   0.232280   0.003779
  53   5   0.733969   5.391790  -5.225688   0.002074   0.511017   0.004059
  54   5   0.868546   6.846823  -4.460381   0.000991   0.418105   0.002371
  55   5   1.972887   7.936260  -2.770990   0.001315   0.371649   0.003537
  56   5   3.266595   7.642965  -1.829077   0.001284   0.278737   0.004607
  57   5  -1.026675   6.954078  -3.033067   0.001107   0.371649   0.002978
  58   5  -0.029071   7.351511  -3.514921   0.001007   0.464561   0.002168
  59   5   0.583720   7.972529  -2.521696   0.000842   0.325193   0.002589
  60   5  -1.832344   6.069867  -0.540515   0.001411   0.325193   0.004339
  61   5   2.977784   7.635280  -2.688078   0.001046   0.278737   0.003754
  62   5   1.392267   6.202537  -4.950786   0.000774   0.278737   0.002778
  63   5   1.896081   3.492601  -5.273797   0.000427   0.139368   0.003061
  64   5  -0.632504   7.542131  -2.189667   0.001506   0.418105   0.003601
  65   5  -0.173165   6.407357  -4.434076   0.000808   0.371649   0.002175
  66   5   2.358888   8.017206  -1.925186   0.000566   0.185824   0.003047
  67   6   0.108035   2.083280   5.508736   0.001037   0.232280   0.004464
  68   6  -3.276374   0.498976   3.881986   0.000704   0.371649   0.001894
  69   6  -2.080893  -1.673781   1.075386   0.001515   0.371649   0.004078
  70   6  -2.678006   4.557449   1.638215   0.000493   0.139368   0.003536
  71   6  -1.609108  -1.956535   1.845247   0.001130   0.278737   0.004053
  72   6  -2.529827  -0.290904   4.209331   0.001078   0.418105   0.002578
  73   6   0.141943   1.269219   5.521366   0.000990   0.232280   0.004264
  74   6  -3.479112   3.588172   2.428767   0.001540   0.325193   0.004736
  75   6  -3.688305   3.332515   1.728628   0.000910   0.232280   0.003917
  76   6   1.031978   2.181410   5.263183   0.001436   0.278737   0.005152
  77   6  -1.068500   1.580108   5.492651   0.002250   0.511017   0.004402
  78   6  -2.457017   0.968103   4.845814   0.001036   0.418105   0.002477
  79   6  -3.267258  -0.348253   3.151353   0.001224   0.371649   0.003293
  80   6  -2.641378  -1.378481   2.058738   0.001306   0.278737   0.004684
  81   6  -3.407189   2.778281   3.637088   0.001191   0.371649   0.003204
  82   6  -3.358922   1.675445   4.045468   0.000957   0.464561   0.002060
  83   6  -3.830378   0.942539   3.051360   0.000699   0.325193   0.002150
  84   6  -3.137794   4.039574   1.117525   0.001541   0.371649   0.004147
  85   6  -2.636750  -1.163554   2.939158   0.001110   0.278737   0.003982
  86   6  -1.614290   0.688438   5.221955   0.000861   0.278737   0.003089
  87   6   1.291157   1.218962   5.178858   0.000934   0.232280   0.004021
  88   6  -3.909140   2.250525   2.811243   0.001298   0.418105   0.003105
  89   6  -2.428443   2.097809   4.889774   0.000972   0.371649   0.002614
  90   6  -3.303137  -0.681179   2.280259   0.000568   0.185824   0.003057
  91   7   6.827186  -2.619068   2.656025   0.000991   0.232280   0.004264
  92   7  10.807272  -1.902625   2.149883   0.000767   0.371649   0.002062
  93   7  11.215367   1.813883   2.925138   0.001746   0.418105   0.004175
  94   7   8.614160  -0.404020  -2.512225   0.000567   0.232280   0.002443
  95   7   8.908897  -1.169745  -2.158069   0.000610   0.185824   0.003284
  96   7   8.966035   0.603527  -2.579159   0.000394   0.232280   0.001696
  97   7   9.526867   0.209133  -2.389240   0.000655   0.232280   0.002820
  98   7  10.805973   1.359037   3.672765   0.001102   0.278737   0.003955
  99   7  10.431965  -1.612371   3.181046   0.001143   0.418105   0.002733
 100   7   7.149715  -2.316114   3.340275   0.001003   0.232280   0.004319
 101   7   9.920342  -1.882697  -1.153000   0.001479   0.325193   0.004548
 102   7  10.351106  -1.269328  -1.346747   0.000886   0.232280   0.003813
 103   7   6.195768  -1.961688   3.131740   0.001134   0.232280   0.004880
 104   7   8.083754  -2.855622   2.708491   0.002308   0.511017   0.004516
 105   7   9.696125  -2.593260   2.479683   0.001100   0.418105   0.002631
 106   7  11.309858  -0.963477   2.492098   0.001284   0.371649   0.003455
 107   7  11.420102   0.580472   2.993068   0.001301   0.278737   0.004667
 108   7  10.358993   2.714248   3.293801   0.001260   0.418105   0.003014
 109   7   9.750608   2.854847   3.653842   0.000288   0.139368   0.002067
 110   7   9.976292  -2.585692   0.121285   0.001180   0.371649   0.003175
 111   7  10.335480  -2.507696   1.239432   0.001022   0.464561   0.002201
 112   7  11.261641  -1.564653   1.215576   0.000729   0.325193   0.002241
 113   7  10.860187   2.917942   2.285687   0.000870   0.371649   0.002341
 114   7  10.529568   3.499191   1.145237  -0.000030   0.046456  -0.000640
 115   7   9.677304  -0.806145  -2.059414   0.001536   0.371649   0.004133
 116   7   9.567013   1.372498  -2.297995   0.000143   0.139368   0.001024
 117   7   9.382015   2.619342   4.032525   0.000241   0.185824   0.001297
 118   7  11.152019  -0.247271   3.246696   0.001130   0.278737   0.004054
 119   7   9.004476  -2.497633   3.144786   0.000920   0.278737   0.003301
 120   7   6.181787  -1.421462   3.654423   0.000708   0.185824   0.003808
 121   7  10.807295  -1.873178   0.001875   0.001332   0.418105   0.003186
 122   7   9.170163  -3.038004   1.582715   0.000998   0.371649   0.002687
 123   7  11.655031  -0.111618   2.330463   0.000543   0.185824   0.002923
 124   8   8.035847   6.583953   2.329727  -0.003622   0.608459  -0.005953
 125   8   8.885370   5.287291   2.933936  -0.001471   0.353299  -0.004163
 126   8   7.063834   5.477079   3.593747  -0.000975   0.333671  -0.002922
 127   8   6.221034   6.620385   2.122921  -0.001414   0.333671  -0.004237
 128   8   7.639802   6.743220   0.448243  -0.000996   0.372926  -0.002671
 129   8   9.317693   5.657721   0.948106  -0.001225   0.353299  -0.003468
 130   8   8.061636   5.411846   3.449910  -0.001882   0.471065  -0.003996
 131   8   6.710236   6.290875   2.956151  -0.002239   0.490692  -0.004563
 132   8   6.987028   6.949020   1.353348  -0.002084   0.490692  -0.004248
 133   8   8.558430   6.488023   0.891237  -0.002121   0.490692  -0.004322
 134   8   9.231310   5.677860   2.028104  -0.001993   0.490692  -0.004063
 135   9   6.764013   3.324969  -3.897802  -0.002434   0.333671  -0.007296
 136   9   7.982704   3.080927  -3.294557  -0.001329   0.274788  -0.004836
 137   9   7.474536   4.688129  -2.939803  -0.000439   0.176649  -0.002485
 138   9   7.307687   2.477813  -3.659104  -0.001677   0.294415  -0.005696
 139   9   7.677606   3.932474  -3.348777  -0.001544   0.353299  -0.004369
 140   9   6.876119   4.756984  -3.197534  -0.001670   0.274788  -0.006077
 141  10   5.634538  -0.133124  -4.642749  -0.003189   0.451437  -0.007064
 142  10   3.908946   0.191882  -5.412598  -0.000643   0.294415  -0.002186
 143  10   4.706966  -1.551349  -4.739377  -0.000804   0.333671  -0.002410
 144  10   4.749111   0.756062  -5.091668  -0.002693   0.431809  -0.006236
 145  10   4.546190  -0.614084  -5.263344  -0.001584   0.431809  -0.003668
 146  10   5.553794  -1.343775  -4.193516  -0.002224   0.431809  -0.005150
 147  11  -1.210807  -1.507493  -4.273787  -0.002064   0.353299  -0.005841
 148  11  -1.369811  -2.127231  -2.542140  -0.001117   0.294415  -0.003794
 149  11  -0.459798  -2.649944  -3.805861  -0.001151   0.372926  -0.003085
 150  11   0.192210  -1.061073  -5.211543  -0.000953   0.333671  -0.002857
 151  11  -0.198210  -0.003576  -5.059500  -0.001359   0.333671  -0.004073
 152  11  -1.785630  -1.142412  -3.291541  -0.002164   0.353299  -0.006125
 153  11  -1.176689  -2.290663  -3.350542  -0.001492   0.353299  -0.004223
 154  11  -0.086058  -2.052326  -4.726782  -0.001619   0.431809  -0.003749
 155  11  -0.804172  -0.724938  -4.851385  -0.001796   0.333671  -0.005381
 156  11  -1.531115  -0.282371  -4.029341  -0.002831   0.392554  -0.007213
 157  12   2.690640  -4.185596   0.515574  -0.001859   0.353299  -0.005262
 158  12   1.177211  -3.872189   0.090492  -0.000931   0.353299  -0.002635
 159  12   3.031621  -4.288410  -1.175449  -0.000565   0.294415  -0.001919
 160  12   1.831176  -3.850640   0.849882  -0.001797   0.333671  -0.005386
 161  12   2.960750  -3.334609   1.481244  -0.002584   0.372926  -0.006928
 162  12   3.613468  -3.811220   0.731748  -0.001875   0.294415  -0.006367
 163  12   3.658623  -4.174245  -0.466246  -0.002024   0.412182  -0.004912
 164  12   2.098412  -4.366619  -0.573227  -0.001451   0.451437  -0.003214
 165  13   4.399657   5.414824  -4.782391  -0.002426   0.392554  -0.006180
 166  13   3.087830   4.415691  -5.405719  -0.001180   0.412182  -0.002864
 167  13   4.317431   6.698772  -3.299246  -0.000709   0.255160  -0.002777
 168  13   3.205409   6.395838  -4.759661  -0.001056   0.372926  -0.002830
 169  13   4.084593   4.270366  -5.066667  -0.002778   0.412182  -0.006740
 170  13   4.715872   6.049129  -3.940241  -0.001721   0.255160  -0.006744
 171  13   3.910163   6.642899  -4.131245  -0.001165   0.333671  -0.003492
 172  13   3.216793   5.539570  -5.275400  -0.001439   0.392554  -0.003665
 173  14   1.073216   8.233591   0.651211  -0.002644   0.471065  -0.005614
 174  14  -0.742907   7.202444   0.562745  -0.000917   0.314043  -0.002919
 175  14  -0.022098   8.173617  -0.573568  -0.001046   0.392554  -0.002666
 176  14   1.993870   8.342406  -0.586287  -0.000725   0.294415  -0.002461
 177  14   2.408183   7.595728   1.002779  -0.001661   0.333671  -0.004978
 178  14   0.345518   7.536417   1.322838  -0.002251   0.372926  -0.006035
 179  14  -0.295762   7.883078   0.237148  -0.001453   0.372926  -0.003897
 180  14   1.015227   8.473754  -0.652057  -0.001296   0.392554  -0.003301
 181  14   2.470008   8.031773   0.160893  -0.001390   0.392554  -0.003540
 182  14   1.602049   7.329912   1.607159  -0.002467   0.431809  -0.005714
 183  15  -2.298899   4.262763  -4.224824  -0.002534   0.431809  -0.005868
 184  15  -2.628346   5.084689  -2.441683  -0.001114   0.372926  -0.002988
 185  15  -0.841808   3.938711  -5.107772  -0.001010   0.353299  -0.002858
 186  15  -1.654398   5.628745  -4.191642  -0.001130   0.372926  -0.003030
 187  15  -2.804756   4.190420  -3.039620  -0.002524   0.431809  -0.005844
 188  15  -2.374026   3.131584  -3.697476  -0.002884   0.412182  -0.006997
 189  15  -1.522666   3.313333  -4.707610  -0.002314   0.412182  -0.005614
 190  15  -1.325120   4.887041  -4.847194  -0.001427   0.392554  -0.003635
 191  15  -2.305176   5.480026  -3.434370  -0.001546   0.412182  -0.003751
 192  16   0.185129  -1.803811   4.671415  -0.002373   0.431809  -0.005495
 193  16   0.671921  -0.190791   5.358126  -0.000869   0.353299  -0.002461
 194  16   1.670966  -1.391080   4.217109  -0.001606   0.294415  -0.005453
 195  16  -0.891777  -2.286277   3.123114  -0.001162   0.412182  -0.002819
 196  16  -1.162760  -1.052749   4.862268  -0.000947   0.372926  -0.002540
 197  16   1.205195  -0.865895   4.981916  -0.001973   0.412182  -0.004787
 198  16   1.037727  -2.062878   3.922867  -0.002027   0.333671  -0.006074
 199  16   0.016531  -2.404315   3.576464  -0.001950   0.372926  -0.005228
 200  16  -1.183800  -1.809428   4.138279  -0.001324   0.412182  -0.003211
 201  16  -0.277817  -0.752694   5.311380  -0.001435   0.431809  -0.003324
 202  17  -4.366869   0.894198  -0.034874  -0.002018   0.353299  -0.005712
 203  17  -3.955905   2.688308   0.107373  -0.001074   0.294415  -0.003648
 204  17  -4.453679   1.593781   1.226557  -0.001134   0.372926  -0.003040
 205  17  -3.791501  -0.491936   0.856596  -0.000918   0.333671  -0.002750
 206  17  -3.238241  -0.726025  -0.109298  -0.001277   0.333671  -0.003826
 207  17  -3.933805   1.726580  -0.775218  -0.002131   0.353299  -0.006032
 208  17  -4.377299   2.019741   0.412276  -0.001466   0.353299  -0.004149
 209  17  -4.338206   0.439903   1.214087  -0.001588   0.431809  -0.003678
 210  17  -3.933818  -0.059138  -0.157263  -0.001745   0.333671  -0.005230
 211  17  -3.617575   0.644528  -1.054431  -0.002769   0.392554  -0.007054
 212  18  -1.208434   4.961350   4.630687  -0.002294   0.412182  -0.005565
 213  18  -2.279497   5.037674   2.989267  -0.001048   0.392554  -0.002670
 214  18   0.394373   5.155192   4.162383  -0.001649   0.294415  -0.005602
 215  18  -0.251400   3.667903   5.376858  -0.000936   0.372926  -0.002510
 216  18  -2.200916   3.780326   4.767668  -0.001019   0.412182  -0.002472
 217  18  -1.512538   5.468162   3.489592  -0.001994   0.372926  -0.005348
 218  18  -0.511360   5.468468   4.021227  -0.001934   0.333671  -0.005796
 219  18   0.259179   4.443065   4.946574  -0.001922   0.412182  -0.004663
 220  18  -1.222948   3.908430   5.264218  -0.001569   0.431809  -0.003634
 221  18  -2.427526   4.524370   4.011483  -0.001342   0.412182  -0.003257
 222  19   8.510452  -0.111478   5.551015  -0.003347   0.588831  -0.005684
 223  19   7.426385  -1.490879   4.604143  -0.000763   0.353299  -0.002159
 224  19   7.101569   0.270396   5.288184  -0.001446   0.314043  -0.004606
 225  19   8.424784   1.758433   5.094379  -0.001078   0.353299  -0.003050
 226  19  10.097643   0.602809   4.764832  -0.000802   0.372926  -0.002151
 227  19   9.504282  -1.339886   4.523531  -0.000967   0.412182  -0.002345
 228  19   7.070364  -0.667802   5.048117  -0.001576   0.412182  -0.003823
 229  19   7.734826   1.035986   5.408095  -0.001944   0.392554  -0.004953
 230  19   9.266411   1.201975   5.192404  -0.001716   0.471065  -0.003643
 231  19   9.815103  -0.389877   4.938686  -0.001750   0.471065  -0.003716
 232  19   8.455034  -1.439420   4.881591  -0.001775   0.490692  -0.003616
 233  20  12.285742   1.287596  -0.522557  -0.003780   0.608459  -0.006212
 234  20  11.260219   2.463260  -1.100666  -0.001403   0.353299  -0.003972
 235  20  11.030293   0.601257  -1.844956  -0.000843   0.333671  -0.002526
 236  20  11.861981  -0.507167  -0.394602  -0.000973   0.353299  -0.002754
 237  20  12.279310   0.766648   1.335069  -0.000945   0.372926  -0.002535
 238  20  11.659564   2.685523   0.913972  -0.000907   0.353299  -0.002566
 239  20  11.173852   1.648079  -1.678537  -0.001925   0.490692  -0.003923
 240  20  11.695140   0.111110  -1.231510  -0.001961   0.490692  -0.003996
 241  20  12.335826   0.098754   0.403572  -0.002108   0.510320  -0.004130
 242  20  12.274038   1.741729   0.942085  -0.002064   0.490692  -0.004207
 243  20  11.693741   2.653390  -0.168646  -0.001913   0.490692  -0.003898
 244  21   7.251464  -3.409339  -0.711464  -0.002772   0.451437  -0.006139
 245  21   8.339825  -2.444943  -1.630692  -0.000370   0.235532  -0.001570
 246  21   6.904644  -3.339802   1.264311  -0.000797   0.274788  -0.002900
 247  21   8.276985  -3.472533   0.290168  -0.000764   0.353299  -0.002163
 248  21   7.701208  -2.610640  -1.704699  -0.001450   0.274788  -0.005275
 249  21   7.286916  -3.596860   0.550604  -0.001503   0.353299  -0.004254
 250  21   8.451873  -3.150163  -0.768964  -0.001028   0.372926  -0.002757
 251   1   4.666893   5.562445   2.591605   0.000331   0.012050   0.027446
 252   3   5.079370   5.747148   2.462645   0.000110   0.012050   0.009091
 253   8   5.357002   5.865073   2.481944   0.000022   0.012050   0.001825
 254   1   5.191699   4.863664   3.562059   0.000267   0.012050   0.022178
 255   3   5.627407   5.017436   3.476055   0.000096   0.012050   0.007985
 256   8   5.854556   5.202579   3.402004   0.000012   0.012050   0.000986
 257   1   3.899998   5.708874   2.097122   0.002262   0.139595   0.016205
 258   3   4.325420   5.823826   1.919860   0.001517   0.139595   0.010869
 259  14   3.248191   6.245544   1.526532   0.001011   0.139595   0.007242
 260   1   5.892174   2.545023   4.391900   0.001048   0.093853   0.011170
 261   3   6.354362   2.625414   4.336327   0.000265   0.093853   0.002828
 262  19   6.776794   2.038461   4.545986   0.000038   0.093853   0.000400
 263   3   4.855717   5.787292   2.323641   0.000447   0.048360   0.009246
 264   1   4.275379   5.546231   2.589336   0.000980   0.044193   0.022168
 265   3   5.666658   4.580317   3.780085   0.001086   0.185378   0.005857
 266   3   6.051792   3.366086   4.254494   0.000875   0.185378   0.004721
 267   1   5.201697   3.809289   4.131559   0.004831   0.352056   0.013723
 268   1   2.741239   0.993328   4.497698   0.001530   0.058615   0.026102
 269   6   1.996844   0.795289   4.695178   0.000370   0.058615   0.006304
 270  16   1.907162   0.505267   4.696365   0.000106   0.058615   0.001810
 271   1   2.289453   3.333386   4.482684   0.001559   0.057939   0.026904
 272   6   1.524329   3.244439   4.680059   0.000373   0.057939   0.006438
 273  18   1.329722   3.477510   4.680487   0.000123   0.057939   0.002115
 274   6   2.006289   1.369879   4.880901   0.002160   0.313676   0.006885
 275   6   1.747346   2.718217   4.871836   0.002144   0.313676   0.006835
 276   1   2.979930   2.254332   4.643747   0.011636   0.575934   0.020204
 277   1   3.946973  -0.254298   3.445439   0.004079   0.134054   0.030425
 278   7   4.706678  -0.530153   3.284740   0.002774   0.134054   0.020694
 279  16   3.002328  -0.513153   3.501289   0.002154   0.134054   0.016070
 280   1   5.069206  -0.002791   3.862205   0.001256   0.058857   0.021339
 281   7   5.769274  -0.440203   3.916093   0.000319   0.058857   0.005420
 282  19   5.987405  -0.390478   4.121441   0.000181   0.058857   0.003079
 283   7   5.523720  -0.660497   3.767737   0.000970   0.147406   0.006578
 284   1   4.446270  -0.152800   3.713254   0.002282   0.133407   0.017103
 285   8   5.658157   5.737958   2.885574   0.000013   0.285986   0.000044
 286   1   4.770185   5.169194   3.292284   0.004032   0.348592   0.011566
 287   1   2.260759   5.178949   2.796220   0.004384   0.278249   0.015757
 288  14   1.682648   5.831529   2.249898   0.000383   0.278249   0.001378
 289  18   1.285917   5.209466   3.020654   0.000382   0.278249   0.001371
 290  14   2.258652   6.483497   1.877932   0.000030   0.340714   0.000088
 291   1   3.309238   5.654517   2.531852   0.005569   0.423863   0.013138
 292  16   2.284291  -0.647571   4.178891   0.000213   0.230476   0.000922
 293  16   2.018487   0.080291   4.698099   0.000484   0.230476   0.002101
 294   1   3.397349   0.350680   4.187118   0.009058   0.567502   0.015961
 295  18   1.268930   3.983326   4.624338   0.000461   0.297699   0.001549
 296  18   1.198857   4.892905   3.866092   0.000109   0.297699   0.000367
 297   1   2.622987   4.311145   3.964531   0.012014   0.731265   0.016429
 298  19   6.809284   1.521295   4.908495  -0.000036   0.269159  -0.000134
 299  19   6.277549   0.298525   4.689940   0.000401   0.542109   0.000739
 300   1   5.274358   1.697900   4.620622   0.008269   0.665142   0.012432
 301   1   4.744305   0.371527   4.254631   0.004419   0.335307   0.013179
 302   3   5.457441   6.465303   0.250024   0.000042   0.027779   0.001501
 303   5   4.543266   6.598521  -0.142866   0.000160   0.027779   0.005747
 304   8   5.682788   6.498547   0.447355  -0.000042   0.027779  -0.001522
 305   3   5.426933   6.131518  -1.562554   0.000025   0.089166   0.000281
 306   5   4.577634   6.492923  -1.965519   0.000056   0.089166   0.000633
 307  13   4.687525   6.380542  -2.227407  -0.000195   0.089166  -0.002187
 308   5   4.300419   6.881423  -0.981419   0.001370   0.524648   0.002611
 309   3   5.673365   6.414515  -0.727127   0.000764   0.524648   0.001457
 310   3   9.838698   4.331096   0.992174  -0.000117   0.027411  -0.004272
 311   7  10.103029   3.924093   1.091950  -0.000075   0.027411  -0.002734
 312   8   9.723861   4.567310   1.142557  -0.000163   0.027411  -0.005947
 313   3   8.205030   3.772216   3.712840  -0.000047   0.027411  -0.001708
 314   7   8.490474   3.372436   3.777455  -0.000006   0.027411  -0.000202
 315   8   8.236432   4.058460   3.619679  -0.000074   0.027411  -0.002690
 316   3   8.775784   2.601720  -2.428069  -0.000153   0.026808  -0.005724
 317   7   9.051072   2.212690  -2.292656  -0.000099   0.026808  -0.003687
 318   9   8.554840   2.666709  -2.622131  -0.000163   0.026808  -0.006095
 319   3   7.974852   3.102957   4.070962  -0.000013   0.026371  -0.000497
 320   7   8.282563   2.739895   4.208608  -0.000022   0.026371  -0.000825
 321  19   8.288360   2.497908   4.390313  -0.000044   0.026371  -0.001651
 322   3   9.324733   2.550545  -2.037690  -0.000107   0.027132  -0.003940
 323   7   9.644715   2.178010  -1.972143  -0.000071   0.027132  -0.002631
 324  20   9.927033   2.135970  -1.869945  -0.000078   0.027132  -0.002883
 325   3  10.132531   3.899722   0.690970  -0.000076   0.027132  -0.002792
 326   7  10.463147   3.544947   0.792435  -0.000064   0.027132  -0.002372
 327  20  10.672132   3.380428   0.646923  -0.000097   0.027132  -0.003565
 328   7   9.418302   2.101271  -2.166280  -0.000022   0.052872  -0.000414
 329   3   9.028558   2.688064  -2.277071  -0.000133   0.052872  -0.002516
 330   7  10.386852   3.676299   0.943480   0.000005   0.035357   0.000141
 331   3   9.952896   4.230749   0.840935  -0.000044   0.035357  -0.001239
 332   7   8.498220   3.016110   4.035264   0.000068   0.077963   0.000877
 333   3   7.999417   3.520446   3.934653   0.000021   0.077963   0.000268
 334   3   4.787591   6.049415   1.716118   0.000302   0.056733   0.005329
[...]
 380   4  -1.414684  -1.586835  -0.689554   0.000093   0.064699   0.001431
 381   6  -1.920576  -1.314735  -0.096987   0.000046   0.064699   0.000717
 382  17  -2.151901  -1.142710  -0.193592  -0.000130   0.064699  -0.002016
 383   6  -1.384099  -1.808165   0.456209   0.000965   0.545357   0.001769
 384   4  -0.497412  -2.440239  -0.141905   0.000975   0.545357   0.001788
 385   4   3.062407   1.627373  -4.910470  -0.000057   0.088114  -0.000646
 386  10   3.358448   1.553062  -4.915250  -0.000201   0.088114  -0.002278
 387  13   3.140772   2.622827  -4.827994  -0.000074   0.088114  -0.000835
 388   4   5.438924  -2.203631  -2.779097   0.000072   0.097508   0.000735
 389  10   5.567377  -1.987792  -2.953915  -0.000179   0.097508  -0.001832
 390  21   6.331603  -2.153251  -2.170274  -0.000098   0.097508  -0.001009
 391  10   5.136612  -2.066620  -3.605316  -0.000158   0.071037  -0.002231
 392  10   4.409201  -1.869465  -4.467351  -0.000502   0.158813  -0.003163
 393  10   3.682383  -0.952407  -5.203209  -0.000375   0.158813  -0.002361
 394  10   3.424509   0.403172  -5.284775  -0.000512   0.158813  -0.003226
 395   4   4.608272  -2.315268  -3.766557  -0.000256   0.154683  -0.001656
 396   4   3.654157  -1.724626  -4.839392  -0.000258   0.154683  -0.001667
 397   4   3.068041  -0.371888  -5.325946  -0.000051   0.154683  -0.000327
 398   4   2.994246   0.883145  -5.198190  -0.000043   0.086787  -0.000497
 399   4  -1.294856  -1.716529  -1.205343  -0.000043   0.087699  -0.000492
 400  11  -1.396513  -1.645180  -1.484489  -0.000215   0.087699  -0.002452
 401  17  -1.929171  -1.154001  -0.688902   0.000011   0.087699   0.000124
 402  11   0.436616   0.337048  -5.063358  -0.000175   0.069668  -0.002508
 403  11   0.756124  -0.729742  -5.212882  -0.000406   0.155036  -0.002619
 404  11   0.733357  -2.018990  -4.787544  -0.000447   0.155036  -0.002885
 405  11   0.234606  -2.814485  -3.806714  -0.000487   0.155036  -0.003144
 406  11  -0.529404  -2.780128  -2.684796  -0.000294   0.155036  -0.001893
 407  11  -1.142501  -2.181605  -1.957908  -0.000166   0.069668  -0.002382
 408   4   0.970295   0.084301  -5.171248  -0.000230   0.152374  -0.001509
 409   4   1.231645  -1.416765  -5.102667  -0.000187   0.152374  -0.001228
 410   4   0.921923  -2.654863  -4.267565  -0.000257   0.152374  -0.001685
 411   4   0.171989  -3.106891  -3.018776  -0.000112   0.152374  -0.000733
 412   4  -0.701309  -2.581866  -1.883916  -0.000102   0.152374  -0.000666
 413   4   4.756384  -3.239523  -1.419654   0.000167   0.097696   0.001707
 414  12   4.661642  -3.360424  -1.154528  -0.000167   0.097696  -0.001707
 415  21   5.716325  -3.086176  -0.945263  -0.000054   0.097696  -0.000554
 416  12   0.690177  -3.376106   0.114773  -0.000129   0.069475  -0.001855
 417  12   1.178680  -3.887823  -0.753791  -0.000242   0.154484  -0.001567
 418  12   2.302963  -4.153048  -1.460010  -0.000385   0.154484  -0.002495
 419  12   3.632400  -3.898501  -1.490138  -0.000466   0.154484  -0.003019
 420   4   0.555055  -3.400723  -0.468803  -0.000002   0.152068  -0.000014
 421   4   1.488035  -3.958122  -1.532733   0.000001   0.152068   0.000007
 422   4   2.944729  -3.964461  -1.969878  -0.000193   0.152068  -0.001268
 423   4   4.112385  -3.598063  -1.793989   0.000026   0.084879   0.000303
 424  13   3.013111   3.181534  -5.071501  -0.000011   0.034728  -0.000308
 425   4   2.856228   1.711186  -5.096782   0.000183   0.049350   0.003714
 426  17  -2.373251  -1.120167  -0.280724   0.000020   0.018250   0.001095
 427   4  -1.369392  -1.885053  -1.025114   0.000119   0.025910   0.004603
 428  21   6.537839  -2.924020  -1.332841  -0.001767   0.423329  -0.004175
 429   4   5.243348  -2.829297  -2.296294   0.001604   0.606138   0.002646
 430   5  -2.383186   4.625099  -0.960135   0.000031   0.065570   0.000475
 431   6  -2.603943   4.106932  -0.357566   0.000100   0.065570   0.001529
 432  15  -2.455049   4.524923  -1.238174  -0.000140   0.065570  -0.002128
 433   5  -1.564522   5.486008   0.858815   0.000151   0.066040   0.002289
 434   6  -1.916108   5.058324   1.470244   0.000074   0.066040   0.001122
 435  18  -1.818352   5.145709   1.744754  -0.000108   0.066040  -0.001638
 436   6  -2.376834   4.672082   0.818741   0.000991   0.522212   0.001899
 437   5  -2.122848   5.147765  -0.294130   0.000939   0.522212   0.001798
 438   5   3.864254   6.862149  -0.059491   0.000225   0.099827   0.002254
 439   8   4.955432   6.463272   0.486462   0.000378   0.099827   0.003789
 440  14   3.626259   6.972667   0.096067   0.000001   0.099827   0.000014
 441   8   5.820286   6.711007   0.645688   0.000063   0.067540   0.000926
 442   5   4.133798   7.062158  -0.168999   0.000318   0.100067   0.003173
 443   5   0.145608   2.440352  -4.725489  -0.000050   0.088004  -0.000567
 444  11   0.077013   1.448143  -4.630593  -0.000026   0.088004  -0.000292
 445  15  -0.149184   2.513761  -4.692081  -0.000219   0.088004  -0.002487
 446  11   0.176399   0.890249  -4.885774   0.000004   0.037485   0.000102
 447   5   0.333407   2.355741  -4.937317   0.000192   0.053252   0.003602
 448  13   2.735841   3.731069  -5.215970  -0.000153   0.069544  -0.002204
 449  13   2.386379   4.792105  -5.329608  -0.000335   0.154772  -0.002162
 450  13   2.447638   6.084141  -4.919591  -0.000414   0.154772  -0.002678
 451  13   3.058701   6.893107  -4.017704  -0.000438   0.154772  -0.002827
 452  13   3.961506   6.877365  -3.004827  -0.000416   0.154772  -0.002685
 453   5   2.190065   3.976538  -5.255529  -0.000138   0.152084  -0.000910
 454   5   1.920951   5.473979  -5.163474  -0.000073   0.152084  -0.000477
 455   5   2.320223   6.721702  -4.384373  -0.000228   0.152084  -0.001501
 456   5   3.219264   7.192774  -3.247252  -0.000096   0.152084  -0.000630
 457   5   4.057190   6.934383  -2.371505   0.000025   0.084963   0.000295
 458   5  -1.263151   5.955556   0.685405   0.000017   0.086948   0.000190
 459  14  -1.083702   6.176314   0.797596  -0.000104   0.086948  -0.001194
 460  18  -1.412311   5.505103   1.545006   0.000051   0.086948   0.000585
 461  14   3.061786   7.587133  -0.246874  -0.000113   0.072898  -0.001547
 462  14   2.310388   8.057928  -1.011749  -0.000406   0.163812  -0.002476
 463  14   0.967605   8.202093  -1.423853  -0.000426   0.163812  -0.002600
 464  14  -0.331670   7.785288  -1.060758  -0.000366   0.163812  -0.002233
 465  14  -0.989495   6.999331  -0.089565  -0.000306   0.163812  -0.001869
 466   5   3.042107   7.615630  -0.859285  -0.000024   0.157984  -0.000149
 467   5   1.782134   8.082921  -1.700667  -0.000122   0.157984  -0.000771
 468   5   0.205275   7.920202  -1.729917  -0.000169   0.157984  -0.001068
 469   5  -0.962780   7.202357  -0.933574   0.000037   0.157984   0.000234
 470   5  -1.313624   6.442455   0.051014   0.000069   0.089061   0.000771
 471  15  -2.468989   4.998888  -1.750164  -0.000163   0.069556  -0.002340
 472  15  -2.124066   5.777887  -2.479518  -0.000297   0.154707  -0.001921
 473  15  -1.462788   6.085031  -3.622084  -0.000421   0.154707  -0.002724
 474  15  -0.763977   5.522958  -4.638362  -0.000456   0.154707  -0.002945
 475  15  -0.321638   4.328142  -5.100784  -0.000392   0.154707  -0.002535
 476  15  -0.252385   3.216010  -4.973765  -0.000211   0.069556  -0.003040
 477   5  -2.186711   5.523440  -1.679606  -0.000077   0.152206  -0.000506
 478   5  -1.588919   6.327542  -2.825964  -0.000061   0.152206  -0.000403
 479   5  -0.781371   6.176178  -4.107770  -0.000264   0.152206  -0.001734
 480   5  -0.103817   5.133031  -4.985743  -0.000149   0.152206  -0.000976
 481   5   0.158681   3.636973  -5.090503  -0.000115   0.152206  -0.000755
 482  18  -1.808010   5.307117   1.950287   0.000010   0.033903   0.000290
 483   5  -1.541579   5.895321   0.652599   0.000205   0.048081   0.004259
 484   6  -0.363475  -2.238540   1.540006   0.000006   0.086960   0.000072
 485  12   0.366325  -2.650855   1.027222   0.000058   0.086960   0.000667
 486  16  -0.241264  -2.292819   1.814742  -0.000169   0.086960  -0.001940
 487  12   0.536027  -3.063634   0.631382   0.000021   0.026260   0.000805
 488   6  -0.512815  -2.373230   1.357473   0.000163   0.037246   0.004376
 489   6  -2.933132   3.621769  -0.192285  -0.000027   0.086831  -0.000312
 490  15  -2.638399   3.980871  -1.061363  -0.000001   0.086831  -0.000010
 491  17  -3.088956   3.380116  -0.295657  -0.000192   0.086831  -0.002207
 492  15  -2.627312   4.459979  -1.442061   0.000002   0.041765   0.000051
 493   6  -2.964777   3.917160  -0.135072   0.000215   0.059251   0.003626
 494  16   1.341569   0.309771   5.046887  -0.000045   0.071701  -0.000625
 495  16   0.230863   0.284707   5.359213  -0.000264   0.160572  -0.001643
 496  16  -1.052701  -0.195917   5.112501  -0.000362   0.160572  -0.002255
 497  16  -1.749371  -1.015022   4.227560  -0.000390   0.160572  -0.002429
 498  16  -1.547939  -1.806706   3.099702  -0.000245   0.160572  -0.001524
 499  16  -0.809338  -2.219141   2.314713  -0.000154   0.071701  -0.002154
 500   6   0.936728   0.742519   5.185101  -0.000005   0.155885  -0.000033
 501   6  -0.600741   0.499404   5.337030   0.000025   0.155885   0.000161
 502   6  -1.780505  -0.274936   4.662825  -0.000185   0.155885  -0.001185
 503   6  -2.075553  -1.234596   3.463660  -0.000035   0.155885  -0.000227
 504   6  -1.354085  -1.950887   2.275212  -0.000047   0.155885  -0.000300
 505  17  -2.697817  -1.061863   0.233374  -0.000146   0.069351  -0.002107
 506  17  -3.292577  -0.775097   1.136202  -0.000355   0.154161  -0.002303
 507  17  -3.912608   0.186054   1.856996  -0.000419   0.154161  -0.002716
 508  17  -4.180171   1.511247   1.865028  -0.000468   0.154161  -0.003033
 509  17  -3.983312   2.645993   1.156938  -0.000276   0.154161  -0.001792
 510  17  -3.548526   3.151546   0.258913  -0.000144   0.069351  -0.002080
 511   6  -2.627676  -1.177323   0.816960  -0.000119   0.151842  -0.000782
 512   6  -3.418960  -0.491103   1.916696  -0.000188   0.151842  -0.001240
 513   6  -3.945808   0.865999   2.349304  -0.000242   0.151842  -0.001596
 514   6  -3.987776   2.326142   1.933772  -0.000090   0.151842  -0.000593
 515   6  -3.527303   3.278369   0.843967  -0.000094   0.151842  -0.000617
 516  18  -2.220168   4.955039   2.294084  -0.000113   0.071997  -0.001564
 517  18  -2.752259   4.294134   3.082260  -0.000227   0.161357  -0.001408
 518  18  -2.639806   3.487039   4.217239  -0.000364   0.161357  -0.002254
 519  18  -1.680412   2.997515   5.107271  -0.000360   0.161357  -0.002229
 520  18  -0.305637   3.045763   5.351997  -0.000273   0.161357  -0.001693
 521  18   0.732186   3.448622   5.032989  -0.000048   0.071997  -0.000668
 522   6  -2.623356   4.499296   2.255630   0.000032   0.156416   0.000205
 523   6  -3.024246   3.564323   3.450259   0.000013   0.156416   0.000085
 524   6  -2.385410   2.791520   4.657195  -0.000171   0.156416  -0.001091
 525   6  -0.994213   2.528513   5.333526   0.000016   0.156416   0.000104
 526   6   0.523552   2.893609   5.175023   0.000082   0.156416   0.000524
 527   8   8.572456   4.331113   3.397167  -0.000613   0.212328  -0.002889
 528   8   9.418862   4.611055   2.149578  -0.002285   0.436755  -0.005232
 529   7   9.439835   3.481007   3.126063  -0.000218   0.579636  -0.000376
 530   7  10.258898   3.769966   1.614479   0.000116   0.299166   0.000388
 531   7   7.506000   0.693277  -2.821871  -0.000348   0.213854  -0.001627
 532   9   7.106934   1.248928  -3.144369  -0.001143   0.213854  -0.005343
 533  10   6.509921   0.558968  -3.414686  -0.001016   0.213854  -0.004752
 534   9   8.297167   2.479098  -2.889644  -0.000811   0.171082  -0.004742
 535   9   7.677597   1.773540  -3.132920  -0.000915   0.171082  -0.005349
 536   7   8.673028   1.377874  -2.586802  -0.000400   0.471557  -0.000848
 537   7   7.557478  -1.100026  -2.354579  -0.000123   0.100553  -0.001223
 538  10   6.541417  -1.068558  -2.915090  -0.000166   0.100553  -0.001650
 539  21   7.406430  -1.358064  -2.288706  -0.000297   0.100553  -0.002957
 540  10   6.304626  -0.314461  -3.682619  -0.001738   0.410501  -0.004233
 541   7   7.744715  -0.468013  -2.738614   0.000628   0.594637   0.001056
 542   7   4.439548  -1.321812   2.376844   0.004892   0.448952   0.010896
 543  12   3.364466  -1.842473   2.006883   0.000284   0.448952   0.000632
 544  16   2.736123  -1.317001   2.700878   0.001956   0.448952   0.004356
 545   7   5.866269  -2.547697   1.754307   0.000027   0.096119   0.000277
 546  12   4.771136  -2.781213   1.230066   0.000111   0.096119   0.001157
 547  21   5.844680  -2.709902   1.496364  -0.000226   0.096119  -0.002350
 548  12   3.965658  -2.794222   1.549571  -0.000622   0.375548  -0.001656
 549   7   5.440358  -2.144709   2.433780   0.001887   0.550894   0.003425
 550  16   2.419641  -1.230102   3.646655   0.000297   0.231548   0.001281
 551   7   5.039743  -1.230691   3.364792   0.001807   0.372276   0.004853
 552  19   6.460116  -0.876865   4.299374  -0.000034   0.070170  -0.000489
 553  19   7.267534  -1.650159   4.132771  -0.000253   0.156343  -0.001617
 554  19   8.595656  -1.937658   3.998202  -0.000234   0.156343  -0.001500
 555  19   9.826984  -1.347323   3.994837  -0.000347   0.156343  -0.002219
 556  19  10.435106  -0.131532   4.124116  -0.000217   0.156343  -0.001387
 557  19  10.160040   1.189947   4.330769  -0.000331   0.156343  -0.002115
 558  19   9.119383   2.052162   4.526450  -0.000436   0.156343  -0.002791
 559   7   6.527085  -1.316782   3.893441   0.000043   0.153300   0.000280
 560   7   7.825720  -2.107120   3.689716   0.000067   0.153300   0.000439
 561   7   9.346733  -1.927153   3.607745  -0.000116   0.153300  -0.000756
 562   7  10.439870  -0.853820   3.682573  -0.000095   0.153300  -0.000618
 563   7  10.637796   0.654013   3.882208   0.000048   0.153300   0.000314
 564   7   9.855897   1.951724   4.121305  -0.000120   0.153300  -0.000783
 565   7   8.762928   2.531626   4.280685  -0.000078   0.085728  -0.000906
 566  20  11.081997   3.099407   0.850453  -0.000175   0.068117  -0.002575
 567  20  11.504141   2.396016   1.579912  -0.000408   0.150725  -0.002709
 568  20  11.869159   1.159799   1.900098  -0.000276   0.150725  -0.001833
 569  20  11.928203  -0.083254   1.436068  -0.000401   0.150725  -0.002664
 570  20  11.657553  -0.833762   0.374240  -0.000443   0.150725  -0.002942
 571  20  11.165938  -0.790216  -0.858809  -0.000314   0.150725  -0.002080
 572  20  10.650859   0.029889  -1.767716  -0.000330   0.150725  -0.002190
 573  20  10.319244   1.297086  -1.987340  -0.000487   0.150725  -0.003233
 574   7  10.959408   3.001749   1.423609  -0.000318   0.149809  -0.002123
 575   7  11.486166   1.835567   2.191181  -0.000106   0.149809  -0.000706
 576   7  11.737330   0.367140   2.105985  -0.000110   0.149809  -0.000734
 577   7  11.611999  -0.813610   1.202247  -0.000163   0.149809  -0.001085
 578   7  11.160523  -1.232331  -0.156967  -0.000137   0.149809  -0.000918
 579   7  10.564277  -0.720806  -1.425609  -0.000035   0.149809  -0.000231
 580   7  10.062795   0.515466  -2.094018  -0.000198   0.149809  -0.001323
 581   7   9.840110   1.706294  -2.073419  -0.000137   0.083220  -0.001646
 582  21   8.077290  -1.693261  -2.047424  -0.000183   0.072555  -0.002529
 583  21   8.779419  -2.317172  -1.353758  -0.000376   0.162984  -0.002304
 584  21   8.945335  -2.985520  -0.125534  -0.000409   0.162984  -0.002507
 585  21   8.237140  -3.276998   1.056096  -0.000402   0.162984  -0.002467
 586  21   6.979249  -3.058084   1.649843  -0.000363   0.162984  -0.002230
 587   7   8.655239  -1.624125  -1.858491  -0.000072   0.157279  -0.000458
 588   7   9.329432  -2.463870  -0.700722   0.000005   0.157279   0.000035
 589   7   9.005875  -3.036562   0.737147  -0.000162   0.157279  -0.001033
 590   7   7.832784  -3.079859   1.796449  -0.000015   0.157279  -0.000097
 591   7   6.628578  -2.745911   2.110734   0.000134   0.088642   0.001509
 592  14   3.268916   7.059461   1.143287   0.000502   0.279533   0.001795
 593  14   3.528225   7.289934   0.464312   0.000567   0.279533   0.002028
 594   8   5.416150   6.635476   1.391303   0.000712   0.557825   0.001276
 595   9   5.451924   2.796590  -3.982575  -0.002040   0.248378  -0.008214
 596  10   4.888178   2.084946  -4.277224  -0.001264   0.248378  -0.005090
 597  13   4.676748   3.167713  -4.285724  -0.001390   0.248378  -0.005596
 598  10   5.369009   1.404390  -4.492250  -0.001166   0.276152  -0.004222
 599  10   6.056223   0.696248  -4.127581  -0.001208   0.276152  -0.004376
 600   9   6.475271   2.046955  -3.811787  -0.003094   0.553261  -0.005592
 601  13   5.233200   5.808332  -3.371357  -0.000702   0.218835  -0.003208
 602  13   5.150878   4.954304  -4.135462  -0.002458   0.437958  -0.005612
 603  13   4.825024   3.925895  -4.530675  -0.000953   0.218835  -0.004356
 604   9   6.298144   4.976359  -3.215852  -0.001807   0.437958  -0.004125
 605   9   6.043601   3.802452  -3.938815  -0.002654   0.437958  -0.006059
 606  13   4.205697   3.290815  -4.823836  -0.000280   0.234600  -0.001194
 607  13   3.464247   3.143161  -5.071259  -0.000053   0.234600  -0.000228
 608  10   4.133536   1.678816  -4.924319  -0.000603   0.468984  -0.001285
 609  21   7.092747  -2.044238  -2.235045  -0.000413   0.362106  -0.001140
 610  10   6.043965  -1.542214  -3.330038  -0.000322   0.362106  -0.000889
 611  11  -1.754326   0.824204  -2.783364  -0.001101   0.316789  -0.003476
 612  15  -1.968165   1.906459  -2.758112  -0.001092   0.316789  -0.003446
 613  17  -2.352558   1.253448  -1.981664  -0.001094   0.316789  -0.003452
 614  15  -0.636358   2.447344  -4.758840  -0.000001   0.292862  -0.000005
 615  15  -1.618152   2.235158  -3.961946  -0.001545   0.585811  -0.002637
 616  11  -0.736250   0.830733  -4.519096  -0.001236   0.585811  -0.002110
 617  11  -1.635852   0.632489  -3.627246  -0.000586   0.292862  -0.002002
 618  17  -2.863815   0.584611  -1.710923  -0.000608   0.302332  -0.002010
 619  17  -2.721306  -0.537716  -1.006083  -0.001228   0.604966  -0.002030
 620  11  -2.002830  -0.470523  -2.593424  -0.001709   0.604966  -0.002824
 621  11  -1.747401  -1.536549  -1.835090  -0.000071   0.302332  -0.000236
 622  16  -0.026472  -2.554905   2.144612   0.000121   0.262490   0.000461
 623  16   0.958945  -2.458725   2.806841  -0.000940   0.524986  -0.001791
 624  16   1.932718  -1.899910   3.204756  -0.000332   0.262490  -0.001265
 625  12   1.155398  -3.165313   1.294723  -0.000691   0.524986  -0.001317
 626  12   2.377122  -2.756867   1.955814  -0.001119   0.524986  -0.002132
 627  21   5.873156  -3.124793   1.216271   0.000001   0.298273   0.000004
 628  21   6.117882  -3.399378  -0.016276  -0.001678   0.596571  -0.002813
 629  12   4.424119  -3.523403   0.501012  -0.001112   0.596571  -0.001864
 630  12   4.652297  -3.673615  -0.755901   0.000129   0.298273   0.000432
 631  18   0.623310   5.599362   3.284520  -0.000253   0.272450  -0.000927
 632  18  -0.518587   5.846093   2.892921  -0.001045   0.544986  -0.001918
 633  18  -1.513779   5.629568   2.199477   0.000041   0.272450   0.000151
 634  14   0.747706   6.607854   2.070496  -0.001058   0.544986  -0.001941
 635  14  -0.584532   6.626684   1.394092  -0.000639   0.544986  -0.001173
 636  17  -3.390719   3.130297  -0.616528  -0.000053   0.300983  -0.000177
 637  17  -3.226884   2.079278  -1.416834  -0.001665   0.602278  -0.002764
 638  15  -2.826769   3.652211  -2.039862  -0.001320   0.602278  -0.002191
 639  15  -2.537283   2.589902  -2.787975  -0.000623   0.300983  -0.002069
 =====================================================

              4278217  WORDS OF DYNAMIC MEMORY USED
 EXECUTION OF GAMESS TERMINATED NORMALLY Thu Nov 24 04:48:33 2016
 DDI: 263640 bytes (0.3 MB / 0 MWords) used by master data server.

 ----------------------------------------
 CPU timing information for all processes
 ========================================
 0: 1645.880 + 0.544 = 1646.424
 ----------------------------------------
 ddikick.x: exited gracefully.
