----- GAMESS execution script -----

          ******************************************************
          *         GAMESS VERSION =  5 DEC 2014 (R1)          *
          *             FROM IOWA STATE UNIVERSITY             *
          * M.W.SCHMIDT, K.K.BALDRIDGE, J.A.BOATZ, S.T.ELBERT, *
          *   M.S.GORDON, J.H.JENSEN, S.KOSEKI, N.MATSUNAGA,   *
          *          K.A.NGUYEN, S.J.SU, T.L.WINDUS,           *
          *       TOGETHER WITH M.DUPUIS, J.A.MONTGOMERY       *
          *         J.COMPUT.CHEM.  14, 1347-1363(1993)        *
          **************** 64 BIT LINUX VERSION ****************

 EXECUTION OF GAMESS BEGUN Thu Nov 24 03:32:36 2016

            ECHO OF THE FIRST FEW INPUT CARDS -
 INPUT CARD>! SELECT RESTRICTED HARTREE-FOCK AS DEFAULT                                     
 INPUT CARD>$contrl scftyp=rhf $end                                                         
 INPUT CARD>                                                                                
 INPUT CARD>! THEORY: HF OR DFT                                                             
 INPUT CARD> $contrl mplevl=0 $end                                                          
 INPUT CARD>                                                                                
 INPUT CARD> $system timlim=10000 mwords=20 $end                                            
 INPUT CARD> $SCF DIRSCF=.TRUE. $end                                                        
 INPUT CARD>                                                                                
 INPUT CARD>                                                                                
 INPUT CARD>! BASIS SETS                                                                    
 INPUT CARD>! 6-311G(d,p)                                                                   
 INPUT CARD> $BASIS GBASIS=N311 NGAUSS=6 NDFUNC=1 NPFUNC=1 $END                             
 INPUT CARD>                                                                                
 INPUT CARD>! One of the following                                                          
 INPUT CARD> $guess guess=HUCKEL $end                                                       
 INPUT CARD>                                                                                
 INPUT CARD> $statpt projct=.FALSE. $end                                                    
 INPUT CARD> $STATPT IFREEZ(1)=1,2,3 $END                                                   
 INPUT CARD>                                                                                
 INPUT CARD>! Optimize the geometry with COSMO effects                                      
 INPUT CARD> $statpt opttol=0.0005 nstep=50 $end                                            
 INPUT CARD> $contrl nzvar=1 $end                                                           
 INPUT CARD> $zmat dlc=.t. auto=.t. $end                                                    
 INPUT CARD> $contrl runtyp=OPTIMIZE maxit=200 $end                                         
 INPUT CARD>                                                                                
 INPUT CARD>! Run COSMO on perfect conductor                                                
 INPUT CARD> $COSGMS PRFCND=.TRUE. $end                                                     
 INPUT CARD>                                                                                
 INPUT CARD>! Specifying RSOLV                                                              
 INPUT CARD> $COSGMS COSRAD = 1.4 $end                                                      
 INPUT CARD>                                                                                
 INPUT CARD>! available memory                                                              
 INPUT CARD> $SYSTEM MWORDS=40 $END                                                         
 INPUT CARD>                                                                                
 INPUT CARD> $DATA                                                                          
 INPUT CARD>http://cactus.nci.nih.gov/chemical/structure/ETHYL%20ISOPROPYL%20KETONE%20/file?
 INPUT CARD>C1                                                                              
 INPUT CARD>C      6.0      1.1396000000   -0.2824000000    0.4164000000                    
 INPUT CARD>C      6.0      1.6889000000   -1.2719000000   -0.6132000000                    
 INPUT CARD>C      6.0      2.0413000000    0.9525000000    0.4686000000                    
 INPUT CARD>C      6.0     -0.2551000000    0.1303000000    0.0221000000                    
 INPUT CARD>O      8.0     -0.4219000000    1.0907000000   -0.6907000000                    
 INPUT CARD>C      6.0     -1.4418000000   -0.6556000000    0.5174000000                    
 INPUT CARD>C      6.0     -2.7292000000   -0.0311000000   -0.0245000000                    
 INPUT CARD>H      1.0      1.1146000000   -0.7558000000    1.3979000000                    
 INPUT CARD>H      1.0      1.0466000000   -2.1517000000   -0.6504000000                    
 INPUT CARD>H      1.0      1.7139000000   -0.7985000000   -1.5947000000                    
 INPUT CARD>H      1.0      2.6978000000   -1.5704000000   -0.3280000000                    
 INPUT CARD>H      1.0      2.0663000000    1.4259000000   -0.5129000000                    
   40000000 WORDS OF MEMORY AVAILABLE

     BASIS OPTIONS
     -------------
     GBASIS=N311         IGAUSS=       6      POLAR=POPN311 
     NDFUNC=       1     NFFUNC=       0     DIFFSP=       F
     NPFUNC=       1      DIFFS=       F     BASNAM=        


     RUN TITLE
     ---------
 http://cactus.nci.nih.gov/chemical/structure/ETHYL%20ISOPROPYL%20KETONE%20/file?

 THE POINT GROUP OF THE MOLECULE IS C1      
 THE ORDER OF THE PRINCIPAL AXIS IS     0

 ATOM      ATOMIC                      COORDINATES (BOHR)
           CHARGE         X                   Y                   Z
 C           6.0     2.1535317356       -0.5336586189        0.7868819013
 C           6.0     3.1915582207       -2.4035424838       -1.1587799757
 C           6.0     3.8574976587        1.7999640033        0.8855255978
 C           6.0    -0.4820690995        0.2462312962        0.0417629443
 O           8.0    -0.7972753942        2.0611241348       -1.3052337397
 C           6.0    -2.7246069291       -1.2389043576        0.9777442260
 C           6.0    -5.1574401657       -0.0587704782       -0.0462982867
 H           1.0     2.1062885859       -1.4282549015        2.6416479582
 H           1.0     1.9777872187       -4.0661234078       -1.2290777824
 H           1.0     3.2388013704       -1.5089462012       -3.0135460326
 H           1.0     5.0981027697       -2.9676256911       -0.6198301240
 H           1.0     3.9047408084        2.6945602859       -0.9692404591
 H           1.0     3.1178589071        3.1320318521        2.2718285824
 H           1.0     5.7638532352        1.2358807960        1.4244754495
 H           1.0    -2.5789090554       -3.1870228783        0.3248438973
 H           1.0    -2.7591889147       -1.2056451802        3.0369786349
 H           1.0    -6.7793919810       -1.1328907296        0.6306015621
 H           1.0    -5.3031380393        1.8893480425        0.6066020421
 H           1.0    -5.1228581801       -0.0922186282       -2.1055326955

          INTERNUCLEAR DISTANCES (ANGS.)




     $CONTRL OPTIONS
     ---------------
 SCFTYP=RHF          RUNTYP=OPTIMIZE     EXETYP=RUN     
 MPLEVL=       0     CITYP =NONE         CCTYP =NONE         VBTYP =NONE    
 DFTTYP=NONE         TDDFT =NONE    
 MULT  =       1     ICHARG=       0     NZVAR =       1     COORD =UNIQUE  
 PP    =NONE         RELWFN=NONE         LOCAL =NONE         NUMGRD=       F
 ISPHER=      -1     NOSYM =       0     MAXIT =     200     UNITS =ANGS    
 PLTORB=       F     MOLPLT=       F     AIMPAC=       F     FRIEND=        
 NPRINT=       7     IREST =       0     GEOM  =INPUT   
 NORMF =       0     NORMP =       0     ITOL  =      20     ICUT  =       9
 INTTYP=BEST         GRDTYP=BEST         QMTTOL= 1.0E-06

     $SYSTEM OPTIONS
     ---------------
  REPLICATED MEMORY=    40000000 WORDS (ON EVERY NODE).
 DISTRIBUTED MEMDDI=           0 MILLION WORDS IN AGGREGATE,
 MEMDDI DISTRIBUTED OVER   1 PROCESSORS IS           0 WORDS/PROCESSOR.
 TOTAL MEMORY REQUESTED ON EACH PROCESSOR=    40000000 WORDS.
 TIMLIM=       10000.00 MINUTES, OR       6.9 DAYS.
 PARALL= F  BALTYP=  DLB     KDIAG=    0  COREFL= F
 MXSEQ2=     300 MXSEQ3=     150  mem10=         0

     $COSGMS OPTIONS
     ---------------
     EPSI  =   INFTY     NSPA  =      92     COSRAD=    1.40
     DISEX =   10.00     OUTCHG=DBLCAV       COSBUG=       F
     COSWRT=       F     DCOSMO=       F

     SYMMETRY COORDINATES WILL NOT BE USED FOR 
     THE COSMO CALCULATION, EVEN IF SPECIFIED:
         -- SWITCHING TO C1 POINT GROUP --


     DEFINITION OF CAVITY
     ---------------------------
     ATOM         COORDINATES           RADIUS 
     1    2.1535   -0.5337    0.7869    2.0000
     2    3.1916   -2.4035   -1.1588    2.0000
     3    3.8575    1.8000    0.8855    2.0000
     4   -0.4821    0.2462    0.0418    2.0000
     5   -0.7973    2.0611   -1.3052    1.7200
     6   -2.7246   -1.2389    0.9777    2.0000
     7   -5.1574   -0.0588   -0.0463    2.0000
     8    2.1063   -1.4283    2.6416    1.3000
     9    1.9778   -4.0661   -1.2291    1.3000
    10    3.2388   -1.5089   -3.0135    1.3000
    11    5.0981   -2.9676   -0.6198    1.3000
    12    3.9047    2.6946   -0.9692    1.3000
    13    3.1179    3.1320    2.2718    1.3000
    14    5.7639    1.2359    1.4245    1.3000
    15   -2.5789   -3.1870    0.3248    1.3000
    16   -2.7592   -1.2056    3.0370    1.3000
    17   -6.7794   -1.1329    0.6306    1.3000
    18   -5.3031    1.8893    0.6066    1.3000
    19   -5.1229   -0.0922   -2.1055    1.3000

          ----------------
          PROPERTIES INPUT
          ----------------

     MOMENTS            FIELD           POTENTIAL          DENSITY
 IEMOM =       1   IEFLD =       0   IEPOT =       0   IEDEN =       0
 WHERE =COMASS     WHERE =NUCLEI     WHERE =NUCLEI     WHERE =NUCLEI  
 OUTPUT=BOTH       OUTPUT=BOTH       OUTPUT=BOTH       OUTPUT=BOTH    
 IEMINT=       0   IEFINT=       0                     IEDINT=       0
                                                       MORB  =       0
          EXTRAPOLATION IN EFFECT
          SOSCF IN EFFECT
 ORBITAL PRINTING OPTION: NPREO=     1   205     2     1

     -------------------------------
     INTEGRAL TRANSFORMATION OPTIONS
     -------------------------------
     NWORD  =            0
     CUTOFF = 1.0E-09     MPTRAN =       0
     DIRTRF =       T     AOINTS =DUP     

          ----------------------
          INTEGRAL INPUT OPTIONS
          ----------------------
 NOPK  =       1 NORDER=       0 SCHWRZ=       T


 -----------------------------------------------
  STATISTICS ON AUTOMATIC COORDINATE GENERATION 
 -----------------------------------------------
  NUMBER OF USER SPECIFIED BONDS                             0
  NUMBER OF BONDS                                           18
  NUMBER OF ANGLES                                          33
  NUMBER OF TORSIONS                                        39
  NUMBER OF EXTRA COORD.                                     0
  NUMBER OF EXTRA COORD. FOR CONSTRAINTS                     0
  NUMBER OF CONSTRAINED COORD.                               0

  TOTAL NUMBER OF PRIMITIVES                                90
 -----------------------------------------------

   --- ENCODED Z MATRIX ---
 COORD  TYPE   I   J   K   L   M   N
    1      1    1   4
    2      1    1   8
    3      1    1   3
    4      1    1   2
    5      1    2  11
    6      1    2  10
    7      1    2   9
    8      1    3  14
    9      1    3  13
   10      1    3  12
   11      1    4   6
   12      1    4   5
   13      1    6  16
   14      1    6  15
   15      1    6   7
   16      1    7  19
   17      1    7  18
   18      1    7  17
   19      2    1   3  14
   20      2    1   3  13
   21      2    1   2   9
   22      2    1   4   6
   23      2    1   3  12
   24      2    1   4   5
   25      2    1   2  10
   26      2    1   2  11
   27      2    2   1   8
   28      2    2   1   3
   29      2    2   1   4
   30      2    3   1   8
   31      2    3   1   4
   32      2    4   1   8
   33      2    4   6   7
   34      2    4   6  15
   35      2    4   6  16
   36      2    5   4   6
   37      2    6   7  17
   38      2    6   7  18
   39      2    6   7  19
   40      2    7   6  15
   41      2    7   6  16
   42      2    9   2  10
   43      2    9   2  11
   44      2   10   2  11
   45      2   12   3  13
   46      2   12   3  14
   47      2   13   3  14
   48      2   15   6  16
   49      2   17   7  18
   50      2   17   7  19
   51      2   18   7  19
   52      3    1   4   6   7
   53      3    1   4   6  15
   54      3    1   4   6  16
   55      3    2   1   3  14
   56      3    2   1   3  13
   57      3    2   1   4   6
   58      3    2   1   4   5
   59      3    2   1   3  12
   60      3    3   1   2  11
   61      3    3   1   2  10
   62      3    3   1   4   6
   63      3    3   1   4   5
   64      3    3   1   2   9
   65      3    4   6   7  17
   66      3    4   1   2   9
   67      3    4   6   7  18
   68      3    4   6   7  19
   69      3    4   1   2  11
   70      3    4   1   2  10
   71      3    4   1   3  13
   72      3    4   1   3  14
   73      3    4   1   3  12
   74      3    5   4   6  16
   75      3    5   4   6  15
   76      3    5   4   6   7
   77      3    5   4   1   8
   78      3    6   4   1   8
   79      3    8   1   2  11
   80      3    8   1   2  10
   81      3    8   1   3  13
   82      3    8   1   3  12
   83      3    8   1   3  14
   84      3    8   1   2   9
   85      3   15   6   7  19
   86      3   15   6   7  18
   87      3   15   6   7  17
   88      3   16   6   7  19
   89      3   16   6   7  18
   90      3   16   6   7  17

          INDEP./SYM. INTERNAL COORDINATES
          --------------------------------
 CRD  1=  -0.4998 ( 22)  0.2369 ( 24) -0.1944 ( 29)  0.2957 ( 31)  0.4710 ( 33)
          -0.1574 ( 34) -0.1597 ( 35)  0.2629 ( 36) -0.1472 ( 40)  0.1045 ( 53)
           0.1419 ( 66)  0.1401 ( 69)  0.1228 ( 70)
 CRD  2=   0.2463 (  1)  0.1700 ( 11)  0.1461 ( 15)  0.1168 ( 21) -0.1110 ( 26)
          -0.2434 ( 28)  0.4353 ( 29)  0.1242 ( 30) -0.1380 ( 31) -0.1227 ( 32)
           0.3675 ( 33) -0.1058 ( 34)  0.1448 ( 39) -0.1992 ( 41) -0.2271 ( 52)
          -0.1469 ( 54)  0.1417 ( 55)  0.1350 ( 56)  0.1579 ( 57)  0.1348 ( 59)
          -0.1647 ( 71) -0.1579 ( 72) -0.1649 ( 73) -0.1095 ( 76)
 CRD  3=  -0.3014 (  1) -0.2879 ( 11) -0.1575 ( 15) -0.1494 ( 20) -0.3672 ( 22)
           0.1503 ( 24)  0.1020 ( 25) -0.1527 ( 27)  0.3380 ( 28) -0.3320 ( 31)
           0.2170 ( 36)  0.1081 ( 40) -0.1741 ( 52) -0.1174 ( 54) -0.1023 ( 57)
          -0.1709 ( 58)  0.1312 ( 60)  0.1615 ( 62) -0.1110 ( 71) -0.1183 ( 72)
          -0.1054 ( 76)
 CRD  4=   0.1865 (  1)  0.2276 (  3)  0.1997 (  4)  0.1734 ( 11)  0.2042 ( 15)
           0.1789 ( 19) -0.1022 ( 21)  0.2563 ( 22) -0.2132 ( 24)  0.1719 ( 26)
          -0.1157 ( 27)  0.3933 ( 28) -0.1723 ( 29) -0.1095 ( 30) -0.1749 ( 31)
           0.1791 ( 32)  0.3161 ( 33)  0.1181 ( 38) -0.1299 ( 40) -0.1598 ( 57)
          -0.1284 ( 58)  0.1093 ( 62)  0.1406 ( 63)
 CRD  5=  -0.1508 (  3)  0.1807 (  4) -0.1755 ( 20)  0.1636 ( 21)  0.1019 ( 27)
          -0.1052 ( 30)  0.1629 ( 34) -0.1817 ( 35) -0.1101 ( 40)  0.1128 ( 41)
           0.1056 ( 52)  0.3600 ( 57)  0.2577 ( 58)  0.3765 ( 62)  0.2742 ( 63)
           0.1325 ( 65)  0.1653 ( 67)  0.1673 ( 68)  0.1735 ( 74)  0.1802 ( 75)
           0.2078 ( 76)  0.1263 ( 77)  0.2286 ( 78)
 CRD  6=   0.1762 (  1)  0.3847 (  3)  0.1753 (  4)  0.1361 ( 11)  0.3265 ( 23)
           0.2120 ( 24)  0.1741 ( 25) -0.1216 ( 30)  0.1808 ( 31) -0.1075 ( 32)
          -0.2408 ( 33)  0.1290 ( 34) -0.1343 ( 36)  0.1160 ( 37) -0.2110 ( 38)
           0.1297 ( 40) -0.1333 ( 45) -0.1175 ( 46) -0.1977 ( 52) -0.1072 ( 53)
          -0.1099 ( 61)  0.1748 ( 62) -0.1229 ( 64)  0.1071 ( 65)  0.1213 ( 66)
           0.1619 ( 69)  0.1343 ( 70) -0.1279 ( 72) -0.1207 ( 76)
 CRD  7=   0.1087 (  1)  0.4147 (  4)  0.1100 ( 21) -0.1063 ( 22)  0.1897 ( 24)
           0.2807 ( 25)  0.1710 ( 29)  0.1010 ( 35)  0.2731 ( 38) -0.3274 ( 39)
           0.1364 ( 41) -0.1551 ( 42) -0.1146 ( 44)  0.2648 ( 52)  0.1014 ( 55)
          -0.1274 ( 57) -0.1031 ( 62) -0.2142 ( 65) -0.1228 ( 67) -0.1341 ( 68)
           0.1913 ( 76)
 CRD  8=   0.1435 (  1) -0.3268 (  3) -0.2703 (  4) -0.1002 ( 11)  0.2021 ( 15)
          -0.2187 ( 19) -0.3057 ( 20) -0.3248 ( 21)  0.2339 ( 23)  0.1225 ( 24)
           0.2678 ( 25) -0.1833 ( 26) -0.1697 ( 36)  0.1161 ( 38)  0.1848 ( 43)
           0.1961 ( 47)  0.1552 ( 56)  0.1100 ( 59) -0.1192 ( 61) -0.1602 ( 64)
 CRD  9=  -0.2196 (  1) -0.1470 (  4)  0.3404 ( 11) -0.3452 ( 15)  0.2095 ( 23)
          -0.3684 ( 24)  0.2124 ( 25) -0.2935 ( 26)  0.1113 ( 34)  0.2969 ( 36)
          -0.2349 ( 39) -0.1831 ( 40)  0.1322 ( 43)  0.1222 ( 50)  0.1352 ( 51)
 CRD 10=  -0.1948 (  1)  0.1708 ( 11)  0.4644 ( 15)  0.1064 ( 18)  0.1063 ( 19)
          -0.1381 ( 22) -0.1303 ( 24) -0.1076 ( 26)  0.2685 ( 36)  0.5330 ( 37)
          -0.1215 ( 39)  0.1111 ( 40)  0.1790 ( 41) -0.2358 ( 49) -0.1896 ( 50)
          -0.1039 ( 54)
 CRD 11=  -0.1159 (  1) -0.3047 (  3)  0.3032 (  4) -0.1025 (  8)  0.1610 ( 11)
          -0.4602 ( 19)  0.1253 ( 20) -0.1299 ( 21) -0.1908 ( 24)  0.3425 ( 26)
           0.1132 ( 27) -0.1019 ( 30) -0.1083 ( 34)  0.1303 ( 35)  0.1609 ( 36)
           0.1295 ( 37) -0.1413 ( 38)  0.1107 ( 40) -0.1251 ( 41) -0.1874 ( 44)
           0.1863 ( 46)  0.1388 ( 47) -0.1016 ( 78)
 CRD 12=   0.2156 (  1) -0.1456 (  3) -0.1086 (  7)  0.2371 ( 11)  0.1309 ( 12)
          -0.1690 ( 15)  0.3474 ( 19) -0.2785 ( 20) -0.3678 ( 21) -0.2070 ( 23)
           0.1015 ( 24)  0.3394 ( 26)  0.1447 ( 37) -0.2326 ( 39)  0.1530 ( 42)
          -0.1229 ( 44)  0.1916 ( 45)  0.1338 ( 51)
 CRD 13=   0.1033 (  6)  0.1081 (  9) -0.1135 ( 10)  0.3828 ( 20) -0.2727 ( 21)
          -0.4276 ( 23)  0.4301 ( 25) -0.1023 ( 26)  0.1678 ( 34) -0.1669 ( 35)
          -0.1509 ( 38)  0.1616 ( 39) -0.1043 ( 40)  0.1022 ( 41)  0.1379 ( 43)
          -0.1313 ( 44)  0.1680 ( 46) -0.1492 ( 47)  0.1584 ( 65)  0.1435 ( 67)
           0.1450 ( 68)
 CRD 14=   0.1466 (  3) -0.1335 (  4)  0.1136 (  5) -0.1087 (  8) -0.2585 ( 19)
           0.2495 ( 20) -0.2483 ( 21)  0.1583 ( 23) -0.2043 ( 25)  0.3168 ( 26)
           0.1044 ( 29)  0.1178 ( 30)  0.1830 ( 34) -0.1752 ( 35)  0.3109 ( 38)
          -0.1760 ( 39) -0.1460 ( 40)  0.1777 ( 41)  0.1981 ( 42) -0.1852 ( 45)
          -0.1322 ( 53) -0.1481 ( 54) -0.1010 ( 58)  0.1267 ( 67)  0.1370 ( 68)
 CRD 15=   0.2157 (  1) -0.1032 (  6)  0.1256 ( 12) -0.1188 ( 13) -0.1177 ( 14)
          -0.1859 ( 15) -0.1241 ( 17)  0.1397 ( 18) -0.1632 ( 19)  0.1015 ( 20)
           0.1460 ( 21) -0.1883 ( 25) -0.1302 ( 27)  0.1412 ( 32)  0.1561 ( 33)
          -0.1630 ( 35)  0.3943 ( 37) -0.3969 ( 38) -0.1931 ( 39) -0.1447 ( 40)
           0.1057 ( 48)  0.2595 ( 51)  0.1052 ( 56) -0.1001 ( 66)
 CRD 16=  -0.1296 ( 10) -0.1881 ( 13) -0.1884 ( 16)  0.1499 ( 17)  0.1585 ( 20)
          -0.2218 ( 23) -0.1510 ( 26) -0.1272 ( 29) -0.1696 ( 30)  0.2887 ( 38)
          -0.4390 ( 39)  0.1157 ( 40) -0.1687 ( 41)  0.1051 ( 46) -0.1884 ( 49)
           0.1719 ( 50) -0.2491 ( 52) -0.1188 ( 53) -0.1037 ( 54) -0.1093 ( 60)
           0.1358 ( 62) -0.2109 ( 76)
 CRD 17=  -0.1215 (  1)  0.1833 (  3) -0.2525 ( 11) -0.2890 ( 12) -0.1530 ( 14)
           0.1027 ( 20) -0.2435 ( 21)  0.1011 ( 22)  0.1263 ( 23)  0.1501 ( 30)
           0.1486 ( 33) -0.2704 ( 34) -0.1172 ( 36)  0.1149 ( 37)  0.1763 ( 40)
          -0.2255 ( 41) -0.1254 ( 45)  0.1438 ( 53)  0.1346 ( 54)  0.1365 ( 57)
           0.1694 ( 58)  0.1160 ( 60)  0.1152 ( 61)  0.1160 ( 64)  0.1017 ( 74)
           0.1109 ( 75)  0.2276 ( 77)  0.1948 ( 78)
 CRD 18=   0.1829 (  1) -0.1416 (  2) -0.1382 (  4)  0.2524 ( 11)  0.3521 ( 12)
           0.1321 ( 13)  0.1792 ( 20) -0.1509 ( 22) -0.1001 ( 23) -0.1682 ( 25)
          -0.1830 ( 27)  0.1162 ( 28)  0.1186 ( 32) -0.1540 ( 33)  0.2309 ( 35)
           0.1068 ( 36) -0.1064 ( 37)  0.1882 ( 40) -0.1304 ( 41)  0.1137 ( 53)
           0.1193 ( 54)  0.1528 ( 55)  0.1524 ( 56)  0.1551 ( 59)  0.1128 ( 62)
           0.1541 ( 63)  0.1125 ( 71)  0.1129 ( 72)  0.1152 ( 73)  0.1945 ( 77)
           0.1532 ( 78)
 CRD 19=   0.1182 (  1)  0.6357 (  2) -0.1256 (  7) -0.1044 (  9)  0.2978 ( 12)
          -0.1877 ( 13)  0.2399 ( 14)  0.1463 ( 23)  0.1619 ( 25)  0.1079 ( 36)
           0.1166 ( 40) -0.1113 ( 44) -0.1242 ( 62) -0.1055 ( 63)  0.1073 ( 65)
           0.1308 ( 71)  0.1586 ( 72)  0.1393 ( 73)
 CRD 20=  -0.1649 (  2) -0.1722 (  5) -0.2838 (  6) -0.1544 (  7)  0.2288 (  8)
           0.2508 (  9)  0.3320 ( 10) -0.1948 ( 12) -0.1900 ( 13)  0.1701 ( 14)
          -0.1284 ( 19) -0.1818 ( 20)  0.1786 ( 21) -0.1214 ( 23) -0.1122 ( 42)
          -0.1506 ( 43)  0.1440 ( 45)  0.1202 ( 46)  0.1674 ( 47)  0.1223 ( 60)
           0.1086 ( 61)  0.1018 ( 64)  0.1567 ( 66)  0.1772 ( 69)  0.1635 ( 70)
           0.1033 ( 79)
 CRD 21=  -0.2493 (  2) -0.1065 (  4) -0.2875 (  5) -0.3923 (  6) -0.3419 (  7)
          -0.2372 (  8) -0.2956 (  9) -0.3357 ( 10)  0.1407 ( 16)  0.1475 ( 17)
           0.1312 ( 18)  0.1538 ( 19)  0.1115 ( 21)  0.1722 ( 26) -0.1517 ( 43)
          -0.1364 ( 44) -0.1192 ( 46) -0.1310 ( 47)
 CRD 22=  -0.1104 (  8) -0.1183 (  9) -0.1246 ( 10) -0.1664 ( 15) -0.4869 ( 16)
          -0.4864 ( 17) -0.4669 ( 18)  0.1830 ( 37)  0.1658 ( 38)  0.1654 ( 39)
          -0.1758 ( 49) -0.1755 ( 50) -0.1628 ( 51)
 CRD 23=   0.2019 (  2)  0.1563 (  3) -0.1960 (  4) -0.3275 (  5) -0.1967 (  6)
          -0.3143 (  7)  0.2303 (  8)  0.2506 (  9)  0.1880 ( 10)  0.1261 ( 12)
           0.2950 ( 13) -0.2923 ( 14) -0.1198 ( 53) -0.1276 ( 54)  0.1093 ( 57)
          -0.1218 ( 65) -0.1151 ( 67) -0.1158 ( 68) -0.1112 ( 74) -0.1034 ( 75)
           0.1142 ( 78)
 CRD 24=  -0.2125 (  2)  0.1760 (  3)  0.3372 (  8)  0.1432 (  9) -0.1233 ( 11)
          -0.1814 ( 13) -0.1293 ( 24)  0.1082 ( 29)  0.1576 ( 36)  0.1522 ( 40)
           0.1871 ( 53)  0.1261 ( 54) -0.2296 ( 60) -0.2061 ( 61) -0.2319 ( 64)
          -0.1935 ( 66) -0.1913 ( 69) -0.1677 ( 70)  0.1397 ( 74)  0.2007 ( 75)
          -0.2216 ( 79) -0.1981 ( 80) -0.2238 ( 84)
 CRD 25=  -0.1123 (  4) -0.2790 (  5) -0.1069 (  8) -0.1086 (  9)  0.1086 ( 11)
           0.2314 ( 14)  0.1489 ( 24) -0.1024 ( 31) -0.1571 ( 36) -0.1553 ( 41)
           0.1160 ( 53)  0.2024 ( 54) -0.2380 ( 55) -0.2193 ( 56) -0.1059 ( 58)
          -0.1882 ( 59) -0.2141 ( 71) -0.2329 ( 72) -0.1831 ( 73)  0.2410 ( 74)
           0.1546 ( 75)  0.1062 ( 76) -0.2275 ( 81) -0.1965 ( 82) -0.2463 ( 83)
 CRD 26=   0.5187 ( 13)  0.4992 ( 14)  0.1411 ( 16)  0.1456 ( 17) -0.3566 ( 18)
           0.2151 ( 48)  0.2011 ( 51) -0.1103 ( 53) -0.1155 ( 75)  0.1676 ( 85)
          -0.1791 ( 89)
 CRD 27=   0.2402 (  5)  0.2326 (  6) -0.4995 (  7) -0.1889 (  8)  0.3398 (  9)
          -0.1281 ( 10)  0.1900 ( 16) -0.2206 ( 17) -0.1303 ( 42) -0.1231 ( 43)
           0.2608 ( 44) -0.1735 ( 46) -0.1006 ( 49)  0.1159 ( 50) -0.1115 ( 59)
           0.1272 ( 60) -0.1465 ( 61)  0.1286 ( 69) -0.1451 ( 70) -0.1141 ( 73)
           0.1147 ( 79) -0.1590 ( 80) -0.1223 ( 82)
 CRD 28=  -0.1758 (  6)  0.2593 (  7)  0.4996 ( 16) -0.4939 ( 17) -0.1355 ( 44)
          -0.2690 ( 49)  0.2661 ( 50)  0.1996 ( 65)  0.1916 ( 87)  0.1921 ( 90)
 CRD 29=   0.3275 (  5) -0.3018 (  7)  0.3343 (  8) -0.5021 (  9)  0.1756 ( 10)
           0.1294 ( 16) -0.1057 ( 18) -0.1674 ( 42)  0.1596 ( 44) -0.1707 ( 45)
           0.2635 ( 46) -0.1282 ( 55)  0.1531 ( 59) -0.1140 ( 61) -0.1129 ( 70)
          -0.1252 ( 72)  0.1560 ( 73) -0.1222 ( 80)  0.1714 ( 82) -0.1098 ( 83)
 CRD 30=   0.3122 (  5) -0.3423 (  6) -0.4361 (  8)  0.4036 ( 10)  0.1232 ( 17)
          -0.1740 ( 42)  0.1887 ( 43)  0.2354 ( 45) -0.2218 ( 47) -0.1034 ( 55)
           0.1279 ( 56) -0.1239 ( 59) -0.1015 ( 60)  0.1034 ( 66)  0.1333 ( 71)
          -0.1185 ( 73)  0.1307 ( 81) -0.1211 ( 82) -0.1006 ( 83)  0.1047 ( 84)
 CRD 31=   0.2251 (  5) -0.2390 (  6)  0.1397 (  8) -0.1253 ( 10)  0.2681 ( 13)
           0.2563 ( 14) -0.2656 ( 16) -0.2491 ( 17)  0.4909 ( 18) -0.1183 ( 42)
           0.1320 ( 43)  0.1170 ( 48)  0.1290 ( 49)  0.1206 ( 50) -0.2429 ( 51)
           0.1352 ( 67) -0.1356 ( 68)  0.1878 ( 86) -0.1855 ( 88)
 CRD 32=   0.2233 (  5) -0.3669 (  6)  0.1624 (  8)  0.1812 (  9) -0.3935 ( 10)
          -0.1935 ( 13) -0.1691 ( 14)  0.1045 ( 16)  0.1309 ( 17) -0.1978 ( 18)
          -0.1671 ( 42)  0.2160 ( 43) -0.1314 ( 45)  0.2318 ( 47)  0.1017 ( 51)
          -0.2034 ( 56)  0.1938 ( 64)  0.1547 ( 66) -0.1707 ( 71) -0.1778 ( 81)
           0.1553 ( 84)  0.1127 ( 88)
 CRD 33=  -0.3234 ( 13)  0.3221 ( 14)  0.1235 ( 34) -0.1242 ( 35) -0.1898 ( 65)
          -0.1946 ( 67) -0.1942 ( 68) -0.3131 ( 85) -0.3135 ( 86) -0.3087 ( 87)
          -0.3128 ( 88) -0.3132 ( 89) -0.3084 ( 90)
 CRD 34=  -0.4388 (  1)  0.1639 ( 11)  0.1866 ( 12)  0.1851 ( 18)  0.2995 ( 24)
           0.1379 ( 34)  0.1347 ( 35) -0.3001 ( 36)  0.1373 ( 37) -0.1958 ( 40)
          -0.1969 ( 41) -0.1387 ( 49) -0.1353 ( 50) -0.1165 ( 53)  0.1148 ( 54)
           0.1099 ( 74) -0.1213 ( 75) -0.1702 ( 79) -0.1800 ( 80)  0.1248 ( 81)
           0.1291 ( 82)  0.1217 ( 83) -0.1746 ( 84) -0.1182 ( 86)  0.1112 ( 88)
 CRD 35=   0.3944 (  2) -0.1325 (  6) -0.1029 (  9) -0.2202 ( 10)  0.2364 ( 11)
          -0.5651 ( 12) -0.1073 ( 19) -0.1139 ( 20) -0.1798 ( 23) -0.1196 ( 27)
           0.1802 ( 45)  0.1565 ( 46) -0.1123 ( 48) -0.1243 ( 64) -0.1213 ( 80)
          -0.1535 ( 84)
 CRD 36=   0.1473 (  2) -0.1267 (  3)  0.2708 (  4) -0.1932 (  5) -0.2435 (  6)
          -0.2470 (  7)  0.1852 (  9)  0.1076 ( 19)  0.1391 ( 20) -0.2405 ( 21)
          -0.2490 ( 25) -0.2252 ( 26)  0.1393 ( 27) -0.1436 ( 30)  0.2663 ( 42)
           0.2267 ( 43)  0.2218 ( 44) -0.1183 ( 45) -0.1685 ( 47) -0.2146 ( 77)
          -0.1839 ( 78)  0.1491 ( 81)  0.1553 ( 82)
 CRD 37=  -0.1808 (  1) -0.1100 (  2)  0.1741 ( 11)  0.2206 ( 12)  0.3392 ( 15)
          -0.2273 ( 16) -0.2238 ( 17) -0.2375 ( 18)  0.1027 ( 22)  0.1270 ( 24)
           0.1042 ( 33) -0.1045 ( 35) -0.2297 ( 36) -0.2510 ( 37) -0.2405 ( 38)
          -0.2392 ( 39)  0.2447 ( 49)  0.2479 ( 50)  0.2381 ( 51) -0.1101 ( 54)
          -0.1183 ( 74)
 CRD 38=  -0.3906 (  3) -0.2306 (  4)  0.1591 (  5)  0.2333 (  8)  0.1936 (  9)
           0.1707 ( 10)  0.1449 ( 11) -0.2784 ( 12)  0.2270 ( 19)  0.2155 ( 20)
           0.1314 ( 21)  0.2051 ( 23)  0.1301 ( 24)  0.1145 ( 25)  0.1364 ( 26)
           0.1140 ( 32) -0.1435 ( 43) -0.1452 ( 44) -0.1888 ( 45) -0.2206 ( 46)
          -0.2382 ( 47)
 CRD 39=  -0.1643 (  1)  0.2311 (  2) -0.1665 (  4)  0.1283 (  5) -0.1139 (  6)
           0.1038 (  7) -0.1203 ( 10)  0.2105 ( 12)  0.1851 ( 13) -0.2704 ( 14)
          -0.1191 ( 16)  0.1178 ( 17)  0.1151 ( 22) -0.1680 ( 43)  0.1207 ( 50)
          -0.2138 ( 58) -0.1420 ( 63)  0.1770 ( 69)  0.1022 ( 70)  0.2810 ( 74)
           0.2369 ( 75)  0.1243 ( 76) -0.2192 ( 77)  0.1505 ( 79) -0.1202 ( 85)
          -0.1972 ( 88) -0.1730 ( 89)
 CRD 40=   0.2070 (  1) -0.2032 (  2)  0.1159 (  4) -0.1742 (  5)  0.2123 ( 10)
          -0.1715 ( 12)  0.2816 ( 13) -0.2082 ( 14) -0.1049 ( 15) -0.1660 ( 16)
           0.2012 ( 17)  0.1126 ( 34)  0.1126 ( 43) -0.1111 ( 45)  0.1314 ( 47)
          -0.1733 ( 49)  0.1164 ( 50) -0.1183 ( 56) -0.1233 ( 63)  0.1791 ( 65)
          -0.1429 ( 70)  0.1925 ( 72)  0.1046 ( 73)  0.1476 ( 75) -0.1218 ( 79)
          -0.1665 ( 80)  0.1568 ( 83) -0.1791 ( 85) -0.1844 ( 86) -0.1404 ( 88)
          -0.1457 ( 89)
 CRD 41=   0.1037 (  3)  0.1641 (  4) -0.1187 (  7) -0.1459 (  9) -0.3371 ( 11)
           0.1052 ( 13)  0.3009 ( 15) -0.2255 ( 16) -0.1232 ( 17)  0.1851 ( 18)
           0.1219 ( 32)  0.2172 ( 34)  0.1600 ( 35) -0.1100 ( 40) -0.1210 ( 41)
           0.1011 ( 42)  0.1003 ( 45) -0.1064 ( 48)  0.2530 ( 51) -0.1183 ( 67)
           0.1248 ( 68)  0.1558 ( 80) -0.1901 ( 82) -0.2926 ( 86) -0.1174 ( 87)
           0.2222 ( 88)  0.1543 ( 90)
 CRD 42=  -0.1889 (  1) -0.2053 (  3)  0.3527 (  4) -0.1844 (  6)  0.2207 (  8)
          -0.1917 (  9)  0.1357 ( 11)  0.1309 ( 17) -0.1213 ( 18) -0.1691 ( 27)
          -0.1115 ( 35)  0.1008 ( 42)  0.1363 ( 44)  0.1063 ( 45) -0.2165 ( 46)
          -0.1034 ( 51) -0.1516 ( 59)  0.1108 ( 69) -0.1387 ( 73) -0.1236 ( 75)
          -0.1144 ( 76)  0.2466 ( 77)  0.1471 ( 78) -0.1172 ( 81) -0.3085 ( 82)
           0.1069 ( 86)  0.1170 ( 87) -0.1540 ( 88)
 CRD 43=   0.1892 (  1) -0.2621 (  3) -0.1954 (  5) -0.1386 (  6)  0.3300 (  7)
           0.1097 (  9) -0.2302 ( 11)  0.1309 ( 15) -0.1037 ( 17) -0.1667 ( 24)
           0.1168 ( 30) -0.1777 ( 32) -0.1503 ( 42) -0.1059 ( 43)  0.2609 ( 44)
           0.1027 ( 51)  0.1697 ( 60) -0.1942 ( 61)  0.1099 ( 66)  0.2613 ( 69)
          -0.1025 ( 70)  0.1208 ( 77)  0.1083 ( 78) -0.3145 ( 80) -0.1022 ( 84)
           0.1064 ( 88)
 CRD 44=  -0.1191 (  1)  0.1154 ( 12)  0.1507 ( 13)  0.1605 ( 14) -0.4157 ( 15)
           0.2869 ( 18)  0.1659 ( 22) -0.1168 ( 34) -0.1116 ( 35) -0.1778 ( 36)
           0.1059 ( 38)  0.1895 ( 40)  0.1879 ( 41) -0.2428 ( 48) -0.1460 ( 49)
          -0.1626 ( 50)  0.1224 ( 51)  0.2131 ( 53) -0.2242 ( 54) -0.1350 ( 67)
           0.1407 ( 68) -0.2207 ( 74)  0.2166 ( 75)  0.1103 ( 85) -0.1655 ( 86)
           0.1766 ( 88)
 CRD 45=  -0.2215 (  5)  0.1601 (  6)  0.2425 (  8) -0.2312 (  9)  0.1754 ( 16)
          -0.1531 ( 17) -0.1260 ( 19)  0.1020 ( 20)  0.1120 ( 26) -0.1848 ( 42)
           0.1122 ( 43)  0.2025 ( 45) -0.1678 ( 46)  0.1396 ( 49) -0.1169 ( 50)
          -0.1041 ( 52)  0.1417 ( 55)  0.1695 ( 56) -0.1410 ( 59)  0.1884 ( 64)
          -0.1570 ( 65)  0.1373 ( 66) -0.1441 ( 70)  0.1401 ( 71)  0.1123 ( 72)
          -0.1703 ( 73)  0.1182 ( 74)  0.1047 ( 75) -0.1386 ( 77)  0.1736 ( 81)
          -0.1369 ( 82)  0.1457 ( 83)  0.1990 ( 84) -0.1600 ( 87) -0.1514 ( 90)
 CRD 46=  -0.1711 (  5)  0.1985 (  6)  0.1555 (  8)  0.1436 (  9) -0.2962 ( 10)
          -0.1747 ( 16)  0.1695 ( 17)  0.1337 ( 23) -0.1304 ( 42)  0.1570 ( 43)
           0.1187 ( 45)  0.1098 ( 46) -0.2320 ( 47) -0.1368 ( 49)  0.1313 ( 50)
           0.1131 ( 52) -0.1356 ( 55)  0.2282 ( 56) -0.1242 ( 62)  0.2146 ( 64)
           0.1528 ( 65)  0.1755 ( 66)  0.1814 ( 71) -0.1824 ( 72)  0.1754 ( 81)
          -0.1884 ( 83)  0.1604 ( 84)  0.1657 ( 87)  0.1628 ( 90)
 CRD 47=  -0.1181 (  3) -0.1154 (  7)  0.2166 ( 11) -0.1044 ( 13) -0.1959 ( 14)
          -0.1757 ( 17)  0.2142 ( 18) -0.2031 ( 33) -0.1911 ( 37)  0.1275 ( 38)
           0.1000 ( 40)  0.2409 ( 48) -0.1248 ( 50)  0.1783 ( 51) -0.1025 ( 53)
          -0.1078 ( 67)  0.2145 ( 68)  0.1031 ( 70)  0.1206 ( 74) -0.1576 ( 79)
           0.3485 ( 85)  0.1045 ( 87) -0.3405 ( 89) -0.2623 ( 90)
 CRD 48=   0.1446 (  3) -0.1937 (  4)  0.1038 (  7) -0.1613 (  9)  0.1151 ( 11)
          -0.2031 ( 13) -0.2070 ( 16)  0.1171 ( 17)  0.1011 ( 20)  0.1305 ( 27)
          -0.1397 ( 30)  0.1538 ( 39)  0.1403 ( 41) -0.1027 ( 46)  0.1048 ( 48)
          -0.1544 ( 49)  0.1756 ( 52)  0.1205 ( 55)  0.1087 ( 58)  0.1208 ( 62)
           0.1490 ( 63) -0.2236 ( 67) -0.1086 ( 70) -0.1588 ( 73)  0.1474 ( 76)
          -0.1185 ( 78)  0.1244 ( 79)  0.2185 ( 83)  0.1343 ( 85)  0.2975 ( 87)
          -0.1468 ( 89)  0.1427 ( 90)
 CRD 49=  -0.2035 (  1) -0.1124 (  2)  0.2230 (  3) -0.1158 (  5)  0.1684 (  7)
          -0.1013 (  8)  0.1037 (  9)  0.1439 ( 11) -0.1288 ( 20) -0.1710 ( 21)
          -0.1049 ( 22)  0.1242 ( 24) -0.2243 ( 28)  0.2214 ( 32)  0.1431 ( 44)
           0.1098 ( 46)  0.1191 ( 57)  0.1492 ( 58)  0.1363 ( 59) -0.1783 ( 61)
          -0.1101 ( 62) -0.1072 ( 66) -0.2751 ( 70)  0.1778 ( 73)  0.3176 ( 79)
          -0.1703 ( 81) -0.2175 ( 83)  0.2207 ( 84) -0.1072 ( 90)
 CRD 50=   0.2045 (  1) -0.2044 (  2)  0.1315 (  5) -0.1625 (  6)  0.1402 (  8)
          -0.1484 ( 10) -0.1433 ( 19)  0.1281 ( 23)  0.1547 ( 25) -0.1192 ( 26)
           0.1898 ( 27)  0.1198 ( 30) -0.1753 ( 31) -0.1287 ( 43)  0.1130 ( 45)
          -0.1069 ( 47) -0.2551 ( 55)  0.1433 ( 58) -0.2581 ( 59)  0.2822 ( 60)
           0.2311 ( 61) -0.1130 ( 62) -0.2465 ( 66)  0.1939 ( 71)  0.2575 ( 81)
          -0.2178 ( 84)
 CRD 51=  -0.1029 (  2)  0.1436 (  4) -0.1301 ( 13)  0.1258 ( 14) -0.1475 ( 29)
           0.1016 ( 30) -0.1300 ( 34)  0.1317 ( 35) -0.2775 ( 53) -0.2724 ( 54)
           0.2323 ( 57) -0.1800 ( 58)  0.1019 ( 62) -0.3104 ( 63) -0.1822 ( 67)
          -0.1802 ( 68)  0.1732 ( 71)  0.1689 ( 73)  0.1399 ( 74)  0.1348 ( 75)
           0.3162 ( 76) -0.1031 ( 77)  0.3093 ( 78) -0.1110 ( 83)  0.1129 ( 87)
           0.1085 ( 90)

 THE DETERMINANT OF THE G MATRIX IS 10**(   -20)


                     --------------------
                     INTERNAL COORDINATES
                     --------------------

                 - - ATOMS - -         COORDINATE      COORDINATE
 NO.   TYPE    I  J  K  L  M  N        (BOHR,RAD)       (ANG,DEG)
 ----------------------------------------------------------------
   1 STRETCH   1  4                     2.8477750       1.5069777
   2 STRETCH   1  8                     2.0597795       1.0899884
   3 STRETCH   1  3                     2.8911978       1.5299561
   4 STRETCH   1  2                     2.8912912       1.5300055
   5 STRETCH   2 11                     2.0599925       1.0901011
   6 STRETCH   2 10                     2.0597795       1.0899884
   7 STRETCH   2  9                     2.0596983       1.0899455
   8 STRETCH   3 14                     2.0598176       1.0900086
   9 STRETCH   3 13                     2.0599287       1.0900674
  10 STRETCH   3 12                     2.0597795       1.0899884
  11 STRETCH   4  6                     2.8479229       1.5070560
  12 STRETCH   4  5                     2.2820147       1.2075903
  13 STRETCH   6 16                     2.0597933       1.0899958
  14 STRETCH   6 15                     2.0597749       1.0899860
  15 STRETCH   6  7                     2.8913762       1.5300505
  16 STRETCH   7 19                     2.0597964       1.0899974
  17 STRETCH   7 18                     2.0597749       1.0899860
  18 STRETCH   7 17                     2.0597707       1.0899838
  19 BEND      1  3 14                  1.9106436     109.4718150
  20 BEND      1  3 13                  1.9105894     109.4687107
  21 BEND      1  2  9                  1.9107437     109.4775479
  22 BEND      1  4  6                  2.0943457     119.9971702
  23 BEND      1  3 12                  1.9106534     109.4723756
  24 BEND      1  4  5                  2.0944866     120.0052450
  25 BEND      1  2 10                  1.9106075     109.4697443
  26 BEND      1  2 11                  1.9106072     109.4697271
  27 BEND      2  1  8                  1.9106075     109.4697443
  28 BEND      2  1  3                  1.9106760     109.4736719
  29 BEND      2  1  4                  1.9106069     109.4697094
  30 BEND      3  1  8                  1.9106534     109.4723756
  31 BEND      3  1  4                  1.9106349     109.4713160
  32 BEND      4  1  8                  1.9106208     109.4705064
  33 BEND      4  6  7                  1.9106038     109.4695344
  34 BEND      4  6 15                  1.9106377     109.4714776
  35 BEND      4  6 16                  1.9106666     109.4731308
  36 BEND      5  4  6                  2.0943530     119.9975849
  37 BEND      6  7 17                  1.9106275     109.4708906
  38 BEND      6  7 18                  1.9105810     109.4682299
  39 BEND      6  7 19                  1.9106195     109.4704314
  40 BEND      7  6 15                  1.9105810     109.4682299
  41 BEND      7  6 16                  1.9106597     109.4727372
  42 BEND      9  2 10                  1.9106633     109.4729440
  43 BEND      9  2 11                  1.9105934     109.4689362
  44 BEND     10  2 11                  1.9105844     109.4684239
  45 BEND     12  3 13                  1.9106869     109.4742955
  46 BEND     12  3 14                  1.9106167     109.4702715
  47 BEND     13  3 14                  1.9106094     109.4698554
  48 BEND     15  6 16                  1.9106506     109.4722139
  49 BEND     17  7 18                  1.9106405     109.4716385
  50 BEND     17  7 19                  1.9105888     109.4686762
  51 BEND     18  7 19                  1.9107421     109.4774571
  52 TORSION   1  4  6  7               3.1415831     179.9994517
  53 TORSION   1  4  6 15              -1.0472863     -60.0050864
  54 TORSION   1  4  6 16               1.0471532      59.9974573
  55 TORSION   2  1  3 14              -1.0472029     -60.0003092
  56 TORSION   2  1  3 13              -3.1415484    -179.9974641
  57 TORSION   2  1  4  6               1.5707581      89.9978094
  58 TORSION   2  1  4  5              -1.5708478     -90.0029506
  59 TORSION   2  1  3 12               1.0471906      59.9995996
  60 TORSION   3  1  2 11               1.0471411      59.9967679
  61 TORSION   3  1  2 10              -1.0471624     -59.9979884
  62 TORSION   3  1  4  6              -2.6179948    -150.0000554
  63 TORSION   3  1  4  5               0.5235845      29.9991846
  64 TORSION   3  1  2  9               3.1415391     179.9969301
  65 TORSION   4  6  7 17               3.1415747     179.9989725
  66 TORSION   4  1  2  9              -1.0472390     -60.0023774
  67 TORSION   4  6  7 18              -1.0472420     -60.0025492
  68 TORSION   4  6  7 19               1.0472460      60.0027740
  69 TORSION   4  1  2 11               3.1415483     179.9974604
  70 TORSION   4  1  2 10               1.0472447      60.0027041
  71 TORSION   4  1  3 13               1.0472469      60.0028271
  72 TORSION   4  1  3 14               3.1415923     179.9999821
  73 TORSION   4  1  3 12              -1.0471995     -60.0001091
  74 TORSION   5  4  6 16              -2.0944262    -120.0017828
  75 TORSION   5  4  6 15               2.0943196     119.9956735
  76 TORSION   5  4  6  7               0.0000037       0.0002116
  77 TORSION   5  4  1  8               2.6179977     150.0002202
  78 TORSION   6  4  1  8              -0.5235817     -29.9990198
  79 TORSION   8  1  2 11              -1.0472891     -60.0052437
  80 TORSION   8  1  2 10               3.1415927     180.0000000
  81 TORSION   8  1  3 13              -1.0471463     -59.9970638
  82 TORSION   8  1  3 12               3.1415927     180.0000000
  83 TORSION   8  1  3 14               1.0471991      60.0000912
  84 TORSION   8  1  2  9               1.0471089      59.9949184
  85 TORSION  15  6  7 19              -1.0471046     -59.9946768
  86 TORSION  15  6  7 18               3.1415927     180.0000000
  87 TORSION  15  6  7 17               1.0472241      60.0015217
  88 TORSION  16  6  7 19              -3.1415052    -179.9949904
  89 TORSION  16  6  7 18               1.0471921      59.9996863
  90 TORSION  16  6  7 17              -1.0471765     -59.9987920

     ------------------------------------------
     THE POINT GROUP IS C1 , NAXIS= 1, ORDER= 1
     ------------------------------------------

     DIMENSIONS OF THE SYMMETRY SUBSPACES ARE
 A   =  205

 ..... DONE SETTING UP THE RUN .....
 STEP CPU TIME =     0.02 TOTAL CPU TIME =        0.0 (    0.0 MIN)
 TOTAL WALL CLOCK TIME=        0.0 SECONDS, CPU UTILIZATION IS 100.00%


          -----------------------------
          STATIONARY POINT LOCATION RUN
          -----------------------------

 OBTAINING INITIAL HESSIAN, HESS=GUESS   
 DIAGONAL GUESS HESSIAN IN INTERNAL COORDS IS
     1  0.3840     2  0.3464     3  0.3672     4  0.3672     5  0.3463
     6  0.3464     7  0.3464     8  0.3464     9  0.3463    10  0.3464
    11  0.3839    12  0.5549    13  0.3464    14  0.3464    15  0.3671
    16  0.3464    17  0.3464    18  0.3464    19  0.2241    20  0.2241
    21  0.2241    22  0.2517    23  0.2241    24  0.2605    25  0.2241
    26  0.2241    27  0.2241    28  0.2485    29  0.2501    30  0.2241
    31  0.2501    32  0.2255    33  0.2501    34  0.2254    35  0.2254
    36  0.2605    37  0.2241    38  0.2241    39  0.2241    40  0.2241
    41  0.2241    42  0.2034    43  0.2034    44  0.2034    45  0.2034
    46  0.2034    47  0.2034    48  0.2034    49  0.2034    50  0.2034
    51  0.2034    52  0.2500    53  0.2500    54  0.2500    55  0.2500
    56  0.2500    57  0.2500    58  0.2500    59  0.2500    60  0.2500
    61  0.2500    62  0.2500    63  0.2500    64  0.2500    65  0.2500
    66  0.2500    67  0.2500    68  0.2500    69  0.2500    70  0.2500
    71  0.2500    72  0.2500    73  0.2500    74  0.2500    75  0.2500
    76  0.2500    77  0.2500    78  0.2500    79  0.2500    80  0.2500
    81  0.2500    82  0.2500    83  0.2500    84  0.2500    85  0.2500
    86  0.2500    87  0.2500    88  0.2500    89  0.2500    90  0.2500
 TRANSFORMING HESSIAN TO SYMMETRY COORDINATES

          PARAMETERS CONTROLLING GEOMETRY SEARCH ARE
          METHOD =QA                  UPHESS =BFGS    
          NNEG   =         0          NFRZ   =         3
          NSTEP  =        50          IFOLOW =         1
          HESS   =GUESS               RESTAR =         F
          IHREP  =         0          HSSEND =         F
          NPRT   =         0          NPUN   =         0
          OPTTOL = 5.000E-04          RMIN   = 1.500E-03
          RMAX   = 1.000E-01          RLIM   = 7.000E-02
          DXMAX  = 3.000E-01          PURIFY =         F
          MOVIE  =         F          TRUPD  =         T
          TRMAX  = 5.000E-01          TRMIN  = 5.000E-02
          ITBMAT =         5          STPT   =         F
          STSTEP = 1.000E-02          PROJCT=          F
          FROZEN COORD(S)=   1   2   3


      ***** EQUILIBRIUM GEOMETRY LOCATED *****
            (SUBJECT TO   3 CONSTRAINT(S))
 COORDINATES OF ALL ATOMS ARE (ANGS)
   ATOM   CHARGE       X              Y              Z
 ------------------------------------------------------------
 C           6.0   1.1486206627  -0.3008522642   0.3979547208
 C           6.0   1.7086460666  -1.2449149636  -0.6798197935
 C           6.0   2.0125968304   0.9483850360   0.5885248829
 C           6.0  -0.2529270578   0.1289244810  -0.0090939971
 O           8.0  -0.3973418875   1.0218467132  -0.7924103063
 C           6.0  -1.4495314760  -0.5908174323   0.5693956814
 C           6.0  -2.7521454839  -0.0266623759   0.0175415716
 H           1.0   1.0923494044  -0.8466473113   1.3353679262
 H           1.0   1.1655460232  -2.1851616093  -0.7060081809
 H           1.0   1.6449719942  -0.7872865555  -1.6623547487
 H           1.0   2.7509806361  -1.4680483915  -0.4763699530
 H           1.0   2.0222406244   1.5413614053  -0.3183471097
 H           1.0   1.6141795102   1.5676665273   1.3880234536
 H           1.0   3.0325122861   0.6813522305   0.8423731591
 H           1.0  -1.3442566652  -1.6537440875   0.3589773356
 H           1.0  -1.4000032264  -0.4977038159   1.6528456250
 H           1.0  -3.6133069191  -0.5353430213   0.4347662238
 H           1.0  -2.8279715521   1.0299319355   0.2510557843
 H           1.0  -2.7786614087  -0.1261429687  -1.0620472674


                     --------------------
                     INTERNAL COORDINATES
                     --------------------

                 - - ATOMS - -         COORDINATE      COORDINATE
 NO.   TYPE    I  J  K  L  M  N        (BOHR,RAD)       (ANG,DEG)
 ----------------------------------------------------------------
   1 STRETCH   1  4                     2.8750755       1.5214246
   2 STRETCH   1  8                     2.0525958       1.0861870
   3 STRETCH   1  3                     2.8928030       1.5308056
   4 STRETCH   1  2                     2.9070354       1.5383370
   5 STRETCH   2 11                     2.0507156       1.0851920
   6 STRETCH   2 10                     2.0517700       1.0857500
   7 STRETCH   2  9                     2.0525132       1.0861433
   8 STRETCH   3 14                     2.0492621       1.0844229
   9 STRETCH   3 13                     2.0540234       1.0869425
  10 STRETCH   3 12                     2.0476564       1.0835732
  11 STRETCH   4  6                     2.8562637       1.5114698
  12 STRETCH   4  5                     2.2611661       1.1965576
  13 STRETCH   6 16                     2.0571010       1.0885711
  14 STRETCH   6 15                     2.0572614       1.0886559
  15 STRETCH   6  7                     2.8781074       1.5230289
  16 STRETCH   7 19                     2.0493828       1.0844868
  17 STRETCH   7 18                     2.0498693       1.0847442
  18 STRETCH   7 17                     2.0479185       1.0837119
  19 BEND      1  3 14                  1.9380033     111.0394108
  20 BEND      1  3 13                  1.9279844     110.4653675
  21 BEND      1  2  9                  1.9456285     111.4763018
  22 BEND      1  4  6                  2.0856312     119.4978655
  23 BEND      1  3 12                  1.9256134     110.3295211
  24 BEND      1  4  5                  2.0910830     119.8102322
  25 BEND      1  2 10                  1.9326370     110.7319429
  26 BEND      1  2 11                  1.9225073     110.1515518
  27 BEND      2  1  8                  1.8913970     108.3690633
  28 BEND      2  1  3                  1.9633677     112.4926834
  29 BEND      2  1  4                  1.8978716     108.7400311
  30 BEND      3  1  8                  1.9090737     109.3818663
  31 BEND      3  1  4                  1.8993825     108.8266016
  32 BEND      4  1  8                  1.9019339     108.9727879
  33 BEND      4  6  7                  1.9412542     111.2256722
  34 BEND      4  6 15                  1.8906207     108.3245882
  35 BEND      4  6 16                  1.8798744     107.7088706
  36 BEND      5  4  6                  2.1063929     120.6874250
  37 BEND      6  7 17                  1.9457945     111.4858148
  38 BEND      6  7 18                  1.9204671     110.0346570
  39 BEND      6  7 19                  1.9258457     110.3428291
  40 BEND      7  6 15                  1.9544757     111.9832116
  41 BEND      7  6 16                  1.9475079     111.5839808
  42 BEND      9  2 10                  1.8899113     108.2839388
  43 BEND      9  2 11                  1.8826275     107.8666077
  44 BEND     10  2 11                  1.8887775     108.2189770
  45 BEND     12  3 13                  1.8829130     107.8829690
  46 BEND     12  3 14                  1.8989518     108.8019255
  47 BEND     13  3 14                  1.8889985     108.2316410
  48 BEND     15  6 16                  1.8457367     105.7529206
  49 BEND     17  7 18                  1.8952391     108.5892024
  50 BEND     17  7 19                  1.8973396     108.7095489
  51 BEND     18  7 19                  1.8775233     107.5741586
  52 TORSION   1  4  6  7              -3.1238106    -178.9811617
  53 TORSION   1  4  6 15              -0.9686594     -55.5000959
  54 TORSION   1  4  6 16               1.0201793      58.4519655
  55 TORSION   2  1  3 14              -0.9987189     -57.2223799
  56 TORSION   2  1  3 13              -3.0946618    -177.3110629
  57 TORSION   2  1  4  6               1.6996743      97.3841666
  58 TORSION   2  1  4  5              -1.4285780     -81.8514889
  59 TORSION   2  1  3 12               1.1081580      63.4927750
  60 TORSION   3  1  2 11               0.9142319      52.3816322
  61 TORSION   3  1  2 10              -1.1743929     -67.2877542
  62 TORSION   3  1  4  6              -2.4393205    -139.7627700
  63 TORSION   3  1  4  5               0.7156125      41.0015745
  64 TORSION   3  1  2  9               3.0035176     172.0888842
  65 TORSION   4  6  7 17              -3.1348455    -179.6134173
  66 TORSION   4  1  2  9              -1.1744960     -67.2936639
  67 TORSION   4  6  7 18              -1.0309651     -59.0699514
  68 TORSION   4  6  7 19               1.0381703      59.4827768
  69 TORSION   4  1  2 11               3.0194036     172.9990841
  70 TORSION   4  1  2 10               0.9307788      53.3296977
  71 TORSION   4  1  3 13               1.0842210      62.1212851
  72 TORSION   4  1  3 14              -3.1030214    -177.7900318
  73 TORSION   4  1  3 12              -0.9961445     -57.0748770
  74 TORSION   5  4  6 16              -2.1348734    -122.3192343
  75 TORSION   5  4  6 15               2.1594733     123.7287044
  76 TORSION   5  4  6  7               0.0043221       0.2476386
  77 TORSION   5  4  1  8               2.7961821     160.2094350
  78 TORSION   6  4  1  8              -0.3587508     -20.5549095
  79 TORSION   8  1  2 11              -1.1986964     -68.6802434
  80 TORSION   8  1  2 10               2.9958641     171.6503701
  81 TORSION   8  1  3 13              -0.9918836     -56.8307468
  82 TORSION   8  1  3 12              -3.0722491    -176.0269089
  83 TORSION   8  1  3 14               1.1040593      63.2579362
  84 TORSION   8  1  2  9               0.8905893      51.0270085
  85 TORSION  15  6  7 19              -1.0800776     -61.8838903
  86 TORSION  15  6  7 18               3.1339722     179.5633815
  87 TORSION  15  6  7 17               1.0300919      59.0199157
  88 TORSION  16  6  7 19               3.1378543     179.7858077
  89 TORSION  16  6  7 18               1.0687188      61.2330795
  90 TORSION  16  6  7 17              -1.0351615     -59.3103864

          INTERNUCLEAR DISTANCES (ANGS.)


 =====================================================
   GAMESS/COSab RESULTS
 =====================================================

   Dielectric Constant                  = INFTY
   Basic Grid Size                      =                 1082
   Number of Segments                   =                   92
   Number of Segments located on spheres=                  256
   Number of Segments of the cavity     =                  652
   Solvent Radius (rsolv)               = 1.40
   Outlying Charge Error Method         = double cavity

 =====================================================

  Total solvated Energy (a.u.)          =  -309.1534777760
  Total Energy corrected (a.u.)         =  -309.1531843123

  Outlying charge effect (a.u.)         =     0.0002934636
  Outlying charge effect (kcal/mol)     =     0.1841513597

  Dielectric Energy (a.u.)              =    -0.0117040904
  Dielectric energy corr. (a.u.)        =    -0.0114106268

  Sum of polarization charges           =     0.0248591518
  Sum of polarization charges(cor.)     =    -0.0248591518

  Total surface area of cavity (A**2)   =  155.39
  Total volume of cavity (A**3)         =  150.39

 =====================================================
 NPS=                   652
NR.  ATOM  (X, Y, Z)(a.u.)                  CHARGE(e)  AREA(A**2) SIGMA(e/A**2)
   1   1   1.260965   0.232167   4.331922  -0.000175   0.046456  -0.003762
   2   1   4.979402  -2.020529   2.822406  -0.000121   0.092912  -0.001304
   3   1   4.650386  -2.362935   2.968989  -0.000226   0.185824  -0.001217
   4   2   5.904079  -2.202277  -3.950189   0.001565   0.371649   0.004212
   5   2   3.998068  -4.768533   1.518118   0.000440   0.278737   0.001577
   6   2   2.510031  -3.962091  -4.627868   0.001393   0.418105   0.003333
   7   2   5.275304  -5.404084  -2.170435   0.000963   0.371649   0.002590
   8   2   6.016670  -0.499999  -3.039807   0.000954   0.278737   0.003423
   9   2   4.352732  -5.913444  -1.868877   0.001061   0.371649   0.002855
  10   2   2.003247  -4.578077  -4.082741   0.000786   0.278737   0.002821
  11   2   3.421921  -5.432513   0.897263   0.000601   0.278737   0.002155
  12   2   5.793455  -0.989009  -3.702924   0.000800   0.232280   0.003443
  13   2   6.393505  -1.725435  -3.253456   0.000972   0.278737   0.003488
  14   2   0.456680  -3.200913  -3.709443   0.000470   0.185824   0.002530
  15   2   1.292324  -3.604642  -4.279058   0.001314   0.325193   0.004040
  16   2   3.409897  -4.835334  -4.128497   0.000926   0.464561   0.001994
  17   2   4.601035  -5.299321  -3.212895   0.000824   0.464561   0.001773
  18   2   4.914531  -5.703468  -0.821840   0.001430   0.371649   0.003848
  19   2   4.628750  -5.317095   0.595781   0.001424   0.418105   0.003405
  20   2   4.854534  -4.365993   1.469876   0.000573   0.325193   0.001761
  21   2   3.902672  -3.776816  -4.720044   0.000770   0.418105   0.001842
  22   2   5.179798  -3.157597  -4.419971   0.000988   0.418105   0.002364
  23   2   5.988224  -3.424478  -3.634409   0.001115   0.464561   0.002400
  24   2   5.670070  -4.651345  -3.028352   0.000512   0.325193   0.001576
  25   2   6.513748  -1.001820  -2.576720   0.000528   0.185824   0.002839
  26   2   3.645434  -5.524314  -3.297313   0.000403   0.278737   0.001445
  27   2   0.620325  -3.791968  -3.610151   0.000346   0.139368   0.002482
  28   2   2.749606  -5.060626   1.307797   0.000397   0.232280   0.001709
  29   2   4.081903  -5.838837  -0.100426   0.001086   0.325193   0.003340
  30   2   5.169497  -3.464113   1.762072  -0.000019   0.092912  -0.000199
  31   2   0.910356  -2.716876  -4.247109   0.000440   0.185824   0.002368
  32   2   4.828116  -4.370704  -4.051222   0.000639   0.464561   0.001375
  33   3   5.749214   3.412309   3.917982   0.001861   0.418105   0.004451
  34   3   3.628370   5.557925   1.382030   0.001594   0.418105   0.003812
  35   3   6.999394   3.689651   0.427667   0.001230   0.371649   0.003309
  36   3   5.300683  -0.199839   3.953601   0.000522   0.278737   0.001873
  37   3   3.426774   1.172729   4.821442   0.000541   0.232280   0.002329
  38   3   4.412612   0.685716   4.674272   0.000700   0.278737   0.002511
  39   3   5.290712   1.854737   4.586029   0.001168   0.278737   0.004190
  40   3   6.503251   3.861662  -0.534507   0.001440   0.371649   0.003874
  41   3   3.569038   5.500217   0.419438   0.000952   0.278737   0.003414
  42   3   6.045533   1.885179  -1.928861   0.000537   0.185824   0.002891
  43   3   5.030984   2.675514   4.575773   0.000897   0.232280   0.003861
  44   3   5.964371   2.348920   4.162377   0.001048   0.278737   0.003758
  45   3   2.390367   5.297481   1.082512   0.001282   0.278737   0.004600
  46   3   4.896354   5.406246   0.945118   0.001226   0.464561   0.002639
  47   3   6.252637   4.643518   0.718921   0.001102   0.464561   0.002372
  48   3   7.068958   2.734933  -0.540306   0.001652   0.371649   0.004445
  49   3   6.627647   1.623526  -1.393557   0.000633   0.185824   0.003404
  50   3   4.714114   5.283985   2.235488   0.000940   0.418105   0.002249
  51   3   5.525319   4.482537   3.132233   0.001141   0.418105   0.002730
  52   3   6.439971   3.802082   2.926611   0.001257   0.464561   0.002707
  53   3   6.858424   3.963987   1.595291   0.000701   0.325193   0.002154
  54   3   4.231748   1.632962   4.863861   0.000691   0.232280   0.002975
  55   3   5.220779   0.925438   4.506802   0.000900   0.278737   0.003229
  56   3   5.540603   5.005333   0.141843   0.000633   0.278737   0.002269
  57   3   2.381477   5.207189   0.337218   0.000482   0.139368   0.003459
  58   3   6.546026   2.577551  -1.366680   0.001242   0.278737   0.004454
  59   3   5.881408   4.844329   1.918318   0.000831   0.464561   0.001789
  60   3   6.984344   1.424936  -0.895338   0.000606   0.185824   0.003260
  61   4  -1.435769   3.410030   1.810614  -0.000055   0.092912  -0.000589
  62   4  -1.513521   2.920512   2.441730  -0.000887   0.185824  -0.004773
  63   4  -1.080802   2.536243   2.926427  -0.000902   0.092912  -0.009713
  64   4  -1.292820  -1.533812  -3.251517  -0.000714   0.139368  -0.005124
  65   4  -1.039872   3.229558   2.230663  -0.000090   0.046456  -0.001943
  66   5  -1.235840   4.335601  -3.629907   0.005313   0.377948   0.014058
  67   5  -0.793699   1.183012  -4.660234   0.004380   0.343589   0.012747
  68   5   0.030851   5.075190  -1.237157   0.004806   0.274871   0.017485
  69   5  -1.850415   4.752140  -2.679350   0.005877   0.412307   0.014254
  70   5  -2.460379   4.684148  -1.747435   0.004831   0.309230   0.015623
  71   5  -2.217940   3.862282  -3.661361   0.005161   0.343589   0.015022
  72   5  -2.832994   3.218798  -3.635430   0.005125   0.274871   0.018643
  73   5  -1.130805   3.434900  -4.353768   0.005171   0.377948   0.013682
  74   5  -0.854027   2.433250  -4.707072   0.004479   0.343589   0.013035
  75   5  -0.093560   4.079508  -3.846177   0.005766   0.377948   0.015255
  76   5   0.851856   3.553988  -3.813011   0.004424   0.274871   0.016094
  77   5  -0.601061   4.862360  -2.893661   0.004883   0.343589   0.014212
  78   5   0.012734   5.029771  -2.113300   0.004206   0.309230   0.013603
  79   5  -1.778273   1.428112  -4.539830   0.005181   0.343589   0.015078
  80   5   0.079327   1.892706  -4.639720   0.004737   0.309230   0.015318
  81   5   0.962926   2.690603  -4.152729   0.004749   0.240512   0.019745
  82   5  -0.560024   5.006538  -0.463316   0.003722   0.309230   0.012038
  83   5  -1.823262   4.875848  -0.635697   0.006467   0.446666   0.014478
  84   5  -1.265705   0.310627  -4.267618   0.003407   0.274871   0.012394
  85   5  -1.699349   4.417661   0.368478   0.001638   0.137436   0.011916
  86   5  -2.825808   4.123626  -2.702320   0.005514   0.274871   0.020061
  87   5  -2.072107   2.640741  -4.381056   0.006844   0.446666   0.015322
  88   5   0.109161   2.988639  -4.448102   0.004475   0.309230   0.014471
  89   5   0.545544   4.513610  -2.985449   0.006408   0.343589   0.018649
  90   5  -1.209187   5.144868  -1.657953   0.005487   0.412307   0.013309
  91   5  -1.040394   4.554729   0.399130   0.003861   0.309230   0.012486
  92   6  -3.665860  -3.594398   3.775158   0.000561   0.325193   0.001726
  93   6  -2.843978   1.977781   3.243670  -0.000290   0.139368  -0.002081
  94   6  -2.418133   1.693369   3.583166  -0.000155   0.046456  -0.003331
  95   6  -4.917185  -4.198602   1.278965  -0.000118   0.092912  -0.001268
  96   6  -3.089750  -4.237408   3.178654   0.000452   0.278737   0.001621
  97   6  -3.038415  -3.212630  -2.054645  -0.000217   0.185824  -0.001169
  98   6  -2.504857  -2.718577  -2.339066  -0.000404   0.092912  -0.004345
  99   6  -1.569978  -3.608644   3.665640   0.000239   0.185824   0.001285
 100   6  -2.429711  -3.720301   3.797864   0.000840   0.325193   0.002584
 101   6  -4.421198  -3.799856   3.138675   0.000586   0.464561   0.001262
 102   6  -5.032292  -3.863411   2.292706   0.000059   0.185824   0.000316
 103   6  -4.662856  -2.672121   3.933232   0.000079   0.185824   0.000425
 104   6  -5.120442  -1.909932   3.901663  -0.000108   0.092912  -0.001160
 105   6  -3.220058   1.722912   3.523623  -0.000052   0.046456  -0.001126
 106   6  -4.552900  -4.238545   2.192902  -0.000045   0.139368  -0.000326
 107   6  -1.444037  -4.052907   3.072036   0.000090   0.139368   0.000647
 108   6  -2.424852  -3.190529  -2.067853  -0.000267   0.046456  -0.005742
 109   6  -5.039348  -2.923496   3.469380   0.000004   0.185824   0.000019
 110   7  -6.213953   2.836431  -2.185867   0.001402   0.325193   0.004311
 111   7  -5.906909  -3.491361  -1.361635   0.000597   0.278737   0.002140
 112   7  -6.225477   0.532215   3.624087   0.000583   0.278737   0.002090
 113   7  -8.267056   1.969467   0.928958   0.001715   0.418105   0.004103
 114   7  -8.181003  -0.384999  -2.267000   0.001309   0.371649   0.003522
 115   7  -8.529923  -1.038056  -1.458734   0.001325   0.371649   0.003566
 116   7  -8.567979   1.123450   1.285519   0.000996   0.278737   0.003574
 117   7  -7.097068   0.327901   3.280500   0.000650   0.232280   0.002799
 118   7  -6.819271  -3.361120  -0.805839   0.000867   0.278737   0.003111
 119   7  -5.387336   2.992293  -2.201024   0.000771   0.139368   0.005535
 120   7  -5.823009   2.342662  -2.825244   0.000691   0.185824   0.003719
 121   7  -6.367673  -0.534533   3.595205   0.000386   0.232280   0.001663
 122   7  -6.746733   1.369059   3.176312   0.001042   0.278737   0.003739
 123   7  -7.861941   1.686140   2.079367   0.001363   0.278737   0.004889
 124   7  -8.737323   1.273058  -0.127237   0.001226   0.464561   0.002638
 125   7  -8.632468   0.456802  -1.467070   0.001102   0.464561   0.002373
 126   7  -7.782551  -1.721487  -2.163728   0.001993   0.418105   0.004767
 127   7  -6.706224  -3.036496  -1.727861   0.000811   0.232280   0.003493
 128   7  -5.531931  -3.119015  -2.148178   0.000830   0.325193   0.002552
 129   7  -5.791625   1.508823   3.424904   0.000804   0.325193   0.002471
 130   7  -8.073510   2.365600  -0.408162   0.001068   0.418105   0.002555
 131   7  -7.317306   2.607436  -1.622327   0.001249   0.418105   0.002987
 132   7  -7.124586   1.933859  -2.544845   0.001401   0.464561   0.003016
 133   7  -7.918668   0.778090  -2.459053   0.000807   0.325193   0.002481
 134   7  -8.922324   0.266800  -0.544680   0.000592   0.278737   0.002123
 135   7  -7.632936   1.067875   2.701186   0.001209   0.278737   0.004337
 136   7  -6.332516  -3.652045  -0.144569   0.000449   0.232280   0.001935
 137   7  -7.621647  -2.579708  -1.390343   0.001317   0.325193   0.004049
 138   7  -4.585792  -2.895274  -2.377806   0.000042   0.092912   0.000447
 139   7  -5.005641   1.935790   3.242701   0.000160   0.139368   0.001148
 140   7  -7.083621   1.963582   2.618321   0.000677   0.185824   0.003642
 141   7  -8.216367   1.658261  -1.473871   0.000920   0.464561   0.001981
 142   7  -6.845044  -2.567235  -2.257318   0.000957   0.232280   0.004119
 143   8   2.385234  -2.848755   4.614542  -0.002169   0.353299  -0.006139
 144   8   1.860055  -0.921823   4.875845  -0.001369   0.333671  -0.004102
 145   8   3.606967  -2.168820   4.348711  -0.001601   0.353299  -0.004531
 146   8   2.974212  -3.587006   3.645352  -0.000880   0.255160  -0.003450
 147   8   1.596120  -3.886433   3.290230  -0.001673   0.294415  -0.005681
 148   8   1.667025  -1.961250   4.920733  -0.002079   0.333671  -0.006232
 149   8   2.794138  -1.722331   4.866000  -0.001730   0.372926  -0.004640
 150   8   3.555689  -3.001089   3.882687  -0.001545   0.333671  -0.004630
 151   8   2.208289  -3.693658   3.800465  -0.001503   0.274788  -0.005468
 152   8   1.355637  -3.071672   4.358422  -0.002292   0.353299  -0.006488
 153   9   1.051707  -6.297306  -1.437031  -0.004487   0.608459  -0.007374
 154   9   2.472160  -6.170645   0.005807  -0.000708   0.294415  -0.002403
 155   9   2.802213  -6.424428  -1.973004  -0.001146   0.353299  -0.003243
 156   9   1.349438  -5.539582  -3.155841  -0.000829   0.294415  -0.002815
 157   9   1.467474  -5.997467   0.081773  -0.002738   0.471065  -0.005812
 158   9   2.454087  -6.548163  -0.986082  -0.002086   0.490692  -0.004252
 159   9   1.936211  -6.200739  -2.627796  -0.002231   0.510320  -0.004372
 160   9   0.521846  -5.329933  -2.664157  -0.002540   0.471065  -0.005391
 161  10   3.313021  -0.927076  -5.524455  -0.002555   0.431809  -0.005917
 162  10   4.789478  -0.518696  -4.648229  -0.000985   0.353299  -0.002788
 163  10   1.689919  -1.797504  -5.122976  -0.001599   0.392554  -0.004072
 164  10   3.886147  -2.198075  -5.360842  -0.001056   0.353299  -0.002989
 165  10   4.109728   0.091919  -4.734318  -0.002041   0.392554  -0.005199
 166  10   3.015308   0.132032  -4.986041  -0.002572   0.372926  -0.006897
 167  10   2.160058  -0.833827  -5.311156  -0.002335   0.372926  -0.006260
 168  10   2.745332  -2.222253  -5.457367  -0.001594   0.451437  -0.003532
 169  10   4.471934  -1.353793  -5.180609  -0.001381   0.372926  -0.003702
 170  11   7.436657  -3.766733  -0.697494  -0.002809   0.451437  -0.006222
 171  11   7.319409  -1.813837  -1.684366  -0.001319   0.333671  -0.003952
 172  11   7.153477  -3.396581  -2.251571  -0.001409   0.392554  -0.003588
 173  11   6.517804  -4.840070  -0.735770  -0.001166   0.353299  -0.003302
 174  11   6.385801  -3.575756   1.095587  -0.001603   0.392554  -0.004084
 175  11   7.622428  -2.540810  -0.575158  -0.002798   0.412182  -0.006787
 176  11   7.477052  -2.706028  -1.816217  -0.001616   0.353299  -0.004573
 177  11   6.895699  -4.357114  -1.706042  -0.001615   0.412182  -0.003918
 178  11   6.525566  -4.466962   0.286752  -0.001788   0.471065  -0.003796
 179  11   7.207909  -3.231128   0.437328  -0.002641   0.412182  -0.006407
 180  12   3.974823   4.318796  -2.610226  -0.002810   0.451437  -0.006224
 181  12   5.339150   3.004017  -2.531204  -0.000971   0.333671  -0.002909
 182  12   5.425576   4.491463  -1.586293  -0.000900   0.353299  -0.002548
 183  12   3.466294   5.309484  -1.007363  -0.001045   0.333671  -0.003132
 184  12   4.205511   3.325306  -2.992697  -0.002556   0.392554  -0.006512
 185  12   5.285732   3.907755  -2.304826  -0.001415   0.372926  -0.003794
 186  12   4.546608   5.094867  -1.466272  -0.001738   0.471065  -0.003690
 187  12   3.350657   4.944115  -1.900439  -0.001606   0.314043  -0.005114
 188  13   2.402224   4.477576   4.444906  -0.003251   0.549575  -0.005915
 189  13   3.795192   3.453046   4.912005  -0.000930   0.372926  -0.002493
 190  13   2.149184   2.513414   4.863805  -0.001627   0.392554  -0.004146
 191  13   1.989933   5.174316   2.758161  -0.001191   0.392554  -0.003033
 192  13   3.791794   5.055718   3.673525  -0.001037   0.372926  -0.002781
 193  13   2.881763   3.215479   5.060730  -0.001707   0.431809  -0.003953
 194  13   1.457796   3.454222   4.427687  -0.002884   0.490692  -0.005877
 195  13   1.322693   4.474865   3.496402  -0.002749   0.490692  -0.005602
 196  13   2.853462   5.318276   3.291154  -0.001685   0.451437  -0.003732
 197  13   3.850861   4.405120   4.443151  -0.001468   0.412182  -0.003562
 198  14   7.926403   0.957131   2.642776  -0.002733   0.471065  -0.005802
 199  14   6.881810   0.499683   3.614011  -0.001110   0.372926  -0.002976
 200  14   7.536146   2.339013   2.883989  -0.001219   0.392554  -0.003106
 201  14   7.952552   2.009537   0.832361  -0.000998   0.353299  -0.002825
 202  14   7.797689   1.060456   0.283914  -0.001143   0.333671  -0.003425
 203  14   6.948761  -0.340136   2.970925  -0.002059   0.451437  -0.004561
 204  14   7.179826   1.503818   3.563691  -0.001244   0.392554  -0.003168
 205  14   7.985687   2.220134   1.874787  -0.002127   0.510320  -0.004169
 206  14   8.107886   0.754514   1.276362  -0.002358   0.412182  -0.005720
 207  14   7.759297  -0.038013   1.994845  -0.002454   0.392554  -0.006252
 208  15  -2.264640  -5.541639   0.332646  -0.003725   0.412182  -0.009038
 209  15  -2.921694  -4.465271  -1.344893  -0.002016   0.333671  -0.006041
 210  15  -4.053703  -5.059588   0.628706  -0.001918   0.333671  -0.005748
 211  15  -2.656045  -5.155942   2.055847  -0.001144   0.274788  -0.004163
 212  15  -2.715942  -5.149878  -0.701691  -0.002272   0.294415  -0.007718
 213  15  -3.633255  -5.076355  -0.338077  -0.002363   0.412182  -0.005733
 214  15  -3.003285  -5.514085   1.015340  -0.002397   0.353299  -0.006785
 215  15  -1.706886  -5.164439   1.765435  -0.003327   0.471065  -0.007062
 216  15  -3.647111  -5.088229   1.656233  -0.001066   0.274788  -0.003880
 217  16  -2.760614  -0.682499   5.563763  -0.003460   0.471065  -0.007346
 218  16  -3.879221   0.127736   4.959750  -0.001637   0.294415  -0.005560
 219  16  -2.347929   0.979736   4.626439  -0.001977   0.314043  -0.006297
 220  16  -2.115069  -2.507574   4.939450  -0.001601   0.353299  -0.004532
 221  16  -4.058747  -1.899056   4.889589  -0.001355   0.333671  -0.004060
 222  16  -3.089121   0.577060   5.003664  -0.002445   0.412182  -0.005931
 223  16  -1.691586  -0.030910   5.196465  -0.004057   0.490692  -0.008267
 224  16  -1.791214  -1.483798   5.361709  -0.003229   0.431809  -0.007477
 225  16  -3.075315  -2.172593   5.204873  -0.002454   0.451437  -0.005436
 226  16  -3.978698  -0.927810   5.186864  -0.002662   0.451437  -0.005896
 227  17  -8.820684  -2.152176   1.695780  -0.003772   0.608459  -0.006199
 228  17  -7.451785  -2.980461   2.152017  -0.001406   0.353299  -0.003979
 229  17  -7.983410  -3.091097   0.208046  -0.000808   0.333671  -0.002420
 230  17  -9.108005  -1.441447   0.013688  -0.000948   0.353299  -0.002684
 231  17  -8.928871  -0.230418   1.827482  -0.000915   0.372926  -0.002454
 232  17  -7.644074  -1.172709   3.133189  -0.000848   0.353299  -0.002399
 233  17  -7.709195  -3.268847   1.226551  -0.001877   0.490692  -0.003825
 234  17  -8.756269  -2.412136   0.224788  -0.001946   0.490692  -0.003966
 235  17  -9.278133  -0.911003   0.972038  -0.002113   0.510320  -0.004141
 236  17  -8.570051  -0.903949   2.550567  -0.002045   0.490692  -0.004168
 237  17  -7.737147  -2.191320   2.775376  -0.002029   0.490692  -0.004134
 238  18  -5.855455   4.254345   1.142653  -0.002378   0.431809  -0.005508
 239  18  -5.511882   4.058443  -0.768875  -0.001179   0.353299  -0.003337
 240  18  -4.841463   3.297877   2.463318  -0.001275   0.353299  -0.003608
 241  18  -6.814926   3.249896   1.948324  -0.000790   0.372926  -0.002117
 242  18  -7.123838   3.580510   0.030623  -0.000755   0.333671  -0.002262
 243  18  -5.061725   4.383633   0.352894  -0.002197   0.392554  -0.005597
 244  18  -4.649628   4.023315   1.587450  -0.002476   0.431809  -0.005733
 245  18  -5.837792   3.506654   2.306541  -0.001486   0.412182  -0.003606
 246  18  -6.959120   3.706701   1.046937  -0.001561   0.412182  -0.003787
 247  18  -6.347741   4.050159  -0.301180  -0.001475   0.412182  -0.003577
 248  19  -5.640562  -0.478854  -4.420577  -0.002635   0.471065  -0.005594
 249  19  -6.328214   1.038324  -3.808236  -0.000934   0.353299  -0.002644
 250  19  -6.947345  -1.048964  -3.588165  -0.000818   0.372926  -0.002193
 251  19  -5.241061  -2.175058  -3.518371  -0.001098   0.412182  -0.002665
 252  19  -4.607066  -0.286320  -4.377274  -0.002394   0.412182  -0.005808
 253  19  -5.299414   1.023366  -4.114288  -0.002057   0.490692  -0.004192
 254  19  -6.760555   0.040723  -3.924832  -0.001735   0.471065  -0.003684
 255  19  -6.109321  -1.619466  -3.848402  -0.001805   0.471065  -0.003832
 256  19  -4.386237  -1.503381  -3.927201  -0.002441   0.490692  -0.004975
 257   1   4.306088  -3.061349   2.642693  -0.000093   0.029238  -0.003196
 258   2   4.465485  -3.348076   2.263154  -0.000060   0.029238  -0.002059
 259   8   4.099723  -3.089790   2.862613  -0.000155   0.029238  -0.005315
 260   1   5.171604  -2.648090   2.090393  -0.000088   0.026984  -0.003260
 261   2   5.381514  -2.971017   1.769056  -0.000082   0.026984  -0.003022
 262  11   5.630976  -2.997149   1.600239  -0.000116   0.026984  -0.004296
 263   2   5.055621  -3.191649   1.961035  -0.000060   0.139229  -0.000428
 264   1   4.674687  -2.860389   2.499186  -0.000127   0.139229  -0.000912
 265   1   1.869564   0.271522   4.432796  -0.000096   0.027959  -0.003446
 266   3   2.162202   0.675326   4.454060  -0.000052   0.027959  -0.001860
 267   8   1.885824  -0.020293   4.512234  -0.000143   0.027959  -0.005112
 268   1   4.512833  -1.429664   3.601012  -0.000082   0.027959  -0.002947
 269   3   4.771025  -1.003693   3.633115  -0.000025   0.027959  -0.000897
 270   8   4.292418  -1.569157   3.754927  -0.000109   0.027959  -0.003900
 271   1   1.871984   0.833544   4.366289  -0.000075   0.026638  -0.002823
 272   3   2.141473   1.240668   4.469883  -0.000071   0.026638  -0.002680
 273  13   2.104318   1.538630   4.511723  -0.000101   0.026638  -0.003782
 274   1   5.229005  -1.284199   3.044551  -0.000053   0.025667  -0.002049
 275   3   5.535300  -0.900422   3.133882  -0.000053   0.025667  -0.002071
 276  14   5.807791  -0.794024   3.059099  -0.000068   0.025667  -0.002649
 277   3   2.186158   1.057464   4.514560   0.000006   0.025417   0.000220
 278   1   1.806140   0.456023   4.432860  -0.000017   0.025417  -0.000665
 279   3   5.205675  -0.872103   3.474111   0.000029   0.103640   0.000275
 280   1   4.877152  -1.494147   3.294016  -0.000056   0.103640  -0.000540
 281   1   0.753802  -0.124560   4.312870  -0.000543   0.092468  -0.005878
 282   8   0.807233  -0.406361   4.420451  -0.000538   0.092468  -0.005817
 283  16  -0.252261  -0.294570   4.467089  -0.000768   0.092468  -0.008310
 284   8   4.057766  -2.801125   3.314117  -0.000306   0.066781  -0.004584
 285   8   4.146323  -2.083576   3.737210  -0.000270   0.066781  -0.004042
 286   1   4.360930  -2.302607   3.234476  -0.000626   0.147368  -0.004245
 287   8   1.563874  -0.347720   4.592831  -0.000260   0.046131  -0.005640
 288   1   1.420227   0.037262   4.420261  -0.000229   0.056359  -0.004067
 289   1   5.509529  -1.876955   2.180708  -0.000397   0.169659  -0.002340
 290  11   5.915482  -2.230313   1.641890  -0.000532   0.169659  -0.003137
 291  14   6.034184  -1.323070   2.198285  -0.000483   0.169659  -0.002846
 292  11   5.917231  -2.867857   1.522195  -0.000258   0.073538  -0.003502
 293   1   5.249594  -2.409175   2.308157   0.000009   0.103679   0.000087
 294   1   0.793943   0.727939   4.072943  -0.001386   0.190711  -0.007268
 295  13   1.110056   1.416432   4.084531  -0.001026   0.190711  -0.005382
 296  16  -0.209192   0.502719   4.146953  -0.001899   0.190711  -0.009957
 297  13   1.813682   1.819027   4.500409  -0.000386   0.106172  -0.003637
 298   1   1.504415   0.740066   4.370077  -0.000076   0.149668  -0.000509
 299  14   6.081682  -0.850459   2.876888  -0.000322   0.122662  -0.002628
 300   1   5.320753  -1.684291   2.766374   0.000009   0.172869   0.000054
 301  16  -0.789366  -0.015729   4.713849  -0.000721   0.104974  -0.006866
 302   1   0.661006   0.298905   4.369667  -0.000075   0.149633  -0.000502
 303   2   6.599853  -0.590348  -1.648610   0.000025   0.068626   0.000365
 304   3   6.625835   0.119322  -1.196134   0.000073   0.068626   0.001069
 305  11   6.751518  -0.811854  -1.505635  -0.000181   0.068626  -0.002640
 306   2   5.277747   0.812926  -2.682862   0.000097   0.063528   0.001534
 307   3   5.431896   1.561961  -2.331181   0.000071   0.063528   0.001121
 308  12   5.278493   1.804561  -2.427991  -0.000110   0.063528  -0.001729
 309   3   6.298309   0.938229  -1.651014   0.000863   0.538297   0.001603
 310   2   5.916436   0.078739  -2.491104   0.000722   0.538297   0.001342
 311   2  -0.505403  -2.849240  -2.765272  -0.000952   0.098647  -0.009647
 312   4  -1.203231  -2.443845  -2.620241  -0.001246   0.098647  -0.012630
 313   6  -1.583317  -2.648712  -2.379284  -0.001031   0.098647  -0.010450
 314   2   0.560017  -1.791649  -3.959243  -0.000143   0.067151  -0.002130
 315   4  -0.050060  -1.326063  -3.670480  -0.000199   0.067151  -0.002964
 316  10   0.741846  -1.620809  -4.133595  -0.000244   0.067151  -0.003637
 317   4  -0.741613  -1.710312  -3.329430  -0.001811   0.417368  -0.004340
 318   2   0.071959  -2.591865  -3.483555  -0.000550   0.417368  -0.001318
 319   2  -0.166122  -3.685450  -2.574987  -0.000417   0.106609  -0.003909
 320   6  -1.161104  -3.399585  -2.051328  -0.001056   0.106609  -0.009906
 321   9  -0.145757  -3.963278  -2.445883  -0.000525   0.106609  -0.004926
 322   6  -1.824232  -3.047178  -2.342561  -0.000368   0.196902  -0.001869
 323   2  -0.301297  -3.451862  -2.891133  -0.000003   0.196902  -0.000015
 324   2   1.691887  -4.634836   1.329537  -0.000073   0.027593  -0.002653
 325   8   1.578292  -4.209622   1.932731  -0.000114   0.027593  -0.004145
 326   9   1.594446  -4.806134   1.100353  -0.000147   0.027593  -0.005323
 327   8   1.863788  -4.078714   2.555524  -0.000886   0.204342  -0.004336
 328   8   3.240624  -3.644241   2.890731  -0.002405   0.419278  -0.005737
 329   2   2.744671  -4.493893   1.795179  -0.000346   0.558852  -0.000620
 330   2   4.265491  -3.851270   2.133284   0.000070   0.287947   0.000242
 331   9   0.365776  -4.389885  -2.942401  -0.000252   0.070833  -0.003560
 332   9   1.272805  -4.900874  -3.406686  -0.000468   0.158120  -0.002960
 333   9   2.451866  -5.587039  -3.223087  -0.000540   0.158120  -0.003415
 334   9   3.265251  -6.084518  -2.230296  -0.000595   0.158120  -0.003765
 335   9   3.359175  -6.176931  -0.860131  -0.000427   0.158120  -0.002703
 336   9   2.692786  -5.824081   0.291450  -0.000611   0.158120  -0.003865
 337   9   1.793090  -5.317860   0.774833  -0.000292   0.070833  -0.004125
 338   2   0.762250  -4.220221  -3.366731  -0.000202   0.154472  -0.001307
 339   2   2.077444  -4.971261  -3.677156  -0.000237   0.154472  -0.001536
 340   2   3.262655  -5.675354  -2.977377  -0.000348   0.154472  -0.002252
 341   2   3.802370  -6.026252  -1.571767  -0.000240   0.154472  -0.001551
 342   2   3.461838  -5.871331  -0.071701  -0.000244   0.154472  -0.001580
 343   2   2.389175  -5.277974   0.870361  -0.000487   0.154472  -0.003151
 344   2   4.978055   0.493594  -3.183417  -0.000037   0.088020  -0.000416
 345  10   4.785078   0.479394  -3.419812  -0.000115   0.088020  -0.001309
 346  12   4.881327   1.432538  -2.789462   0.000068   0.088020   0.000770
 347  10   4.973229  -0.092956  -3.920592  -0.000138   0.070322  -0.001959
 348  10   5.114867  -1.108270  -4.402668  -0.000390   0.156769  -0.002491
 349  10   4.552503  -2.252667  -4.899247  -0.000480   0.156769  -0.003064
 350  10   3.340054  -2.854176  -5.100841  -0.000521   0.156769  -0.003325
 351  10   1.998345  -2.654410  -4.920852  -0.000376   0.156769  -0.002399
 352  10   1.162351  -1.983573  -4.554226  -0.000251   0.070322  -0.003569
 353   2   5.330778  -0.561098  -3.792047  -0.000190   0.153548  -0.001236
 354   2   5.192234  -1.952123  -4.430961  -0.000213   0.153548  -0.001386
 355   2   4.137227  -2.989946  -4.845978  -0.000301   0.153548  -0.001963
 356   2   2.618951  -3.228756  -4.858821  -0.000256   0.153548  -0.001665
 357   2   1.289605  -2.565966  -4.463973  -0.000290   0.153548  -0.001886
 358  11   5.846889  -3.431569   1.378044  -0.000191   0.066361  -0.002883
 359  11   5.756412  -4.351879   0.832255  -0.000433   0.146231  -0.002962
 360  11   5.832380  -5.014787  -0.283964  -0.000349   0.146231  -0.002389
 361  11   6.102334  -4.909714  -1.551737  -0.000491   0.146231  -0.003356
 362  11   6.462452  -4.077069  -2.483500  -0.000511   0.146231  -0.003493
 363  11   6.774240  -2.837073  -2.720910  -0.000421   0.146231  -0.002882
 364  11   6.917789  -1.666609  -2.172665  -0.000377   0.146231  -0.002581
 365   2   5.416843  -3.830922   1.360774  -0.000383   0.146524  -0.002613
 366   2   5.374728  -4.917627   0.384728  -0.000142   0.146524  -0.000972
 367   2   5.579157  -5.247289  -1.024136  -0.000143   0.146524  -0.000973
 368   2   5.951509  -4.693128  -2.323991  -0.000298   0.146524  -0.002034
 369   2   6.348585  -3.468263  -3.014936  -0.000290   0.146524  -0.001978
 370   2   6.617674  -2.043759  -2.831242  -0.000139   0.146524  -0.000946
 371   2   6.688358  -1.083424  -2.140152  -0.000107   0.081075  -0.001316
 372  12   5.219178   1.994212  -2.612041   0.000007   0.058129   0.000117
 373   2   5.264849   0.575901  -3.128723   0.000264   0.082788   0.003187
 374   3   2.092738   4.890978  -0.409194   0.000408   0.083502   0.004888
 375   5   1.264575   4.749643  -0.869480   0.001938   0.083502   0.023209
 376  12   2.205416   4.882531  -0.692041   0.000179   0.083502   0.002146
 377   3   1.215516   4.594004   1.326096   0.000350   0.063802   0.005490
 378   5   0.445012   4.429164   0.784525   0.000840   0.063802   0.013170
 379  13   1.248466   4.586168   1.628248   0.000005   0.063802   0.000077
 380   5   0.302423   4.762457  -0.102729   0.006507   0.510883   0.012737
 381   3   1.645339   4.925178   0.310737   0.003156   0.568859   0.005548
 382   8   3.969981  -1.462443   4.109794  -0.000775   0.215294  -0.003601
 383   8   2.747859  -0.638987   4.583081  -0.002412   0.443100  -0.005442
 384   3   4.160906  -0.237515   4.269226  -0.000093   0.587454  -0.000159
 385   3   2.700740   0.668619   4.647912   0.000263   0.303285   0.000868
 386   3   6.932587   0.404226  -0.640900  -0.000059   0.087328  -0.000674
[...]
 395  12   5.705136   2.782417  -2.087203  -0.000275   0.153130  -0.001798
 396   3   3.198805   5.274915  -0.086197   0.000021   0.150838   0.000137
 397   3   4.710201   5.195968  -0.121747  -0.000142   0.150838  -0.000942
 398   3   5.854493   4.360874  -0.655629  -0.000171   0.150838  -0.001133
 399   3   6.154924   3.117566  -1.465408  -0.000017   0.150838  -0.000110
 400   3   5.757475   2.144898  -2.105643  -0.000007   0.084169  -0.000086
 401  13   2.435330   1.895399   4.748482  -0.000153   0.069132  -0.002209
 402  13   3.444350   2.336703   4.909470  -0.000349   0.153435  -0.002273
 403  13   4.346830   3.291827   4.619361  -0.000330   0.153435  -0.002150
 404  13   4.534397   4.388935   3.863010  -0.000375   0.153435  -0.002445
 405  13   3.929507   5.174472   2.953099  -0.000403   0.153435  -0.002623
 406  13   2.782230   5.323687   2.265796  -0.000269   0.153435  -0.001756
 407  13   1.755029   4.964404   2.032214  -0.000146   0.069132  -0.002118
 408   3   2.983317   1.655434   4.751325  -0.000333   0.151600  -0.002194
 409   3   4.256746   2.470113   4.754860  -0.000068   0.151600  -0.000448
 410   3   4.903341   3.687459   4.134119  -0.000097   0.151600  -0.000640
 411   3   4.655793   4.804209   3.145723  -0.000182   0.151600  -0.001202
 412   3   3.616440   5.358686   2.198286  -0.000129   0.151600  -0.000849
 413   3   2.214963   5.121664   1.683488  -0.000068   0.151600  -0.000452
 414  14   7.376528   1.035697  -0.216180  -0.000145   0.066591  -0.002178
 415  14   7.536866   2.025545   0.180871  -0.000306   0.146905  -0.002083
 416  14   7.506293   2.861779   1.183375  -0.000362   0.146905  -0.002463
 417  14   7.219527   2.972944   2.452486  -0.000418   0.146905  -0.002847
 418  14   6.787969   2.315857   3.495190  -0.000329   0.146905  -0.002240
 419  14   6.379268   1.145777   3.906424  -0.000306   0.146905  -0.002082
 420  14   6.152193  -0.082751   3.526434  -0.000431   0.146905  -0.002931
 421   3   7.208630   1.564674  -0.410326  -0.000056   0.146862  -0.000378
 422   3   7.330977   2.790179   0.387264  -0.000075   0.146862  -0.000511
 423   3   7.143345   3.350343   1.730392  -0.000183   0.146862  -0.001248
 424   3   6.718625   3.027559   3.097288  -0.000173   0.146862  -0.001175
 425   3   6.221809   1.947218   3.956950  -0.000092   0.146862  -0.000625
 426   3   5.845897   0.529005   3.975424  -0.000120   0.146862  -0.000816
 427   3   5.709352  -0.516990   3.423713  -0.000136   0.081355  -0.001675
 428   4  -0.389909  -0.825566  -3.706242   0.000079   0.110154   0.000714
 429   5  -0.426340  -0.462758  -3.867833   0.000831   0.110154   0.007541
 430  10   0.476920  -1.089047  -4.034129  -0.000064   0.110154  -0.000583
 431   4  -0.388297   3.733735   1.575969   0.000117   0.109664   0.001064
 432   5  -0.422742   3.933530   1.232892   0.000662   0.109664   0.006040
 433  13   0.472930   3.976490   1.994753   0.000017   0.109664   0.000151
 434   4  -2.184858   3.452864   1.290257   0.000389   0.114182   0.003409
 435   5  -2.202114   3.683638   0.964670   0.001203   0.114182   0.010537
 436  18  -3.170798   3.511142   1.232456   0.000295   0.114182   0.002581
 437   4  -1.982649  -0.678870  -3.453409   0.000376   0.114709   0.003276
 438   5  -2.005925  -0.325211  -3.637713   0.001188   0.114709   0.010360
 439  19  -2.970240  -0.660870  -3.550400   0.000323   0.114709   0.002812
 440   5  -1.159290  -0.256007  -3.896137   0.000893   0.091159   0.009794
 441   4  -1.251417  -0.752986  -3.602847   0.000416   0.097270   0.004275
 442   5  -1.425661   3.961520   0.960636   0.001045   0.119593   0.008735
 443   4  -1.200242   3.670288   1.429920   0.000497   0.127610   0.003892
 444   4  -1.540691   1.801914   3.376937  -0.000401   0.029798  -0.013449
 445   6  -1.930740   1.594489   3.595389  -0.000306   0.029798  -0.010260
 446  16  -1.962556   1.404695   3.830846  -0.000289   0.029798  -0.009713
 447   4  -2.507856   2.613835   2.338468  -0.000706   0.103751  -0.006808
 448   6  -2.903769   2.406207   2.552330  -0.000532   0.103751  -0.005124
 449  18  -3.479751   2.773214   2.237762  -0.000365   0.103751  -0.003514
 450   4  -2.287733  -1.862595  -2.770608  -0.000728   0.103850  -0.007007
 451   6  -2.681227  -2.119120  -2.612668  -0.000517   0.103850  -0.004976
 452  19  -3.259085  -1.786032  -2.963001  -0.000373   0.103850  -0.003591
 453   6  -2.291919  -2.462681  -2.482303  -0.000414   0.076486  -0.005407
 454   4  -1.676771  -2.192514  -2.719370  -0.000682   0.076486  -0.008917
 455   6  -2.198834   1.964575   3.218614  -0.001067   0.199476  -0.005351
 456   4  -1.784733   2.421461   2.797994  -0.001434   0.199476  -0.007190
 457  10   0.802407  -1.532065  -4.337138  -0.000010   0.024439  -0.000412
 458   4  -0.430815  -1.100332  -3.775882   0.000076   0.034601   0.002194
 459   4  -0.575799   1.841923   3.434305  -0.002070   0.144222  -0.014351
 460  13   0.313218   2.231674   3.600947  -0.001306   0.144222  -0.009055
 461  16  -1.020409   1.352919   3.754837  -0.001652   0.144222  -0.011456
 462  13   0.728491   4.020306   2.805048  -0.000873   0.282309  -0.003091
 463  13   0.727989   3.177666   3.673470  -0.001249   0.282309  -0.004424
 464   4  -0.457747   3.013640   2.670606  -0.004041   0.785488  -0.005145
 465  16  -1.810719   1.234585   4.086442  -0.000636   0.077037  -0.008261
 466   4  -1.219773   1.897567   3.438574  -0.000721   0.108785  -0.006629
 467  18  -3.726138   3.308170   1.931237  -0.000578   0.251275  -0.002301
 468   4  -2.260247   3.234854   1.886930  -0.000115   0.356293  -0.000322
 469  19  -3.476073  -1.246761  -3.564227  -0.000539   0.257093  -0.002098
 470   4  -2.058421  -1.468354  -3.229662  -0.000342   0.364644  -0.000939
 471   5  -3.860935   3.536712  -1.948559   0.002309   0.081009   0.028500
 472   7  -4.742203   3.317151  -1.749982   0.000572   0.081009   0.007065
 473  18  -4.775124   3.490086  -1.501111   0.000233   0.081009   0.002870
 474   5  -3.803022   2.432776  -3.199756   0.002047   0.080744   0.025355
 475   7  -4.681961   2.166513  -3.055619   0.000767   0.080744   0.009494
 476  19  -4.698759   1.940183  -3.258894   0.000237   0.080744   0.002935
 477   7  -4.732263   2.961123  -2.408048   0.003719   0.467240   0.007958
 478   5  -3.496704   3.193451  -2.936880   0.007993   0.420347   0.019014
 479   5   2.112487   2.078219  -3.465288   0.005269   0.308834   0.017063
 480  10   2.848388   1.258170  -3.678273   0.000371   0.308834   0.001201
 481  12   3.013510   2.265609  -3.131104   0.000828   0.308834   0.002681
 482  10   0.931090  -1.066937  -4.588196  -0.000268   0.274533  -0.000976
 483  10   1.732976  -0.065092  -4.789090  -0.001242   0.551670  -0.002252
 484  10   2.643150   0.784427  -4.418992  -0.000427   0.274533  -0.001556
 485   5   0.000736   0.320331  -4.421861   0.005920   0.685305   0.008638
 486   5   1.174754   1.589874  -4.305831   0.008086   0.685305   0.011798
 487  12   3.081343   3.179781  -3.075953   0.000074   0.263475   0.000282
 488  12   2.697928   4.311182  -2.358906   0.000053   0.531870   0.000100
 489  12   2.328503   4.956596  -1.180689   0.000599   0.263475   0.002273
 490   5   1.631850   3.451399  -3.293308   0.011038   0.646168   0.017083
 491   5   1.118142   4.663826  -2.000056   0.010168   0.646168   0.015735
 492  13   1.023632   4.598359   2.025526   0.000224   0.267649   0.000836
 493   5  -0.306858   4.411178   0.963542   0.002088   0.339040   0.006160
 494  18  -3.743827   3.923485   1.099958  -0.000113   0.252340  -0.000449
 495  18  -4.239899   4.180134  -0.057573   0.000195   0.507850   0.000384
 496  18  -4.732199   3.863849  -1.201880   0.000727   0.252340   0.002882
 497   5  -2.566636   4.266071   0.154537   0.007121   0.623158   0.011428
 498   5  -3.242618   4.225283  -1.419769   0.009562   0.623158   0.015344
 499  19  -4.627239   1.696672  -3.662534   0.000744   0.250097   0.002973
 500  19  -4.069170   0.639876  -4.091766   0.000195   0.503178   0.000387
 501  19  -3.531674  -0.503988  -3.968603  -0.000081   0.250097  -0.000322
 502   5  -3.131827   2.035368  -3.911818   0.009484   0.618069   0.015345
 503   5  -2.382333   0.529860  -4.121205   0.006956   0.618069   0.011255
 504   6  -3.701317  -3.482341  -1.718734  -0.000091   0.024593  -0.003700
 505   7  -4.123852  -3.267978  -1.867098  -0.000043   0.024593  -0.001745
 506  15  -3.589871  -3.720890  -1.566949  -0.000159   0.024593  -0.006476
 507   6  -5.037415  -4.111626   0.791753  -0.000079   0.024593  -0.003206
 508   7  -5.441937  -3.888780   0.609545  -0.000027   0.024593  -0.001099
 509  15  -4.805562  -4.293465   0.717299  -0.000111   0.024593  -0.004518
 510   6  -5.168498  -1.297148   3.974436  -0.000091   0.025167  -0.003609
 511   7  -5.571730  -1.105312   3.757372  -0.000042   0.025167  -0.001673
 512  16  -4.949184  -1.231494   4.174300  -0.000163   0.025167  -0.006458
 513   6  -3.890392   1.372423   3.686588  -0.000096   0.025167  -0.003815
 514   7  -4.310744   1.528499   3.473379  -0.000037   0.025167  -0.001478
 515  16  -3.786138   1.197750   3.912364  -0.000120   0.025167  -0.004761
 516   6  -5.625545  -3.710958   1.311766  -0.000014   0.024928  -0.000554
 517   7  -6.067997  -3.566006   1.139316  -0.000019   0.024928  -0.000767
 518  17  -6.342415  -3.479326   1.229473  -0.000043   0.024928  -0.001745
 519   6  -5.711704  -1.774852   3.494393  -0.000027   0.024928  -0.001098
 520   7  -6.155321  -1.603707   3.351470  -0.000027   0.024928  -0.001100
 521  17  -6.421887  -1.693483   3.242703  -0.000060   0.024928  -0.002407
 522   6  -3.896489   2.002538   3.085657  -0.000062   0.026961  -0.002288
 523   7  -4.320340   2.214638   2.937557  -0.000052   0.026961  -0.001918
 524  18  -4.411420   2.460385   2.787204  -0.000069   0.026961  -0.002550
 525   6  -3.660876  -2.747698  -2.329653  -0.000060   0.026545  -0.002278
 526   7  -4.081885  -2.591670  -2.541703  -0.000055   0.026545  -0.002075
 527  19  -4.173017  -2.415843  -2.769708  -0.000089   0.026545  -0.003363
 528   7  -4.165140  -2.883095  -2.317979   0.000010   0.111157   0.000088
 529   6  -3.625610  -3.232173  -1.983861  -0.000099   0.111157  -0.000892
 530   7  -5.853401  -3.746252   0.784689   0.000070   0.097073   0.000719
 531   6  -5.277566  -3.980258   1.150747  -0.000022   0.097073  -0.000229
 532   7  -5.992590  -1.376350   3.535953   0.000034   0.094268   0.000358
 533   6  -5.357711  -1.538101   3.836504  -0.000044   0.094268  -0.000471
 534   7  -4.444214   1.905338   3.235906   0.000017   0.094128   0.000182
 535   6  -3.776843   1.716634   3.432208  -0.000095   0.094128  -0.001008
 536   6  -0.678561  -3.987338   2.534029  -0.000268   0.068807  -0.003889
 537   8   0.237480  -3.754786   2.685240  -0.000444   0.068807  -0.006446
 538  15  -0.780513  -4.167371   2.309581  -0.000440   0.068807  -0.006391
 539   6  -0.954566  -2.858012   3.993961  -0.000269   0.083351  -0.003223
 540   8  -0.002755  -2.749457   4.012939  -0.000434   0.083351  -0.005211
 541  16  -1.047620  -2.656487   4.205600  -0.000429   0.083351  -0.005145
 542   8   0.632561  -3.295107   3.676180  -0.002299   0.389344  -0.005904
 543   6  -0.703655  -3.635645   3.258161  -0.000414   0.549909  -0.000752
 544   6  -1.777281  -3.564638  -1.802002  -0.000835   0.108972  -0.007662
 545   9  -0.653458  -4.015862  -1.996044  -0.000695   0.108972  -0.006381
 546  15  -1.766823  -3.841114  -1.665685  -0.000797   0.108972  -0.007312
 547   9  -0.200751  -4.240223  -2.506112   0.000012   0.026930   0.000452
 548   6  -1.812943  -3.507092  -2.124422   0.000075   0.039483   0.001894
 549  15  -2.953680  -3.925945  -1.571914  -0.000625   0.105774  -0.005913
 550   6  -2.811886  -3.520571  -1.806369  -0.000701   0.129227  -0.005422
 551  15  -1.435373  -4.550847   2.344463  -0.000377   0.071013  -0.005314
 552  15  -2.554948  -4.691669   2.495731  -0.000807   0.158342  -0.005097
 553  15  -3.817164  -4.708771   1.950655  -0.000871   0.158342  -0.005499
 554  15  -4.477629  -4.592069   1.030694  -0.000349   0.071013  -0.004912
 555   6  -1.828215  -4.324368   2.746249  -0.000545   0.155057  -0.003515
 556   6  -3.362414  -4.452067   2.623793  -0.000579   0.155057  -0.003737
 557   6  -4.505979  -4.360651   1.589882  -0.000722   0.155057  -0.004657
 558  16  -4.597674  -1.591248   4.451186  -0.000390   0.079638  -0.004902
 559  16  -3.756171  -2.535980   4.493908  -0.001030   0.182659  -0.005640
 560  16  -2.276064  -2.876018   4.455469  -0.001020   0.182659  -0.005584
 561   6  -4.525304  -2.157075   4.158204  -0.000892   0.169440  -0.005267
 562   6  -3.118993  -3.120105   4.176679  -0.000643   0.169440  -0.003795
 563   6  -1.723867  -3.116263   4.112572  -0.000295   0.097295  -0.003031
 564  16  -2.425964   1.300457   4.103397  -0.000382   0.070651  -0.005411
 565  16  -3.299545   1.191019   4.152737  -0.000346   0.070651  -0.004903
 566   6  -2.908850   1.454047   3.773972  -0.000893   0.154420  -0.005784
 567  17  -6.539066  -3.359496   1.614626  -0.000407   0.195398  -0.002081
 568  17  -6.584773  -2.480181   2.711614  -0.001443   0.399338  -0.003613
 569   6  -5.521740  -3.387429   2.315536  -0.000259   0.535850  -0.000484
 570   6  -5.565063  -2.279279   3.468483   0.000128   0.275202   0.000466
 571  18  -4.262377   2.774758   2.574132  -0.000446   0.166346  -0.002681
 572   6  -3.342526   2.237998   2.945816  -0.000212   0.234464  -0.000905
 573  19  -3.911183  -2.044850  -3.106398  -0.000476   0.167063  -0.002847
 574   6  -3.208261  -2.653645  -2.464190  -0.000186   0.235448  -0.000792
 575  15  -4.627801  -4.455109   0.345119  -0.000854   0.193107  -0.004420
 576  15  -4.034753  -4.199016  -0.879875  -0.002316   0.394217  -0.005875
 577   7  -5.358825  -3.823698  -0.428397  -0.000125   0.529980  -0.000236
 578   7  -4.599092  -3.444713  -1.755077   0.000168   0.271920   0.000620
 579  16  -3.954674   0.891645   4.198172  -0.000854   0.197072  -0.004333
 580  16  -4.608232  -0.348998   4.381207  -0.002439   0.402836  -0.006055
 581   7  -5.098023   0.854889   3.721119  -0.000230   0.540313  -0.000425
 582   7  -5.746316  -0.612564   3.834469   0.000158   0.277523   0.000569
 583  17  -6.898825  -1.441523   3.238577  -0.000155   0.069325  -0.002241
 584  17  -7.522294  -0.525361   3.068699  -0.000411   0.154279  -0.002662
 585  17  -8.337683   0.186986   2.254209  -0.000261   0.154279  -0.001692
 586  17  -8.914885   0.159008   1.028751  -0.000411   0.154279  -0.002667
 587  17  -9.010619  -0.597503  -0.091167  -0.000445   0.154279  -0.002886
 588  17  -8.584536  -1.763692  -0.633522  -0.000309   0.154279  -0.002005
 589  17  -7.816222  -2.848032  -0.369721  -0.000337   0.154279  -0.002186
 590  17  -7.029506  -3.393494   0.589049  -0.000453   0.154279  -0.002937
 591   7  -6.789110  -0.857443   3.311965  -0.000298   0.151603  -0.001962
 592   7  -7.694839   0.249872   2.792551  -0.000038   0.151603  -0.000251
 593   7  -8.521767   0.656253   1.581219  -0.000056   0.151603  -0.000371
 594   7  -8.921360   0.190419   0.188521  -0.000200   0.151603  -0.001321
 595   7  -8.725198  -0.951290  -0.798546  -0.000164   0.151603  -0.001082
 596   7  -8.015958  -2.287667  -0.963953  -0.000026   0.151603  -0.000171
 597   7  -7.092572  -3.255452  -0.237983  -0.000259   0.151603  -0.001711
 598   7  -6.432431  -3.549114   0.766527  -0.000069   0.084696  -0.000809
 599  18  -5.490284   3.561188  -1.370654  -0.000037   0.068981  -0.000535
 600  18  -6.535098   3.407655  -1.015227  -0.000292   0.153246  -0.001909
 601  18  -7.382266   3.124054  -0.007089  -0.000356   0.153246  -0.002320
 602  18  -7.416936   2.831095   1.307232  -0.000207   0.153246  -0.001348
 603  18  -6.624701   2.650515   2.381578  -0.000310   0.153246  -0.002024
 604  18  -5.334768   2.657353   2.769513  -0.000418   0.153246  -0.002730
 605   7  -5.942755   3.232404  -1.580803   0.000006   0.151112   0.000040
 606   7  -7.221297   2.971334  -0.814693  -0.000102   0.151112  -0.000675
 607   7  -7.744533   2.629235   0.563329  -0.000047   0.151112  -0.000313
 608   7  -7.295034   2.348262   1.980635   0.000049   0.151112   0.000321
 609   7  -6.059588   2.245173   2.848273  -0.000062   0.151112  -0.000413
 610   7  -4.837145   2.306526   2.967620  -0.000088   0.084276  -0.001050
 611  19  -4.655682  -2.397664  -3.014656  -0.000154   0.069315  -0.002222
 612  19  -5.774694  -2.366360  -2.990059  -0.000319   0.154173  -0.002071
 613  19  -6.914239  -1.637447  -3.029239  -0.000210   0.154173  -0.001364
 614  19  -7.367439  -0.366701  -3.135203  -0.000330   0.154173  -0.002137
 615  19  -6.943970   0.912220  -3.263450  -0.000362   0.154173  -0.002345
 616  19  -5.821670   1.662226  -3.360123  -0.000230   0.154173  -0.001490
 617   7  -5.059352  -2.643419  -2.646922  -0.000265   0.151666  -0.001748
 618   7  -6.535780  -2.281340  -2.644026  -0.000043   0.151666  -0.000285
 619   7  -7.481373  -1.094168  -2.730196  -0.000034   0.151666  -0.000223
 620   7  -7.499024   0.419537  -2.869245  -0.000118   0.151666  -0.000778
 621   7  -6.581320   1.624086  -3.002777  -0.000089   0.151666  -0.000590
 622   7  -5.439379   2.091159  -3.073860   0.000218   0.084683   0.002575
 623   8   0.920268  -4.028362   1.945474  -0.001535   0.342044  -0.004487
 624   9   0.951834  -4.594969   1.075347  -0.001330   0.342044  -0.003888
 625  15  -0.124904  -4.343969   1.512420  -0.002018   0.342044  -0.005900
 626   9   1.462454  -5.003883   1.098085   0.000042   0.023671   0.001781
 627   8   1.405229  -4.198395   2.318273   0.000022   0.023671   0.000910
 628  15  -0.655929  -4.514337   2.080953  -0.000186   0.162948  -0.001141
 629   8   0.783599  -3.999587   2.746213  -0.000202   0.162948  -0.001237
 630  16  -0.993745  -2.396394   4.632717  -0.000588   0.299789  -0.001962
 631  16  -0.778404  -1.111426   4.910924  -0.002866   0.599918  -0.004778
 632   8   0.591134  -2.120349   4.589890  -0.002493   0.599918  -0.004155
 633   8   0.792797  -0.811388   4.734339  -0.000654   0.299789  -0.002181
 634  15  -1.811145  -4.319259  -1.653279  -0.000660   0.270293  -0.002442
 635  15  -1.641797  -5.104608  -0.862305  -0.002469   0.540194  -0.004571
 636  15  -1.169336  -5.392123   0.394588  -0.002510   0.540194  -0.004647
 637  15  -0.687253  -5.003201   1.336622  -0.000853   0.270293  -0.003156
 638   9  -0.234611  -4.962791  -2.016011  -0.001619   0.540194  -0.002997
 639   9   0.087068  -5.688761  -0.895674  -0.002021   0.540194  -0.003741
 640   9   0.651775  -5.502200   0.342052  -0.001536   0.540194  -0.002844
 641  12   4.773883   2.107358  -2.995385   0.000061   0.315422   0.000193
 642  12   3.837083   2.407913  -3.253173  -0.000149   0.315422  -0.000472
 643  10   4.063243   0.831800  -3.906362  -0.000771   0.630795  -0.001222
 644  14   6.661250  -1.146564   2.214826  -0.000225   0.253719  -0.000886
 645  14   7.374963  -0.747126   1.411420  -0.001134   0.507355  -0.002236
 646  14   7.530696  -0.036074   0.219240  -0.000698   0.507355  -0.001376
 647  11   6.788380  -2.298138   1.130147  -0.001210   0.507355  -0.002386
 648  11   7.404709  -1.702247   0.027335  -0.001361   0.507355  -0.002683
 649  11   7.285888  -1.094654  -0.937606  -0.000225   0.253719  -0.000887
 650  16  -0.863158   0.674418   4.645950  -0.000433   0.256664  -0.001685
 651  16  -1.232526   1.180770   4.390927  -0.000313   0.256664  -0.001218
 652  13   0.921582   2.266266   4.323938  -0.000373   0.511993  -0.000728
 =====================================================


   1 warning(s) detected.
     A line exceeding 80 characters begins with "http://cactus.nci.ni".
 There may be a problem in your input file.

              3777270  WORDS OF DYNAMIC MEMORY USED
 EXECUTION OF GAMESS TERMINATED NORMALLY Thu Nov 24 04:04:00 2016
 DDI: 263640 bytes (0.3 MB / 0 MWords) used by master data server.

 ----------------------------------------
 CPU timing information for all processes
 ========================================
 0: 1883.200 + 0.648 = 1883.848
 ----------------------------------------
 ddikick.x: exited gracefully.
