----- GAMESS execution script -----

          ******************************************************
          *         GAMESS VERSION =  5 DEC 2014 (R1)          *
          *             FROM IOWA STATE UNIVERSITY             *
          * M.W.SCHMIDT, K.K.BALDRIDGE, J.A.BOATZ, S.T.ELBERT, *
          *   M.S.GORDON, J.H.JENSEN, S.KOSEKI, N.MATSUNAGA,   *
          *          K.A.NGUYEN, S.J.SU, T.L.WINDUS,           *
          *       TOGETHER WITH M.DUPUIS, J.A.MONTGOMERY       *
          *         J.COMPUT.CHEM.  14, 1347-1363(1993)        *
          **************** 64 BIT LINUX VERSION ****************

 EXECUTION OF GAMESS BEGUN Thu Nov 24 01:08:12 2016

            ECHO OF THE FIRST FEW INPUT CARDS -
 INPUT CARD>! SELECT RESTRICTED HARTREE-FOCK AS DEFAULT                                     
 INPUT CARD>$contrl scftyp=rhf $end                                                         
 INPUT CARD>                                                                                
 INPUT CARD>! THEORY: HF OR DFT                                                             
 INPUT CARD> $contrl mplevl=0 $end                                                          
 INPUT CARD>                                                                                
 INPUT CARD> $system timlim=10000 mwords=20 $end                                            
 INPUT CARD> $SCF DIRSCF=.TRUE. $end                                                        
 INPUT CARD>                                                                                
 INPUT CARD>                                                                                
 INPUT CARD>! BASIS SETS                                                                    
 INPUT CARD>! 6-311G(d,p)                                                                   
 INPUT CARD> $BASIS GBASIS=N311 NGAUSS=6 NDFUNC=1 NPFUNC=1 $END                             
 INPUT CARD>                                                                                
 INPUT CARD>! One of the following                                                          
 INPUT CARD> $guess guess=HUCKEL $end                                                       
 INPUT CARD>                                                                                
 INPUT CARD> $statpt projct=.FALSE. $end                                                    
 INPUT CARD> $STATPT IFREEZ(1)=1,2,3 $END                                                   
 INPUT CARD>                                                                                
 INPUT CARD>! Optimize the geometry with COSMO effects                                      
 INPUT CARD> $statpt opttol=0.0005 nstep=50 $end                                            
 INPUT CARD> $contrl nzvar=1 $end                                                           
 INPUT CARD> $zmat dlc=.t. auto=.t. $end                                                    
 INPUT CARD> $contrl runtyp=OPTIMIZE maxit=200 $end                                         
 INPUT CARD>                                                                                
 INPUT CARD>! Run COSMO on perfect conductor                                                
 INPUT CARD> $COSGMS PRFCND=.TRUE. $end                                                     
 INPUT CARD>                                                                                
 INPUT CARD>! Specifying RSOLV                                                              
 INPUT CARD> $COSGMS COSRAD = 1.4 $end                                                      
 INPUT CARD>                                                                                
 INPUT CARD>! available memory                                                              
 INPUT CARD> $SYSTEM MWORDS=40 $END                                                         
 INPUT CARD>                                                                                
 INPUT CARD> $DATA                                                                          
 INPUT CARD>Ethylene oxide, ID: C75218                                                      
 INPUT CARD>C1                                                                              
 INPUT CARD>C      6.0      0.6072000000    0.5409000000    0.9241000000                    
 INPUT CARD>O      8.0      1.5270000000    1.6388000000    0.9319000000                    
 INPUT CARD>C      6.0      2.0735000000    0.3150000000    0.9135000000                    
 INPUT CARD>H      1.0      0.0102000000    0.4009000000    1.8330000000                    
 INPUT CARD>H      1.0      0.0000000000    0.4220000000    0.0189000000                    
 INPUT CARD>H      1.0      2.6037000000    0.0210000000    0.0000000000                    
 INPUT CARD>H      1.0      2.6134000000    0.0000000000    1.8143000000                    
 INPUT CARD> $END                                                                           
 INPUT CARD>                                                                                
 INPUT CARD>                                                                                
   40000000 WORDS OF MEMORY AVAILABLE

     BASIS OPTIONS
     -------------
     GBASIS=N311         IGAUSS=       6      POLAR=POPN311 
     NDFUNC=       1     NFFUNC=       0     DIFFSP=       F
     NPFUNC=       1      DIFFS=       F     BASNAM=        


     RUN TITLE
     ---------
 Ethylene oxide, ID: C75218                                                      

 THE POINT GROUP OF THE MOLECULE IS C1      
 THE ORDER OF THE PRINCIPAL AXIS IS     0

 ATOM      ATOMIC                      COORDINATES (BOHR)
           CHARGE         X                   Y                   Z
 C           6.0     1.1474416197        1.0221527868        1.7462957853
 O           8.0     2.8856115833        3.0968829487        1.7610356480
 C           6.0     3.9183468355        0.5952636861        1.7262646898
 H           1.0     0.0192752051        0.7575911485        3.4638677355
 H           1.0     0.0000000000        0.7974643668        0.0357158212
 H           1.0     4.9202795542        0.0396842457        0.0000000000
 H           1.0     4.9386098963        0.0000000000        3.4285298595

          INTERNUCLEAR DISTANCES (ANGS.)




     $CONTRL OPTIONS
     ---------------
 SCFTYP=RHF          RUNTYP=OPTIMIZE     EXETYP=RUN     
 MPLEVL=       0     CITYP =NONE         CCTYP =NONE         VBTYP =NONE    
 DFTTYP=NONE         TDDFT =NONE    
 MULT  =       1     ICHARG=       0     NZVAR =       1     COORD =UNIQUE  
 PP    =NONE         RELWFN=NONE         LOCAL =NONE         NUMGRD=       F
 ISPHER=      -1     NOSYM =       0     MAXIT =     200     UNITS =ANGS    
 PLTORB=       F     MOLPLT=       F     AIMPAC=       F     FRIEND=        
 NPRINT=       7     IREST =       0     GEOM  =INPUT   
 NORMF =       0     NORMP =       0     ITOL  =      20     ICUT  =       9
 INTTYP=BEST         GRDTYP=BEST         QMTTOL= 1.0E-06

     $SYSTEM OPTIONS
     ---------------
  REPLICATED MEMORY=    40000000 WORDS (ON EVERY NODE).
 DISTRIBUTED MEMDDI=           0 MILLION WORDS IN AGGREGATE,
 MEMDDI DISTRIBUTED OVER   1 PROCESSORS IS           0 WORDS/PROCESSOR.
 TOTAL MEMORY REQUESTED ON EACH PROCESSOR=    40000000 WORDS.
 TIMLIM=       10000.00 MINUTES, OR       6.9 DAYS.
 PARALL= F  BALTYP=  DLB     KDIAG=    0  COREFL= F
 MXSEQ2=     300 MXSEQ3=     150  mem10=         0

     $COSGMS OPTIONS
     ---------------
     EPSI  =   INFTY     NSPA  =      92     COSRAD=    1.40
     DISEX =   10.00     OUTCHG=DBLCAV       COSBUG=       F
     COSWRT=       F     DCOSMO=       F

     SYMMETRY COORDINATES WILL NOT BE USED FOR 
     THE COSMO CALCULATION, EVEN IF SPECIFIED:
         -- SWITCHING TO C1 POINT GROUP --


     DEFINITION OF CAVITY
     ---------------------------
     ATOM         COORDINATES           RADIUS 
     1    1.1474    1.0222    1.7463    2.0000
     2    2.8856    3.0969    1.7610    1.7200
     3    3.9183    0.5953    1.7263    2.0000
     4    0.0193    0.7576    3.4639    1.3000
     5    0.0000    0.7975    0.0357    1.3000
     6    4.9203    0.0397    0.0000    1.3000
     7    4.9386    0.0000    3.4285    1.3000

          ----------------
          PROPERTIES INPUT
          ----------------

     MOMENTS            FIELD           POTENTIAL          DENSITY
 IEMOM =       1   IEFLD =       0   IEPOT =       0   IEDEN =       0
 WHERE =COMASS     WHERE =NUCLEI     WHERE =NUCLEI     WHERE =NUCLEI  
 OUTPUT=BOTH       OUTPUT=BOTH       OUTPUT=BOTH       OUTPUT=BOTH    
 IEMINT=       0   IEFINT=       0                     IEDINT=       0
                                                       MORB  =       0
          EXTRAPOLATION IN EFFECT
          SOSCF IN EFFECT
 ORBITAL PRINTING OPTION: NPREO=     1    81     2     1

     -------------------------------
     INTEGRAL TRANSFORMATION OPTIONS
     -------------------------------
     NWORD  =            0
     CUTOFF = 1.0E-09     MPTRAN =       0
     DIRTRF =       T     AOINTS =DUP     

          ----------------------
          INTEGRAL INPUT OPTIONS
          ----------------------
 NOPK  =       1 NORDER=       0 SCHWRZ=       T


 -----------------------------------------------
  STATISTICS ON AUTOMATIC COORDINATE GENERATION 
 -----------------------------------------------
  NUMBER OF USER SPECIFIED BONDS                             0
  NUMBER OF BONDS                                            7
  NUMBER OF ANGLES                                          13
  NUMBER OF TORSIONS                                        12
  NUMBER OF EXTRA COORD.                                     0
  NUMBER OF EXTRA COORD. FOR CONSTRAINTS                     0
  NUMBER OF CONSTRAINED COORD.                               0

  TOTAL NUMBER OF PRIMITIVES                                32
 -----------------------------------------------

   --- ENCODED Z MATRIX ---
 COORD  TYPE   I   J   K   L   M   N
    1      1    1   3
    2      1    1   2
    3      1    1   4
    4      1    1   5
    5      1    2   3
    6      1    3   7
    7      1    3   6
    8      2    1   3   2
    9      2    1   3   6
   10      2    1   3   7
   11      2    1   2   3
   12      2    2   1   3
   13      2    2   1   4
   14      2    2   3   7
   15      2    2   1   5
   16      2    2   3   6
   17      2    3   1   5
   18      2    3   1   4
   19      2    4   1   5
   20      2    6   3   7
   21      3    1   2   3   6
   22      3    1   2   3   7
   23      3    2   1   3   6
   24      3    2   1   3   7
   25      3    2   3   1   4
   26      3    2   3   1   5
   27      3    3   2   1   5
   28      3    3   2   1   4
   29      3    4   1   3   7
   30      3    4   1   3   6
   31      3    5   1   3   6
   32      3    5   1   3   7

          INDEP./SYM. INTERNAL COORDINATES
          --------------------------------
 CRD  1=   0.6508 (  1)  0.1440 (  3)  0.1441 (  4)  0.1440 (  6)  0.1440 (  7)
          -0.1353 (  8)  0.1688 (  9)  0.1689 ( 10)  0.2705 ( 11) -0.1353 ( 12)
           0.1688 ( 17)  0.1689 ( 18) -0.2700 ( 19) -0.2701 ( 20)  0.1311 ( 21)
          -0.1312 ( 22) -0.1311 ( 27)  0.1312 ( 28)  0.1026 ( 30) -0.1026 ( 32)
 CRD  2=  -0.1384 (  3)  0.1384 (  4) -0.1384 (  6)  0.1385 (  7)  0.3226 (  9)
          -0.3226 ( 10) -0.1110 ( 13) -0.1111 ( 14)  0.1110 ( 15)  0.1111 ( 16)
           0.3226 ( 17) -0.3225 ( 18)  0.3381 ( 21)  0.3380 ( 22) -0.3381 ( 27)
          -0.3380 ( 28)
 CRD  3=   0.4114 (  3) -0.4113 (  4) -0.4112 (  6)  0.4113 (  7)  0.1898 (  9)
          -0.1898 ( 10) -0.1898 ( 17)  0.1899 ( 18)  0.2006 ( 21)  0.2007 ( 22)
           0.2007 ( 27)  0.2008 ( 28)
 CRD  4=  -0.4779 (  2) -0.1697 (  3) -0.1697 (  4)  0.4779 (  5)  0.1699 (  6)
           0.1699 (  7) -0.2916 (  8)  0.2916 ( 12) -0.1748 ( 13)  0.1748 ( 14)
          -0.1748 ( 15)  0.1748 ( 16)  0.1957 ( 19) -0.1956 ( 20)
 CRD  5=   0.4354 (  3)  0.4355 (  4)  0.4357 (  6)  0.4356 (  7) -0.1198 (  9)
          -0.1198 ( 10) -0.1197 ( 17) -0.1197 ( 18)  0.2229 ( 19)  0.2231 ( 20)
          -0.1165 ( 21)  0.1165 ( 22)  0.1165 ( 27) -0.1165 ( 28)
 CRD  6=   0.4053 (  3)  0.4052 (  4) -0.4051 (  6) -0.4050 (  7)  0.1422 (  9)
           0.1422 ( 10) -0.1423 ( 17) -0.1423 ( 18)  0.2786 ( 19) -0.2784 ( 20)
           0.1236 ( 21) -0.1235 ( 22)  0.1236 ( 27) -0.1236 ( 28)
 CRD  7=  -0.3698 (  3)  0.3697 (  4) -0.3697 (  6)  0.3697 (  7) -0.1716 ( 13)
          -0.1716 ( 14)  0.1716 ( 15)  0.1716 ( 16) -0.1451 ( 21) -0.1451 ( 22)
          -0.2441 ( 23) -0.2441 ( 24)  0.2441 ( 25)  0.2442 ( 26)  0.1451 ( 27)
           0.1452 ( 28)
 CRD  8=  -0.5341 (  2) -0.5341 (  5) -0.1134 (  8)  0.2268 ( 11) -0.1134 ( 12)
           0.1506 ( 19)  0.1506 ( 20)  0.1507 ( 23) -0.1509 ( 24)  0.1508 ( 25)
          -0.1508 ( 26)  0.3016 ( 30) -0.3017 ( 32)
 CRD  9=   0.1350 (  3) -0.1350 (  4) -0.1351 (  6)  0.1351 (  7)  0.1156 ( 13)
          -0.1157 ( 14) -0.1155 ( 15)  0.1156 ( 16) -0.1651 ( 21) -0.1652 ( 22)
          -0.1910 ( 23) -0.1911 ( 24) -0.1909 ( 25) -0.1908 ( 26) -0.1650 ( 27)
          -0.1651 ( 28) -0.3820 ( 29) -0.3819 ( 30) -0.3818 ( 31) -0.3819 ( 32)
 CRD 10=  -0.2096 (  2)  0.2305 (  3)  0.2306 (  4)  0.2096 (  5) -0.2305 (  6)
          -0.2306 (  7) -0.1279 (  8) -0.1917 (  9) -0.1917 ( 10)  0.1279 ( 12)
           0.1916 ( 17)  0.1916 ( 18) -0.3174 ( 19)  0.3175 ( 20) -0.2719 ( 21)
           0.2718 ( 22) -0.2719 ( 27)  0.2718 ( 28)
 CRD 11=   0.3068 (  3) -0.3067 (  4)  0.3069 (  6) -0.3068 (  7) -0.2570 ( 13)
          -0.2570 ( 14)  0.2569 ( 15)  0.2569 ( 16) -0.2887 ( 23) -0.2887 ( 24)
           0.2887 ( 25)  0.2887 ( 26)
 CRD 12=   0.4200 (  1) -0.1631 (  2) -0.1632 (  5) -0.1272 (  8) -0.1187 (  9)
          -0.1188 ( 10)  0.2544 ( 11) -0.1272 ( 12)  0.1249 ( 13)  0.1249 ( 14)
           0.1250 ( 15)  0.1250 ( 16) -0.1188 ( 17) -0.1188 ( 18)  0.1069 ( 19)
           0.1069 ( 20) -0.2351 ( 21)  0.2350 ( 22) -0.1526 ( 23)  0.1524 ( 24)
          -0.1524 ( 25)  0.1526 ( 26)  0.2351 ( 27) -0.2351 ( 28) -0.3050 ( 30)
           0.3050 ( 32)
 CRD 13=   0.4234 (  1)  0.3487 (  2) -0.1776 (  3) -0.1776 (  4)  0.3487 (  5)
          -0.1776 (  6) -0.1776 (  7) -0.1303 ( 13) -0.1304 ( 14) -0.1304 ( 15)
          -0.1304 ( 16)  0.2642 ( 19)  0.2643 ( 20)  0.1263 ( 23) -0.1262 ( 24)
           0.1262 ( 25) -0.1263 ( 26)  0.2525 ( 30) -0.2525 ( 32)
 CRD 14=  -0.2502 (  3)  0.2502 (  4)  0.2502 (  6) -0.2502 (  7)  0.2614 (  9)
          -0.2613 ( 10)  0.1634 ( 13) -0.1633 ( 14) -0.1632 ( 15)  0.1632 ( 16)
          -0.2614 ( 17)  0.2613 ( 18)  0.2409 ( 21)  0.2408 ( 22)  0.2409 ( 27)
           0.2408 ( 28) -0.1662 ( 29) -0.1660 ( 30) -0.1658 ( 31) -0.1660 ( 32)
 CRD 15=   0.2110 (  2) -0.2109 (  5)  0.1287 (  8) -0.1287 ( 12) -0.1317 ( 13)
           0.1317 ( 14) -0.1318 ( 15)  0.1318 ( 16)  0.1033 ( 19) -0.1033 ( 20)
          -0.2491 ( 23)  0.2489 ( 24)  0.2490 ( 25) -0.2491 ( 26)  0.4979 ( 29)
          -0.4982 ( 31)

 THE DETERMINANT OF THE G MATRIX IS 10**(    -3)


                     --------------------
                     INTERNAL COORDINATES
                     --------------------

                 - - ATOMS - -         COORDINATE      COORDINATE
 NO.   TYPE    I  J  K  L  M  N        (BOHR,RAD)       (ANG,DEG)
 ----------------------------------------------------------------
   1 STRETCH   1  3                     2.8036675       1.4836370
   2 STRETCH   1  2                     2.7066506       1.4322979
   3 STRETCH   1  4                     2.0719087       1.0964070
   4 STRETCH   1  5                     2.0720017       1.0964562
   5 STRETCH   2  3                     2.7066308       1.4322874
   6 STRETCH   3  7                     2.0719513       1.0964295
   7 STRETCH   3  6                     2.0718416       1.0963714
   8 BEND      1  3  2                  1.0263803      58.8072567
   9 BEND      1  3  6                  2.1231907     121.6498657
  10 BEND      1  3  7                  2.1229670     121.6370489
  11 BEND      1  2  3                  1.0888442      62.3861794
  12 BEND      2  1  3                  1.0263682      58.8065639
  13 BEND      2  1  4                  2.0297799     116.2978198
  14 BEND      2  3  7                  2.0295890     116.2868826
  15 BEND      2  1  5                  2.0300178     116.3114549
  16 BEND      2  3  6                  2.0298156     116.2998695
  17 BEND      3  1  5                  2.1233978     121.6617330
  18 BEND      3  1  4                  2.1230692     121.6429071
  19 BEND      4  1  5                  1.9487239     111.6536526
  20 BEND      6  3  7                  1.9491259     111.6766852
  21 TORSION   1  2  3  6               1.9660092     112.6440300
  22 TORSION   1  2  3  7              -1.9658421    -112.6344581
  23 TORSION   2  1  3  6              -1.8082632    -103.6058469
  24 TORSION   2  1  3  7               1.8080821     103.5954705
  25 TORSION   2  3  1  4              -1.8082695    -103.6062097
  26 TORSION   2  3  1  5               1.8084153     103.6145628
  27 TORSION   3  2  1  5              -1.9661640    -112.6528969
  28 TORSION   3  2  1  4               1.9658758     112.6363865
  29 TORSION   4  1  3  7              -0.0001874      -0.0107392
  30 TORSION   4  1  3  6               2.6666527     152.7879434
  31 TORSION   5  1  3  6               0.0001521       0.0087158
  32 TORSION   5  1  3  7              -2.6666880    -152.7899667

     ------------------------------------------
     THE POINT GROUP IS C1 , NAXIS= 1, ORDER= 1
     ------------------------------------------

     DIMENSIONS OF THE SYMMETRY SUBSPACES ARE
 A   =   81

 ..... DONE SETTING UP THE RUN .....
 STEP CPU TIME =     0.00 TOTAL CPU TIME =        0.0 (    0.0 MIN)
 TOTAL WALL CLOCK TIME=        0.0 SECONDS, CPU UTILIZATION IS   0.00%


          -----------------------------
          STATIONARY POINT LOCATION RUN
          -----------------------------

 OBTAINING INITIAL HESSIAN, HESS=GUESS   
 DIAGONAL GUESS HESSIAN IN INTERNAL COORDS IS
     1  0.4018     2  0.3585     3  0.3421     4  0.3420     5  0.3585
     6  0.3421     7  0.3421     8  0.2459     9  0.2265    10  0.2265
    11  0.2373    12  0.2459    13  0.2189    14  0.2189    15  0.2189
    16  0.2189    17  0.2265    18  0.2265    19  0.2028    20  0.2028
    21  0.2500    22  0.2500    23  0.2500    24  0.2500    25  0.2500
    26  0.2500    27  0.2500    28  0.2500    29  0.2500    30  0.2500
    31  0.2500    32  0.2500
 TRANSFORMING HESSIAN TO SYMMETRY COORDINATES

          PARAMETERS CONTROLLING GEOMETRY SEARCH ARE
          METHOD =QA                  UPHESS =BFGS    
          NNEG   =         0          NFRZ   =         3
          NSTEP  =        50          IFOLOW =         1
          HESS   =GUESS               RESTAR =         F
          IHREP  =         0          HSSEND =         F
          NPRT   =         0          NPUN   =         0
          OPTTOL = 5.000E-04          RMIN   = 1.500E-03
          RMAX   = 1.000E-01          RLIM   = 7.000E-02
          DXMAX  = 3.000E-01          PURIFY =         F
          MOVIE  =         F          TRUPD  =         T
          TRMAX  = 5.000E-01          TRMIN  = 5.000E-02
          ITBMAT =         5          STPT   =         F
          STSTEP = 1.000E-02          PROJCT=          F
          FROZEN COORD(S)=   1   2   3


      ***** EQUILIBRIUM GEOMETRY LOCATED *****
            (SUBJECT TO   3 CONSTRAINT(S))
 COORDINATES OF ALL ATOMS ARE (ANGS)
   ATOM   CHARGE       X              Y              Z
 ------------------------------------------------------------
 C           6.0   0.6131473407   0.5451773599   0.9241252210
 O           8.0   1.5242824821   1.6212770820   0.9316923819
 C           6.0   2.0691038448   0.3208625851   0.9136149194
 H           1.0   0.0212589738   0.4395459828   1.8237653012
 H           1.0   0.0111953705   0.4606294321   0.0289145347
 H           1.0   2.6049500340   0.0610209924   0.0101677535
 H           1.0   2.6145548908   0.0400703547   1.8049788321


                     --------------------
                     INTERNAL COORDINATES
                     --------------------

                 - - ATOMS - -         COORDINATE      COORDINATE
 NO.   TYPE    I  J  K  L  M  N        (BOHR,RAD)       (ANG,DEG)
 ----------------------------------------------------------------
   1 STRETCH   1  3                     2.7838922       1.4731724
   2 STRETCH   1  2                     2.6645908       1.4100408
   3 STRETCH   1  4                     2.0447866       1.0820546
   4 STRETCH   1  5                     2.0448343       1.0820798
   5 STRETCH   2  3                     2.6646041       1.4100479
   6 STRETCH   3  7                     2.0448291       1.0820771
   7 STRETCH   3  6                     2.0448071       1.0820654
   8 BEND      1  3  2                  1.0211466      58.5073886
   9 BEND      1  3  6                  2.1316874     122.1366920
  10 BEND      1  3  7                  2.1315472     122.1286560
  11 BEND      1  2  3                  1.0992914      62.9847558
  12 BEND      2  1  3                  1.0211547      58.5078556
  13 BEND      2  1  4                  2.0081025     115.0558008
  14 BEND      2  3  7                  2.0081293     115.0573328
  15 BEND      2  1  5                  2.0081375     115.0578016
  16 BEND      2  3  6                  2.0081113     115.0563019
  17 BEND      3  1  5                  2.1317465     122.1400783
  18 BEND      3  1  4                  2.1313781     122.1189708
  19 BEND      4  1  5                  1.9561810     112.0809169
  20 BEND      6  3  7                  1.9560975     112.0761333
  21 TORSION   1  2  3  6               1.9847446     113.7174898
  22 TORSION   1  2  3  7              -1.9845683    -113.7073898
  23 TORSION   2  1  3  6              -1.7738753    -101.6355669
  24 TORSION   2  1  3  7               1.7739679     101.6408741
  25 TORSION   2  3  1  4              -1.7740217    -101.6439574
  26 TORSION   2  3  1  5               1.7738837     101.6360486
  27 TORSION   3  2  1  5              -1.9848052    -113.7209616
  28 TORSION   3  2  1  4               1.9843803     113.6966165
  29 TORSION   4  1  3  7              -0.0000538      -0.0030833
  30 TORSION   4  1  3  6               2.7352883     156.7204757
  31 TORSION   5  1  3  6               0.0000084       0.0004817
  32 TORSION   5  1  3  7              -2.7353337    -156.7230773

          INTERNUCLEAR DISTANCES (ANGS.)


 =====================================================
   GAMESS/COSab RESULTS
 =====================================================

   Dielectric Constant                  = INFTY
   Basic Grid Size                      =                 1082
   Number of Segments                   =                   92
   Number of Segments located on spheres=                  160
   Number of Segments of the cavity     =                  285
   Solvent Radius (rsolv)               = 1.40
   Outlying Charge Error Method         = double cavity

 =====================================================

  Total solvated Energy (a.u.)          =  -152.9142915404
  Total Energy corrected (a.u.)         =  -152.9141085407

  Outlying charge effect (a.u.)         =     0.0001829997
  Outlying charge effect (kcal/mol)     =     0.1148341206

  Dielectric Energy (a.u.)              =    -0.0096012855
  Dielectric energy corr. (a.u.)        =    -0.0094182858

  Sum of polarization charges           =     0.0129828581
  Sum of polarization charges(cor.)     =    -0.0129828581

  Total surface area of cavity (A**2)   =   79.07
  Total volume of cavity (A**3)         =   60.98

 =====================================================
 NPS=                   285
NR.  ATOM  (X, Y, Z)(a.u.)                  CHARGE(e)  AREA(A**2) SIGMA(e/A**2)
   1   1   0.955117  -1.871934  -0.666187   0.000947   0.464561   0.002038
   2   1  -1.943451   3.187382   1.834037  -0.000550   0.371649  -0.001481
   3   1  -1.916543  -1.097776   1.199698  -0.000869   0.325193  -0.002671
   4   1   0.875139  -2.479356   3.119893   0.000337   0.371649   0.000908
   5   1   1.826290   1.691002  -1.914532  -0.000640   0.232280  -0.002754
   6   1   1.470585  -0.910014  -1.482045   0.000046   0.139368   0.000330
   7   1   0.128180  -2.073858   3.640260  -0.000091   0.325193  -0.000281
   8   1  -2.283547  -0.418787   2.325674  -0.001085   0.371649  -0.002921
   9   1  -2.073546   2.661118   2.831293  -0.000789   0.418105  -0.001886
  10   1   0.677082   3.070800   4.890915   0.000239   0.185824   0.001286
  11   1   1.789613   0.425059   5.423284  -0.000203   0.139368  -0.001456
  12   1   0.182928   3.624812  -0.822770   0.000318   0.139368   0.002284
  13   1  -0.067859   3.399178  -0.930964   0.000022   0.092912   0.000241
  14   1  -0.237889   3.749593   3.968697   0.000333   0.278737   0.001195
  15   1  -1.211033   3.779428   2.800183  -0.000412   0.418105  -0.000985
  16   1  -2.472069   2.068962   1.897671  -0.000385   0.325193  -0.001184
  17   1  -2.589753   0.641422   1.459487  -0.000517   0.325193  -0.001590
  18   1  -1.563597  -1.549984   2.211010  -0.001306   0.464561  -0.002812
  19   1  -0.319096  -2.358298   2.532650  -0.000805   0.371649  -0.002165
  20   1   1.000546  -1.780557   4.267986   0.000502   0.278737   0.001803
  21   1  -0.537377   4.134629   0.415798   0.000341   0.278737   0.001223
  22   1  -1.237830   3.921047   1.317220  -0.000616   0.464561  -0.001326
  23   1  -2.018599   2.820301   0.753984  -0.000734   0.418105  -0.001756
  24   1  -2.382911  -0.184317   1.230373  -0.000747   0.278737  -0.002679
  25   1  -1.175873  -1.742809   0.676595  -0.001101   0.371649  -0.002961
  26   1  -0.112682  -2.033142  -0.065745  -0.000417   0.325193  -0.001283
  27   1   0.779309  -2.548301   0.591153   0.000190   0.511017   0.000373
  28   1   0.835973  -2.731926   1.908496   0.000187   0.464561   0.000402
  29   1   1.035190   2.833770  -1.572739   0.000083   0.185824   0.000445
  30   1  -0.977864  -1.767205   3.122476  -0.000812   0.278737  -0.002913
  31   1  -2.582180   1.138011   2.274119  -0.000651   0.278737  -0.002336
  32   1  -0.995449   3.521435   3.600479  -0.000279   0.232280  -0.001203
  33   1   1.688981   1.991725   5.362765  -0.000612   0.232280  -0.002634
  34   1   1.421014  -0.973571   4.940113   0.000088   0.185824   0.000472
  35   1  -1.049517   3.530274  -0.030706  -0.000424   0.371649  -0.001140
  36   1  -0.686022   4.297510   2.200409   0.000042   0.185824   0.000228
  37   1  -2.498622   1.729761   1.099028  -0.000459   0.232280  -0.001975
  38   1  -0.509701  -2.334151   1.320092  -0.001401   0.557473  -0.002513
  39   2   4.908167   5.604056   1.763448   0.004715   0.377948   0.012476
  40   2   2.383620   5.376572   3.989690   0.005699   0.343589   0.016585
  41   2   1.752530   5.935641   0.738548   0.004578   0.343589   0.013323
  42   2   3.946799   4.239801  -1.075648   0.005364   0.309230   0.017346
  43   2   4.278760   5.819005   2.769633   0.005840   0.412307   0.014165
  44   2   3.312180   5.777853   3.496142   0.006102   0.377948   0.016146
  45   2   3.895523   6.133783   1.430066   0.005786   0.412307   0.014034
  46   2   2.785546   6.250432   1.127592   0.004910   0.343589   0.014290
  47   2   4.810898   5.394222   0.574443   0.005626   0.412307   0.013644
  48   2   4.253217   5.057972  -0.408080   0.004899   0.309230   0.015844
  49   2   5.636028   4.705078   1.233712   0.002717   0.274871   0.009885
  50   2   5.251243   4.998589   2.856331   0.003912   0.309230   0.012651
  51   2   5.065515   4.512691   3.681796   0.003537   0.274871   0.012869
  52   2   2.072546   5.940504   3.039790   0.004802   0.343589   0.013976
  53   2   1.842294   6.140219   1.909664   0.004845   0.377948   0.012818
  54   2   2.480679   5.750956  -0.023674   0.006023   0.377948   0.015936
  55   2   3.190931   5.010325  -0.823765   0.006729   0.377948   0.017804
  56   2   4.771513   4.242178  -0.605783   0.002661   0.171795   0.015490
  57   2   4.289187   4.026270   4.527180   0.005126   0.309230   0.016578
  58   2   3.444528   4.847240   4.418774   0.006115   0.343589   0.017797
  59   2   1.368639   5.288087   3.585838   0.003948   0.274871   0.014363
  60   2   0.777924   5.053165   3.239211   0.001503   0.137436   0.010938
  61   2   0.548170   5.285356   2.195944   0.001598   0.171795   0.009303
  62   2   0.833240   5.540434   1.271210   0.003518   0.343589   0.010240
  63   2   1.102890   5.268644   0.165864   0.004453   0.343589   0.012961
  64   2   1.314201   4.648235  -0.605974   0.002409   0.206154   0.011686
  65   2   2.213701   4.307148  -1.167506   0.004057   0.240512   0.016868
  66   2   2.766415   3.681127  -1.428481   0.004494   0.274871   0.016348
  67   2   3.562840   3.660872  -1.360655   0.001676   0.171795   0.009755
  68   2   2.415519   3.675286   4.918880   0.003415   0.206154   0.016563
  69   2   2.470971   4.495099   4.649965   0.004725   0.274871   0.017192
  70   2   3.072750   6.250252   2.372143   0.005926   0.412307   0.014373
  71   2   3.674399   5.812483   0.218288   0.006492   0.412307   0.015745
  72   2   5.332756   4.493924   0.177731   0.003396   0.309230   0.010983
  73   2   5.616048   4.774179   2.155302   0.002921   0.274871   0.010625
  74   2   4.327965   5.127093   3.812973   0.005993   0.377948   0.015857
  75   2   1.085206   5.658588   2.540707   0.002979   0.274871   0.010838
  76   2   2.095482   5.063828  -0.678243   0.004426   0.274871   0.016101
  77   2   3.302621   3.754627   4.908517   0.004549   0.309230   0.014712
  78   2   1.582877   4.633088   4.294032   0.003056   0.240512   0.012706
  79   3   3.221931  -2.272891   4.076133   0.000750   0.464561   0.001614
  80   3   7.517930   1.730936   1.675453  -0.000550   0.371649  -0.001479
  81   3   6.200070  -2.359776   2.218603  -0.000835   0.325193  -0.002567
  82   3   3.128855  -2.795907   0.277771   0.000478   0.371649   0.001286
  83   3   3.459251   1.359758   5.402545  -0.000860   0.232280  -0.003703
  84   3   3.017027  -1.217918   4.913789   0.000211   0.139368   0.001512
  85   3   3.965084  -2.623153  -0.236074  -0.000265   0.325193  -0.000814
  86   3   6.758458  -1.799081   1.106234  -0.001064   0.371649  -0.002863
  87   3   7.487128   1.211159   0.666849  -0.000769   0.418105  -0.001840
  88   3   4.994774   2.473374  -1.375409   0.000153   0.185824   0.000822
  89   3   3.139319   0.297158  -1.960608  -0.000407   0.139368  -0.002919
  90   3   5.612395   2.731825   4.347271   0.000133   0.139368   0.000953
  91   3   5.783241   2.438925   4.449896   0.000038   0.092912   0.000412
  92   3   6.068343   2.825561  -0.441689   0.000465   0.278737   0.001670
  93   3   7.001156   2.536317   0.724296  -0.000514   0.418105  -0.001229
  94   3   7.685581   0.506875   1.586479  -0.000388   0.325193  -0.001194
  95   3   7.366518  -0.898818   1.993856  -0.000437   0.325193  -0.001343
  96   3   5.730979  -2.663242   1.198957  -0.001315   0.464561  -0.002831
  97   3   4.302035  -3.052428   0.863902  -0.000784   0.371649  -0.002109
  98   3   3.223716  -2.067625  -0.854825   0.000425   0.278737   0.001526
  99   3   6.457170   3.027265   3.117688   0.000224   0.278737   0.000803
 100   3   7.064051   2.631868   2.209849  -0.000584   0.464561  -0.001257
 101   3   7.475239   1.335478   2.747227  -0.000727   0.418105  -0.001739
 102   3   6.919886  -1.628645   2.205972  -0.000771   0.278737  -0.002768
 103   3   5.297723  -2.762849   2.730070  -0.001091   0.371649  -0.002937
 104   3   4.193808  -2.735310   3.469226  -0.000424   0.325193  -0.001304
 105   3   3.190465  -2.944027   2.804177   0.000387   0.511017   0.000757
 106   3   3.085853  -3.074141   1.483401   0.000058   0.464561   0.000125
 107   3   4.558871   2.218340   5.082779   0.000099   0.185824   0.000533
 108   3   5.110281  -2.674713   0.284823  -0.000802   0.278737  -0.002877
 109   3   7.511687  -0.405852   1.189993  -0.000665   0.278737  -0.002387
 110   3   6.720766   2.372194  -0.080660  -0.000216   0.232280  -0.000932
 111   3   3.706673   1.759210  -1.867088  -0.000641   0.232280  -0.002762
 112   3   3.068074  -1.157457  -1.508387   0.000221   0.185824   0.001191
 113   3   6.762033   2.287461   3.549715  -0.000324   0.371649  -0.000873
 114   3   6.654316   3.175592   1.336510   0.000083   0.185824   0.000449
 115   3   7.605945   0.158584   2.377645  -0.000502   0.232280  -0.002159
 116   3   4.486742  -3.112458   2.076127  -0.001419   0.557473  -0.002546
 117   4  -1.252787   0.541573   5.515201  -0.005516   0.608459  -0.009065
 118   4  -0.206617   2.142194   5.508944  -0.002402   0.392554  -0.006120
 119   4   0.605529   0.212989   5.755970  -0.001861   0.353299  -0.005267
 120   4  -0.708078  -1.095161   4.775558  -0.002104   0.353299  -0.005955
 121   4  -2.276914   0.134577   3.872771  -0.002401   0.372926  -0.006439
 122   4  -1.868261   2.078696   4.360389  -0.002374   0.412182  -0.005759
 123   4   0.108754   1.123168   5.884625  -0.003425   0.490692  -0.006980
 124   4  -0.197189  -0.512461   5.489681  -0.003384   0.490692  -0.006895
 125   4  -1.657874  -0.585241   4.517453  -0.003856   0.510320  -0.007557
 126   4  -2.211105   1.017620   4.411786  -0.003988   0.510320  -0.007814
 127   4  -1.177249   2.038654   5.205308  -0.003553   0.471065  -0.007544
 128   5  -1.312629   0.741114  -2.004334  -0.005545   0.608459  -0.009113
 129   5   0.179080  -0.455252  -2.007544  -0.002265   0.392554  -0.005769
 130   5   0.349830   1.630518  -2.258235  -0.002006   0.353299  -0.005677
 131   5  -1.298028   2.466940  -1.266778  -0.002109   0.353299  -0.005970
 132   5  -2.400545   0.811686  -0.354026  -0.002507   0.372926  -0.006724
 133   5  -1.411657  -0.909820  -0.846858  -0.002588   0.412182  -0.006278
 134   5   0.159501   0.610890  -2.384328  -0.003262   0.490692  -0.006647
 135   5  -0.636593   2.070977  -1.985273  -0.003505   0.490692  -0.007143
 136   5  -2.040488   1.687463  -1.002360  -0.003718   0.510320  -0.007285
 137   5  -2.067564  -0.007834  -0.894529  -0.004072   0.510320  -0.007980
 138   5  -0.773449  -0.658050  -1.696734  -0.003403   0.471065  -0.007224
 139   6   6.075990  -0.505674  -2.059083  -0.005559   0.608459  -0.009136
 140   6   5.560156   1.335122  -2.015681  -0.002338   0.392554  -0.005957
 141   6   4.205829  -0.254431  -2.301259  -0.001939   0.353299  -0.005489
 142   6   5.061215  -1.917788  -1.352796  -0.002292   0.353299  -0.006489
 143   6   6.924233  -1.236765  -0.428731  -0.002539   0.372926  -0.006808
 144   6   7.121504   0.750059  -0.873681  -0.002474   0.412182  -0.006001
 145   6   4.954004   0.466495  -2.412007  -0.003382   0.490692  -0.006892
 146   6   4.751981  -1.193340  -2.052845  -0.003326   0.490692  -0.006778
 147   6   6.119527  -1.723024  -1.086731  -0.003797   0.510320  -0.007441
 148   6   7.129217  -0.363667  -0.948649  -0.003872   0.510320  -0.007588
 149   6   6.453509   0.937790  -1.717202  -0.003468   0.471065  -0.007361
 150   7   6.166574  -0.492797   5.462585  -0.005563   0.608459  -0.009142
 151   7   4.383917  -1.184405   5.444896  -0.002258   0.392554  -0.005753
 152   7   4.848083   0.850206   5.740432  -0.001998   0.353299  -0.005656
 153   7   6.674743   1.172608   4.761966  -0.002257   0.353299  -0.006387
 154   7   7.231029  -0.718007   3.810837  -0.002493   0.372926  -0.006686
 155   7   5.768077  -2.072023   4.269946  -0.002582   0.412182  -0.006265
 156   7   4.722209  -0.181854   5.844218  -0.003268   0.490692  -0.006661
 157   7   5.922288   0.978978   5.473891  -0.003503   0.490692  -0.007139
 158   7   7.149042   0.211576   4.478756  -0.003709   0.510320  -0.007268
 159   7   6.664910  -1.410547   4.334795  -0.003932   0.510320  -0.007704
 160   7   5.232297  -1.657896   5.126933  -0.003414   0.471065  -0.007248
 161   1   2.532291   2.227260   5.112204  -0.000008   0.053690  -0.000145
 162   2   2.829800   2.581956   5.024105   0.000458   0.053690   0.008530
 163   3   3.007974   2.153972   5.108772   0.000016   0.053690   0.000304
 164   1   2.495862   2.305358  -1.605494  -0.000003   0.053690  -0.000050
 165   2   2.794354   2.657948  -1.512405   0.000463   0.053690   0.008618
 166   3   2.971546   2.232070  -1.608926   0.000014   0.053690   0.000253
 167   2   2.403388   3.127874  -1.457890   0.001313   0.157550   0.008335
 168   2   1.286857   4.068490  -0.782361   0.004199   0.325236   0.012911
 169   2   0.409823   4.799853   0.813116   0.002922   0.325236   0.008984
 170   2   0.420461   4.777044   2.775001   0.002950   0.325236   0.009070
 171   2   1.314653   4.008899   4.343440   0.004291   0.325236   0.013194
 172   2   2.438325   3.052974   4.984772   0.001489   0.157550   0.009450
 173   1   1.502031   3.019831  -1.367205   0.001508   0.338646   0.004453
 174   1   0.239534   4.080276  -0.157059   0.001758   0.338646   0.005192
 175   1  -0.235616   4.468861   1.793872   0.001043   0.338646   0.003080
 176   1   0.260612   4.035086   3.729974   0.001790   0.338646   0.005286
 177   1   1.536024   2.946954   4.901380   0.001489   0.338646   0.004398
 178   3   3.015570   1.514367   5.296913  -0.000467   0.189210  -0.002470
 179   3   2.738255  -0.276966   5.112939  -0.000896   0.383175  -0.002339
 180   3   2.453558  -2.064126   3.816622   0.000899   0.383175   0.002346
 181   3   2.335442  -2.731493   1.696220   0.000932   0.383175   0.002432
 182   3   2.430642  -2.014997  -0.409249   0.000951   0.383175   0.002482
 183   3   2.701491  -0.198148  -1.666680  -0.000782   0.383175  -0.002041
 184   3   2.977020   1.597013  -1.811957  -0.000591   0.189210  -0.003122
 185   1   2.228958   0.930808   5.277053  -0.001834   0.383175  -0.004786
 186   1   1.900635  -1.169246   4.615683   0.000372   0.383175   0.000970
 187   1   1.688461  -2.462121   2.815992   0.000981   0.383175   0.002561
 188   1   1.676391  -2.436243   0.590095   0.000984   0.383175   0.002568
 189   1   1.869200  -1.101852  -1.181248   0.000358   0.383175   0.000935
 190   1   2.190597   1.013051  -1.797139  -0.001765   0.383175  -0.004607
 191   4  -0.308593   2.795550   4.881792  -0.000330   0.065672  -0.005029
 192   4  -1.194565   2.719559   4.289972  -0.000958   0.144690  -0.006624
 193   4  -2.054831   2.004387   3.640019  -0.001059   0.144690  -0.007319
 194   4  -2.364007   0.796419   3.294779  -0.001066   0.144690  -0.007371
 195   4  -2.003998  -0.442943   3.386123  -0.001286   0.144690  -0.008889
 196   4  -1.112316  -1.240304   3.879160  -0.001118   0.144690  -0.007727
 197   4  -0.029553  -1.291099   4.585566  -0.000934   0.144690  -0.006456
 198   4   0.830713  -0.575928   5.235519  -0.000848   0.144690  -0.005861
 199   4   1.139889   0.632040   5.580759  -0.000893   0.144690  -0.006175
 200   4   0.779880   1.871402   5.489415  -0.001005   0.144690  -0.006943
 201   4   0.104475   2.618110   5.132724  -0.000372   0.065672  -0.005662
 202   1  -0.479124   3.085986   4.404556  -0.000786   0.145001  -0.005417
 203   1  -1.627004   2.693493   3.603262  -0.000865   0.145001  -0.005966
 204   1  -2.317874   1.557363   3.015333  -0.000993   0.145001  -0.006851
 205   1  -2.287843   0.111558   2.865339  -0.001112   0.145001  -0.007672
 206   1  -1.548384  -1.091674   3.210573  -0.001102   0.145001  -0.007598
 207   1  -0.381944  -1.592738   3.919166  -0.000915   0.145001  -0.006307
 208   1   0.765937  -1.200245   4.720461  -0.000599   0.145001  -0.004133
 209   1   1.456806  -0.064115   5.308389  -0.000693   0.145001  -0.004779
 210   1   1.426775   1.381690   5.458383  -0.000857   0.145001  -0.005911
 211   1   0.687316   2.584921   5.113149  -0.000783   0.145001  -0.005400
 212   5  -2.258715  -0.031587   0.231640  -0.000437   0.065673  -0.006653
 213   5  -2.377650   1.029748   0.211387  -0.001213   0.144692  -0.008382
 214   5  -1.975942   2.199273  -0.169176  -0.001058   0.144692  -0.007309
 215   5  -1.064766   2.825661  -0.841025  -0.001012   0.144692  -0.006993
 216   5   0.007842   2.669652  -1.547538  -0.000888   0.144692  -0.006139
 217   5   0.832181   1.790836  -2.018850  -0.001001   0.144692  -0.006919
 218   5   1.093381   0.524892  -2.074937  -0.000912   0.144692  -0.006303
 219   5   0.691674  -0.644633  -1.694374  -0.000830   0.144692  -0.005736
 220   5  -0.219503  -1.271021  -1.022525  -0.000926   0.144692  -0.006401
 221   5  -1.292111  -1.115012  -0.316012  -0.001088   0.144692  -0.007519
 222   5  -2.031613  -0.480285   0.121305  -0.000492   0.065673  -0.007499
 223   1  -2.353789   0.353620   0.660327  -0.001082   0.145004  -0.007464
 224   1  -2.270782   1.792419   0.468636  -0.000974   0.145004  -0.006714
 225   1  -1.495171   2.853388  -0.153095  -0.000872   0.145004  -0.006011
 226   1  -0.323214   3.131272  -0.967388  -0.000721   0.145004  -0.004972
 227   1   0.797443   2.519931  -1.663210  -0.000833   0.145004  -0.005744
 228   1   1.438745   1.252874  -1.974780  -0.000812   0.145004  -0.005600
 229   1   1.355738  -0.185924  -1.783090  -0.000702   0.145004  -0.004841
 230   1   0.580127  -1.246893  -1.161359  -0.000678   0.145004  -0.004676
 231   1  -0.591830  -1.524778  -0.347066  -0.000939   0.145004  -0.006478
 232   1  -1.712487  -0.913436   0.348756  -0.001177   0.145004  -0.008118
 233   3   3.588882   2.387027  -1.611201   0.000466   0.172376   0.002704
 234   3   4.994501   2.966369  -0.923928   0.001968   0.338647   0.005812
 235   3   6.119108   3.414622   0.724467   0.001332   0.338647   0.003933
 236   3   6.130198   3.390847   2.769507   0.001350   0.338647   0.003986
 237   3   5.023476   2.904252   4.419135   0.002002   0.338647   0.005911
 238   3   3.625318   2.308912   5.107954   0.000416   0.172376   0.002414
 239   2   3.844533   3.209538  -1.250226   0.004024   0.325237   0.012372
 240   2   5.321946   3.812646  -0.108683   0.003647   0.325237   0.011213
 241   2   5.895161   4.026890   1.755488   0.002571   0.325237   0.007906
 242   2   5.342168   3.769294   3.620281   0.004016   0.325237   0.012349
 243   2   3.877144   3.139625   4.763448   0.003846   0.325237   0.011825
 244   6   4.366710  -1.982541  -1.135253  -0.000370   0.065673  -0.005637
 245   6   3.839083  -1.221185  -1.667166  -0.000801   0.144692  -0.005533
 246   6   3.740914   0.002018  -2.077188  -0.000876   0.144692  -0.006054
 247   6   4.319663   1.159136  -2.066712  -0.000979   0.144692  -0.006766
 248   6   5.354267   1.808189  -1.639739  -0.000957   0.144692  -0.006617
 249   6   6.449544   1.701260  -0.959358  -0.000937   0.144692  -0.006474
 250   6   7.187133   0.879193  -0.285452  -0.000988   0.144692  -0.006828
 251   6   7.285303  -0.344011   0.124570  -0.001052   0.144692  -0.007274
 252   6   6.706554  -1.501128   0.114093  -0.001276   0.144692  -0.008817
 253   6   5.671949  -2.150181  -0.312880  -0.001165   0.144692  -0.008048
 254   6   4.750158  -2.176893  -0.851928  -0.000422   0.065673  -0.006421
 255   3   3.806591  -1.817796  -1.117382  -0.000676   0.145003  -0.004660
 256   3   3.312851  -0.609515  -1.757733  -0.000582   0.145003  -0.004011
 257   3   3.596762   0.796704  -1.993772  -0.000906   0.145003  -0.006251
 258   3   4.549880   1.863732  -1.735340  -0.000765   0.145003  -0.005276
 259   3   5.808147   2.184002  -1.081151  -0.000769   0.145003  -0.005304
 260   3   6.890947   1.635180  -0.281081  -0.000854   0.145003  -0.005886
 261   3   7.384687   0.426899   0.359269  -0.000961   0.145003  -0.006628
 262   3   7.100775  -0.979320   0.595308  -0.001084   0.145003  -0.007475
 263   3   6.147657  -2.046348   0.336877  -0.001121   0.145003  -0.007728
 264   3   4.889390  -2.366618  -0.317313  -0.000926   0.145003  -0.006386
 265   7   6.306654   1.768744   4.555867  -0.000374   0.065673  -0.005694
 266   7   5.390700   1.729544   5.104025  -0.000918   0.144692  -0.006346
 267   7   4.360552   1.070781   5.526889  -0.000983   0.144692  -0.006792
 268   7   3.781612  -0.086245   5.516682  -0.000909   0.144692  -0.006285
 269   7   3.875015  -1.299591   5.077302  -0.000830   0.144692  -0.005738
 270   7   4.605084  -2.105799   4.376578  -0.000947   0.144692  -0.006542
 271   7   5.692957  -2.196925   3.682161  -0.001105   0.144692  -0.007636
 272   7   6.723104  -1.538162   3.259297  -0.001127   0.144692  -0.007786
 273   7   7.302044  -0.381135   3.269504  -0.001208   0.144692  -0.008347
 274   7   7.208642   0.832210   3.708884  -0.001040   0.144692  -0.007190
 275   7   6.686980   1.581015   4.263994  -0.000401   0.065673  -0.006104
 276   3   5.838661   2.118225   4.549477  -0.000724   0.145004  -0.004996
 277   3   4.587401   1.782883   5.209532  -0.000810   0.145004  -0.005587
 278   3   3.636803   0.710172   5.453316  -0.000914   0.145004  -0.006305
 279   3   3.349963  -0.690169   5.187714  -0.000599   0.145004  -0.004134
 280   3   3.836444  -1.883258   4.514176  -0.000694   0.145004  -0.004789
 281   3   4.910427  -2.413374   3.689971  -0.000953   0.145004  -0.006569
 282   3   6.161686  -2.078032   3.029917  -0.001184   0.145004  -0.008166
 283   3   7.112285  -1.005321   2.786133  -0.001079   0.145004  -0.007444
 284   3   7.399125   0.395020   3.051735  -0.000956   0.145004  -0.006590
 285   3   6.912644   1.588108   3.725272  -0.000868   0.145004  -0.005987
 =====================================================

              1076326  WORDS OF DYNAMIC MEMORY USED
 EXECUTION OF GAMESS TERMINATED NORMALLY Thu Nov 24 01:08:53 2016
 DDI: 263640 bytes (0.3 MB / 0 MWords) used by master data server.

 ----------------------------------------
 CPU timing information for all processes
 ========================================
 0: 41.452 + 0.36 = 41.488
 ----------------------------------------
 ddikick.x: exited gracefully.
