----- GAMESS execution script -----

          ******************************************************
          *         GAMESS VERSION =  5 DEC 2014 (R1)          *
          *             FROM IOWA STATE UNIVERSITY             *
          * M.W.SCHMIDT, K.K.BALDRIDGE, J.A.BOATZ, S.T.ELBERT, *
          *   M.S.GORDON, J.H.JENSEN, S.KOSEKI, N.MATSUNAGA,   *
          *          K.A.NGUYEN, S.J.SU, T.L.WINDUS,           *
          *       TOGETHER WITH M.DUPUIS, J.A.MONTGOMERY       *
          *         J.COMPUT.CHEM.  14, 1347-1363(1993)        *
          **************** 64 BIT LINUX VERSION ****************

 EXECUTION OF GAMESS BEGUN Thu Nov 24 02:13:51 2016

            ECHO OF THE FIRST FEW INPUT CARDS -
 INPUT CARD>! SELECT RESTRICTED HARTREE-FOCK AS DEFAULT                                     
 INPUT CARD>$contrl scftyp=rhf $end                                                         
 INPUT CARD>                                                                                
 INPUT CARD>! THEORY: HF OR DFT                                                             
 INPUT CARD> $contrl mplevl=0 $end                                                          
 INPUT CARD>                                                                                
 INPUT CARD> $system timlim=10000 mwords=20 $end                                            
 INPUT CARD> $SCF DIRSCF=.TRUE. $end                                                        
 INPUT CARD>                                                                                
 INPUT CARD>                                                                                
 INPUT CARD>! BASIS SETS                                                                    
 INPUT CARD>! 6-311G(d,p)                                                                   
 INPUT CARD> $BASIS GBASIS=N311 NGAUSS=6 NDFUNC=1 NPFUNC=1 $END                             
 INPUT CARD>                                                                                
 INPUT CARD>! One of the following                                                          
 INPUT CARD> $guess guess=HUCKEL $end                                                       
 INPUT CARD>                                                                                
 INPUT CARD> $statpt projct=.FALSE. $end                                                    
 INPUT CARD> $STATPT IFREEZ(1)=1,2,3 $END                                                   
 INPUT CARD>                                                                                
 INPUT CARD>! Optimize the geometry with COSMO effects                                      
 INPUT CARD> $statpt opttol=0.0005 nstep=50 $end                                            
 INPUT CARD> $contrl nzvar=1 $end                                                           
 INPUT CARD> $zmat dlc=.t. auto=.t. $end                                                    
 INPUT CARD> $contrl runtyp=OPTIMIZE maxit=200 $end                                         
 INPUT CARD>                                                                                
 INPUT CARD>! Run COSMO on perfect conductor                                                
 INPUT CARD> $COSGMS PRFCND=.TRUE. $end                                                     
 INPUT CARD>                                                                                
 INPUT CARD>! Specifying RSOLV                                                              
 INPUT CARD> $COSGMS COSRAD = 1.4 $end                                                      
 INPUT CARD>                                                                                
 INPUT CARD>! available memory                                                              
 INPUT CARD> $SYSTEM MWORDS=40 $END                                                         
 INPUT CARD>                                                                                
 INPUT CARD> $DATA                                                                          
 INPUT CARD>                                                                                
 INPUT CARD>C1                                                                              
 INPUT CARD>O      8.0      1.6767000000    2.0891000000    1.3392000000                    
 INPUT CARD>C      6.0      1.4574000000    3.4915000000    1.5344000000                    
 INPUT CARD>C      6.0      2.2012000000    3.9166000000    2.7855000000                    
 INPUT CARD>C      6.0      0.9593000000    1.5493000000    0.3161000000                    
 INPUT CARD>C      6.0      1.2561000000    0.0855000000    0.1930000000                    
 INPUT CARD>O      8.0      0.2059000000    2.1633000000   -0.4244000000                    
 INPUT CARD>H      1.0      1.8377000000    4.0448000000    0.6683000000                    
 INPUT CARD>H      1.0      0.3867000000    3.6902000000    1.6585000000                    
 INPUT CARD>H      1.0      2.0435000000    4.9789000000    2.9912000000                    
 INPUT CARD>H      1.0      1.8647000000    3.3348000000    3.6498000000                    
 INPUT CARD>H      1.0      3.2750000000    3.7332000000    2.6766000000                    
 INPUT CARD>H      1.0      0.4287000000   -0.4073000000   -0.3250000000                    
   40000000 WORDS OF MEMORY AVAILABLE

     BASIS OPTIONS
     -------------
     GBASIS=N311         IGAUSS=       6      POLAR=POPN311 
     NDFUNC=       1     NFFUNC=       0     DIFFSP=       F
     NPFUNC=       1      DIFFS=       F     BASNAM=        


     RUN TITLE
     ---------
                                                                                 

 THE POINT GROUP OF THE MOLECULE IS C1      
 THE ORDER OF THE PRINCIPAL AXIS IS     0

 ATOM      ATOMIC                      COORDINATES (BOHR)
           CHARGE         X                   Y                   Z
 O           8.0     3.1685035636        3.9478265609        2.5307210428
 C           6.0     2.7540866545        6.5979782861        2.8995955556
 C           6.0     4.1596648442        7.4013008035        5.2638317388
 C           6.0     1.8128141400        2.9277524728        0.5973423847
 C           6.0     2.3736848132        0.1615715720        0.3647171156
 O           8.0     0.3890945809        4.0880442292       -0.8019997092
 H           1.0     3.4727494476        7.6435636751        1.2629038776
 H           1.0     0.7307570395        6.9734668399        3.1341105506
 H           1.0     3.8616550559        9.4087567203        5.6525483745
 H           1.0     3.5237720493        6.3018582239        6.8971219100
 H           1.0     6.1888526098        7.0547250574        5.0580405787
 H           1.0     0.8101255309       -0.7696853948       -0.6141609460
 H           1.0     4.1203585436       -0.1050687649       -0.7020332044
 H           1.0     2.5414924809       -0.6935294375        2.2385694051

          INTERNUCLEAR DISTANCES (ANGS.)




     $CONTRL OPTIONS
     ---------------
 SCFTYP=RHF          RUNTYP=OPTIMIZE     EXETYP=RUN     
 MPLEVL=       0     CITYP =NONE         CCTYP =NONE         VBTYP =NONE    
 DFTTYP=NONE         TDDFT =NONE    
 MULT  =       1     ICHARG=       0     NZVAR =       1     COORD =UNIQUE  
 PP    =NONE         RELWFN=NONE         LOCAL =NONE         NUMGRD=       F
 ISPHER=      -1     NOSYM =       0     MAXIT =     200     UNITS =ANGS    
 PLTORB=       F     MOLPLT=       F     AIMPAC=       F     FRIEND=        
 NPRINT=       7     IREST =       0     GEOM  =INPUT   
 NORMF =       0     NORMP =       0     ITOL  =      20     ICUT  =       9
 INTTYP=BEST         GRDTYP=BEST         QMTTOL= 1.0E-06

     $SYSTEM OPTIONS
     ---------------
  REPLICATED MEMORY=    40000000 WORDS (ON EVERY NODE).
 DISTRIBUTED MEMDDI=           0 MILLION WORDS IN AGGREGATE,
 MEMDDI DISTRIBUTED OVER   1 PROCESSORS IS           0 WORDS/PROCESSOR.
 TOTAL MEMORY REQUESTED ON EACH PROCESSOR=    40000000 WORDS.
 TIMLIM=       10000.00 MINUTES, OR       6.9 DAYS.
 PARALL= F  BALTYP=  DLB     KDIAG=    0  COREFL= F
 MXSEQ2=     300 MXSEQ3=     150  mem10=         0

     $COSGMS OPTIONS
     ---------------
     EPSI  =   INFTY     NSPA  =      92     COSRAD=    1.40
     DISEX =   10.00     OUTCHG=DBLCAV       COSBUG=       F
     COSWRT=       F     DCOSMO=       F

     SYMMETRY COORDINATES WILL NOT BE USED FOR 
     THE COSMO CALCULATION, EVEN IF SPECIFIED:
         -- SWITCHING TO C1 POINT GROUP --


     DEFINITION OF CAVITY
     ---------------------------
     ATOM         COORDINATES           RADIUS 
     1    3.1685    3.9478    2.5307    1.7200
     2    2.7541    6.5980    2.8996    2.0000
     3    4.1597    7.4013    5.2638    2.0000
     4    1.8128    2.9278    0.5973    2.0000
     5    2.3737    0.1616    0.3647    2.0000
     6    0.3891    4.0880   -0.8020    1.7200
     7    3.4727    7.6436    1.2629    1.3000
     8    0.7308    6.9735    3.1341    1.3000
     9    3.8617    9.4088    5.6525    1.3000
    10    3.5238    6.3019    6.8971    1.3000
    11    6.1889    7.0547    5.0580    1.3000
    12    0.8101   -0.7697   -0.6142    1.3000
    13    4.1204   -0.1051   -0.7020    1.3000
    14    2.5415   -0.6935    2.2386    1.3000

          ----------------
          PROPERTIES INPUT
          ----------------

     MOMENTS            FIELD           POTENTIAL          DENSITY
 IEMOM =       1   IEFLD =       0   IEPOT =       0   IEDEN =       0
 WHERE =COMASS     WHERE =NUCLEI     WHERE =NUCLEI     WHERE =NUCLEI  
 OUTPUT=BOTH       OUTPUT=BOTH       OUTPUT=BOTH       OUTPUT=BOTH    
 IEMINT=       0   IEFINT=       0                     IEDINT=       0
                                                       MORB  =       0
          EXTRAPOLATION IN EFFECT
          SOSCF IN EFFECT
 ORBITAL PRINTING OPTION: NPREO=     1   162     2     1

     -------------------------------
     INTEGRAL TRANSFORMATION OPTIONS
     -------------------------------
     NWORD  =            0
     CUTOFF = 1.0E-09     MPTRAN =       0
     DIRTRF =       T     AOINTS =DUP     

          ----------------------
          INTEGRAL INPUT OPTIONS
          ----------------------
 NOPK  =       1 NORDER=       0 SCHWRZ=       T


 -----------------------------------------------
  STATISTICS ON AUTOMATIC COORDINATE GENERATION 
 -----------------------------------------------
  NUMBER OF USER SPECIFIED BONDS                             0
  NUMBER OF BONDS                                           13
  NUMBER OF ANGLES                                          22
  NUMBER OF TORSIONS                                        20
  NUMBER OF EXTRA COORD.                                     0
  NUMBER OF EXTRA COORD. FOR CONSTRAINTS                     0
  NUMBER OF CONSTRAINED COORD.                               0

  TOTAL NUMBER OF PRIMITIVES                                55
 -----------------------------------------------

   --- ENCODED Z MATRIX ---
 COORD  TYPE   I   J   K   L   M   N
    1      1    1   2
    2      1    1   4
    3      1    2   7
    4      1    2   3
    5      1    2   8
    6      1    3  11
    7      1    3  10
    8      1    3   9
    9      1    4   6
   10      1    4   5
   11      1    5  14
   12      1    5  13
   13      1    5  12
   14      2    1   2   8
   15      2    1   4   5
   16      2    1   2   7
   17      2    1   2   3
   18      2    1   4   6
   19      2    2   3   9
   20      2    2   1   4
   21      2    2   3  11
   22      2    2   3  10
   23      2    3   2   8
   24      2    3   2   7
   25      2    4   5  12
   26      2    4   5  13
   27      2    4   5  14
   28      2    5   4   6
   29      2    7   2   8
   30      2    9   3  10
   31      2    9   3  11
   32      2   10   3  11
   33      2   12   5  13
   34      2   12   5  14
   35      2   13   5  14
   36      3    1   4   5  14
   37      3    1   4   5  12
   38      3    1   2   3   9
   39      3    1   2   3  10
   40      3    1   4   5  13
   41      3    1   2   3  11
   42      3    2   1   4   6
   43      3    2   1   4   5
   44      3    3   2   1   4
   45      3    4   1   2   7
   46      3    4   1   2   8
   47      3    6   4   5  14
   48      3    6   4   5  13
   49      3    6   4   5  12
   50      3    7   2   3   9
   51      3    7   2   3  10
   52      3    7   2   3  11
   53      3    8   2   3   9
   54      3    8   2   3  10
   55      3    8   2   3  11

          INDEP./SYM. INTERNAL COORDINATES
          --------------------------------
 CRD  1=  -0.1707 ( 14)  0.3955 ( 15) -0.1633 ( 16)  0.4791 ( 17) -0.2413 ( 18)
          -0.6213 ( 20) -0.1542 ( 28)
 CRD  2=  -0.3911 (  1) -0.3892 (  2) -0.2446 (  4) -0.2737 ( 10) -0.1989 ( 15)
          -0.2227 ( 17) -0.5461 ( 20)  0.1061 ( 23)  0.1139 ( 24)  0.2332 ( 28)
 CRD  3=  -0.1258 ( 14)  0.1542 ( 16)  0.1223 ( 23) -0.1308 ( 24)  0.2009 ( 26)
           0.1258 ( 39)  0.1222 ( 41)  0.4993 ( 42)  0.5633 ( 43)  0.3046 ( 44)
           0.2251 ( 45)  0.2407 ( 46)  0.1282 ( 47)
 CRD  4=  -0.1198 (  1) -0.1481 ( 10) -0.2908 ( 15) -0.1701 ( 16)  0.2762 ( 17)
           0.1876 ( 18) -0.1067 ( 21)  0.2645 ( 22)  0.1056 ( 23) -0.2026 ( 24)
           0.1467 ( 25) -0.1928 ( 26)  0.1436 ( 36)  0.2176 ( 37) -0.1842 ( 38)
          -0.1277 ( 39)  0.2247 ( 40) -0.2345 ( 43)  0.4050 ( 44)  0.2256 ( 45)
           0.1430 ( 46)
 CRD  5=   0.1056 (  1) -0.1101 (  2) -0.1687 (  4)  0.1677 ( 10)  0.2014 ( 14)
           0.3466 ( 15) -0.3744 ( 17) -0.2631 ( 18)  0.1265 ( 19) -0.2602 ( 21)
           0.1773 ( 23)  0.2859 ( 27)  0.1494 ( 36)  0.1968 ( 37) -0.1463 ( 38)
           0.1031 ( 40) -0.1224 ( 41) -0.2233 ( 43)  0.2670 ( 44)  0.1608 ( 46)
 CRD  6=  -0.1578 (  4)  0.1073 (  9)  0.4703 ( 10) -0.1130 ( 15) -0.3362 ( 18)
           0.4935 ( 25) -0.1611 ( 27)  0.4494 ( 28) -0.2213 ( 33) -0.1547 ( 34)
 CRD  7=   0.5971 (  4) -0.1143 ( 17) -0.1127 ( 18)  0.4361 ( 19) -0.1432 ( 20)
           0.2405 ( 23)  0.2368 ( 24)  0.1201 ( 25)  0.1286 ( 28) -0.1609 ( 29)
          -0.2235 ( 30) -0.2260 ( 31)  0.1618 ( 45) -0.1629 ( 46)
 CRD  8=   0.1300 ( 12) -0.1048 ( 16) -0.3731 ( 21)  0.3702 ( 22) -0.1961 ( 25)
           0.4839 ( 26) -0.2871 ( 27) -0.1530 ( 30)  0.1436 ( 31)  0.1612 ( 34)
          -0.1229 ( 36) -0.2151 ( 37) -0.1867 ( 38) -0.1240 ( 39) -0.1623 ( 40)
          -0.1254 ( 41) -0.1719 ( 42) -0.1022 ( 46)
 CRD  9=  -0.1131 ( 12) -0.2286 ( 14)  0.2358 ( 16) -0.3687 ( 21)  0.3070 ( 22)
           0.2361 ( 23) -0.2542 ( 24)  0.1713 ( 25) -0.3475 ( 26)  0.1609 ( 27)
          -0.1423 ( 30)  0.1365 ( 31) -0.1273 ( 34) -0.1027 ( 36)  0.1042 ( 38)
           0.1573 ( 39)  0.1520 ( 41) -0.1103 ( 44) -0.2807 ( 45) -0.2635 ( 46)
 CRD 10=  -0.1349 (  2)  0.1961 (  4)  0.1090 (  7) -0.1740 (  8)  0.1681 ( 10)
          -0.1309 ( 17) -0.4900 ( 19)  0.3039 ( 21)  0.3910 ( 22) -0.1723 ( 25)
           0.3045 ( 27)  0.1091 ( 28) -0.1048 ( 29) -0.3087 ( 32) -0.1541 ( 35)
 CRD 11=   0.1141 (  1) -0.3550 (  9) -0.2320 ( 10) -0.1349 ( 11)  0.1577 ( 13)
           0.1171 ( 14)  0.2537 ( 15) -0.2104 ( 17) -0.2392 ( 19)  0.1496 ( 21)
           0.1596 ( 22)  0.3239 ( 25) -0.1293 ( 26) -0.4477 ( 27) -0.1772 ( 28)
          -0.1460 ( 32)  0.2764 ( 35)
 CRD 12=  -0.1072 (  3)  0.1212 (  5)  0.1439 (  6) -0.1308 (  7) -0.2455 ( 14)
           0.2537 ( 16)  0.2425 ( 21) -0.2158 ( 22)  0.4161 ( 23) -0.3942 ( 24)
           0.2542 ( 26) -0.1532 ( 27)  0.1404 ( 30) -0.1285 ( 31)  0.1085 ( 34)
          -0.1810 ( 42) -0.1915 ( 43)  0.1386 ( 44) -0.2032 ( 45) -0.2106 ( 46)
 CRD 13=   0.3663 (  3) -0.3620 (  5) -0.1178 ( 21)  0.1141 ( 22) -0.1074 ( 23)
           0.1375 ( 24)  0.1965 ( 26) -0.1056 ( 27)  0.2942 ( 36)  0.3053 ( 37)
           0.2103 ( 38)  0.1891 ( 39)  0.2975 ( 40)  0.1880 ( 41) -0.2002 ( 43)
          -0.1538 ( 44)  0.1714 ( 47)  0.1747 ( 48)  0.1825 ( 49)
 CRD 14=  -0.2853 (  1)  0.2079 (  2) -0.1211 (  3)  0.1731 (  6)  0.1672 (  7)
          -0.3545 ( 11) -0.3128 ( 12) -0.2602 ( 13)  0.2135 ( 18) -0.1172 ( 19)
           0.1306 ( 23)  0.1336 ( 24)  0.2699 ( 25)  0.1690 ( 26)  0.1204 ( 27)
          -0.2779 ( 28)  0.1060 ( 30)  0.1021 ( 31) -0.2386 ( 33) -0.2040 ( 34)
          -0.1213 ( 35)
 CRD 15=  -0.1400 (  4) -0.4483 (  6) -0.4486 (  7) -0.4348 (  8) -0.2237 ( 11)
          -0.2165 ( 12) -0.2124 ( 13)  0.1836 ( 19)  0.1606 ( 21)  0.1598 ( 22)
          -0.1812 ( 30) -0.1819 ( 31) -0.1638 ( 32)
 CRD 16=  -0.3024 (  1)  0.2904 (  2) -0.2484 (  3) -0.1400 (  4) -0.2171 (  5)
          -0.1398 (  6) -0.1434 (  7) -0.2267 (  8)  0.2325 (  9)  0.2453 ( 10)
           0.2969 ( 11)  0.3166 ( 12)  0.3349 ( 13) -0.1132 ( 17)  0.1405 ( 18)
           0.1333 ( 23)  0.1408 ( 24) -0.2132 ( 28) -0.1086 ( 29)  0.1087 ( 35)
 CRD 17=  -0.4982 ( 11)  0.5440 ( 13)  0.3317 ( 33) -0.3536 ( 35) -0.1401 ( 36)
          -0.1148 ( 37)  0.2550 ( 40) -0.1397 ( 47)  0.2554 ( 48) -0.1145 ( 49)
 CRD 18=   0.3223 ( 11) -0.6047 ( 12)  0.2603 ( 13) -0.2246 ( 33)  0.4052 ( 34)
          -0.1783 ( 35) -0.2265 ( 36)  0.2271 ( 37) -0.2370 ( 47)  0.2165 ( 49)
 CRD 19=   0.2028 (  2)  0.5332 (  3)  0.5682 (  5) -0.1789 (  8)  0.2399 (  9)
           0.1399 ( 13)  0.1557 ( 18) -0.1535 ( 20) -0.1240 ( 28)  0.2098 ( 29)
          -0.1120 ( 45)  0.1247 ( 46)  0.1002 ( 50)  0.1289 ( 52) -0.1225 ( 54)
 CRD 20=   0.5567 (  6) -0.5602 (  7) -0.2885 ( 30)  0.2901 ( 31)  0.2191 ( 38)
           0.2072 ( 50) -0.1002 ( 51) -0.1020 ( 52)  0.2089 ( 53) -0.1003 ( 55)
 CRD 21=   0.1057 (  3)  0.1154 (  5) -0.3205 (  6) -0.3157 (  7)  0.6171 (  8)
           0.1669 ( 30)  0.1639 ( 31) -0.3302 ( 32)  0.1760 ( 39) -0.1800 ( 41)
           0.2103 ( 51) -0.1458 ( 52)  0.1491 ( 54) -0.2070 ( 55)
 CRD 22=  -0.5259 (  1) -0.2634 (  2)  0.1021 (  3) -0.4730 (  9)  0.1317 ( 10)
           0.1091 ( 13) -0.1825 ( 14)  0.1660 ( 15) -0.1320 ( 16)  0.1684 ( 17)
          -0.1065 ( 18)  0.3254 ( 20)  0.2211 ( 29) -0.1365 ( 53) -0.1363 ( 54)
          -0.1433 ( 55)
 CRD 23=   0.3757 (  3) -0.3700 (  5) -0.1236 ( 14)  0.1523 ( 16) -0.1516 ( 38)
          -0.1544 ( 39) -0.1544 ( 41)  0.1091 ( 45)  0.1002 ( 46) -0.1247 ( 47)
          -0.1158 ( 48) -0.1060 ( 49) -0.2935 ( 50) -0.2964 ( 51) -0.2964 ( 52)
          -0.2750 ( 53) -0.2779 ( 54) -0.2779 ( 55)
 CRD 24=   0.2215 (  3) -0.2042 (  5)  0.1315 ( 12) -0.2188 ( 36) -0.1222 ( 37)
           0.1849 ( 38)  0.2071 ( 39) -0.1830 ( 40)  0.2045 ( 41) -0.1842 ( 43)
           0.1692 ( 44)  0.1549 ( 45)  0.1386 ( 46) -0.3778 ( 47) -0.3420 ( 48)
          -0.2811 ( 49)  0.1626 ( 50)  0.1848 ( 51)  0.1822 ( 52)  0.1655 ( 53)
           0.1877 ( 54)  0.1851 ( 55)
 CRD 25=  -0.1624 (  1)  0.3376 (  2) -0.1125 (  8)  0.2047 (  9) -0.1819 ( 11)
          -0.2098 ( 12) -0.2424 ( 13) -0.1088 ( 14)  0.1792 ( 15) -0.1141 ( 16)
          -0.4098 ( 18)  0.2379 ( 20) -0.2237 ( 25) -0.1974 ( 26) -0.1757 ( 27)
           0.2310 ( 28)  0.2232 ( 33)  0.1934 ( 34)  0.1853 ( 35)
 CRD 26=   0.2436 (  1)  0.1321 (  3)  0.1463 (  5) -0.2182 (  6) -0.2117 (  7)
          -0.2483 (  8) -0.3220 (  9)  0.1428 ( 11) -0.1509 ( 14) -0.1343 ( 15)
          -0.1471 ( 16) -0.2229 ( 19) -0.2113 ( 21) -0.2086 ( 22)  0.1922 ( 23)
           0.1961 ( 24)  0.1001 ( 27) -0.1841 ( 29)  0.2336 ( 30)  0.2385 ( 31)
           0.1993 ( 32) -0.1217 ( 35)  0.2060 ( 45) -0.2089 ( 46)
 CRD 27=   0.6043 (  2) -0.1843 (  4)  0.1106 (  6)  0.1181 (  7) -0.4739 (  9)
           0.2076 ( 11) -0.1830 ( 13) -0.1409 ( 15)  0.1084 ( 19) -0.1559 ( 20)
           0.1040 ( 21)  0.1073 ( 22)  0.1857 ( 28) -0.1077 ( 30) -0.1021 ( 31)
          -0.1244 ( 32) -0.1896 ( 35)
 CRD 28=  -0.2882 (  3)  0.2790 (  5) -0.1767 (  6)  0.1502 (  7) -0.2190 ( 11)
           0.3207 ( 12) -0.1332 ( 13) -0.1208 ( 14)  0.1239 ( 16) -0.1193 ( 30)
           0.1354 ( 31) -0.1391 ( 33)  0.2447 ( 34)  0.2833 ( 37)  0.1727 ( 38)
           0.2351 ( 42) -0.1528 ( 44) -0.3194 ( 47) -0.2014 ( 48) -0.1684 ( 51)
          -0.1614 ( 52) -0.1690 ( 54) -0.1620 ( 55)
 CRD 29=   0.2785 (  9) -0.6746 ( 10)  0.1261 ( 11)  0.1701 ( 12)  0.1922 ( 13)
           0.1455 ( 15) -0.2730 ( 18)  0.1435 ( 20)  0.1809 ( 25)  0.1844 ( 26)
           0.1899 ( 27)  0.1272 ( 28) -0.2156 ( 33) -0.1755 ( 34) -0.1693 ( 35)
 CRD 30=   0.3448 (  1) -0.1607 (  2) -0.5384 (  4)  0.1854 (  6)  0.2222 (  7)
          -0.2320 ( 14) -0.2087 ( 16)  0.1088 ( 17)  0.1400 ( 19)  0.1174 ( 21)
           0.1145 ( 22)  0.1722 ( 23)  0.1777 ( 24) -0.2626 ( 32)  0.1537 ( 45)
          -0.1441 ( 46)  0.1066 ( 50)  0.1775 ( 51) -0.2019 ( 55)
 CRD 31=   0.1959 (  1) -0.1888 (  3)  0.3160 (  4) -0.2245 (  5)  0.1192 (  6)
          -0.3618 (  8) -0.1515 ( 20) -0.1028 ( 23) -0.1052 ( 24)  0.3120 ( 29)
           0.1911 ( 30)  0.1683 ( 31) -0.1747 ( 32)  0.1604 ( 39) -0.1704 ( 41)
          -0.1954 ( 45)  0.1744 ( 46)  0.1230 ( 50)  0.3045 ( 51) -0.1314 ( 53)
          -0.2806 ( 55)
 CRD 32=  -0.1480 (  3)  0.1206 (  5) -0.2411 (  6)  0.2397 (  7)  0.2226 ( 11)
          -0.3066 ( 12) -0.1074 ( 14)  0.1237 ( 16)  0.1419 ( 26) -0.1074 ( 27)
          -0.1759 ( 30)  0.1943 ( 31)  0.1564 ( 33) -0.2194 ( 34)  0.1342 ( 36)
          -0.2204 ( 37)  0.2757 ( 38) -0.1447 ( 42) -0.2199 ( 43)  0.1017 ( 44)
           0.1390 ( 45)  0.1741 ( 46) -0.2941 ( 49)  0.1454 ( 50) -0.1271 ( 51)
          -0.1368 ( 52)  0.1380 ( 53) -0.1345 ( 54) -0.1443 ( 55)
 CRD 33=   0.2003 (  2) -0.1830 (  9) -0.3213 ( 11)  0.3992 ( 13) -0.2259 ( 15)
          -0.2387 ( 25)  0.1857 ( 27)  0.2312 ( 28) -0.2328 ( 33)  0.2959 ( 35)
           0.2025 ( 36)  0.1005 ( 37) -0.3097 ( 40)  0.1986 ( 47) -0.3137 ( 48)
 CRD 34=  -0.1517 (  3)  0.1430 (  5)  0.2233 (  6) -0.2276 (  7)  0.1046 ( 11)
          -0.1678 ( 12) -0.1514 ( 21)  0.1562 ( 22) -0.1376 ( 23)  0.1491 ( 24)
           0.1414 ( 26)  0.1706 ( 30) -0.1748 ( 31) -0.1200 ( 34)  0.2322 ( 36)
          -0.1230 ( 38)  0.1942 ( 39)  0.1402 ( 40)  0.2014 ( 41)  0.1694 ( 42)
          -0.1650 ( 43) -0.2250 ( 44) -0.1892 ( 48) -0.3307 ( 49) -0.2817 ( 50)
          -0.2972 ( 53)
 CRD 35=   0.2858 (  1) -0.1401 (  3) -0.1606 (  5) -0.1412 (  6) -0.1311 (  7)
           0.2583 (  8) -0.1009 ( 14) -0.1124 ( 16) -0.2162 ( 17) -0.2204 ( 19)
           0.1124 ( 21)  0.1056 ( 22)  0.1020 ( 23)  0.2359 ( 29)  0.2012 ( 32)
          -0.2019 ( 39)  0.1846 ( 41)  0.2152 ( 50)  0.4013 ( 52) -0.1937 ( 53)
          -0.3941 ( 54)
 CRD 36=  -0.1825 (  3)  0.1707 (  5) -0.1476 ( 14)  0.1532 ( 16) -0.1211 ( 23)
           0.1178 ( 24) -0.1072 ( 26) -0.2461 ( 36) -0.1108 ( 37)  0.2171 ( 39)
          -0.1917 ( 40)  0.2180 ( 41) -0.4452 ( 42)  0.2931 ( 45)  0.3082 ( 46)
           0.1372 ( 47)  0.1916 ( 48)  0.2725 ( 49) -0.1707 ( 50) -0.1788 ( 53)

 THE DETERMINANT OF THE G MATRIX IS 10**(   -17)


                     --------------------
                     INTERNAL COORDINATES
                     --------------------

                 - - ATOMS - -         COORDINATE      COORDINATE
 NO.   TYPE    I  J  K  L  M  N        (BOHR,RAD)       (ANG,DEG)
 ----------------------------------------------------------------
   1 STRETCH   1  2                     2.7076030       1.4328019
   2 STRETCH   1  4                     2.5722360       1.3611688
   3 STRETCH   2  7                     2.0708657       1.0958550
   4 STRETCH   2  3                     2.8654127       1.5163112
   5 STRETCH   2  8                     2.0711957       1.0960296
   6 STRETCH   3 11                     2.0688325       1.0947791
   7 STRETCH   3 10                     2.0690023       1.0948689
   8 STRETCH   3  9                     2.0663469       1.0934638
   9 STRETCH   4  6                     2.3089852       1.2218624
  10 STRETCH   4  5                     2.8320394       1.4986508
  11 STRETCH   5 14                     2.0665623       1.0935777
  12 STRETCH   5 13                     2.0639580       1.0921996
  13 STRETCH   5 12                     2.0664364       1.0935111
  14 BEND      1  2  8                  1.9202549     110.0225034
  15 BEND      1  4  5                  1.9227256     110.1640596
  16 BEND      1  2  7                  1.9107037     109.4752601
  17 BEND      1  2  3                  1.8878111     108.1636098
  18 BEND      1  4  6                  2.1910198     125.5361886
  19 BEND      2  3  9                  1.9356702     110.9057312
  20 BEND      2  1  4                  1.9931278     114.1978097
  21 BEND      2  3 11                  1.9306032     110.6154175
  22 BEND      2  3 10                  1.9300766     110.5852420
  23 BEND      3  2  8                  1.9123466     109.5693876
  24 BEND      3  2  7                  1.9180584     109.8966485
  25 BEND      4  5 12                  1.9062939     109.2225958
  26 BEND      4  5 13                  1.9137166     109.6478871
  27 BEND      4  5 14                  1.9238426     110.2280607
  28 BEND      5  4  6                  2.1690006     124.2745806
  29 BEND      7  2  8                  1.9144917     109.6922939
  30 BEND      9  3 10                  1.9001337     108.8696412
  31 BEND      9  3 11                  1.8996067     108.8394479
  32 BEND     10  3 11                  1.8660244     106.9153224
  33 BEND     12  5 13                  1.9148191     109.7110550
  34 BEND     12  5 14                  1.8802070     107.7279251
  35 BEND     13  5 14                  1.9246080     110.2719168
  36 TORSION   1  4  5 14               0.6898061      39.5229775
  37 TORSION   1  4  5 12               2.7523371     157.6973020
  38 TORSION   1  2  3  9              -3.1170939    -178.5963277
  39 TORSION   1  2  3 10              -1.0072907     -57.7135086
  40 TORSION   1  4  5 13              -1.4321040     -82.0535170
  41 TORSION   1  2  3 11               1.0565999      60.5387135
  42 TORSION   2  1  4  6               0.0309959       1.7759334
  43 TORSION   2  1  4  5              -3.1414259    -179.9904459
  44 TORSION   3  2  1  4               3.0387671     174.1085308
  45 TORSION   4  1  2  7              -1.1547185     -66.1604984
  46 TORSION   4  1  2  8               0.9504257      54.4553790
  47 TORSION   6  4  5 14              -2.4821455    -142.2164608
  48 TORSION   6  4  5 13               1.6791297      96.2070447
  49 TORSION   6  4  5 12              -0.4196144     -24.0421363
  50 TORSION   7  2  3  9               1.0810240      61.9381107
  51 TORSION   7  2  3 10              -3.0923581    -177.1790703
  52 TORSION   7  2  3 11              -1.0284675     -58.9268482
  53 TORSION   8  2  3  9              -1.0237812     -58.6583430
  54 TORSION   8  2  3 10               1.0860220      62.2244761
  55 TORSION   8  2  3 11              -3.1332727    -179.5233018

     ------------------------------------------
     THE POINT GROUP IS C1 , NAXIS= 1, ORDER= 1
     ------------------------------------------

     DIMENSIONS OF THE SYMMETRY SUBSPACES ARE
 A   =  162

 ..... DONE SETTING UP THE RUN .....
 STEP CPU TIME =     0.01 TOTAL CPU TIME =        0.0 (    0.0 MIN)
 TOTAL WALL CLOCK TIME=        0.0 SECONDS, CPU UTILIZATION IS 100.00%


          -----------------------------
          STATIONARY POINT LOCATION RUN
          -----------------------------

 OBTAINING INITIAL HESSIAN, HESS=GUESS   
 DIAGONAL GUESS HESSIAN IN INTERNAL COORDS IS
     1  0.3581     2  0.4117     3  0.3424     4  0.3771     5  0.3423
     6  0.3432     7  0.3431     8  0.3440     9  0.5397    10  0.3902
    11  0.3440    12  0.3449    13  0.3440    14  0.2189    15  0.2499
    16  0.2189    17  0.2437    18  0.2568    19  0.2247    20  0.2419
    21  0.2246    22  0.2246    23  0.2245    24  0.2245    25  0.2257
    26  0.2258    27  0.2257    28  0.2600    29  0.2028    30  0.2030
    31  0.2030    32  0.2029    33  0.2031    34  0.2030    35  0.2031
    36  0.2500    37  0.2500    38  0.2500    39  0.2500    40  0.2500
    41  0.2500    42  0.2500    43  0.2500    44  0.2500    45  0.2500
    46  0.2500    47  0.2500    48  0.2500    49  0.2500    50  0.2500
    51  0.2500    52  0.2500    53  0.2500    54  0.2500    55  0.2500
 TRANSFORMING HESSIAN TO SYMMETRY COORDINATES

          PARAMETERS CONTROLLING GEOMETRY SEARCH ARE
          METHOD =QA                  UPHESS =BFGS    
          NNEG   =         0          NFRZ   =         3
          NSTEP  =        50          IFOLOW =         1
          HESS   =GUESS               RESTAR =         F
          IHREP  =         0          HSSEND =         F
          NPRT   =         0          NPUN   =         0
          OPTTOL = 5.000E-04          RMIN   = 1.500E-03
          RMAX   = 1.000E-01          RLIM   = 7.000E-02
          DXMAX  = 3.000E-01          PURIFY =         F
          MOVIE  =         F          TRUPD  =         T
          TRMAX  = 5.000E-01          TRMIN  = 5.000E-02
          ITBMAT =         5          STPT   =         F
          STSTEP = 1.000E-02          PROJCT=          F
          FROZEN COORD(S)=   1   2   3


      ***** EQUILIBRIUM GEOMETRY LOCATED *****
            (SUBJECT TO   3 CONSTRAINT(S))
 COORDINATES OF ALL ATOMS ARE (ANGS)
   ATOM   CHARGE       X              Y              Z
 ------------------------------------------------------------
 O           8.0   1.6010301384   2.0946450544   1.3416351014
 C           6.0   1.4371687234   3.5041009179   1.5414079005
 C           6.0   2.2347153104   3.9039020597   2.7612727660
 C           6.0   0.9648786717   1.5451076900   0.3295742760
 C           6.0   1.2688146281   0.0840355215   0.1767549796
 O           8.0   0.2476390002   2.1600511693  -0.3978211123
 H           1.0   1.7847060886   4.0175659237   0.6551292688
 H           1.0   0.3845056622   3.7125536500   1.6728981836
 H           1.0   2.1059082372   4.9681130329   2.9321079354
 H           1.0   1.8900753531   3.3714261644   3.6414300019
 H           1.0   3.2915779625   3.7043073630   2.6195207841
 H           1.0   0.4989208600  -0.3823012770  -0.4212480632
 H           1.0   2.2230462060  -0.0102335918  -0.3322413246
 H           1.0   1.3453809742  -0.3973643506   1.1424487103


                     --------------------
                     INTERNAL COORDINATES
                     --------------------

                 - - ATOMS - -         COORDINATE      COORDINATE
 NO.   TYPE    I  J  K  L  M  N        (BOHR,RAD)       (ANG,DEG)
 ----------------------------------------------------------------
   1 STRETCH   1  2                     2.7078696       1.4329430
   2 STRETCH   1  4                     2.4862268       1.3156546
   3 STRETCH   2  7                     2.0439799       1.0816276
   4 STRETCH   2  3                     2.8559204       1.5112881
   5 STRETCH   2  8                     2.0430392       1.0811299
   6 STRETCH   3 11                     2.0500612       1.0848458
   7 STRETCH   3 10                     2.0501428       1.0848890
   8 STRETCH   3  9                     2.0513068       1.0855049
   9 STRETCH   4  6                     2.2532098       1.1923474
  10 STRETCH   4  5                     2.8348804       1.5001542
  11 STRETCH   5 14                     2.0442020       1.0817452
  12 STRETCH   5 13                     2.0514817       1.0855974
  13 STRETCH   5 12                     2.0421408       1.0806545
  14 BEND      1  2  8                  1.8943605     108.5388639
  15 BEND      1  4  5                  1.9683979     112.7808937
  16 BEND      1  2  7                  1.8922607     108.4185497
  17 BEND      1  2  3                  1.8885053     108.2033835
  18 BEND      1  4  6                  2.1468480     123.0053271
  19 BEND      2  3  9                  1.9005018     108.8907328
  20 BEND      2  1  4                  2.0519432     117.5676867
  21 BEND      2  3 11                  1.9390351     111.0985300
  22 BEND      2  3 10                  1.9362372     110.9382187
  23 BEND      3  2  8                  1.9440576     111.3862952
  24 BEND      3  2  7                  1.9457643     111.4840818
  25 BEND      4  5 12                  1.9095584     109.4096396
  26 BEND      4  5 13                  1.8864344     108.0847290
  27 BEND      4  5 14                  1.9356662     110.9055050
  28 BEND      5  4  6                  2.1676383     124.1965281
  29 BEND      7  2  8                  1.8975568     108.7219957
  30 BEND      9  3 10                  1.8921052     108.4096401
  31 BEND      9  3 11                  1.8928754     108.4537693
  32 BEND     10  3 11                  1.9020032     108.9767551
  33 BEND     12  5 13                  1.9063533     109.2259976
  34 BEND     12  5 14                  1.9309199     110.6335635
  35 BEND     13  5 14                  1.8941024     108.5240739
  36 TORSION   1  4  5 14               0.6734990      38.5886491
  37 TORSION   1  4  5 12               2.8082577     160.9013142
  38 TORSION   1  2  3  9              -3.1263886    -179.1288737
  39 TORSION   1  2  3 10              -1.0454284     -59.8986357
  40 TORSION   1  4  5 13              -1.4008048     -80.2602056
  41 TORSION   1  2  3 11               1.0731863      61.4890440
  42 TORSION   2  1  4  6              -0.0278508      -1.5957328
  43 TORSION   2  1  4  5               3.0883621     176.9501134
  44 TORSION   3  2  1  4               3.1264243     179.1309159
  45 TORSION   4  1  2  7              -1.0439475     -59.8137871
  46 TORSION   4  1  2  8               1.0144405      58.1231572
  47 TORSION   6  4  5 14              -2.4938266    -142.8857367
  48 TORSION   6  4  5 13               1.7150549      98.2654086
  49 TORSION   6  4  5 12              -0.3590678     -20.5730715
  50 TORSION   7  2  3  9               1.0774998      61.7361888
  51 TORSION   7  2  3 10              -3.1247253    -179.0335732
  52 TORSION   7  2  3 11              -1.0061106     -57.6458935
  53 TORSION   8  2  3  9              -1.0455290     -59.9043994
  54 TORSION   8  2  3 10               1.0354312      59.3258386
  55 TORSION   8  2  3 11              -3.1291394    -179.2864817

          INTERNUCLEAR DISTANCES (ANGS.)


 =====================================================
   GAMESS/COSab RESULTS
 =====================================================

   Dielectric Constant                  = INFTY
   Basic Grid Size                      =                 1082
   Number of Segments                   =                   92
   Number of Segments located on spheres=                  243
   Number of Segments of the cavity     =                  541
   Solvent Radius (rsolv)               = 1.40
   Outlying Charge Error Method         = double cavity

 =====================================================

  Total solvated Energy (a.u.)          =  -305.9692013028
  Total Energy corrected (a.u.)         =  -305.9689185023

  Outlying charge effect (a.u.)         =     0.0002828006
  Outlying charge effect (kcal/mol)     =     0.1774601803

  Dielectric Energy (a.u.)              =    -0.0131984857
  Dielectric energy corr. (a.u.)        =    -0.0129156851

  Sum of polarization charges           =     0.0198896941
  Sum of polarization charges(cor.)     =    -0.0198896941

  Total surface area of cavity (A**2)   =  132.78
  Total volume of cavity (A**3)         =  116.51

 =====================================================
 NPS=                   541
NR.  ATOM  (X, Y, Z)(a.u.)                  CHARGE(e)  AREA(A**2) SIGMA(e/A**2)
   1   1   6.170822   3.142747   2.616246   0.002726   0.171795   0.015866
   2   1   3.992092   2.244430   5.122400   0.003107   0.171795   0.018085
   3   1   4.650990   2.156569   4.697774   0.002881   0.206154   0.013973
   4   1   5.770446   2.705658   3.743981   0.003524   0.206154   0.017095
   5   1   5.171168   2.327733   4.352471   0.002019   0.137436   0.014689
   6   1   3.137285   2.149803   5.233736   0.003382   0.171795   0.019686
   7   1   1.820382   2.654339   5.257809   0.001526   0.137436   0.011103
   8   1   6.135258   4.102966   1.600859   0.001290   0.103077   0.012513
   9   1   5.935310   2.579104   2.977519   0.001542   0.171795   0.008973
  10   1   1.400156   2.390690   4.873143   0.002034   0.171795   0.011843
  11   1   1.089555   3.107634   5.003727   0.002024   0.206154   0.009819
  12   1   5.968272   3.809421   1.163217   0.001007   0.103077   0.009773
  13   1   6.157944   3.371791   1.896148   0.003161   0.206154   0.015333
  14   1   5.398915   2.114474   3.773019   0.002193   0.137436   0.015958
  15   1   2.322559   2.259876   5.215957   0.002406   0.171795   0.014002
  16   1   5.853470   4.380622   0.989690   0.000696   0.103077   0.006751
  17   2   0.607716   9.598094   1.922094  -0.000365   0.325193  -0.001123
  18   2   0.498923   4.870770   5.423496  -0.000324   0.185824  -0.001745
  19   2  -0.007011   4.932767   4.917200  -0.000412   0.139368  -0.002955
  20   2   3.612057  10.164727   1.949186  -0.000392   0.092912  -0.004215
  21   2   1.251309   9.498030   0.946479  -0.000408   0.371649  -0.001099
  22   2   6.090812   7.156757   1.297986  -0.000294   0.139368  -0.002107
  23   2   6.054555   6.098513   1.220633  -0.000258   0.139368  -0.001852
  24   2   0.428786   8.843509   0.883674   0.000270   0.371649   0.000728
  25   2   1.647867  10.134741   2.016862  -0.001060   0.464561  -0.002283
  26   2   2.623256  10.353788   2.323086  -0.000429   0.185824  -0.002308
  27   2   0.699877   9.817924   2.981760  -0.000831   0.232280  -0.003577
  28   2   0.791415   9.705819   3.946997  -0.000341   0.092912  -0.003666
  29   2   0.097781   5.710590   5.481816  -0.000227   0.139368  -0.001625
  30   2   2.654432  10.208960   1.724291  -0.000445   0.139368  -0.003192
  31   2   5.781450   6.283863   0.728296  -0.000453   0.185824  -0.002438
  32   2   1.350124  10.140930   3.098894  -0.000776   0.185824  -0.004175
  33   3   6.355945   5.736251   7.871682   0.001575   0.418105   0.003766
  34   3   6.181600   9.654619   2.924165   0.000273   0.278737   0.000981
  35   3   0.949683   8.545434   6.703029   0.000184   0.232280   0.000793
  36   3   3.834479   8.631422   8.762131   0.001256   0.418105   0.003005
  37   3   7.194521   9.168976   6.716106   0.000892   0.371649   0.002400
  38   3   5.889187   4.130626   6.201508   0.000567   0.185824   0.003049
  39   3   6.141860   4.501059   6.744312   0.000892   0.232280   0.003840
  40   3   6.585577  10.047262   6.472541   0.000891   0.371649   0.002398
  41   3   3.673656   9.472698   8.315114   0.000657   0.278737   0.002357
  42   3   1.288570   9.430050   6.426203   0.000372   0.371649   0.001001
  43   3   5.848932  10.396592   3.629207   0.000557   0.278737   0.001999
  44   3   5.763714   4.751675   7.457818   0.000646   0.232280   0.002781
  45   3   6.665287   5.112657   7.004354   0.000891   0.278737   0.003197
  46   3   1.407718   8.582200   7.433159   0.000916   0.325193   0.002816
  47   3   2.667358   8.815733   8.347775   0.001057   0.278737   0.003793
  48   3   5.053964   9.126774   8.463523   0.000799   0.464561   0.001720
  49   3   6.423876   9.195641   7.694744   0.000670   0.464561   0.001443
  50   3   7.173289   9.729509   5.435098   0.001518   0.418105   0.003630
  51   3   6.872314   9.758213   3.954489   0.001269   0.418105   0.003036
  52   3   6.799884   8.936631   2.934992   0.000379   0.325193   0.001167
  53   3   0.896190   7.687340   6.984549   0.000402   0.278737   0.001443
  54   3   5.022886   7.885223   8.876802   0.000654   0.418105   0.001564
  55   3   5.978033   6.851962   8.523824   0.000830   0.418105   0.001984
  56   3   6.906838   6.879420   7.832121   0.000974   0.464561   0.002098
  57   3   7.201246   8.154624   7.411231   0.000589   0.371649   0.001584
  58   3   5.087502   3.999896   6.677521   0.000411   0.185824   0.002214
  59   3   6.471762   4.369392   5.642088   0.000193   0.232280   0.000829
  60   3   5.630770   9.774312   7.778667   0.000279   0.278737   0.001000
  61   3   2.094565   9.195795   7.757170   0.000849   0.278737   0.003046
  62   3   5.133773  10.394313   3.131825   0.000033   0.232280   0.000143
  63   3   6.502221  10.348952   4.709485   0.000921   0.325193   0.002831
  64   3   6.764644   8.038009   2.500016  -0.000107   0.092912  -0.001154
  65   3   0.830260   6.863647   6.802283  -0.000061   0.139368  -0.000438
  66   3   1.926012   8.213653   8.100525   0.000418   0.185824   0.002249
  67   3   6.174369   8.143023   8.362899   0.000494   0.464561   0.001064
  68   4   0.118605   1.837355   3.817554  -0.001713   0.232280  -0.007374
  69   4  -1.707492   1.587067   0.825728  -0.000134   0.185824  -0.000719
  70   4   3.903999   4.542233  -2.083281  -0.000336   0.185824  -0.001806
  71   4   5.478901   3.375751  -0.221766  -0.000719   0.092912  -0.007742
  72   4  -1.716750   2.294330   1.789314  -0.000609   0.232280  -0.002624
  73   4  -1.493481   3.261383   2.402212  -0.001158   0.278737  -0.004154
  74   4   3.412271   3.074783  -2.802906  -0.000235   0.139368  -0.001683
  75   4  -1.483970   1.556771   1.842645  -0.001605   0.232280  -0.006909
  76   4  -0.868088   1.631262   2.942303  -0.002159   0.371649  -0.005810
  77   4  -0.582560   2.645478   3.524642  -0.002955   0.371649  -0.007950
  78   4   5.077546   4.150105  -0.853961  -0.002051   0.232280  -0.008831
  79   4   4.460949   4.311026  -1.699229  -0.001720   0.278737  -0.006170
  80   4   4.112638   3.390203  -2.347395  -0.001833   0.325193  -0.005636
  81   4   4.992381   3.552495  -1.337087  -0.002499   0.278737  -0.008965
  82   4  -1.297871   2.517083   2.715673  -0.001811   0.278737  -0.006497
  83   5   5.215426  -2.217464   1.169509   0.000609   0.418105   0.001457
  84   5  -0.848014  -0.572309   2.127059  -0.000108   0.325193  -0.000332
  85   5   2.327359   0.629027  -3.415407  -0.000084   0.278737  -0.000301
  86   5   3.680532  -2.455753  -2.074852   0.000085   0.325193   0.000261
  87   5   1.937134  -3.528212   1.025370   0.000014   0.325193   0.000044
  88   5   5.691245   0.182872   2.187749  -0.000072   0.185824  -0.000386
  89   5   5.677260  -0.699648   2.004906   0.000584   0.325193   0.001795
  90   5   0.962003  -3.337191   0.364836   0.000101   0.325193   0.000310
  91   5   2.590934  -2.341054  -2.493979   0.000370   0.371649   0.000997
  92   5   1.729479   0.052674  -3.384374   0.000005   0.232280   0.000023
  93   5  -1.051764  -1.110215   1.214330   0.000019   0.325193   0.000057
  94   5   5.799565  -1.156326   1.325006   0.000063   0.232280   0.000270
  95   5   5.225811  -1.616023   2.104913   0.000263   0.278737   0.000945
  96   5  -1.209183  -0.098455   1.433288   0.000447   0.139368   0.003207
  97   5   3.048385   0.021069  -3.386451   0.000153   0.232280   0.000660
  98   5   3.201510  -1.594267  -2.916344   0.000608   0.371649   0.001635
  99   5   2.797134  -3.153729  -1.441304   0.000023   0.464561   0.000050
 100   5   2.273499  -3.601227  -0.027807  -0.000130   0.464561  -0.000280
 101   5   0.427427  -2.916679   1.305403   0.000606   0.325193   0.001864
 102   5  -0.468618  -1.593032   2.065913   0.000438   0.278737   0.001573
 103   5  -0.152594  -0.732563   2.977058  -0.000234   0.325193  -0.000721
 104   5  -0.435563  -0.010480   2.829647  -0.000499   0.185824  -0.002686
 105   5   3.318593   1.149789  -3.195031  -0.000604   0.325193  -0.001857
 106   5   4.047118  -2.931371  -1.085299  -0.000178   0.418105  -0.000426
 107   5   4.679686  -2.845301   0.105686  -0.000165   0.418105  -0.000393
 108   5   4.243142  -3.033853   1.161983  -0.000027   0.464561  -0.000059
 109   5   3.017770  -3.460433   1.228914  -0.000205   0.418105  -0.000491
 110   5   1.247361  -3.198177   1.634622   0.000208   0.278737   0.000746
 111   5   5.992668   0.455045   1.462200  -0.000120   0.185824  -0.000648
 112   5   5.332603  -0.198675   2.688350  -0.000064   0.185824  -0.000346
 113   5   1.862790  -3.375149  -0.894483  -0.000215   0.278737  -0.000770
 114   5   2.398361  -0.795354  -3.323003   0.000340   0.278737   0.001219
 115   5  -1.328008  -0.312002   0.760179  -0.000220   0.139368  -0.001578
 116   5  -0.378816  -2.265937   1.168128   0.000400   0.325193   0.001230
 117   5   3.351002  -0.697696  -3.221522   0.000220   0.185824   0.001182
 118   5   3.491795  -3.432270  -0.103424  -0.000331   0.418105  -0.000792
 119   5   0.121415  -2.247510   2.154004   0.000361   0.278737   0.001295
 120   6  -1.491565   5.682499  -2.792109   0.005162   0.377948   0.013657
 121   6  -2.544394   3.033765  -1.377595   0.004141   0.274871   0.015064
 122   6  -0.086069   2.890652  -3.724757   0.004349   0.240512   0.018082
 123   6   1.748499   5.533602  -3.362815   0.004040   0.309230   0.013065
 124   6  -2.282736   5.321111   0.457588   0.002877   0.171795   0.016748
 125   6  -2.243191   4.834461  -2.379005   0.005775   0.412307   0.014007
 126   6  -2.523009   3.779243  -1.987508   0.005147   0.343589   0.014980
 127   6  -1.278547   4.695909  -3.423352   0.006055   0.412307   0.014686
 128   6  -0.829767   3.667499  -3.702843   0.005737   0.343589   0.016696
 129   6  -0.417401   5.864254  -3.321603   0.005650   0.412307   0.013703
 130   6   0.748850   5.978448  -3.376451   0.005165   0.377948   0.013665
 131   6  -0.897830   6.590768  -2.302531   0.005520   0.377948   0.014604
 132   6  -0.232780   7.113681  -1.690889   0.005194   0.274871   0.018897
 133   6  -1.966794   6.014669  -1.700964   0.006268   0.446666   0.014033
 134   6  -2.254248   5.842507  -0.518532   0.004884   0.309230   0.015793
 135   6  -2.023262   2.637806  -2.259404   0.005486   0.309230   0.017741
 136   6  -1.262909   2.755583  -3.162078   0.004238   0.240512   0.017621
 137   6   0.412326   3.741617  -3.983770   0.005401   0.343589   0.015718
 138   6   1.272219   4.687389  -3.842289   0.005719   0.412307   0.013871
 139   6   1.598131   6.396230  -2.734535   0.004409   0.274871   0.016039
 140   6   0.817005   6.965403  -2.210642   0.003360   0.206154   0.016299
 141   6  -1.711983   6.472046  -0.436127   0.003156   0.206154   0.015307
 142   6  -2.619719   4.841204  -0.077822   0.004686   0.343589   0.013638
 143   6  -2.769336   3.808989  -0.652079   0.005751   0.412307   0.013949
 144   6  -2.160926   2.255525  -1.315539   0.002612   0.171795   0.015206
 145   6  -0.503225   2.468196  -3.400808   0.003227   0.171795   0.018786
 146   6   0.781602   2.856185  -3.745757   0.003491   0.206154   0.016935
 147   6   2.289707   4.051528  -3.443440   0.002299   0.206154   0.011153
 148   6   2.481244   4.778206  -3.206690   0.002880   0.240512   0.011974
 149   6   2.508125   5.556137  -2.808257   0.003120   0.240512   0.012972
 150   6  -2.253475   4.377084   1.000700   0.003512   0.274871   0.012778
 151   6  -2.383322   2.587409  -0.303236   0.005220   0.377948   0.013813
 152   6  -1.875333   3.687985  -2.969518   0.006697   0.412307   0.016243
 153   6  -0.016531   4.850222  -3.872612   0.006986   0.481025   0.014523
 154   6   0.235233   6.687345  -2.681073   0.004066   0.274871   0.014792
 155   6  -1.156396   6.870397  -1.139552   0.006462   0.377948   0.017098
 156   6  -2.640530   4.900325  -1.233442   0.005156   0.377948   0.013643
 157   6  -1.495714   2.228912  -2.561464   0.002921   0.137436   0.021255
 158   6   1.591667   3.459741  -3.737561   0.004851   0.343589   0.014118
 159   6  -2.495220   3.548518   0.472791   0.004336   0.377948   0.011472
 160   7   4.134955   9.194412  -0.460955  -0.002884   0.392554  -0.007348
 161   7   5.118145   7.291236  -0.464248  -0.002223   0.372926  -0.005961
 162   7   5.608834   8.102799   0.358483  -0.001698   0.353299  -0.004805
 163   7   4.141911   9.866787   0.719336  -0.002032   0.333671  -0.006089
 164   7   2.347927   9.177136  -0.334487  -0.002220   0.372926  -0.005953
 165   7   4.966276   8.354122  -0.469217  -0.002393   0.353299  -0.006773
 166   7   5.025770   9.224294   0.439223  -0.002314   0.392554  -0.005895
 167   7   3.180972   9.822478   0.226210  -0.002394   0.431809  -0.005545
 168   7   3.135438   8.770108  -0.904678  -0.002677   0.372926  -0.007177
 169   7   4.046618   7.955796  -1.096196  -0.003402   0.431809  -0.007878
 170   8  -1.573690   7.622979   3.773688  -0.002896   0.392554  -0.007377
 171   8  -0.875067   7.707498   4.890834  -0.001943   0.333671  -0.005825
 172   8  -1.063995   5.920297   4.437630  -0.001758   0.314043  -0.005598
 173   8  -0.883194   8.435599   1.966520  -0.001852   0.353299  -0.005243
 174   8  -0.443715   9.156996   3.444778  -0.001749   0.333671  -0.005243
 175   8  -1.028643   6.770195   4.862489  -0.002152   0.372926  -0.005771
 176   8  -1.609872   6.391222   3.592620  -0.003209   0.431809  -0.007432
 177   8  -1.642643   7.427214   2.658889  -0.002961   0.392554  -0.007543
 178   8  -1.128025   8.601381   2.876549  -0.002545   0.392554  -0.006483
 179   8  -0.873895   8.544746   4.226952  -0.002690   0.431809  -0.006229
 180   9   3.790937  11.800912   5.964211  -0.004241   0.588831  -0.007202
 181   9   3.192633  11.469944   4.500256  -0.001943   0.372926  -0.005209
 182   9   5.117416  11.363999   4.625793  -0.001157   0.333671  -0.003468
 183   9   5.359831  11.121470   6.602217  -0.001311   0.353299  -0.003711
 184   9   3.414480  10.725532   7.522744  -0.001300   0.372926  -0.003486
 185   9   1.972509  10.709665   6.051706  -0.001277   0.353299  -0.003614
 186   9   4.136268  11.529284   4.346272  -0.002139   0.451437  -0.004738
 187   9   5.198523  11.519001   5.639685  -0.002443   0.490692  -0.004979
 188   9   4.409739  11.175506   7.170683  -0.002616   0.510320  -0.005127
 189   9   2.720295  11.071059   6.812839  -0.002555   0.490692  -0.005207
 190   9   2.505391  11.343808   5.345560  -0.002364   0.490692  -0.004818
 191  10   2.833288   5.208154   8.915361  -0.003860   0.588831  -0.006555
 192  10   4.654963   4.702465   8.322639  -0.000838   0.294415  -0.002848
 193  10   2.841503   4.231175   7.841875  -0.001950   0.353299  -0.005519
 194  10   1.381478   5.649077   7.727820  -0.001349   0.353299  -0.003817
 195  10   2.337830   7.052470   8.893327  -0.001116   0.372926  -0.002993
 196  10   4.248093   6.409653   9.242682  -0.001340   0.412182  -0.003251
 197  10   3.868268   4.194042   7.980257  -0.001952   0.431809  -0.004521
 198  10   1.969915   4.788585   7.863648  -0.002430   0.412182  -0.005895
 199  10   1.724752   6.217442   8.493794  -0.002158   0.471065  -0.004581
 200  10   3.180972   6.582083   9.297465  -0.002167   0.471065  -0.004601
 201  10   4.277514   5.328452   8.990780  -0.002176   0.471065  -0.004619
 202  11   8.647861   6.674242   4.762444  -0.003584   0.549575  -0.006522
 203  11   7.841817   6.030896   3.379836  -0.001702   0.333671  -0.005102
 204  11   7.614773   5.006940   5.292874  -0.001135   0.333671  -0.003403
 205  11   8.086444   6.542427   6.480758  -0.001142   0.353299  -0.003231
 206  11   8.250568   8.348739   5.256492  -0.001107   0.372926  -0.002969
 207  11   7.819549   7.868724   3.300144  -0.001163   0.353299  -0.003292
 208  11   8.057489   5.492529   4.328445  -0.002798   0.471065  -0.005941
 209  11   8.106731   5.704093   5.842555  -0.002146   0.490692  -0.004372
 210  11   8.425559   7.433934   5.941739  -0.002209   0.490692  -0.004502
 211  11   8.353339   8.011715   4.270930  -0.002167   0.471065  -0.004600
 212  11   8.079215   6.918661   3.346300  -0.002032   0.412182  -0.004930
 213  12  -0.967658  -1.970363  -1.705906  -0.003922   0.471065  -0.008325
 214  12  -1.352848  -1.468514  -0.339546  -0.002120   0.392554  -0.005400
 215  12   0.024233  -2.976499  -1.128458  -0.002429   0.412182  -0.005893
 216  12   0.910575  -1.958142  -2.919030  -0.002164   0.412182  -0.005249
 217  12   0.374918  -0.750789  -3.185973  -0.002972   0.471065  -0.006309
 218  12  -1.480037  -0.797940  -1.195001  -0.003288   0.431809  -0.007615
 219  12  -0.745815  -2.485017  -0.518679  -0.002497   0.431809  -0.005783
 220  12   0.552351  -2.788247  -2.066888  -0.003056   0.490692  -0.006229
 221  12  -0.258860  -1.785672  -2.656308  -0.003307   0.412182  -0.008022
 222  12  -0.860503  -0.716566  -2.464301  -0.003737   0.471065  -0.007934
 223  13   6.363456  -0.297458  -1.759823  -0.005301   0.569203  -0.009313
 224  13   6.409315  -0.791672   0.121650  -0.001931   0.372926  -0.005178
 225  13   6.422284   1.024441  -0.521383  -0.002719   0.333671  -0.008148
 226  13   5.346223   1.113504  -2.482615  -0.002948   0.392554  -0.007510
 227  13   4.848435  -0.745091  -2.883771  -0.002077   0.372926  -0.005568
 228  13   5.525438  -1.948832  -1.374784  -0.002313   0.412182  -0.005612
 229  13   6.630852   0.134465  -0.300661  -0.003266   0.431809  -0.007563
 230  13   6.176679   1.039809  -1.632759  -0.003304   0.471065  -0.007014
 231  13   5.329191   0.163483  -2.802428  -0.003203   0.431809  -0.007419
 232  13   5.444373  -1.352626  -2.274476  -0.003474   0.471065  -0.007375
 233  13   6.247898  -1.371724  -0.755078  -0.003636   0.490692  -0.007410
 234  14   2.695850  -1.947202   4.299121  -0.004581   0.529948  -0.008644
 235  14   1.154587  -2.442078   3.276535  -0.001675   0.333671  -0.005019
 236  14   1.238793  -0.715149   4.240851  -0.002879   0.412182  -0.006985
 237  14   4.426013  -1.651283   3.453693  -0.001876   0.372926  -0.005031
 238  14   3.057576  -3.049463   2.856333  -0.002198   0.412182  -0.005332
 239  14   1.236793  -1.693655   4.014114  -0.002785   0.431809  -0.006450
 240  14   2.471724  -0.712852   4.614252  -0.003735   0.471065  -0.007930
 241  14   3.850307  -0.981997   4.225578  -0.004163   0.529948  -0.007856
 242  14   3.765416  -2.462702   3.427433  -0.003229   0.471065  -0.006855
 243  14   2.112329  -2.829270   3.396092  -0.003233   0.471065  -0.006863
 244   1   5.453112   4.747404   0.494729   0.000091   0.052576   0.001725
 245   2   5.440586   5.225004   0.526387  -0.000077   0.052576  -0.001464
 246   4   5.288046   4.579972   0.125509  -0.000182   0.052576  -0.003467
 247   1   0.323203   3.606110   4.339025   0.000136   0.052576   0.002585
 248   2   0.223772   4.064375   4.435808  -0.000056   0.052576  -0.001067
 249   4   0.065809   3.418137   4.038994  -0.000135   0.052576  -0.002559
 250   1   1.379099   4.003551   5.504717   0.000415   0.097130   0.004271
 251   2   1.247826   4.433635   5.673932  -0.000144   0.097130  -0.001485
 252  10   1.621191   4.582616   6.309344  -0.000326   0.097130  -0.003355
 253   1   6.195018   5.064252   2.012726   0.000343   0.096619   0.003548
 254   2   6.267753   5.538619   2.034353  -0.000158   0.096619  -0.001633
 255  11   6.711832   5.714744   2.615918  -0.000272   0.096619  -0.002816
 256   2   0.536698   4.315324   4.998731  -0.000052   0.178011  -0.000291
 257   1   0.863779   3.672636   4.951885   0.000845   0.162734   0.005194
 258   2   5.937393   5.469835   1.283297  -0.000005   0.195416  -0.000024
 259   1   5.784203   4.798609   1.043855   0.000828   0.178653   0.004635
 260   1   3.992798   3.275102   5.827326   0.000724   0.057343   0.012624
 261   3   4.244461   3.764042   6.428356   0.000113   0.057343   0.001978
 262  10   4.078942   3.841797   6.670112  -0.000039   0.057343  -0.000684
 263   1   6.043772   3.762459   4.297335   0.000811   0.055910   0.014497
 264   3   6.398085   4.274687   4.822318   0.000101   0.055910   0.001798
 265  11   6.639442   4.450309   4.770196  -0.000081   0.055910  -0.001454
 266   3   4.810322   3.649744   6.122957   0.001156   0.359729   0.003213
 267   3   6.013801   3.934705   5.222601   0.001134   0.359729   0.003152
 268   1   4.998594   3.029555   4.878726   0.008721   0.662345   0.013166
 269   1   5.678364   2.990930   0.630701  -0.000072   0.069371  -0.001035
 270   4   5.602690   2.801917   0.243280  -0.000556   0.069371  -0.008017
 271  13   5.753100   2.122852   0.013781  -0.000814   0.069371  -0.011735
 272   1   1.298665   1.641654   4.278109   0.000250   0.089783   0.002788
 273   4   1.027072   1.398450   4.033022  -0.000498   0.089783  -0.005548
 274  14   1.300364   0.703722   4.052046  -0.000707   0.089783  -0.007873
 275   4   0.478149   2.263330   4.043565  -0.000576   0.254185  -0.002265
 276   1   0.677176   2.842987   4.400256   0.001121   0.238217   0.004707
 277   4   5.444366   3.827414   0.072593  -0.000721   0.192035  -0.003756
 278   1   5.694875   3.850265   0.699263   0.000785   0.179971   0.004364
 279   1   5.820718   2.218390   1.319429   0.000033   0.035655   0.000918
 280   5   5.893599   1.530470   0.917103  -0.000270   0.035655  -0.007573
 281  13   5.972291   1.394391   0.659006  -0.000355   0.035655  -0.009962
 282   1   4.667556   1.114763   3.684520   0.000727   0.062913   0.011557
 283   5   4.666713   0.367755   3.394347  -0.000102   0.062913  -0.001625
 284  14   4.495643   0.175520   3.552739  -0.000276   0.062913  -0.004393
 285   5   5.862672   1.338113   1.566557  -0.000571   0.397215  -0.001438
 286   5   5.183080   0.639728   2.965804   0.000176   0.397215   0.000443
 287   1   5.503855   2.028998   2.776060   0.008096   0.737632   0.010976
 288  10   1.921684   4.342067   6.813019  -0.000471   0.265958  -0.001771
 289  10   3.177416   3.865163   6.919958  -0.000786   0.535757  -0.001467
 290   1   2.128615   3.257887   5.715499   0.005131   0.656447   0.007816
 291   1   3.539690   2.848772   5.765279   0.003319   0.330953   0.010030
 292  11   6.982982   4.536363   4.483390  -0.000075   0.255962  -0.000292
 293  11   7.160697   5.214482   3.394116  -0.001109   0.515146  -0.002153
 294   1   6.314963   3.741043   3.321148   0.005892   0.632532   0.009315
 295   1   6.413035   4.553188   2.168413   0.002074   0.318730   0.006508
 296  13   6.094090   1.645268   0.132450  -0.001261   0.270118  -0.004667
 297   1   6.004371   2.770526   1.199206   0.001425   0.337860   0.004218
 298  14   4.247704   0.056782   3.944148  -0.000746   0.255566  -0.002921
 299  14   2.996717   0.143309   4.467270  -0.002478   0.515600  -0.004807
 300  14   1.649761   0.289646   4.365254  -0.001050   0.255566  -0.004109
 301   1   4.030782   1.420169   4.483531   0.006235   0.626788   0.009948
 302   1   2.257656   1.579101   4.770942   0.004505   0.626788   0.007187
 303   2   6.027536   7.831138   1.532748  -0.000130   0.024691  -0.005257
 304   3   6.252879   7.952024   1.953813  -0.000102   0.024691  -0.004119
 305   7   5.893456   7.951377   1.292104  -0.000201   0.024691  -0.008132
 306   2   4.117053  10.034030   2.059830  -0.000176   0.024691  -0.007108
 307   3   4.367514  10.125953   2.473965  -0.000168   0.024691  -0.006792
 308   7   4.154511   9.956475   1.771861  -0.000189   0.024691  -0.007635
 309   2   0.607159   9.272416   4.604667  -0.000199   0.024791  -0.008014
 310   3   0.895474   9.372611   4.991355  -0.000156   0.024791  -0.006304
 311   8   0.353076   9.131171   4.529189  -0.000276   0.024791  -0.011126
 312   2   0.212725   6.556395   5.752698  -0.000148   0.024791  -0.005988
 313   3   0.506216   6.692236   6.124319  -0.000109   0.024791  -0.004383
 314   8  -0.005955   6.658934   5.574175  -0.000156   0.024791  -0.006302
 315   2   3.771954  10.355363   2.736073  -0.000205   0.028275  -0.007265
 316   3   4.036909  10.522666   3.116329  -0.000149   0.028275  -0.005258
 317   9   3.985217  10.696299   3.358671  -0.000145   0.028275  -0.005130
 318   2   1.164955   9.733516   4.644317  -0.000176   0.028275  -0.006217
 319   3   1.396600   9.892873   5.048955  -0.000148   0.028275  -0.005223
 320   9   1.580564  10.122717   5.118803  -0.000195   0.028275  -0.006904
 321   2   0.687445   6.040106   6.176254  -0.000116   0.025691  -0.004507
 322   3   0.913057   6.161087   6.597174  -0.000095   0.025691  -0.003705
 323  10   1.048037   6.033176   6.835340  -0.000105   0.025691  -0.004092
 324   2   6.414043   7.383735   1.992600  -0.000098   0.025473  -0.003863
 325   3   6.707161   7.520527   2.364185  -0.000094   0.025473  -0.003680
 326  11   6.929381   7.414841   2.539508  -0.000145   0.025473  -0.005706
 327   3   0.712735   6.497411   6.469837  -0.000091   0.083955  -0.001084
 328   2   0.370000   6.213932   5.911782  -0.000208   0.083955  -0.002478
 329   3   6.586827   7.735507   2.223620  -0.000070   0.069544  -0.001004
 330   2   6.188501   7.628556   1.644056  -0.000127   0.069544  -0.001825
 331   3   4.318107  10.377758   2.840919  -0.000196   0.084284  -0.002322
 332   2   3.860213  10.226686   2.314760  -0.000301   0.084284  -0.003576
 333   3   1.189645   9.717158   5.102792  -0.000147   0.063799  -0.002306
 334   2   0.777051   9.479459   4.575407  -0.000243   0.063799  -0.003805
 335   2   5.112473   5.920593   0.031944  -0.000418   0.059933  -0.006970
 336   4   4.896392   5.269258  -0.325413  -0.000570   0.059933  -0.009512
 337   7   5.037685   6.175560  -0.111512  -0.000432   0.059933  -0.007213
 338   2  -0.389198   4.740843   4.078883  -0.000395   0.060377  -0.006539
 339   4  -0.489203   4.114287   3.636046  -0.000505   0.060377  -0.008370
 340   8  -0.572962   4.970160   4.010261  -0.000544   0.060377  -0.009010
 341   4  -0.324175   3.456631   3.831409  -0.000625   0.180899  -0.003458
 342   2  -0.196191   4.447688   4.322932  -0.000374   0.180899  -0.002068
 343   4   5.133216   4.734674  -0.361581  -0.000704   0.162893  -0.004320
 344   2   5.416373   5.586166   0.295080  -0.000289   0.162893  -0.001776
 345   2   1.215685   8.185003  -0.249463   0.000236   0.077669   0.003042
 346   6   0.854805   7.581080  -0.823379   0.001852   0.077669   0.023841
 347   7   1.482613   8.241771  -0.381363  -0.000071   0.077669  -0.000913
 348   2  -0.238883   7.900935   0.828192   0.000313   0.078415   0.003988
 349   6  -0.541319   7.310599   0.208051   0.001660   0.078415   0.021168
 350   8  -0.450674   7.852688   1.039402  -0.000068   0.078415  -0.000873
 351   6  -0.251273   7.331445  -0.622083   0.007530   0.438703   0.017163
 352   2   0.515902   8.156669   0.098840   0.002284   0.486950   0.004690
 353   7   5.762058   7.666751   0.761813  -0.000486   0.090900  -0.005344
 354   7   5.390418   6.807200   0.118100  -0.000614   0.090900  -0.006755
 355   2   5.657874   6.984323   0.730191  -0.001501   0.185523  -0.008091
 356   7   1.762380   8.858196  -0.116326  -0.000296   0.069290  -0.004270
 357   7   2.289182   9.613685   0.527943  -0.001045   0.154399  -0.006770
 358   7   3.413905   9.992232   1.188294  -0.001223   0.154399  -0.007919
 359   2   1.608786   9.137889   0.390081  -0.000693   0.151319  -0.004579
 360   2   2.574845   9.954950   1.242268  -0.001057   0.151319  -0.006987
 361   2   3.695667  10.085752   1.757559  -0.000446   0.084653  -0.005270
 362   8  -0.627747   5.512038   4.524414  -0.000619   0.088284  -0.007013
 363   8  -0.378185   6.329803   5.225854  -0.000482   0.088284  -0.005454
 364   2  -0.187494   5.718242   4.999184  -0.001429   0.181569  -0.007871
 365   8   0.045511   9.183467   4.093868  -0.000470   0.068442  -0.006861
 366   8  -0.074016   9.274852   2.992168  -0.001074   0.152157  -0.007060
 367   8  -0.336977   8.693176   1.809206  -0.000837   0.152157  -0.005500
 368   2   0.382720   9.434509   3.672664  -0.001172   0.149796  -0.007823
 369   2   0.160072   9.244679   2.191252  -0.000888   0.149796  -0.005929
 370   2  -0.103745   8.509620   1.244583  -0.000249   0.083617  -0.002972
 371   9   3.592313  10.887798   3.606932  -0.001009   0.218391  -0.004619
 372   9   2.290056  10.652365   4.480985  -0.003371   0.450767  -0.007478
 373   2   2.612471  10.377438   3.033722  -0.002977   0.595015  -0.005004
 374   2   1.228807   9.978917   4.118608  -0.000889   0.307844  -0.002887
 375  10   1.289950   5.487675   6.927347  -0.001379   0.284927  -0.004841
 376   2   0.849582   5.144886   5.925097  -0.000817   0.400941  -0.002037
 377  11   7.115745   6.530065   2.732122  -0.001505   0.301196  -0.004997
 378   2   6.394814   6.674264   1.846047  -0.000846   0.423695  -0.001997
 379   7   4.488671   9.804596   1.513432  -0.001234   0.194415  -0.006348
 380   7   5.447549   8.805712   1.254649  -0.002792   0.397478  -0.007025
 381   3   5.326298   9.677107   2.404815  -0.001212   0.533101  -0.002274
 382   3   6.311071   8.444371   2.127878  -0.000196   0.273902  -0.000717
 383   8  -0.193480   7.057018   5.477715  -0.001007   0.195101  -0.005159
 384   8  -0.041420   8.374842   4.987532  -0.003016   0.398991  -0.007560
 385   3   0.562605   7.755570   6.150732  -0.001100   0.534875  -0.002056
 386   3   0.807739   9.196897   5.480613  -0.000413   0.274878  -0.001502
 387   9   1.702073  10.310715   5.602773  -0.000281   0.066790  -0.004204
 388   9   1.986473  10.179257   6.636137  -0.000575   0.147333  -0.003904
 389   9   2.909216  10.142376   7.561617  -0.000458   0.147333  -0.003108
 390   9   4.193587  10.263782   7.773695  -0.000585   0.147333  -0.003968
 391   9   5.340085  10.496259   7.189892  -0.000620   0.147333  -0.004208
 392   9   5.902826  10.749394   6.037255  -0.000497   0.147333  -0.003370
 393   9   5.662955  10.924741   4.764053  -0.000497   0.147333  -0.003373
 394   9   4.713760  10.954106   3.865446  -0.000683   0.147333  -0.004637
 395   3   1.568285   9.890727   5.993223  -0.000566   0.147321  -0.003845
 396   3   2.233492   9.761998   7.296702  -0.000236   0.147321  -0.001599
 397   3   3.538556   9.811978   7.969338  -0.000271   0.147321  -0.001842
 398   3   4.975926  10.021228   7.749538  -0.000392   0.147321  -0.002660
 399   3   5.986596  10.308369   6.722783  -0.000371   0.147321  -0.002520
 400   3   6.177508  10.561730   5.288388  -0.000243   0.147321  -0.001649
 401   3   5.474415  10.682777   4.004201  -0.000447   0.147321  -0.003033
 402   3   4.470279  10.664276   3.362353  -0.000257   0.081599  -0.003149
 403  10   4.356814   4.075276   7.261319  -0.000163   0.069614  -0.002343
 404  10   4.995730   4.733791   7.909881  -0.000488   0.154942  -0.003147
 405  10   5.121430   5.868160   8.645370  -0.000498   0.154942  -0.003217
 406  10   4.432700   6.969106   9.041741  -0.000542   0.154942  -0.003497
 407  10   3.220723   7.571168   8.931415  -0.000424   0.154942  -0.002737
 408  10   1.997900   7.419806   8.361036  -0.000546   0.154942  -0.003523
 409  10   1.281218   6.579014   7.571749  -0.000654   0.154942  -0.004223
 410   3   4.913218   4.290771   7.197921  -0.000212   0.152228  -0.001394
 411   3   5.514658   5.373208   8.088273  -0.000234   0.152228  -0.001538
 412   3   5.180270   6.700776   8.760491  -0.000340   0.152228  -0.002235
 413   3   4.051429   7.712203   8.930375  -0.000295   0.152228  -0.001940
 414   3   2.605386   7.979877   8.526100  -0.000191   0.152228  -0.001253
 415   3   1.453501   7.390630   7.718586  -0.000336   0.152228  -0.002208
 416   3   1.007817   6.486056   6.996825  -0.000206   0.085049  -0.002420
 417  11   7.284323   7.684438   2.845546  -0.000255   0.069958  -0.003647
 418  11   7.536763   8.485375   3.599911  -0.000568   0.155877  -0.003644
 419  11   7.775576   8.827863   4.898198  -0.000458   0.155877  -0.002936
 420  11   7.843539   8.296911   6.152532  -0.000538   0.155877  -0.003454
 421  11   7.711638   7.119193   6.827411  -0.000583   0.155877  -0.003739
 422  11   7.436183   5.797499   6.634717  -0.000417   0.155877  -0.002674
 423  11   7.134773   4.896086   5.656716  -0.000493   0.155877  -0.003165
 424   3   7.059010   8.232178   2.950040  -0.000527   0.152821  -0.003449
 425   3   7.383768   9.071347   4.189756  -0.000207   0.152821  -0.001355
 426   3   7.566063   8.959357   5.706593  -0.000277   0.152821  -0.001816
 427   3   7.528069   7.944018   6.852984  -0.000372   0.152821  -0.002434
 428   3   7.286008   6.458799   7.139512  -0.000285   0.152821  -0.001865
 429   3   6.943218   5.137768   6.443853  -0.000185   0.152821  -0.001208
 430   3   6.684932   4.513574   5.397031  -0.000077   0.085469  -0.000901
 431   4  -1.568087   1.316954   0.097226   0.000033   0.037765   0.000879
 432   5  -1.424622   0.851835   0.049112  -0.000186   0.037765  -0.004918
 433   6  -1.698605   1.592877  -0.151570   0.000333   0.037765   0.008808
 434   4   2.660494   2.525824  -3.050225  -0.000030   0.037765  -0.000784
 435   5   2.747338   2.044518  -3.056195  -0.000210   0.037765  -0.005563
 436   6   2.366688   2.755066  -3.177481   0.000228   0.037765   0.006050
 437   4   4.054529   2.282865  -2.489339  -0.000440   0.029038  -0.015148
 438   5   4.172587   1.815714  -2.573266  -0.000374   0.029038  -0.012864
 439  13   4.422752   1.650339  -2.532405  -0.000299   0.029038  -0.010289
 440   4   0.620155   0.908514   3.720864  -0.000362   0.025407  -0.014249
 441   5   0.699519   0.426193   3.707561  -0.000305   0.025407  -0.011998
 442  14   0.879960   0.216904   3.826050  -0.000271   0.025407  -0.010654
 443   5   0.142416   0.470574   3.340947  -0.001504   0.235706  -0.006381
 444   5  -1.025364   0.421275   1.489749  -0.004005   0.484241  -0.008270
 445   4  -0.504783   1.119197   2.734583  -0.005883   0.484241  -0.012148
 446   4  -1.487207   1.119472   0.778076  -0.001024   0.235706  -0.004343
 447   5   3.406111   1.805007  -2.925934  -0.001011   0.202276  -0.004996
 448   4   3.487653   2.524203  -2.757672  -0.001136   0.202276  -0.005616
 449   4   3.526400   5.543189  -1.624399   0.000107   0.108579   0.000988
 450   6   3.212572   5.699653  -1.811747   0.000919   0.108579   0.008461
 451   7   3.682602   6.385525  -1.231740  -0.000300   0.108579  -0.002767
 452   4  -1.376315   4.375709   2.199332   0.000109   0.107810   0.001011
 453   6  -1.537092   4.569398   1.891617   0.000984   0.107810   0.009130
 454   8  -1.290227   5.214572   2.611128  -0.000193   0.107810  -0.001790
 455   6  -2.010399   2.147891   0.067971   0.001304   0.136988   0.009522
 456   6  -1.989823   3.404538   1.110046   0.002416   0.289092   0.008358
 457   4  -1.802913   2.273937   0.870805   0.000978   0.284911   0.003434
 458   4  -1.672319   3.618774   1.878955   0.000533   0.146170   0.003647
 459   6   3.016491   4.980679  -2.493770   0.001653   0.185722   0.008900
 460   6   2.494235   3.547701  -3.190252   0.001591   0.185722   0.008569
 461   4   3.128642   3.984222  -2.545893   0.000910   0.388597   0.002342
 462   7   4.678827   6.514124  -0.588964  -0.002594   0.390468  -0.006642
 463   4   4.276563   5.313800  -1.227443  -0.002214   0.550698  -0.004020
 464   8  -1.133353   5.346717   3.444293  -0.001963   0.336600  -0.005831
 465   4  -1.018312   3.990221   3.094793  -0.001824   0.474835  -0.003841
 466  13   4.840498   1.673997  -2.331377  -0.001552   0.192431  -0.008067
 467  13   5.639698   1.819070  -1.152975  -0.004445   0.394327  -0.011273
 468   4   4.742248   2.745677  -1.782878  -0.004775   0.527259  -0.009056
 469   4   5.561288   2.810469  -0.378094  -0.001936   0.271523  -0.007132
 470  14   1.117934   0.159791   4.034457  -0.000477   0.072628  -0.006568
 471   4   0.659944   1.167596   3.914794  -0.000471   0.102475  -0.004599
 472   5   0.754530   0.747686  -3.059206  -0.000061   0.063253  -0.000957
 473   6   0.443872   1.499660  -3.095250   0.000774   0.063253   0.012234
 474  12   0.552967   0.527891  -3.014026  -0.000245   0.063253  -0.003873
 475   5  -1.372800   0.510498  -0.135412  -0.000342   0.063253  -0.005404
 476   6  -1.561256   1.276096  -0.339410   0.000252   0.063253   0.003991
 477  12  -1.375724   0.312850  -0.363240  -0.000364   0.063253  -0.005760
 478   6   1.894858   2.653496  -3.416006   0.002239   0.281783   0.007945
 479   6   0.736581   2.083253  -3.417803   0.003483   0.281783   0.012361
 480   5   1.823377   1.336644  -3.234068  -0.000231   0.618244  -0.000373
 481   6  -1.861909   1.669545  -0.294427   0.000172   0.011858   0.014541
 482   5  -1.496815   0.599121   0.001976   0.000023   0.013093   0.001758
 483  12   0.737496  -0.112989  -3.167707  -0.000322   0.066686  -0.004827
 484  12   1.292760  -1.046124  -3.154898  -0.000724   0.147501  -0.004908
 485  12   1.555843  -2.203699  -2.590896  -0.000859   0.147501  -0.005824
 486  12   1.238826  -2.979015  -1.578140  -0.000901   0.147501  -0.006109
 487  12   0.467248  -3.065043  -0.517687  -0.000894   0.147501  -0.006061
 488  12  -0.453338  -2.427714   0.170515  -0.000801   0.147501  -0.005428
 489  12  -1.158377  -1.319415   0.213935  -0.000836   0.147501  -0.005667
 490  12  -1.414738  -0.352954  -0.209686  -0.000472   0.066686  -0.007083
 491   5   1.311810  -0.228020  -3.219616  -0.000696   0.146668  -0.004743
 492   5   1.904885  -1.553155  -2.949794  -0.000541   0.146668  -0.003687
 493   5   1.872964  -2.697122  -2.016602  -0.000703   0.146668  -0.004794
 494   5   1.228688  -3.206902  -0.789590  -0.000738   0.146668  -0.005035
 495   5   0.227194  -2.880618   0.245337  -0.000622   0.146668  -0.004240
 496   5  -0.734920  -1.847482   0.678342  -0.000603   0.146668  -0.004111
 497   5  -1.276650  -0.516622   0.337952  -0.000870   0.146668  -0.005929
 498  13   6.226230   0.810004   0.490094  -0.000506   0.067479  -0.007503
 499  13   6.214270  -0.265637   0.666895  -0.000918   0.149150  -0.006153
 500  13   5.885161  -1.481709   0.275139  -0.000885   0.149150  -0.005932
 501  13   5.300836  -2.158551  -0.694947  -0.000969   0.149150  -0.006495
 502  13   4.693052  -2.027712  -1.858603  -0.000986   0.149150  -0.006614
 503  13   4.302871  -1.141086  -2.754298  -0.000926   0.149150  -0.006208
 504  13   4.285048   0.149671  -3.026778  -0.000982   0.149150  -0.006584
 505  13   4.533891   1.174318  -2.750044  -0.000488   0.067479  -0.007226
 506   5   6.065466   0.490505   0.961301  -0.000929   0.148555  -0.006256
 507   5   5.904193  -0.982738   0.931823  -0.000710   0.148555  -0.004780
 508   5   5.363541  -2.103134   0.125764  -0.000803   0.148555  -0.005405
 509   5   4.657945  -2.426307  -1.137176  -0.000881   0.148555  -0.005929
 510   5   4.067261  -1.824080  -2.356084  -0.000725   0.148555  -0.004881
 511   5   3.825767  -0.535310  -3.047514  -0.000764   0.148555  -0.005142
 512   5   4.029246   0.928847  -2.937229  -0.001041   0.148555  -0.007005
 513  14   0.813956  -0.318065   3.848225  -0.000431   0.069733  -0.006188
 514  14   0.550013  -1.310067   3.374628  -0.000936   0.155589  -0.006013
 515  14   0.970571  -2.459138   2.768460  -0.000941   0.155589  -0.006045
 516  14   2.103284  -3.102018   2.358170  -0.000981   0.155589  -0.006306
 517  14   3.461115  -2.962287   2.320172  -0.000985   0.155589  -0.006328
 518  14   4.460231  -2.100023   2.670805  -0.000842   0.155589  -0.005413
 519  14   4.671037  -0.885980   3.259305  -0.001020   0.155589  -0.006553
 520   5   0.415007  -0.477528   3.428893  -0.001001   0.152096  -0.006582
 521   5   0.384174  -1.850896   2.746699  -0.000690   0.152096  -0.004538
 522   5   1.307539  -2.916148   2.142450  -0.000730   0.152096  -0.004797
 523   5   2.788080  -3.215252   1.875959  -0.000855   0.152096  -0.005619
 524   5   4.189201  -2.619601   2.061809  -0.000772   0.152096  -0.005078
 525   5   4.908457  -1.385310   2.620091  -0.000706   0.152096  -0.004641
 526   5   4.848713  -0.271872   3.179889  -0.000338   0.085194  -0.003966
 527   7   3.692049   7.062641  -1.309723  -0.000726   0.233684  -0.003106
 528   7   2.746271   7.802810  -1.234839  -0.000986   0.469845  -0.002098
 529   7   1.783086   8.308038  -0.720086   0.000045   0.233684   0.000191
 530   6   2.558452   6.399910  -2.095865   0.005919   0.577150   0.010256
 531   6   1.252258   7.252065  -1.692410   0.007799   0.577150   0.013513
 532   8  -0.876463   7.758282   1.237537  -0.000029   0.248757  -0.000115
 533   8  -1.497014   6.872602   1.942576  -0.001158   0.500910  -0.002312
 534   8  -1.565083   5.843298   2.718780  -0.000692   0.248757  -0.002781
 535   6  -1.403452   6.693312   0.292623   0.008676   0.612724   0.014160
 536   6  -1.874110   5.384460   1.305022   0.006725   0.612724   0.010976
 537  12  -1.492581   0.191223  -0.819643  -0.000875   0.266712  -0.003281
 538  12  -0.969110   0.254827  -2.107863  -0.002255   0.538184  -0.004190
 539  12   0.093613   0.368077  -2.999701  -0.000618   0.266712  -0.002317
 540   6  -1.681285   1.582756  -1.375424   0.006859   0.655183   0.010468
 541   6  -0.598510   1.703481  -2.863585   0.008273   0.655183   0.012627
 =====================================================

              2351206  WORDS OF DYNAMIC MEMORY USED
 EXECUTION OF GAMESS TERMINATED NORMALLY Thu Nov 24 02:24:09 2016
 DDI: 263640 bytes (0.3 MB / 0 MWords) used by master data server.

 ----------------------------------------
 CPU timing information for all processes
 ========================================
 0: 617.340 + 0.284 = 617.624
 ----------------------------------------
 ddikick.x: exited gracefully.
