----- GAMESS execution script -----

          ******************************************************
          *         GAMESS VERSION =  5 DEC 2014 (R1)          *
          *             FROM IOWA STATE UNIVERSITY             *
          * M.W.SCHMIDT, K.K.BALDRIDGE, J.A.BOATZ, S.T.ELBERT, *
          *   M.S.GORDON, J.H.JENSEN, S.KOSEKI, N.MATSUNAGA,   *
          *          K.A.NGUYEN, S.J.SU, T.L.WINDUS,           *
          *       TOGETHER WITH M.DUPUIS, J.A.MONTGOMERY       *
          *         J.COMPUT.CHEM.  14, 1347-1363(1993)        *
          **************** 64 BIT LINUX VERSION ****************

 EXECUTION OF GAMESS BEGUN Thu Nov 24 04:04:03 2016

            ECHO OF THE FIRST FEW INPUT CARDS -
 INPUT CARD>! SELECT RESTRICTED HARTREE-FOCK AS DEFAULT                                     
 INPUT CARD>$contrl scftyp=rhf $end                                                         
 INPUT CARD>                                                                                
 INPUT CARD>! THEORY: HF OR DFT                                                             
 INPUT CARD> $contrl mplevl=0 $end                                                          
 INPUT CARD>                                                                                
 INPUT CARD> $system timlim=10000 mwords=20 $end                                            
 INPUT CARD> $SCF DIRSCF=.TRUE. $end                                                        
 INPUT CARD>                                                                                
 INPUT CARD>                                                                                
 INPUT CARD>! BASIS SETS                                                                    
 INPUT CARD>! 6-311G(d,p)                                                                   
 INPUT CARD> $BASIS GBASIS=N311 NGAUSS=6 NDFUNC=1 NPFUNC=1 $END                             
 INPUT CARD>                                                                                
 INPUT CARD>! One of the following                                                          
 INPUT CARD> $guess guess=HUCKEL $end                                                       
 INPUT CARD>                                                                                
 INPUT CARD> $statpt projct=.FALSE. $end                                                    
 INPUT CARD> $STATPT IFREEZ(1)=1,2,3 $END                                                   
 INPUT CARD>                                                                                
 INPUT CARD>! Optimize the geometry with COSMO effects                                      
 INPUT CARD> $statpt opttol=0.0005 nstep=50 $end                                            
 INPUT CARD> $contrl nzvar=1 $end                                                           
 INPUT CARD> $zmat dlc=.t. auto=.t. $end                                                    
 INPUT CARD> $contrl runtyp=OPTIMIZE maxit=200 $end                                         
 INPUT CARD>                                                                                
 INPUT CARD>! Run COSMO on perfect conductor                                                
 INPUT CARD> $COSGMS PRFCND=.TRUE. $end                                                     
 INPUT CARD>                                                                                
 INPUT CARD>! Specifying RSOLV                                                              
 INPUT CARD> $COSGMS COSRAD = 1.4 $end                                                      
 INPUT CARD>                                                                                
 INPUT CARD>! available memory                                                              
 INPUT CARD> $SYSTEM MWORDS=40 $END                                                         
 INPUT CARD>                                                                                
 INPUT CARD> $DATA                                                                          
 INPUT CARD>Propanoic acid, ethyl ester, ID: C105373                                        
 INPUT CARD>C1                                                                              
 INPUT CARD>O      8.0      4.5155000000    1.1458000000    1.2376000000                    
 INPUT CARD>C      6.0      3.3088000000    1.7718000000    1.0988000000                    
 INPUT CARD>C      6.0      2.1534000000    0.7997000000    1.1849000000                    
 INPUT CARD>O      8.0      3.2824000000    2.9751000000    0.9327000000                    
 INPUT CARD>C      6.0      5.7041000000    1.9354000000    1.1773000000                    
 INPUT CARD>C      6.0      0.8119000000    1.4653000000    0.9835000000                    
 INPUT CARD>C      6.0      6.8674000000    0.9735000000    1.3272000000                    
 INPUT CARD>H      1.0      2.1890000000    0.2960000000    2.1718000000                    
 INPUT CARD>H      1.0      2.3025000000    0.0000000000    0.4317000000                    
 INPUT CARD>H      1.0      5.6897000000    2.6882000000    1.9877000000                    
 INPUT CARD>H      1.0      5.7467000000    2.4760000000    0.2131000000                    
 INPUT CARD>H      1.0      0.6219000000    2.2385000000    1.7394000000                    
   40000000 WORDS OF MEMORY AVAILABLE

     BASIS OPTIONS
     -------------
     GBASIS=N311         IGAUSS=       6      POLAR=POPN311 
     NDFUNC=       1     NFFUNC=       0     DIFFSP=       F
     NPFUNC=       1      DIFFS=       F     BASNAM=        


     RUN TITLE
     ---------
 Propanoic acid, ethyl ester, ID: C105373                                        

 THE POINT GROUP OF THE MOLECULE IS C1      
 THE ORDER OF THE PRINCIPAL AXIS IS     0

 ATOM      ATOMIC                      COORDINATES (BOHR)
           CHARGE         X                   Y                   Z
 O           8.0     8.5330576976        2.1652480367        2.3387248824
 C           6.0     6.2527253482        3.3482165050        2.0764309153
 C           6.0     4.0693359420        1.5112138724        2.2391363229
 O           8.0     6.2028365821        5.6221237861        1.7625474287
 C           6.0    10.7791860066        3.6573756766        2.2247744053
 C           6.0     1.5342685294        2.7690154898        1.8585455089
 C           6.0    12.9775042481        1.8396482490        2.5080443309
 H           1.0     4.1366101871        0.5593588924        4.1041069001
 H           1.0     4.3510940867        0.0000000000        0.8157947089
 H           1.0    10.7519739523        5.0799614002        3.7562083458
 H           1.0    10.8596883336        4.6789615456        0.4027006080
 H           1.0     1.1752205918        4.2301516235        3.2869893830
 H           1.0     1.3976413405        3.6806193063        0.0000000000
 H           1.0     0.0000000000        1.3787440806        1.9878027665
 H           1.0    12.9211904136        0.8193851883        4.3136775122
 H           1.0    13.0168105486        0.4180073885        0.9977753215
 H           1.0    14.7693424296        2.8816431587        2.4335891270

          INTERNUCLEAR DISTANCES (ANGS.)




     $CONTRL OPTIONS
     ---------------
 SCFTYP=RHF          RUNTYP=OPTIMIZE     EXETYP=RUN     
 MPLEVL=       0     CITYP =NONE         CCTYP =NONE         VBTYP =NONE    
 DFTTYP=NONE         TDDFT =NONE    
 MULT  =       1     ICHARG=       0     NZVAR =       1     COORD =UNIQUE  
 PP    =NONE         RELWFN=NONE         LOCAL =NONE         NUMGRD=       F
 ISPHER=      -1     NOSYM =       0     MAXIT =     200     UNITS =ANGS    
 PLTORB=       F     MOLPLT=       F     AIMPAC=       F     FRIEND=        
 NPRINT=       7     IREST =       0     GEOM  =INPUT   
 NORMF =       0     NORMP =       0     ITOL  =      20     ICUT  =       9
 INTTYP=BEST         GRDTYP=BEST         QMTTOL= 1.0E-06

     $SYSTEM OPTIONS
     ---------------
  REPLICATED MEMORY=    40000000 WORDS (ON EVERY NODE).
 DISTRIBUTED MEMDDI=           0 MILLION WORDS IN AGGREGATE,
 MEMDDI DISTRIBUTED OVER   1 PROCESSORS IS           0 WORDS/PROCESSOR.
 TOTAL MEMORY REQUESTED ON EACH PROCESSOR=    40000000 WORDS.
 TIMLIM=       10000.00 MINUTES, OR       6.9 DAYS.
 PARALL= F  BALTYP=  DLB     KDIAG=    0  COREFL= F
 MXSEQ2=     300 MXSEQ3=     150  mem10=         0

     $COSGMS OPTIONS
     ---------------
     EPSI  =   INFTY     NSPA  =      92     COSRAD=    1.40
     DISEX =   10.00     OUTCHG=DBLCAV       COSBUG=       F
     COSWRT=       F     DCOSMO=       F

     SYMMETRY COORDINATES WILL NOT BE USED FOR 
     THE COSMO CALCULATION, EVEN IF SPECIFIED:
         -- SWITCHING TO C1 POINT GROUP --


     DEFINITION OF CAVITY
     ---------------------------
     ATOM         COORDINATES           RADIUS 
     1    8.5331    2.1652    2.3387    1.7200
     2    6.2527    3.3482    2.0764    2.0000
     3    4.0693    1.5112    2.2391    2.0000
     4    6.2028    5.6221    1.7625    1.7200
     5   10.7792    3.6574    2.2248    2.0000
     6    1.5343    2.7690    1.8585    2.0000
     7   12.9775    1.8396    2.5080    2.0000
     8    4.1366    0.5594    4.1041    1.3000
     9    4.3511    0.0000    0.8158    1.3000
    10   10.7520    5.0800    3.7562    1.3000
    11   10.8597    4.6790    0.4027    1.3000
    12    1.1752    4.2302    3.2870    1.3000
    13    1.3976    3.6806    0.0000    1.3000
    14    0.0000    1.3787    1.9878    1.3000
    15   12.9212    0.8194    4.3137    1.3000
    16   13.0168    0.4180    0.9978    1.3000
    17   14.7693    2.8816    2.4336    1.3000

          ----------------
          PROPERTIES INPUT
          ----------------

     MOMENTS            FIELD           POTENTIAL          DENSITY
 IEMOM =       1   IEFLD =       0   IEPOT =       0   IEDEN =       0
 WHERE =COMASS     WHERE =NUCLEI     WHERE =NUCLEI     WHERE =NUCLEI  
 OUTPUT=BOTH       OUTPUT=BOTH       OUTPUT=BOTH       OUTPUT=BOTH    
 IEMINT=       0   IEFINT=       0                     IEDINT=       0
                                                       MORB  =       0
          EXTRAPOLATION IN EFFECT
          SOSCF IN EFFECT
 ORBITAL PRINTING OPTION: NPREO=     1   193     2     1

     -------------------------------
     INTEGRAL TRANSFORMATION OPTIONS
     -------------------------------
     NWORD  =            0
     CUTOFF = 1.0E-09     MPTRAN =       0
     DIRTRF =       T     AOINTS =DUP     

          ----------------------
          INTEGRAL INPUT OPTIONS
          ----------------------
 NOPK  =       1 NORDER=       0 SCHWRZ=       T


 -----------------------------------------------
  STATISTICS ON AUTOMATIC COORDINATE GENERATION 
 -----------------------------------------------
  NUMBER OF USER SPECIFIED BONDS                             0
  NUMBER OF BONDS                                           16
  NUMBER OF ANGLES                                          28
  NUMBER OF TORSIONS                                        29
  NUMBER OF EXTRA COORD.                                     0
  NUMBER OF EXTRA COORD. FOR CONSTRAINTS                     0
  NUMBER OF CONSTRAINED COORD.                               0

  TOTAL NUMBER OF PRIMITIVES                                73
 -----------------------------------------------

   --- ENCODED Z MATRIX ---
 COORD  TYPE   I   J   K   L   M   N
    1      1    1   5
    2      1    1   2
    3      1    2   4
    4      1    2   3
    5      1    3   8
    6      1    3   6
    7      1    3   9
    8      1    5   7
    9      1    5  11
   10      1    5  10
   11      1    6  14
   12      1    6  13
   13      1    6  12
   14      1    7  16
   15      1    7  15
   16      1    7  17
   17      2    1   5   7
   18      2    1   2   4
   19      2    1   5  10
   20      2    1   5  11
   21      2    1   2   3
   22      2    2   1   5
   23      2    2   3   9
   24      2    2   3   6
   25      2    2   3   8
   26      2    3   2   4
   27      2    3   6  14
   28      2    3   6  12
   29      2    3   6  13
   30      2    5   7  15
   31      2    5   7  16
   32      2    5   7  17
   33      2    6   3   9
   34      2    6   3   8
   35      2    7   5  10
   36      2    7   5  11
   37      2    8   3   9
   38      2   10   5  11
   39      2   12   6  13
   40      2   12   6  14
   41      2   13   6  14
   42      2   15   7  17
   43      2   15   7  16
   44      2   16   7  17
   45      3    1   5   7  15
   46      3    1   2   3   9
   47      3    1   2   3   6
   48      3    1   2   3   8
   49      3    1   5   7  17
   50      3    1   5   7  16
   51      3    2   1   5  11
   52      3    2   1   5  10
   53      3    2   1   5   7
   54      3    2   3   6  13
   55      3    2   3   6  14
   56      3    2   3   6  12
   57      3    3   2   1   5
   58      3    4   2   3   8
   59      3    4   2   3   6
   60      3    4   2   1   5
   61      3    4   2   3   9
   62      3    8   3   6  14
   63      3    8   3   6  13
   64      3    8   3   6  12
   65      3    9   3   6  14
   66      3    9   3   6  13
   67      3    9   3   6  12
   68      3   10   5   7  17
   69      3   10   5   7  16
   70      3   10   5   7  15
   71      3   11   5   7  17
   72      3   11   5   7  16
   73      3   11   5   7  15

          INDEP./SYM. INTERNAL COORDINATES
          --------------------------------
 CRD  1=  -0.3639 ( 17)  0.2283 ( 18)  0.1345 ( 19)  0.1371 ( 20) -0.4302 ( 21)
           0.6112 ( 22) -0.1167 ( 23)  0.3041 ( 24) -0.1131 ( 25)  0.2019 ( 26)
 CRD  2=  -0.2542 (  1) -0.3469 (  2) -0.2513 (  4) -0.2177 (  6) -0.1979 (  8)
          -0.4127 ( 17)  0.1201 ( 19)  0.1117 ( 20) -0.1297 ( 22)  0.1339 ( 23)
          -0.4632 ( 24)  0.1357 ( 25) -0.1121 ( 29)  0.1393 ( 33)  0.1605 ( 34)
           0.1377 ( 35)  0.1131 ( 36)
 CRD  3=   0.1417 ( 28) -0.1275 ( 29)  0.1465 ( 30) -0.1342 ( 31) -0.1424 ( 33)
           0.1226 ( 34)  0.1751 ( 35) -0.1916 ( 36)  0.2490 ( 46)  0.3824 ( 47)
           0.2462 ( 48)  0.2901 ( 51)  0.2863 ( 52)  0.4908 ( 53)  0.1617 ( 59)
           0.2534 ( 60)
 CRD  4=   0.1496 ( 19) -0.1343 ( 20)  0.1129 ( 25) -0.1603 ( 45)  0.1287 ( 46)
           0.2507 ( 47)  0.1386 ( 48) -0.1680 ( 49) -0.1603 ( 50) -0.1292 ( 54)
          -0.1690 ( 55) -0.1264 ( 56) -0.6557 ( 57) -0.4434 ( 60) -0.1096 ( 61)
 CRD  5=  -0.3410 (  1) -0.2163 (  2) -0.2179 (  4)  0.1675 ( 17) -0.1324 ( 20)
          -0.3311 ( 21) -0.4888 ( 22) -0.1743 ( 23)  0.3548 ( 24) -0.1478 ( 25)
           0.3091 ( 26) -0.1454 ( 27) -0.1145 ( 32)
 CRD  6=  -0.1241 (  2)  0.3018 (  4)  0.1924 (  6) -0.2315 (  8) -0.3891 ( 17)
          -0.4389 ( 18)  0.1575 ( 19)  0.1478 ( 20)  0.2992 ( 21) -0.2309 ( 22)
           0.2654 ( 24)  0.1397 ( 26) -0.1381 ( 30) -0.1471 ( 31)  0.1122 ( 32)
          -0.1090 ( 33) -0.1079 ( 34)  0.1120 ( 43)
 CRD  7=  -0.3516 ( 28)  0.3557 ( 29)  0.3689 ( 30) -0.3635 ( 31)  0.1693 ( 33)
          -0.1627 ( 34)  0.1312 ( 35) -0.1278 ( 36)  0.1131 ( 40) -0.1155 ( 41)
          -0.1242 ( 42)  0.1200 ( 44) -0.1494 ( 45) -0.2139 ( 47) -0.2327 ( 49)
          -0.1492 ( 50)  0.2336 ( 53) -0.2005 ( 59)
 CRD  8=   0.6083 (  8) -0.1209 ( 17) -0.1220 ( 22)  0.4556 ( 32)  0.2363 ( 35)
           0.2398 ( 36) -0.1734 ( 38) -0.2302 ( 42) -0.2325 ( 44)  0.1619 ( 51)
          -0.1614 ( 52)
 CRD  9=   0.1077 (  4) -0.6447 (  6)  0.1248 ( 23)  0.1278 ( 25) -0.3989 ( 27)
          -0.2063 ( 33) -0.2101 ( 34)  0.1232 ( 39)  0.2317 ( 40)  0.2293 ( 41)
          -0.1220 ( 46)  0.1238 ( 48)  0.1220 ( 58) -0.1238 ( 61)
 CRD 10=   0.2176 (  3)  0.3868 (  4) -0.1352 (  6)  0.1533 ( 11) -0.1828 ( 18)
          -0.1568 ( 21)  0.3396 ( 26)  0.4769 ( 27) -0.2948 ( 28) -0.2990 ( 29)
           0.1018 ( 30) -0.1061 ( 32)  0.2689 ( 39)
 CRD 11=  -0.1035 ( 12)  0.1152 ( 13) -0.1881 ( 19)  0.1884 ( 20) -0.1194 ( 23)
           0.1165 ( 25)  0.3540 ( 28) -0.3140 ( 29)  0.3275 ( 30) -0.3480 ( 31)
           0.2242 ( 35) -0.2231 ( 36) -0.1431 ( 40)  0.1510 ( 41) -0.1357 ( 42)
           0.1331 ( 44)  0.1202 ( 45)  0.1178 ( 50) -0.2300 ( 51) -0.2293 ( 52)
          -0.1003 ( 54) -0.1382 ( 55) -0.1042 ( 56)
 CRD 12=   0.1221 ( 19) -0.1237 ( 20)  0.3565 ( 23) -0.3570 ( 25) -0.1550 ( 29)
           0.2186 ( 30) -0.1900 ( 31) -0.3264 ( 33)  0.3186 ( 34) -0.1031 ( 45)
          -0.1770 ( 46) -0.1741 ( 48) -0.1192 ( 49)  0.2393 ( 54)  0.2084 ( 55)
           0.2457 ( 56)  0.1680 ( 59) -0.1662 ( 60)
 CRD 13=  -0.1002 (  2)  0.2070 (  8)  0.1180 (  9)  0.1149 ( 10)  0.1035 ( 14)
           0.1007 ( 15) -0.1878 ( 16) -0.1983 ( 17) -0.1017 ( 18) -0.1722 ( 27)
           0.1173 ( 28)  0.1240 ( 29)  0.3513 ( 30)  0.3539 ( 31) -0.5167 ( 32)
          -0.1322 ( 38) -0.1138 ( 39) -0.3434 ( 43)
 CRD 14=  -0.1340 ( 12)  0.1316 ( 13)  0.2806 ( 19) -0.2721 ( 20) -0.1267 ( 23)
           0.1227 ( 25)  0.2809 ( 28) -0.2923 ( 29)  0.1448 ( 33) -0.1474 ( 34)
          -0.2979 ( 35)  0.3057 ( 36) -0.1486 ( 40)  0.1484 ( 41) -0.1628 ( 45)
          -0.1592 ( 47) -0.1503 ( 49) -0.1619 ( 50)  0.2429 ( 51)  0.2421 ( 52)
           0.1427 ( 57) -0.1704 ( 59)  0.1526 ( 60)
 CRD 15=  -0.3423 (  3) -0.3689 (  4) -0.2078 (  5) -0.1183 (  6) -0.2106 (  7)
           0.1193 ( 11) -0.1427 ( 17)  0.2169 ( 21) -0.1682 ( 23)  0.2879 ( 24)
          -0.1584 ( 25) -0.2885 ( 26)  0.2832 ( 27) -0.2048 ( 28) -0.2068 ( 29)
          -0.1116 ( 32)  0.1658 ( 37)  0.2111 ( 39)
 CRD 16=  -0.1568 (  5)  0.1698 (  7) -0.3211 (  9)  0.3169 ( 10)  0.1574 ( 14)
          -0.1590 ( 15)  0.1429 ( 28) -0.1348 ( 29) -0.2637 ( 30)  0.2602 ( 31)
           0.3006 ( 35) -0.3028 ( 36)  0.1563 ( 42) -0.1582 ( 44) -0.1326 ( 45)
          -0.1129 ( 46) -0.1867 ( 47) -0.1128 ( 48) -0.1609 ( 49) -0.1325 ( 50)
           0.2488 ( 53) -0.1064 ( 59)
 CRD 17=  -0.2643 (  1)  0.2172 (  2)  0.1916 (  3)  0.1621 (  4) -0.1248 ( 10)
          -0.1563 ( 12) -0.1422 ( 13)  0.3493 ( 14)  0.3536 ( 15)  0.2627 ( 16)
           0.1904 ( 18) -0.2332 ( 26) -0.1350 ( 30) -0.1390 ( 31) -0.1904 ( 32)
          -0.1065 ( 34)  0.1518 ( 35)  0.1542 ( 36) -0.1114 ( 38)  0.1766 ( 42)
           0.1400 ( 43)  0.1800 ( 44) -0.1001 ( 52)
 CRD 18=  -0.4120 (  5)  0.4117 (  7)  0.1722 (  9) -0.1652 ( 10)  0.2112 ( 33)
          -0.2043 ( 34)  0.2562 ( 46)  0.2517 ( 48)  0.2101 ( 54)  0.2367 ( 55)
           0.2104 ( 56) -0.1334 ( 57)  0.2387 ( 58) -0.1219 ( 60)  0.2432 ( 61)
 CRD 19=  -0.1486 (  6) -0.4304 ( 11) -0.4571 ( 12) -0.4605 ( 13) -0.2060 ( 14)
          -0.2067 ( 15) -0.1957 ( 16)  0.1824 ( 27)  0.1623 ( 28)  0.1640 ( 29)
          -0.1744 ( 39) -0.1843 ( 40) -0.1858 ( 41)
 CRD 20=  -0.3247 (  1)  0.2387 (  2)  0.2117 (  3)  0.1882 (  4) -0.1826 (  8)
          -0.1940 (  9) -0.1921 ( 10)  0.1890 ( 11)  0.1462 ( 12)  0.1410 ( 13)
          -0.2922 ( 14) -0.2919 ( 15) -0.3553 ( 16) -0.1076 ( 17)  0.2132 ( 18)
          -0.2693 ( 26)  0.1111 ( 35)  0.1093 ( 36) -0.1151 ( 43)
 CRD 21=  -0.1478 (  2) -0.2156 (  3) -0.5643 (  9) -0.5580 ( 10)  0.1695 ( 16)
          -0.1664 ( 18)  0.1540 ( 22)  0.1267 ( 26) -0.2293 ( 38)  0.1352 ( 51)
          -0.1325 ( 52)  0.1249 ( 70) -0.1238 ( 72)
 CRD 22=  -0.3836 (  5) -0.3828 (  7)  0.5102 ( 11) -0.2278 ( 12) -0.2280 ( 13)
          -0.1660 ( 37) -0.2738 ( 39)  0.1315 ( 40)  0.1315 ( 41) -0.1367 ( 54)
           0.1366 ( 56)  0.1939 ( 64) -0.1941 ( 66)
 CRD 23=   0.5505 ( 14) -0.5452 ( 15) -0.2911 ( 42)  0.2882 ( 44)  0.2227 ( 49)
           0.2200 ( 68)  0.2200 ( 71)
 CRD 24=   0.5451 ( 12) -0.5471 ( 13) -0.2893 ( 40)  0.2904 ( 41)  0.2290 ( 55)
           0.2230 ( 62)  0.2238 ( 65)
 CRD 25=  -0.1133 (  9) -0.1120 ( 10)  0.3011 ( 14)  0.3119 ( 15) -0.6325 ( 16)
          -0.1574 ( 42)  0.3186 ( 43) -0.1632 ( 44) -0.1740 ( 45)  0.1745 ( 50)
           0.2064 ( 69) -0.1421 ( 70)  0.1441 ( 72) -0.2044 ( 73)
 CRD 26=  -0.1187 (  3)  0.4598 (  5)  0.4595 (  7)  0.4026 ( 11) -0.2212 ( 12)
          -0.2169 ( 13)  0.2134 ( 37) -0.1837 ( 39) -0.1124 ( 54)  0.1132 ( 56)
          -0.2033 ( 63)  0.2039 ( 67)
 CRD 27=   0.5469 (  1)  0.2550 (  2)  0.4221 (  3) -0.1503 (  4) -0.1739 ( 17)
           0.1299 ( 18)  0.1537 ( 19)  0.1675 ( 20) -0.1825 ( 21) -0.3512 ( 22)
          -0.2290 ( 38)  0.1067 ( 68)  0.1105 ( 69)  0.1006 ( 70) -0.1205 ( 71)
          -0.1167 ( 72) -0.1266 ( 73)
 CRD 28=  -0.3109 (  5)  0.3087 (  7)  0.2473 (  9) -0.2460 ( 10)  0.1382 ( 23)
          -0.1347 ( 25) -0.1591 ( 54) -0.1324 ( 55) -0.1596 ( 56) -0.1287 ( 58)
          -0.1132 ( 59) -0.1323 ( 61) -0.2422 ( 62) -0.2689 ( 63) -0.2694 ( 64)
          -0.2438 ( 65) -0.2706 ( 66) -0.2711 ( 67)
 CRD 29=   0.1711 (  5) -0.1713 (  7)  0.3054 (  9) -0.3078 ( 10) -0.1110 ( 19)
           0.1053 ( 20) -0.1831 ( 45) -0.1709 ( 49) -0.1832 ( 50)  0.1299 ( 62)
           0.1284 ( 63)  0.1283 ( 64)  0.1286 ( 65)  0.1271 ( 66)  0.1270 ( 67)
          -0.2731 ( 68) -0.2854 ( 69) -0.2853 ( 70) -0.2699 ( 71) -0.2822 ( 72)
          -0.2821 ( 73)
 CRD 30=  -0.2609 (  9)  0.2751 ( 10) -0.1729 ( 45)  0.1972 ( 46)  0.1376 ( 47)
           0.1815 ( 48) -0.1307 ( 49) -0.1759 ( 50) -0.1490 ( 51) -0.1646 ( 52)
          -0.2158 ( 53) -0.1173 ( 55)  0.1863 ( 57)  0.2817 ( 58)  0.2378 ( 59)
           0.2974 ( 61) -0.1348 ( 62) -0.1288 ( 65) -0.1499 ( 68) -0.1951 ( 69)
          -0.1921 ( 70) -0.1429 ( 71) -0.1881 ( 72) -0.1851 ( 73)
 CRD 31=   0.4775 (  2) -0.2089 ( 11) -0.1138 ( 12) -0.1126 ( 13) -0.1538 ( 16)
          -0.2754 ( 18) -0.1238 ( 19) -0.1235 ( 20)  0.1270 ( 22) -0.1409 ( 23)
          -0.1444 ( 25)  0.1867 ( 26) -0.1497 ( 27) -0.1153 ( 28) -0.1136 ( 29)
          -0.1138 ( 32)  0.1840 ( 33)  0.1916 ( 34)  0.1374 ( 35)  0.1289 ( 36)
           0.1614 ( 40)  0.1632 ( 41)  0.1267 ( 42)  0.1183 ( 44)  0.1017 ( 46)
          -0.1244 ( 48)  0.1053 ( 51) -0.1284 ( 58)  0.1075 ( 67)  0.1011 ( 73)
 CRD 32=  -0.2474 (  1)  0.1424 (  2)  0.2081 (  3) -0.1093 (  8) -0.1413 (  9)
          -0.1405 ( 10) -0.1313 ( 11)  0.2208 ( 14)  0.2216 ( 15)  0.2226 ( 16)
          -0.1209 ( 17) -0.1203 ( 18)  0.1370 ( 19)  0.1384 ( 20)  0.1373 ( 21)
          -0.1072 ( 23) -0.1068 ( 25) -0.1021 ( 27)  0.2039 ( 30)  0.2037 ( 31)
           0.2108 ( 32) -0.1655 ( 35) -0.1653 ( 36)  0.1819 ( 38)  0.1088 ( 40)
           0.1098 ( 41) -0.2230 ( 42) -0.2155 ( 43) -0.2224 ( 44) -0.1940 ( 51)
           0.1925 ( 52)
 CRD 33=  -0.1034 (  2) -0.4240 (  3)  0.3414 (  4)  0.2289 (  6) -0.1322 ( 11)
          -0.1946 ( 12) -0.1947 ( 13)  0.3351 ( 18) -0.1798 ( 21) -0.2097 ( 22)
          -0.1554 ( 26) -0.1580 ( 27) -0.1744 ( 28) -0.1745 ( 29) -0.1669 ( 37)
           0.2101 ( 39)  0.1659 ( 40)  0.1660 ( 41)
 CRD 34=   0.5082 (  2) -0.4854 (  3) -0.2581 (  6) -0.1769 (  8)  0.1417 ( 11)
           0.1260 ( 12)  0.1148 ( 13) -0.2191 ( 21) -0.1717 ( 22) -0.1048 ( 24)
           0.2055 ( 26)  0.1391 ( 27)  0.1201 ( 28)  0.1229 ( 29) -0.1256 ( 39)
          -0.1374 ( 40) -0.1459 ( 41) -0.1093 ( 43)
 CRD 35=   0.3061 (  5) -0.2983 (  7)  0.2085 (  9) -0.2095 ( 10) -0.1617 ( 12)
           0.1755 ( 13)  0.1283 ( 14) -0.1279 ( 15) -0.1339 ( 40)  0.1203 ( 41)
          -0.1379 ( 47) -0.1419 ( 49)  0.1069 ( 53)  0.1237 ( 55)  0.2895 ( 58)
           0.1082 ( 59) -0.1892 ( 60)  0.2959 ( 61) -0.2032 ( 63) -0.2022 ( 64)
          -0.2066 ( 66) -0.2056 ( 67)  0.1245 ( 69)  0.1248 ( 70)  0.1257 ( 72)
           0.1260 ( 73)
 CRD 36=   0.3348 (  1) -0.1157 (  2) -0.1426 (  4)  0.1535 (  6) -0.4748 (  8)
           0.2086 ( 14)  0.2036 ( 15) -0.1016 ( 16) -0.2119 ( 19) -0.2156 ( 20)
           0.1048 ( 22)  0.1033 ( 30)  0.1027 ( 31)  0.1269 ( 32)  0.1539 ( 35)
           0.1532 ( 36) -0.2701 ( 43)  0.1003 ( 45) -0.1021 ( 50)  0.1172 ( 51)
          -0.1187 ( 52) -0.1183 ( 68) -0.2169 ( 69)  0.1161 ( 71)  0.2199 ( 73)
 CRD 37=  -0.1001 (  1)  0.1997 (  2) -0.4228 (  4)  0.2601 (  6)  0.2083 (  8)
           0.2228 ( 11) -0.1937 ( 12) -0.1854 ( 13) -0.1400 ( 18)  0.1855 ( 23)
           0.1811 ( 25)  0.1291 ( 26) -0.1311 ( 37)  0.2650 ( 39)  0.1432 ( 54)
          -0.1424 ( 56)  0.1391 ( 62)  0.2775 ( 63) -0.1356 ( 65) -0.2828 ( 67)
 CRD 38=   0.1400 (  5) -0.1414 (  7)  0.1088 (  8) -0.2423 (  9)  0.1023 ( 10)
          -0.2118 ( 12)  0.2370 ( 13) -0.1863 ( 14)  0.2416 ( 15) -0.1153 ( 16)
          -0.1208 ( 19)  0.1179 ( 20) -0.1074 ( 25)  0.1003 ( 38) -0.1675 ( 40)
           0.1718 ( 41) -0.1014 ( 42)  0.2199 ( 44)  0.2462 ( 49)  0.1826 ( 52)
           0.2436 ( 55) -0.1954 ( 57) -0.1414 ( 59)  0.1177 ( 62) -0.1442 ( 63)
          -0.1251 ( 64)  0.1283 ( 65) -0.1336 ( 66) -0.1145 ( 67) -0.2318 ( 69)
          -0.1256 ( 70)  0.1319 ( 71) -0.1515 ( 72)
 CRD 39=  -0.1805 (  1) -0.3254 (  8)  0.1473 (  9)  0.2619 ( 10) -0.1096 ( 12)
          -0.1489 ( 14)  0.3323 ( 16)  0.1505 ( 22)  0.1033 ( 31)  0.1094 ( 36)
          -0.2925 ( 38) -0.2263 ( 42)  0.1367 ( 43) -0.1182 ( 44) -0.1472 ( 45)
           0.1570 ( 50)  0.2193 ( 51) -0.1358 ( 52)  0.1465 ( 68)  0.2211 ( 69)
          -0.3135 ( 73)
 CRD 40=   0.1519 (  2) -0.1062 (  3) -0.1730 (  5)  0.4391 (  6) -0.1748 (  7)
          -0.2825 ( 11) -0.1674 ( 21)  0.1306 ( 23) -0.1069 ( 24)  0.1264 ( 25)
           0.1932 ( 26) -0.1065 ( 28) -0.1055 ( 29) -0.1840 ( 33) -0.1838 ( 34)
           0.2482 ( 37)  0.1560 ( 40)  0.1584 ( 41) -0.2129 ( 46)  0.2156 ( 48)
          -0.1301 ( 54)  0.1325 ( 56)  0.2188 ( 58) -0.2097 ( 61) -0.1740 ( 63)
           0.1720 ( 67)
 CRD 41=  -0.1895 ( 12)  0.1857 ( 13)  0.2449 ( 14) -0.2436 ( 15) -0.1059 ( 28)
           0.1110 ( 29)  0.1393 ( 30) -0.1412 ( 31) -0.1121 ( 35)  0.1084 ( 36)
          -0.1432 ( 40)  0.1371 ( 41)  0.1832 ( 42) -0.1809 ( 44)  0.1321 ( 45)
           0.1005 ( 46)  0.1985 ( 47) -0.1894 ( 49)  0.1292 ( 50) -0.2286 ( 53)
           0.1670 ( 55) -0.1635 ( 58)  0.2165 ( 60) -0.1564 ( 61)  0.2068 ( 62)
           0.2108 ( 65) -0.2583 ( 68) -0.2604 ( 71)
 CRD 42=  -0.2476 (  1)  0.1104 (  4)  0.1320 (  9)  0.1266 ( 10)  0.1128 ( 11)
           0.1153 ( 14)  0.1198 ( 15) -0.2330 ( 16)  0.1864 ( 17) -0.1070 ( 24)
          -0.1004 ( 27)  0.1946 ( 32)  0.1134 ( 37) -0.1949 ( 38) -0.1752 ( 43)
           0.1778 ( 45) -0.1829 ( 50) -0.1803 ( 64)  0.1797 ( 66)  0.1876 ( 68)
           0.3647 ( 70) -0.1799 ( 71) -0.3635 ( 72)
 CRD 43=   0.1344 (  1)  0.2375 (  4) -0.1488 (  5) -0.1533 (  7)  0.2118 ( 11)
          -0.1114 ( 12) -0.1147 ( 13)  0.1155 ( 16) -0.2076 ( 24) -0.1924 ( 27)
           0.2218 ( 37)  0.1022 ( 38)  0.1672 ( 39)  0.1703 ( 54) -0.1659 ( 56)
          -0.1802 ( 62) -0.3458 ( 64)  0.1741 ( 65)  0.3447 ( 66) -0.1844 ( 70)
           0.1840 ( 72)
 CRD 44=   0.1374 (  5) -0.1370 (  7) -0.1983 (  9)  0.2011 ( 10)  0.1354 ( 12)
          -0.1357 ( 13)  0.1254 ( 14) -0.1246 ( 15) -0.1472 ( 19)  0.1468 ( 20)
           0.1142 ( 28) -0.1140 ( 29)  0.1293 ( 30) -0.1296 ( 31)  0.1123 ( 33)
          -0.1126 ( 34) -0.1470 ( 35)  0.1473 ( 36) -0.1002 ( 41)  0.2341 ( 45)
          -0.1686 ( 47)  0.2332 ( 50)  0.2231 ( 51)  0.2200 ( 52)  0.1622 ( 54)
           0.1619 ( 56) -0.2002 ( 57) -0.1602 ( 59) -0.2077 ( 60) -0.2056 ( 62)
          -0.2061 ( 65) -0.2284 ( 68) -0.2305 ( 71)
 CRD 45=  -0.1506 (  5)  0.1463 (  7) -0.1352 ( 23)  0.1384 ( 25) -0.1041 ( 33)
           0.1030 ( 34)  0.1065 ( 45) -0.2641 ( 46) -0.2585 ( 48)  0.1061 ( 50)
           0.2292 ( 51)  0.2268 ( 52)  0.1177 ( 53) -0.2275 ( 54) -0.2288 ( 56)
           0.1810 ( 58)  0.4081 ( 59) -0.3557 ( 60)  0.1754 ( 61)  0.1640 ( 62)
           0.1669 ( 65)

 THE DETERMINANT OF THE G MATRIX IS 10**(   -21)


                     --------------------
                     INTERNAL COORDINATES
                     --------------------

                 - - ATOMS - -         COORDINATE      COORDINATE
 NO.   TYPE    I  J  K  L  M  N        (BOHR,RAD)       (ANG,DEG)
 ----------------------------------------------------------------
   1 STRETCH   1  5                     2.6989854       1.4282416
   2 STRETCH   1  2                     2.5822719       1.3664795
   3 STRETCH   2  4                     2.2960109       1.2149967
   4 STRETCH   2  3                     2.8580135       1.5123957
   5 STRETCH   3  8                     2.0949150       1.1085814
   6 STRETCH   3  6                     2.8554301       1.5110286
   7 STRETCH   3  9                     2.0950075       1.1086303
   8 STRETCH   5  7                     2.8665272       1.5169010
   9 STRETCH   5 11                     2.0904715       1.1062300
  10 STRETCH   5 10                     2.0904020       1.1061932
  11 STRETCH   6 14                     2.0744980       1.0977771
  12 STRETCH   6 13                     2.0745795       1.0978202
  13 STRETCH   6 12                     2.0746774       1.0978721
  14 STRETCH   7 16                     2.0744928       1.0977744
  15 STRETCH   7 15                     2.0747094       1.0978890
  16 STRETCH   7 17                     2.0741218       1.0975780
  17 BEND      1  5  7                  1.8582094     106.4675554
  18 BEND      1  2  4                  2.0791906     119.1288438
  19 BEND      1  5 10                  1.9118358     109.5401208
  20 BEND      1  5 11                  1.9166674     109.8169501
  21 BEND      1  2  3                  1.9545351     111.9866128
  22 BEND      2  1  5                  2.0684317     118.5124038
  23 BEND      2  3  9                  1.8988734     108.7974291
  24 BEND      2  3  6                  1.9687408     112.8005385
  25 BEND      2  3  8                  1.8946191     108.5536758
  26 BEND      3  2  4                  2.2494563     128.8843520
  27 BEND      3  6 14                  1.9316746     110.6768036
  28 BEND      3  6 12                  1.9520707     111.8454103
  29 BEND      3  6 13                  1.9513520     111.8042323
  30 BEND      5  7 15                  1.9573783     112.1495133
  31 BEND      5  7 16                  1.9575122     112.1571877
  32 BEND      5  7 17                  1.9181421     109.9014485
  33 BEND      6  3  9                  1.9247332     110.2790889
  34 BEND      6  3  8                  1.9254995     110.3229954
  35 BEND      7  5 10                  1.9488666     111.6618286
  36 BEND      7  5 11                  1.9460267     111.4991171
  37 BEND      8  3  9                  1.8470505     105.8281964
  38 BEND     10  5 11                  1.8822863     107.8470602
  39 BEND     12  6 13                  1.8712466     107.2145345
  40 BEND     12  6 14                  1.8766312     107.5230497
  41 BEND     13  6 14                  1.8771631     107.5535216
  42 BEND     15  7 17                  1.8773148     107.5622175
  43 BEND     15  7 16                  1.8724622     107.2841786
  44 BEND     16  7 17                  1.8773507     107.5642740
  45 TORSION   1  5  7 15              -1.0550152     -60.4479209
  46 TORSION   1  2  3  9              -0.9636076     -55.2106462
  47 TORSION   1  2  3  6              -3.1051263    -177.9106308
  48 TORSION   1  2  3  8               1.0386079      59.5078472
  49 TORSION   1  5  7 17               3.1408714     179.9586775
  50 TORSION   1  5  7 16               1.0534409      60.3577167
  51 TORSION   2  1  5 11              -1.0092107     -57.8235153
  52 TORSION   2  1  5 10               1.0549259      60.4427995
  53 TORSION   2  1  5  7              -3.1183799    -178.6700043
  54 TORSION   2  3  6 13               1.0483945      60.0685792
  55 TORSION   2  3  6 14               3.1406939     179.9485030
  56 TORSION   2  3  6 12              -1.0503873     -60.1827583
  57 TORSION   3  2  1  5               3.1407636     179.9524994
  58 TORSION   4  2  3  8              -2.1001415    -120.3292448
  59 TORSION   4  2  3  6               0.0393097       2.2522772
  60 TORSION   4  2  1  5              -0.0033627      -0.1926705
  61 TORSION   4  2  3  9               2.1808284     124.9522617
  62 TORSION   8  3  6 14              -1.0204252     -58.4660565
  63 TORSION   8  3  6 13              -3.1127246    -178.3459803
  64 TORSION   8  3  6 12               1.0716790      61.4026822
  65 TORSION   9  3  6 14               1.0137012      58.0807982
  66 TORSION   9  3  6 13              -1.0785982     -61.7991256
  67 TORSION   9  3  6 12               3.1058053     177.9495369
  68 TORSION  10  5  7 17              -1.0563503     -60.5244134
  69 TORSION  10  5  7 16               3.1394045     179.8746258
  70 TORSION  10  5  7 15               1.0309483      59.0689883
  71 TORSION  11  5  7 17               1.0506432      60.1974206
  72 TORSION  11  5  7 16              -1.0367874     -59.4035402
  73 TORSION  11  5  7 15               3.1379418     179.7908223

     ------------------------------------------
     THE POINT GROUP IS C1 , NAXIS= 1, ORDER= 1
     ------------------------------------------

     DIMENSIONS OF THE SYMMETRY SUBSPACES ARE
 A   =  193

 ..... DONE SETTING UP THE RUN .....
 STEP CPU TIME =     0.01 TOTAL CPU TIME =        0.0 (    0.0 MIN)
 TOTAL WALL CLOCK TIME=        0.0 SECONDS, CPU UTILIZATION IS  50.00%


          -----------------------------
          STATIONARY POINT LOCATION RUN
          -----------------------------

 OBTAINING INITIAL HESSIAN, HESS=GUESS   
 DIAGONAL GUESS HESSIAN IN INTERNAL COORDS IS
     1  0.3613     2  0.4074     3  0.5469     4  0.3800     5  0.3341
     6  0.3810     7  0.3340     8  0.3766     9  0.3356    10  0.3356
    11  0.3412    12  0.3411    13  0.3411    14  0.3412    15  0.3411
    16  0.3413    17  0.2439    18  0.2569    19  0.2185    20  0.2185
    21  0.2485    22  0.2419    23  0.2240    24  0.2511    25  0.2240
    26  0.2595    27  0.2247    28  0.2247    29  0.2247    30  0.2244
    31  0.2244    32  0.2244    33  0.2241    34  0.2241    35  0.2239
    36  0.2239    37  0.2015    38  0.2018    39  0.2026    40  0.2026
    41  0.2026    42  0.2026    43  0.2026    44  0.2026    45  0.2500
    46  0.2500    47  0.2500    48  0.2500    49  0.2500    50  0.2500
    51  0.2500    52  0.2500    53  0.2500    54  0.2500    55  0.2500
    56  0.2500    57  0.2500    58  0.2500    59  0.2500    60  0.2500
    61  0.2500    62  0.2500    63  0.2500    64  0.2500    65  0.2500
    66  0.2500    67  0.2500    68  0.2500    69  0.2500    70  0.2500
    71  0.2500    72  0.2500    73  0.2500
 TRANSFORMING HESSIAN TO SYMMETRY COORDINATES

          PARAMETERS CONTROLLING GEOMETRY SEARCH ARE
          METHOD =QA                  UPHESS =BFGS    
          NNEG   =         0          NFRZ   =         3
          NSTEP  =        50          IFOLOW =         1
          HESS   =GUESS               RESTAR =         F
          IHREP  =         0          HSSEND =         F
          NPRT   =         0          NPUN   =         0
          OPTTOL = 5.000E-04          RMIN   = 1.500E-03
          RMAX   = 1.000E-01          RLIM   = 7.000E-02
          DXMAX  = 3.000E-01          PURIFY =         F
          MOVIE  =         F          TRUPD  =         T
          TRMAX  = 5.000E-01          TRMIN  = 5.000E-02
          ITBMAT =         5          STPT   =         F
          STSTEP = 1.000E-02          PROJCT=          F
          FROZEN COORD(S)=   1   2   3


      ***** EQUILIBRIUM GEOMETRY LOCATED *****
            (SUBJECT TO   3 CONSTRAINT(S))
 COORDINATES OF ALL ATOMS ARE (ANGS)
   ATOM   CHARGE       X              Y              Z
 ------------------------------------------------------------
 O           8.0   4.4938770942   1.1464668252   1.2316753181
 C           6.0   3.3411089239   1.7729109000   1.0962976155
 C           6.0   2.1738700681   0.8214713710   1.1819704068
 O           8.0   3.2563334173   2.9497455501   0.9317397468
 C           6.0   5.6998310343   1.9202418681   1.1835263542
 C           6.0   0.8120367538   1.4780842481   0.9867919697
 C           6.0   6.8755319272   0.9787684564   1.3291830119
 H           1.0   2.2360082987   0.3372355329   2.1520079650
 H           1.0   2.3418072408   0.0441433757   0.4433040451
 H           1.0   5.6764737936   2.6459446287   1.9855350147
 H           1.0   5.7352246134   2.4492410686   0.2408956110
 H           1.0   0.6253884195   2.2359669999   1.7399273737
 H           1.0   0.7329959840   1.9449752182   0.0108151965
 H           1.0   0.0327908738   0.7266002654   1.0646482590
 H           1.0   6.8393524611   0.4507232087   2.2763881343
 H           1.0   6.8957920318   0.2515899857   0.5241127663
 H           1.0   7.7957785159   1.5541696640   1.2934677123


                     --------------------
                     INTERNAL COORDINATES
                     --------------------

                 - - ATOMS - -         COORDINATE      COORDINATE
 NO.   TYPE    I  J  K  L  M  N        (BOHR,RAD)       (ANG,DEG)
 ----------------------------------------------------------------
   1 STRETCH   1  5                     2.7092180       1.4336565
   2 STRETCH   1  2                     2.4924574       1.3189518
   3 STRETCH   2  4                     2.2512387       1.1913043
   4 STRETCH   2  3                     2.8503079       1.5083181
   5 STRETCH   3  8                     2.0521749       1.0859643
   6 STRETCH   3  6                     2.8807167       1.5244097
   7 STRETCH   3  9                     2.0510882       1.0853892
   8 STRETCH   5  7                     2.8595873       1.5132285
   9 STRETCH   5 11                     2.0437416       1.0815015
  10 STRETCH   5 10                     2.0444075       1.0818539
  11 STRETCH   6 14                     2.0510396       1.0853635
  12 STRETCH   6 13                     2.0499523       1.0847881
  13 STRETCH   6 12                     2.0496662       1.0846367
  14 STRETCH   7 16                     2.0504503       1.0850517
  15 STRETCH   7 15                     2.0504513       1.0850522
  16 STRETCH   7 17                     2.0520857       1.0859171
  17 BEND      1  5  7                  1.8907492     108.3319467
  18 BEND      1  2  4                  2.1478546     123.0630016
  19 BEND      1  5 10                  1.8954541     108.6015174
  20 BEND      1  5 11                  1.8973670     108.7111228
  21 BEND      1  2  3                  1.9508100     111.7731779
  22 BEND      2  1  5                  2.0662120     118.3852267
  23 BEND      2  3  9                  1.8685429     107.0596226
  24 BEND      2  3  6                  1.9958387     114.3531348
  25 BEND      2  3  8                  1.8626527     106.7221369
  26 BEND      3  2  4                  2.1845124     125.1633397
  27 BEND      3  6 14                  1.9113130     109.5101656
  28 BEND      3  6 12                  1.9452877     111.4567769
  29 BEND      3  6 13                  1.9451503     111.4489020
  30 BEND      5  7 15                  1.9400277     111.1553967
  31 BEND      5  7 16                  1.9391164     111.1031870
  32 BEND      5  7 17                  1.9024223     109.0007661
  33 BEND      6  3  9                  1.9386019     111.0737052
  34 BEND      6  3  8                  1.9364395     110.9498113
  35 BEND      7  5 10                  1.9420252     111.2698501
  36 BEND      7  5 11                  1.9420562     111.2716245
  37 BEND      8  3  9                  1.8542851     106.2427080
  38 BEND     10  5 11                  1.8951910     108.5864442
  39 BEND     12  6 13                  1.8875049     108.1460635
  40 BEND     12  6 14                  1.8864502     108.0856320
  41 BEND     13  6 14                  1.8862253     108.0727488
  42 BEND     15  7 17                  1.8910781     108.3507951
  43 BEND     15  7 16                  1.8988294     108.7949094
  44 BEND     16  7 17                  1.8911321     108.3538855
  45 TORSION   1  5  7 15              -1.0590319     -60.6780597
  46 TORSION   1  2  3  9              -0.9528615     -54.5949431
  47 TORSION   1  2  3  6              -3.1081217    -178.0822549
  48 TORSION   1  2  3  8               1.0269368      58.8391457
  49 TORSION   1  5  7 17               3.1409317     179.9621287
  50 TORSION   1  5  7 16               1.0582013      60.6304701
  51 TORSION   2  1  5 11              -1.0064595     -57.6658823
  52 TORSION   2  1  5 10               1.0525675      60.3076783
  53 TORSION   2  1  5  7              -3.1191213    -178.7124851
  54 TORSION   2  3  6 13               1.0566583      60.5420613
  55 TORSION   2  3  6 14              -3.1404074    -179.9320872
  56 TORSION   2  3  6 12              -1.0539211     -60.3852297
  57 TORSION   3  2  1  5              -3.1329821    -179.5066489
  58 TORSION   4  2  3  8              -2.1103517    -120.9142435
  59 TORSION   4  2  3  6               0.0377751       2.1643559
  60 TORSION   4  2  1  5               0.0044120       0.2527897
  61 TORSION   4  2  3  9               2.1930353     125.6516677
  62 TORSION   8  3  6 14              -1.0326994     -59.1693198
  63 TORSION   8  3  6 13              -3.1188191    -178.6951713
  64 TORSION   8  3  6 12               1.0537868      60.3775377
  65 TORSION   9  3  6 14               1.0256940      58.7679365
  66 TORSION   9  3  6 13              -1.0604257     -60.7579150
  67 TORSION   9  3  6 12               3.1121803     178.3147940
  68 TORSION  10  5  7 17              -1.0598450     -60.7246455
  69 TORSION  10  5  7 16               3.1406100     179.9436959
  70 TORSION  10  5  7 15               1.0233767      58.6351661
  71 TORSION  11  5  7 17               1.0561531      60.5131151
  72 TORSION  11  5  7 16              -1.0265772     -58.8185435
  73 TORSION  11  5  7 15               3.1393748     179.8729267

          INTERNUCLEAR DISTANCES (ANGS.)


 =====================================================
   GAMESS/COSab RESULTS
 =====================================================

   Dielectric Constant                  = INFTY
   Basic Grid Size                      =                 1082
   Number of Segments                   =                   92
   Number of Segments located on spheres=                  263
   Number of Segments of the cavity     =                  635
   Solvent Radius (rsolv)               = 1.40
   Outlying Charge Error Method         = double cavity

 =====================================================

  Total solvated Energy (a.u.)          =  -345.0132791471
  Total Energy corrected (a.u.)         =  -345.0129618664

  Outlying charge effect (a.u.)         =     0.0003172808
  Outlying charge effect (kcal/mol)     =     0.1990968620

  Dielectric Energy (a.u.)              =    -0.0126163437
  Dielectric energy corr. (a.u.)        =    -0.0122990629

  Sum of polarization charges           =     0.0230951973
  Sum of polarization charges(cor.)     =    -0.0230951973

  Total surface area of cavity (A**2)   =  151.40
  Total volume of cavity (A**3)         =  138.04

 =====================================================
 NPS=                   635
NR.  ATOM  (X, Y, Z)(a.u.)                  CHARGE(e)  AREA(A**2) SIGMA(e/A**2)
   1   1   8.690499  -0.350512   0.280582   0.002041   0.137436   0.014849
   2   1   8.485245  -0.672343   3.910412   0.004842   0.274871   0.017616
   3   1   8.772176  -0.944958   3.224774   0.002186   0.171795   0.012722
   4   1   8.900574  -0.991809   1.677183   0.002431   0.137436   0.017686
   5   1   8.608548  -1.070741   2.594646   0.002632   0.206154   0.012768
   6   1   8.555093  -0.074961   4.680502   0.003427   0.206154   0.016625
   7   1   8.668393   1.125807   5.401694   0.001250   0.103077   0.012129
   8   1   8.965646   0.645752  -0.505819   0.001271   0.103077   0.012330
   9   1   8.706106  -0.779082   0.970163   0.003626   0.206154   0.017588
  10   1   8.149473   1.449072   5.479101   0.001589   0.137436   0.011562
  11   1   8.651773   1.845304   5.558001   0.001293   0.137436   0.009406
  12   1   8.452989   0.813065  -0.627359   0.001077   0.103077   0.010450
  13   1   8.691002   0.150094  -0.213979   0.001986   0.137436   0.014449
  14   1   8.311143  -1.053462   1.922942   0.002396   0.137436   0.017432
  15   1   8.501048   0.595001   5.172681   0.002103   0.137436   0.015301
  16   1   8.789452   1.292866  -0.789055   0.000749   0.103077   0.007266
  17   2   6.731937   2.572380   5.746508  -0.000753   0.139368  -0.005400
  18   2   6.588542   4.149788  -1.611995  -0.000160   0.139368  -0.001149
  19   2   6.999201   1.691181  -1.254225  -0.001400   0.185824  -0.007535
  20   2   5.513972   4.872008   5.437553  -0.000714   0.232280  -0.003075
  21   2   6.677109   4.951582   5.475837  -0.001131   0.278737  -0.004059
  22   2   7.267850   4.128893  -1.501510  -0.000314   0.139368  -0.002256
  23   2   5.110456   4.281767   5.531271  -0.001165   0.185824  -0.006271
  24   2   5.985566   3.596109   5.828839  -0.002529   0.278737  -0.009073
  25   2   7.023969   3.450042   5.782485  -0.002882   0.371649  -0.007753
  26   2   7.357300   2.504287  -1.460947  -0.001916   0.232280  -0.008249
  27   2   6.871281   3.422120  -1.665721  -0.001750   0.278737  -0.006279
  28   2   5.664875   3.500818  -1.648588  -0.002474   0.371649  -0.006658
  29   2   6.376784   2.498674  -1.610016  -0.002692   0.325193  -0.008279
  30   2   6.281242   4.342064   5.718561  -0.001371   0.232280  -0.005902
  31   3   2.232435  -1.691736   2.725936  -0.000012   0.232280  -0.000052
  32   3   5.757049  -1.831525   2.571752   0.000405   0.325193   0.001246
  33   3   4.192427   1.657927  -1.543429  -0.000190   0.092912  -0.002050
  34   3   3.793446   1.174775  -1.513760  -0.000122   0.046456  -0.002635
  35   3   5.511840  -1.752877   3.412170   0.000130   0.278737   0.000465
  36   3   2.841460  -1.817405   3.384634   0.000083   0.325193   0.000254
  37   3   4.126354   2.811400   5.797129  -0.000395   0.185824  -0.002123
  38   3   1.998930  -1.131114   3.856893  -0.000199   0.232280  -0.000858
  39   3   3.269737  -2.131623   2.333176   0.000273   0.325193   0.000840
  40   3   4.648517  -2.161286   2.681978   0.000597   0.278737   0.002141
  41   3   2.345110  -1.760688   1.786137   0.000014   0.278737   0.000051
  42   3   4.541577   1.471022  -1.520016  -0.000162   0.046456  -0.003478
  43   3   3.872955  -2.107343   3.147754   0.000468   0.278737   0.001680
  44   3   3.532429   2.655365   5.802402  -0.000098   0.046456  -0.002109
  45   3   2.131866  -1.437531   1.033717  -0.000130   0.139368  -0.000929
  46   4   5.829516   8.774396   1.293360   0.005187   0.377948   0.013724
  47   4   4.326513   7.560686   3.571938   0.002683   0.137436   0.019519
  48   4   6.260194   6.691506  -1.289654   0.004493   0.343589   0.013077
  49   4   7.078533   7.552531   4.168092   0.002904   0.171795   0.016905
  50   4   5.174922   8.627203   2.295661   0.005720   0.412307   0.013873
  51   4   4.465798   8.054031   3.012370   0.005343   0.343589   0.015552
  52   4   4.840920   8.441872   0.974539   0.004934   0.343589   0.014360
  53   4   3.996134   7.787680   0.755421   0.005867   0.343589   0.017076
  54   4   5.971460   8.392909   0.152508   0.005682   0.412307   0.013782
  55   4   6.338222   7.682615  -0.706072   0.005159   0.377948   0.013650
  56   4   6.976035   8.627490   1.008629   0.005476   0.377948   0.014489
  57   4   7.883154   8.193013   0.915138   0.005985   0.309230   0.019356
  58   4   6.557884   8.755355   2.291305   0.006304   0.446666   0.014114
  59   4   6.972074   8.341520   3.256300   0.004579   0.309230   0.014808
  60   4   4.358762   7.416499  -0.226539   0.004923   0.274871   0.017909
  61   4   5.187709   6.947268  -1.022505   0.005305   0.343589   0.015441
  62   4   7.239931   7.019364  -0.940366   0.004346   0.274871   0.015810
  63   4   7.773791   7.612785  -0.184439   0.003254   0.206154   0.015784
  64   4   7.698440   8.069681   3.157396   0.003421   0.206154   0.016596
  65   4   6.318023   7.779503   4.142818   0.004650   0.343589   0.013534
  66   4   5.170066   7.636619   4.072417   0.005299   0.377948   0.014020
  67   4   5.864257   5.705010  -1.474041   0.003287   0.274871   0.011960
  68   4   6.963593   5.955096  -1.363905   0.003362   0.274871   0.012231
  69   4   6.671021   6.807632   4.723099   0.002958   0.240512   0.012300
  70   4   4.887381   6.723035   4.525089   0.003365   0.240512   0.013991
  71   4   4.034314   8.033845   1.914385   0.007852   0.412307   0.019045
  72   4   5.083047   7.892929  -0.249773   0.005397   0.377948   0.014280
  73   4   7.146131   8.086366  -0.047167   0.004034   0.274871   0.014677
  74   4   7.752768   8.391380   2.026753   0.006383   0.377948   0.016887
  75   4   5.739280   8.383152   3.342786   0.005173   0.377948   0.013686
  76   4   5.179903   6.023253  -1.307640   0.002420   0.171795   0.014087
  77   4   5.766021   6.698631   4.785660   0.004170   0.343589   0.012137
  78   5  10.038681   2.787489   5.847649  -0.000200   0.139368  -0.001433
  79   5  13.239880   6.489409   2.314325  -0.001036   0.278737  -0.003718
  80   5  10.794727   2.616797  -1.404840  -0.000057   0.139368  -0.000409
  81   5  10.280848   1.912189  -1.094725  -0.000259   0.139368  -0.001859
  82   5  10.738418   7.406925   2.144274   0.000097   0.139368   0.000693
  83   5  12.526893   6.931379   2.778844  -0.000642   0.232280  -0.002764
  84   5   9.843016   3.500450   5.898021  -0.000422   0.185824  -0.002270
  85   5  13.239608   6.299403   3.265318  -0.000529   0.185824  -0.002848
  86   5  12.493708   6.945776   1.675988  -0.000445   0.278737  -0.001596
  87   5  10.943310   7.312189   1.407798   0.000022   0.232280   0.000095
  88   5  13.175949   6.367363   1.236047  -0.000771   0.325193  -0.002371
  89   5  10.029772   2.600406  -1.323962  -0.000486   0.185824  -0.002616
  90   5  11.672626   7.299086   2.226269  -0.000131   0.278737  -0.000471
  91   5  13.337760   5.847930   3.901415  -0.000400   0.092912  -0.004310
  92   5  10.640826   3.368415   6.004766  -0.000158   0.139368  -0.001137
  93   5  13.370943   5.794368   0.552729  -0.000605   0.139368  -0.004344
  94   5  11.776235   7.119410   1.192883  -0.000285   0.185824  -0.001534
  95   6  -1.318503   2.465071  -0.592226   0.001756   0.418105   0.004200
  96   6   0.529037   1.838068   5.380578   0.000695   0.325193   0.002138
  97   6  -0.255131   5.968696   0.866044   0.001370   0.418105   0.003277
  98   6  -2.057388   3.138276   2.988697   0.001052   0.371649   0.002830
  99   6   0.840250  -0.234937  -0.287625   0.000335   0.278737   0.001200
 100   6   1.672108   1.371583  -1.634443   0.000344   0.232280   0.001481
 101   6   0.999997   0.582133  -1.153489   0.000640   0.325193   0.001969
 102   6  -0.190845   1.107831  -1.045042   0.001192   0.325193   0.003667
 103   6  -1.592563   3.786292   3.740718   0.001180   0.371649   0.003176
 104   6  -0.046580   6.224807   1.773980   0.000768   0.278737   0.002757
 105   6   0.417654   2.719115   5.474652   0.000362   0.185824   0.001950
 106   6  -0.421945   1.980455  -1.265086   0.000826   0.232280   0.003558
 107   6  -0.997358   1.400531  -0.571286   0.000964   0.278737   0.003457
 108   6   0.971979   6.397938   0.878103   0.001169   0.278737   0.004193
 109   6  -1.201029   5.391009   1.636264   0.000995   0.464561   0.002143
 110   6  -1.941668   4.197378   2.342749   0.000926   0.464561   0.001994
 111   6  -1.441561   2.677237   4.191484   0.001539   0.371649   0.004140
 112   6  -0.507670   1.853463   4.902945   0.001353   0.371649   0.003640
 113   6   0.378537   0.757101   4.831626   0.000651   0.418105   0.001558
 114   6  -1.156564   4.998340   0.388446   0.000763   0.418105   0.001825
 115   6  -1.563212   3.695577  -0.103462   0.001040   0.418105   0.002489
 116   6  -1.971669   2.765948   0.454069   0.001158   0.464561   0.002493
 117   6  -2.232063   3.096559   1.794449   0.000589   0.325193   0.001812
 118   6   0.747630   1.381619  -1.551753   0.000572   0.232280   0.002461
 119   6   0.110197   0.270234  -0.562231   0.000581   0.232280   0.002501
 120   6  -1.440220   4.992294   2.638687   0.000470   0.278737   0.001686
 121   6   1.124912   6.540963   1.599109   0.000526   0.139368   0.003775
 122   6   1.306771   2.601506   5.632467   0.000353   0.232280   0.001519
 123   6  -0.650067   2.858879   4.948172   0.001202   0.325193   0.003696
 124   6  -1.887143   4.189108   1.072454   0.000679   0.464561   0.001463
 125   7  15.970935   0.846625   0.411916   0.001562   0.418105   0.003736
 126   7  14.003996   3.553244   5.730402   0.000493   0.325193   0.001517
 127   7  14.322915  -1.685035   2.364680   0.000781   0.325193   0.002403
 128   7  16.339299   1.104288   4.102456   0.000826   0.371649   0.002223
 129   7  14.470781   4.119614  -0.123939   0.000011   0.278737   0.000039
 130   7  13.368109   2.274205  -1.224943   0.000133   0.185824   0.000715
 131   7  14.189984   2.925726  -0.907733   0.000463   0.325193   0.001424
 132   7  15.217486   2.217804  -0.521326   0.001028   0.325193   0.003162
 133   7  15.696366   0.814686   4.941677   0.001029   0.371649   0.002769
 134   7  13.813660  -1.725958   3.420631   0.001062   0.371649   0.002859
 135   7  11.260545  -1.310035   3.651978   0.000376   0.185824   0.002026
 136   7  13.901254   2.734598   6.072108   0.000356   0.185824   0.001914
 137   7  15.249755   1.290765  -0.467885   0.000697   0.232280   0.002999
 138   7  15.906743   1.913817   0.105650   0.000804   0.278737   0.002883
 139   7  11.333953  -1.545310   2.594634   0.000841   0.232280   0.003622
 140   7  13.089504  -1.924767   2.682417   0.001402   0.371649   0.003773
 141   7  15.053987  -1.213607   3.319789   0.000844   0.464561   0.001817
 142   7  16.014089  -0.048262   3.758648   0.000711   0.464561   0.001530
 143   7  15.784748   2.012834   5.054042   0.001307   0.371649   0.003518
 144   7  15.032455   3.183721   5.400469   0.001120   0.371649   0.003015
 145   7  14.450640   4.301002   4.991664   0.000387   0.371649   0.001042
 146   7  15.275353  -1.122901   2.023096   0.000656   0.418105   0.001568
 147   7  15.894857  -0.211490   1.241085   0.000826   0.418105   0.001976
 148   7  16.478753   0.733370   1.570009   0.000889   0.464561   0.001913
 149   7  16.582560   0.759774   2.970814   0.000396   0.325193   0.001216
 150   7  14.269528   2.010759  -1.041863   0.000447   0.232280   0.001924
 151   7  15.006857   3.238144  -0.369194   0.000566   0.278737   0.002031
 152   7  15.325696  -0.599923   4.197630   0.000368   0.278737   0.001321
 153   7  12.055740  -1.732839   3.268231   0.000945   0.278737   0.003390
 154   7  13.057083   3.075838   6.086206   0.000160   0.232280   0.000688
 155   7  14.933381   2.228270   5.732859   0.001013   0.325193   0.003115
 156   7  14.275882   4.973436   4.208775  -0.000168   0.092912  -0.001812
 157   7  12.089703  -1.814224   2.299725   0.000627   0.232280   0.002700
 158   7  16.068035  -0.346967   2.564339   0.000412   0.418105   0.000985
 159   8   4.329102  -0.483217   6.250482  -0.004401   0.549575  -0.008008
 160   8   2.958071   0.504103   6.166990  -0.001762   0.294415  -0.005985
 161   8   4.550675   1.456791   6.359687  -0.002176   0.353299  -0.006159
 162   8   4.946206  -1.594378   4.798347  -0.001734   0.372926  -0.004650
 163   8   2.934372  -1.217329   5.030397  -0.001685   0.353299  -0.004768
 164   8   3.757506   0.927884   6.460810  -0.002953   0.451437  -0.006540
 165   8   5.315508   0.419633   6.257483  -0.003747   0.510320  -0.007343
 166   8   5.533088  -0.875854   5.493446  -0.003763   0.510320  -0.007373
 167   8   3.992881  -1.517463   5.223478  -0.002881   0.471065  -0.006116
 168   8   2.976435  -0.505876   5.846685  -0.003089   0.490692  -0.006295
 169   9   4.516548  -1.564432  -0.981985  -0.003562   0.451437  -0.007889
 170   9   5.767292  -0.406258  -1.160916  -0.002335   0.333671  -0.006997
 171   9   4.019418  -0.078544  -1.579727  -0.001818   0.333671  -0.005448
 172   9   3.121376  -1.642150  -0.327211  -0.002464   0.392554  -0.006276
 173   9   4.605195  -2.361688   0.993177  -0.001503   0.333671  -0.004506
 174   9   5.781925  -1.957476   0.665761  -0.002272   0.412182  -0.005512
 175   9   4.910496  -0.266768  -1.544947  -0.002463   0.412182  -0.005975
 176   9   3.453286  -0.979031  -1.152584  -0.002322   0.392554  -0.005915
 177   9   3.684549  -2.197284   0.304217  -0.002546   0.451437  -0.005639
 178   9   4.960188  -2.157121  -0.016097  -0.002534   0.353299  -0.007173
 179   9   5.740896  -1.401226  -0.611517  -0.003453   0.431809  -0.007997
 180  10  10.833761   6.547591   5.657099  -0.003375   0.451437  -0.007476
 181  10  11.865730   5.463423   5.879009  -0.001654   0.294415  -0.005619
 182  10  10.074796   4.840043   6.115182  -0.001878   0.353299  -0.005315
 183  10  10.961692   7.444058   3.836487  -0.002045   0.392554  -0.005210
 184  10  12.323929   6.773825   4.334184  -0.001729   0.333671  -0.005183
 185  10  11.011102   5.260490   6.178335  -0.002576   0.431809  -0.005965
 186  10   9.759633   5.946947   5.802184  -0.003098   0.431809  -0.007175
 187  10  10.100508   7.098692   4.865015  -0.002896   0.392554  -0.007378
 188  10  11.407341   7.153206   4.719781  -0.002450   0.372926  -0.006569
 189  10  12.157564   6.274928   5.289441  -0.002481   0.412182  -0.006020
 190  11  11.431553   5.917607  -1.549935  -0.002875   0.392554  -0.007323
 191  11  10.129436   4.246230  -1.865757  -0.002284   0.372926  -0.006123
 192  11  11.344957   3.932540  -1.845613  -0.001700   0.353299  -0.004813
 193  11  12.602444   5.649410  -0.915658  -0.002038   0.333671  -0.006107
 194  11  11.002763   6.992949  -0.190362  -0.002171   0.372926  -0.005822
 195  11  11.050343   4.913198  -1.975588  -0.002207   0.333671  -0.006614
 196  11  12.180158   4.863829  -1.588850  -0.002145   0.372926  -0.005752
 197  11  12.047109   6.525740  -0.531274  -0.002518   0.451437  -0.005578
 198  11  10.571513   6.533481  -1.072739  -0.002723   0.372926  -0.007301
 199  11  10.119218   5.517884  -1.718991  -0.003205   0.412182  -0.007775
 200  12   0.525366   5.790962   5.063693  -0.002840   0.471065  -0.006029
 201  12   2.004315   4.931728   5.492450  -0.001660   0.314043  -0.005285
 202  12   0.346469   4.099841   5.594839  -0.000897   0.333671  -0.002688
 203  12  -0.851615   5.111569   4.343904  -0.001065   0.353299  -0.003015
 204  12   0.464450   6.572743   3.186230  -0.001337   0.392554  -0.003407
 205  12   1.214962   4.591786   5.716929  -0.001836   0.431809  -0.004253
 206  12  -0.300203   4.767858   5.170664  -0.001927   0.471065  -0.004090
 207  12  -0.378581   6.026182   3.885800  -0.002197   0.529948  -0.004145
 208  12   1.094368   6.576502   3.994847  -0.002403   0.431809  -0.005566
 209  12   1.644148   5.971173   4.953380  -0.002248   0.353299  -0.006363
 210  13   0.936949   4.634085  -2.196610  -0.002947   0.490692  -0.006006
 211  13   0.156245   3.060273  -2.015836  -0.000975   0.372926  -0.002615
 212  13   2.106899   2.992554  -2.226310  -0.001438   0.353299  -0.004071
 213  13   1.088127   5.963892  -0.822184  -0.001271   0.353299  -0.003599
 214  13  -0.443805   4.794655  -1.178476  -0.001138   0.372926  -0.003051
 215  13   1.132225   3.233904  -2.382931  -0.001800   0.431809  -0.004168
 216  13   2.272661   4.209506  -2.207187  -0.002661   0.451437  -0.005895
 217  13   1.805254   5.366339  -1.711506  -0.002765   0.451437  -0.006126
 218  13   0.274682   5.552741  -1.109957  -0.001784   0.451437  -0.003953
 219  13  -0.157156   4.060006  -1.852660  -0.001810   0.431809  -0.004192
 220  14  -1.746894  -0.284777   2.133104  -0.004020   0.608459  -0.006607
 221  14  -0.274236  -1.058562   2.108092  -0.001513   0.353299  -0.004281
 222  14  -0.888691  -0.204051   0.385843  -0.000952   0.333671  -0.002854
 223  14  -2.195319   1.157131   1.066832  -0.001095   0.353299  -0.003099
 224  14  -2.057706   1.258491   3.248417  -0.001070   0.372926  -0.002870
 225  14  -0.612896  -0.063850   3.886715  -0.001056   0.353299  -0.002989
 226  14  -0.545276  -0.851560   1.164906  -0.002120   0.490692  -0.004321
 227  14  -1.729293   0.268712   0.744262  -0.002144   0.490692  -0.004370
 228  14  -2.373490   1.086462   2.158623  -0.002302   0.510320  -0.004511
 229  14  -1.591114   0.355699   3.517688  -0.002245   0.490692  -0.004576
 230  14  -0.612110  -0.749971   3.047966  -0.002070   0.490692  -0.004218
 231  15  13.065315  -0.132004   6.548416  -0.003285   0.510320  -0.006437
 232  15  11.850990   0.812612   6.511086  -0.002083   0.392554  -0.005305
 233  15  13.641319   1.464948   6.570069  -0.001046   0.333671  -0.003135
 234  15  14.517526  -0.174375   5.865217  -0.001546   0.412182  -0.003752
 235  15  12.957810  -1.512618   4.967893  -0.001346   0.412182  -0.003265
 236  15  11.743137  -1.110682   5.189638  -0.001736   0.431809  -0.004021
 237  15  12.628379   1.350813   6.688875  -0.001655   0.412182  -0.004016
 238  15  14.202562   0.663199   6.391274  -0.001731   0.431809  -0.004008
 239  15  14.008072  -1.040094   5.433956  -0.002028   0.490692  -0.004134
 240  15  12.661739  -0.960530   5.939340  -0.002055   0.353299  -0.005817
 241  15  11.602579  -0.198174   6.086491  -0.002524   0.431809  -0.005844
 242  16  13.158059  -1.198077  -0.803558  -0.003745   0.569203  -0.006580
 243  16  14.477307   0.224604  -0.979570  -0.001047   0.372926  -0.002808
 244  16  12.701546   0.708136  -1.432863  -0.001148   0.294415  -0.003901
 245  16  11.774910  -0.964713  -0.553242  -0.002286   0.412182  -0.005546
 246  16  12.796508  -1.964557   0.827711  -0.001216   0.372926  -0.003261
 247  16  14.610261  -1.291947   0.343950  -0.001184   0.372926  -0.003175
 248  16  13.508929   0.163868  -1.399092  -0.001957   0.431809  -0.004531
 249  16  12.133421  -0.162999  -1.205383  -0.002213   0.431809  -0.005124
 250  16  11.958823  -1.624936   0.302220  -0.002146   0.451437  -0.004753
 251  16  13.727737  -1.826662   0.490180  -0.002081   0.471065  -0.004417
 252  16  14.522007  -0.741320  -0.536670  -0.002249   0.490692  -0.004582
 253  17  16.861527   4.154491   2.312823  -0.004240   0.588831  -0.007201
 254  17  15.660525   5.133672   1.855141  -0.001936   0.372926  -0.005191
 255  17  16.104933   3.753928   0.578199  -0.001157   0.333671  -0.003468
 256  17  17.034464   2.424553   1.758271  -0.001320   0.353299  -0.003736
 257  17  16.744938   2.993939   3.851235  -0.001305   0.372926  -0.003499
 258  17  15.591781   4.699347   3.924044  -0.001263   0.353299  -0.003575
 259  17  15.851821   4.631273   1.062247  -0.002140   0.451437  -0.004740
 260  17  16.796823   3.252717   1.151484  -0.002453   0.490692  -0.004998
 261  17  17.156852   2.775203   2.802691  -0.002625   0.510320  -0.005143
 262  17  16.473789   4.008640   3.805309  -0.002554   0.490692  -0.005204
 263  17  15.850114   5.068954   2.933388  -0.002379   0.490692  -0.004847
 264   1   8.421542   2.868004   5.518208   0.000152   0.052383   0.002907
 265   2   8.040670   3.085684   5.530599  -0.000128   0.052383  -0.002435
 266   5   8.817938   3.134331   5.555925  -0.000033   0.052383  -0.000628
 267   1   8.713453   2.011927  -0.928973   0.000132   0.052383   0.002514
 268   2   8.337780   2.214361  -1.031403  -0.000136   0.052383  -0.002588
 269   5   9.114745   2.263896  -0.999393  -0.000038   0.052383  -0.000734
 270   1   7.250998   1.613846   5.425675   0.000066   0.083933   0.000788
 271   2   6.859933   1.797300   5.509298  -0.000562   0.083933  -0.006695
 272   8   6.330463   1.305994   5.609565  -0.000764   0.083933  -0.009104
 273   1   7.496041   0.742249  -0.571099   0.000205   0.085554   0.002397
 274   2   7.114162   0.891564  -0.731032  -0.000469   0.085554  -0.005483
 275   9   6.605125   0.367268  -0.714827  -0.000737   0.085554  -0.008609
 276   2   7.747039   1.725463  -1.018921  -0.000597   0.191040  -0.003127
 277   1   8.166808   1.258405  -0.768447   0.000881   0.179039   0.004919
 278   2   7.355091   2.432060   5.588409  -0.000473   0.178815  -0.002647
 279   1   8.018154   2.347533   5.537273   0.000772   0.167581   0.004608
 280   1   7.196422  -0.669669   3.884287   0.000536   0.059736   0.008967
 281   3   6.442061  -0.927923   3.945879  -0.000089   0.059736  -0.001487
 282   8   6.293028  -0.899276   4.209166  -0.000255   0.059736  -0.004271
 283   1   7.302734  -1.058695   1.772500   0.000623   0.061377   0.010148
 284   3   6.552128  -1.332854   1.738865  -0.000047   0.061377  -0.000770
 285   9   6.439956  -1.395808   1.463685  -0.000258   0.061377  -0.004209
 286   3   6.623395  -1.258589   2.676336   0.000502   0.555963   0.000903
 287   1   7.714572  -0.894128   3.062326   0.005921   0.504161   0.011744
 288   1   9.707328   1.675878   5.461746   0.000472   0.096994   0.004867
 289   5  10.112732   1.906585   5.577804  -0.000122   0.096994  -0.001254
 290  15  10.671432   1.415227   5.697998  -0.000303   0.096994  -0.003120
 291   1   9.903864   0.996114  -0.532071   0.000366   0.096986   0.003773
 292   5  10.317623   1.198013  -0.670236  -0.000129   0.096986  -0.001334
 293  16  10.878796   0.696160  -0.640732  -0.000250   0.096986  -0.002582
 294   5   9.429969   2.728907   5.661510  -0.000024   0.201752  -0.000119
 295   1   8.983388   2.163632   5.533713   0.001064   0.184450   0.005767
 296   5   9.806225   1.733630  -0.910218   0.000050   0.176645   0.000281
 297   1   9.108126   1.574287  -0.813989   0.000761   0.161486   0.004712
 298   1   9.943364  -0.545800   3.998503   0.000724   0.056490   0.012820
 299   7  10.722957  -0.757512   4.114080   0.000123   0.056490   0.002176
 300  15  10.878559  -0.734761   4.373243  -0.000040   0.056490  -0.000702
 301   1  10.028266  -0.841743   1.408498   0.000841   0.056601   0.014863
 302   7  10.812152  -1.068190   1.394475   0.000118   0.056601   0.002085
 303  16  10.983878  -1.102932   1.147081  -0.000070   0.056601  -0.001232
 304   7  10.606016  -1.034341   3.534768   0.001147   0.361117   0.003176
 305   7  10.656084  -1.208336   2.012656   0.001192   0.361117   0.003301
 306   1   9.485962  -0.852601   2.705327   0.008862   0.664866   0.013329
 307   8   6.308772  -0.804292   4.673744  -0.000633   0.260785  -0.002427
 308   8   6.265016   0.266197   5.507648  -0.002841   0.525815  -0.005404
 309   1   7.653748  -0.110017   4.656749   0.005409   0.641255   0.008435
 310   1   7.541003   1.124127   5.465295   0.001756   0.323454   0.005428
 311   9   6.504168  -0.263192  -0.676319  -0.001333   0.281842  -0.004729
 312   9   6.552145  -1.177371   0.470943  -0.002598   0.569676  -0.004560
 313   1   7.839807  -0.167094   0.030946   0.005283   0.691505   0.007640
 314   1   7.805685  -1.052427   1.361986   0.003163   0.349182   0.009059
 315  15  10.825910   0.831103   5.869857  -0.000479   0.260222  -0.001841
 316  15  10.812416  -0.277397   5.161941  -0.000694   0.523877  -0.001325
 317   1   9.408433   0.689276   5.232656   0.005044   0.642910   0.007845
 318   1   9.454747  -0.454550   4.366941   0.003165   0.324018   0.009768
 319  16  10.983720  -1.129956   0.686149  -0.000010   0.260675  -0.000038
 320  16  10.996591  -0.291521  -0.330549  -0.001080   0.524813  -0.002058
 321   1   9.555940  -0.514474   0.556044   0.005992   0.643978   0.009305
 322   1   9.625596   0.486759  -0.473786   0.002051   0.324564   0.006319
 323   2   5.170075   2.878482   5.750704  -0.000532   0.030569  -0.017405
 324   3   4.788207   2.575791   5.817443  -0.000335   0.030569  -0.010960
 325   8   4.772872   2.290356   5.917618  -0.000280   0.030569  -0.009162
 326   2   5.644963   1.654057  -1.355225  -0.000504   0.030193  -0.016682
 327   3   5.268361   1.337937  -1.366420  -0.000376   0.030193  -0.012464
 328   9   5.256133   1.035589  -1.367551  -0.000296   0.030193  -0.009813
 329   2   4.113689   4.101760   5.226451  -0.000874   0.102210  -0.008547
 330   3   3.725150   3.803923   5.294732  -0.000663   0.102210  -0.006490
 331  12   3.094382   4.217523   5.207979  -0.000451   0.102210  -0.004415
 332   2   4.530284   2.993279  -1.399644  -0.000919   0.102167  -0.008995
 333   3   4.146980   2.681539  -1.414625  -0.000684   0.102167  -0.006694
 334  13   3.518399   3.087158  -1.544315  -0.000493   0.102167  -0.004825
 335   3   4.486423   3.098006   5.668816  -0.001347   0.210519  -0.006399
 336   2   4.874838   3.728564   5.552975  -0.001718   0.210519  -0.008159
 337   3   4.784368   2.091591  -1.448204  -0.001466   0.218264  -0.006717
 338   2   5.497130   2.331984  -1.477958  -0.002017   0.218264  -0.009240
 339   2   7.463606   5.561082   5.008983   0.000080   0.109698   0.000732
 340   4   7.412711   5.924001   4.855603   0.000895   0.109698   0.008162
 341  10   8.397477   5.733237   5.065024  -0.000208   0.109698  -0.001892
 342   2   7.744982   4.718608  -1.232908   0.000149   0.108688   0.001372
 343   4   7.685193   5.108852  -1.188976   0.000925   0.108688   0.008511
 344  11   8.671937   4.900654  -1.242576  -0.000258   0.108688  -0.002377
 345   2   4.379198   5.296957   4.785512   0.000195   0.119882   0.001627
 346   4   4.392226   5.664941   4.634835   0.001112   0.119882   0.009272
 347  12   3.355308   5.302600   4.735725   0.000101   0.119882   0.000845
 348   2   4.754820   4.463618  -1.277172   0.000215   0.119933   0.001795
 349   4   4.755768   4.858252  -1.226940   0.001091   0.119933   0.009098
 350  13   3.733034   4.438894  -1.360751   0.000113   0.119933   0.000943
 351   4   6.848701   5.178490  -1.388984   0.001340   0.135208   0.009908
 352   4   5.612769   5.087017  -1.406395   0.001167   0.135208   0.008630
 353   2   6.272018   4.577826  -1.412757   0.000797   0.281251   0.002835
 354   4   5.245600   5.936156   4.855713   0.001254   0.142023   0.008829
 355   4   6.537600   6.042336   4.949415   0.001296   0.142023   0.009124
 356   2   5.923429   5.458477   5.065149   0.000871   0.295221   0.002949
 357   2   8.254587   3.962861   5.499186  -0.000464   0.059745  -0.007764
 358   5   9.024139   4.014991   5.602860  -0.000366   0.059745  -0.006122
 359  10   9.134383   4.293310   5.642949  -0.000517   0.059745  -0.008645
 360   2   8.548578   3.172444  -1.222191  -0.000536   0.060577  -0.008844
 361   5   9.324849   3.207175  -1.266399  -0.000405   0.060577  -0.006685
 362  11   9.432933   3.473368  -1.359272  -0.000420   0.060577  -0.006936
 363   5   8.959582   3.634017   5.693380  -0.000263   0.161788  -0.001623
 364   2   7.859066   3.439647   5.654369  -0.000454   0.161788  -0.002807
 365   5   9.277990   2.632096  -1.223904  -0.000289   0.188388  -0.001536
 366   2   8.162157   2.704485  -1.299333  -0.000808   0.188388  -0.004288
 367   8   5.715563   1.339125   5.941436  -0.001305   0.163093  -0.008002
 368   8   5.000155   1.959536   6.036258  -0.001168   0.163093  -0.007163
 369   2   6.029310   2.456709   5.772174  -0.003602   0.450099  -0.008003
 370   9   5.628350   0.565638  -1.230252  -0.002260   0.276880  -0.008163
 371   2   6.493760   1.268769  -1.140454  -0.002775   0.390248  -0.007112
 372  10   8.992026   5.233903   5.539072  -0.002301   0.378601  -0.006078
 373   2   7.722429   4.580454   5.500177  -0.002156   0.534419  -0.004035
 374  11   9.368738   4.081962  -1.508938  -0.002035   0.347493  -0.005855
 375   2   7.960616   3.963513  -1.426289  -0.001586   0.490394  -0.003235
 376  12   2.789469   4.785382   5.233291  -0.000604   0.238750  -0.002530
 377   2   4.306870   4.834738   5.182384  -0.000372   0.339853  -0.001095
 378  13   3.233085   3.893556  -1.751797  -0.000862   0.290800  -0.002963
 379   2   4.720527   3.625617  -1.559455  -0.000873   0.413837  -0.002109
 380   3   1.777190  -0.363755   4.521267  -0.000137   0.025861  -0.005315
 381   6   1.352700  -0.121451   4.431354  -0.000088   0.025861  -0.003385
 382   8   1.991820  -0.390957   4.732950  -0.000215   0.025861  -0.008312
 383   3   2.847027   2.217780   5.741409  -0.000131   0.025861  -0.005070
 384   6   2.408343   2.425835   5.635309  -0.000072   0.025861  -0.002784
 385   8   2.965535   1.958635   5.843467  -0.000149   0.025861  -0.005773
 386   3   3.276681   0.980397  -1.415888  -0.000120   0.025647  -0.004684
 387   6   2.832928   1.203141  -1.437110  -0.000073   0.025647  -0.002834
 388   9   3.402442   0.705433  -1.411122  -0.000192   0.025647  -0.007505
 389   3   2.027916  -1.056702   0.443886  -0.000133   0.025647  -0.005199
 390   6   1.600760  -0.806884   0.397947  -0.000084   0.025647  -0.003291
 391   9   2.265899  -1.148599   0.281520  -0.000156   0.025647  -0.006084
 392   3   2.775554   3.079715   5.551878  -0.000087   0.025052  -0.003482
 393   6   2.331458   3.301777   5.531045  -0.000076   0.025052  -0.003039
 394  12   2.200644   3.573999   5.530808  -0.000082   0.025052  -0.003284
 395   3   3.215761   1.885646  -1.536279  -0.000080   0.025074  -0.003194
 396   6   2.776977   2.093296  -1.642660  -0.000076   0.025074  -0.003031
 397  13   2.652730   2.348099  -1.747047  -0.000110   0.025074  -0.004390
 398   3   1.495333  -0.982704   0.873118  -0.000081   0.027675  -0.002925
 399   6   1.037906  -0.805328   0.793502  -0.000070   0.027675  -0.002519
 400  14   0.766440  -0.819080   0.926190  -0.000085   0.027675  -0.003054
 401   3   1.299436  -0.453488   4.020229  -0.000082   0.027675  -0.002958
 402   6   0.839437  -0.269166   3.981915  -0.000076   0.027675  -0.002759
 403  14   0.585735  -0.330906   3.829232  -0.000116   0.027675  -0.004187
 404   6   2.244484   2.866524   5.625179  -0.000044   0.097567  -0.000447
 405   3   2.933175   2.663853   5.702681  -0.000183   0.097567  -0.001874
 406   6   2.738967   1.741009  -1.611175  -0.000057   0.103502  -0.000546
 407   3   3.319950   1.323896  -1.503585  -0.000162   0.103502  -0.001564
 408   6   1.213333  -0.787029   0.528779  -0.000024   0.055822  -0.000427
 409   3   1.831139  -1.114445   0.681203  -0.000088   0.055822  -0.001569
 410   6   0.971432  -0.198502   4.196386  -0.000033   0.058004  -0.000568
 411   3   1.619978  -0.464023   4.342552  -0.000099   0.058004  -0.001705
 412   8   4.318159   2.035565   6.083340  -0.000393   0.070096  -0.005603
 413   8   3.457515   1.862060   6.051857  -0.000387   0.070096  -0.005526
 414   3   3.822580   2.307283   5.875951  -0.001014   0.153179  -0.006617
 415   8   2.371084  -0.793168   4.795991  -0.000410   0.073946  -0.005539
 416   8   3.221834  -1.510315   4.383505  -0.001008   0.166736  -0.006045
 417   8   4.623207  -1.717771   4.190180  -0.000857   0.166736  -0.005142
 418   8   5.720336  -1.288983   4.333948  -0.000416   0.073946  -0.005630
 419   3   2.458283  -1.095737   4.264595  -0.000942   0.159745  -0.005897
 420   3   3.830832  -1.802131   3.824052  -0.000639   0.159745  -0.004000
 421   3   5.413088  -1.533159   3.856968  -0.000674   0.159745  -0.004219
 422   9   5.874271  -1.809158   1.418228  -0.000396   0.073405  -0.005391
 423   9   4.760934  -2.175727   1.550854  -0.000893   0.165295  -0.005400
 424   9   3.409030  -2.063486   1.125378  -0.000990   0.165295  -0.005988
 425   9   2.639519  -1.540595   0.400175  -0.000395   0.073405  -0.005384
 426   3   5.503979  -1.884033   1.904093  -0.000666   0.158766  -0.004197
 427   3   3.931220  -2.144119   1.820212  -0.000668   0.158766  -0.004208
 428   3   2.651095  -1.647174   1.006222  -0.000924   0.158766  -0.005822
 429   9   3.922093   0.558155  -1.516788  -0.000380   0.072259  -0.005255
 430   9   4.810757   0.731851  -1.497530  -0.000470   0.072259  -0.006500
 431   3   4.287365   1.043510  -1.453232  -0.001046   0.156827  -0.006669
 432  12   2.310618   3.972708   5.507978  -0.000538   0.174186  -0.003086
 433   3   3.306054   3.419861   5.548365  -0.000445   0.245375  -0.001814
 434  13   2.871400   2.881341  -1.829829  -0.000647   0.176095  -0.003672
 435   3   3.658622   2.093030  -1.589932  -0.000384   0.248058  -0.001549
 436  14   0.577063  -0.965056   1.352918  -0.000668   0.213783  -0.003125
 437  14   0.485704  -0.794673   2.882407  -0.002298   0.439916  -0.005223
 438   3   1.602949  -1.256288   1.998328  -0.001090   0.583441  -0.001869
 439   3   1.492978  -0.889595   3.708743  -0.000190   0.301199  -0.000631
 440   4   8.980868   7.509994   2.595384   0.001605   0.078227   0.020517
 441   5   9.870885   7.325554   2.705291   0.000312   0.078227   0.003987
 442  10   9.899092   7.321433   3.007167  -0.000091   0.078227  -0.001169
 443   4   9.072546   7.322137   0.849653   0.001895   0.079003   0.023986
 444   5   9.966440   7.126621   0.883551   0.000230   0.079003   0.002910
 445  11  10.011597   7.057826   0.591776  -0.000064   0.079003  -0.000815
 446   5   9.919799   7.375179   1.626210   0.002278   0.492011   0.004629
 447   4   8.648880   7.782681   1.818873   0.007676   0.443048   0.017325
 448   4   2.875261   6.926783   2.187097   0.002144   0.084683   0.025313
 449   6   1.948816   6.594182   2.214912   0.000500   0.084683   0.005909
 450  12   1.874657   6.596986   2.510579   0.000118   0.084683   0.001389
 451   4   3.010387   6.624537   0.418930   0.001826   0.083710   0.021811
 452   6   2.090300   6.279125   0.358693   0.000626   0.083710   0.007483
 453  13   2.050228   6.182079   0.072562   0.000104   0.083710   0.001240
 454   6   2.001407   6.647514   1.408812   0.003591   0.548488   0.006546
 455   4   3.303245   7.199808   1.094916   0.008619   0.491652   0.017531
 456  10   9.821835   7.444664   3.442689  -0.000039   0.236554  -0.000163
 457  10   9.326277   7.025921   4.460079  -0.000985   0.475546  -0.002071
 458  10   8.894104   6.185458   5.210316  -0.000624   0.236554  -0.002639
 459   4   8.301643   7.699831   3.323848   0.007724   0.584945   0.013205
 460   4   7.666665   6.837979   4.533686   0.005957   0.584945   0.010183
 461  11   9.180462   5.327121  -1.445774  -0.000679   0.246644  -0.002753
 462  11   9.556835   6.390399  -0.865606  -0.001100   0.496365  -0.002215
 463  11   9.969511   7.074323   0.119664   0.000041   0.246644   0.000167
 464   4   7.921373   6.118944  -1.076290   0.006221   0.608507   0.010223
 465   4   8.460953   7.313743  -0.005787   0.008551   0.608507   0.014052
 466  12   2.742948   5.682761   4.856662  -0.000259   0.252193  -0.001027
 467  12   2.284508   6.443272   4.035938  -0.000126   0.506364  -0.000249
 468  12   1.863610   6.763439   2.948524   0.000530   0.252193   0.002103
 469   4   4.039537   6.542044   4.286607   0.006744   0.629366   0.010716
 470   4   3.436256   7.283458   2.977504   0.008947   0.629366   0.014215
 471  13   2.093627   6.205113  -0.376101   0.000447   0.236874   0.001886
 472  13   2.623458   5.619008  -1.188359   0.000009   0.475214   0.000019
 473  13   3.148754   4.733430  -1.661455  -0.000141   0.236874  -0.000594
 474   4   3.663925   6.751911  -0.314143   0.007940   0.592273   0.013407
 475   4   4.388469   5.741323  -1.196781   0.006132   0.592273   0.010353
 476   5  13.292090   5.559822   4.298342  -0.000179   0.025020  -0.007172
 477   7  13.652197   5.223733   4.324709  -0.000156   0.025020  -0.006245
 478  10  13.074399   5.685905   4.463046  -0.000268   0.025020  -0.010719
 479   5  11.602925   3.702785   5.929509  -0.000146   0.025020  -0.005855
 480   7  11.985219   3.391087   5.934452  -0.000105   0.025020  -0.004211
 481  10  11.536852   3.995554   5.947802  -0.000156   0.025020  -0.006235
 482   5  11.847871   2.887570  -1.316854  -0.000143   0.024991  -0.005702
 483   7  12.227294   2.585423  -1.226999  -0.000102   0.024991  -0.004089
 484  11  11.785265   3.168288  -1.403978  -0.000210   0.024991  -0.008418
 485   5  13.437470   5.071461  -0.031604  -0.000195   0.024991  -0.007790
 486   7  13.796015   4.740632   0.041372  -0.000168   0.024991  -0.006736
 487  11  13.232191   5.156165  -0.234083  -0.000198   0.024991  -0.007934
 488   5  11.554709   2.915734   5.976055  -0.000109   0.025426  -0.004279
 489   7  11.934382   2.613879   6.065874  -0.000089   0.025426  -0.003504
 490  15  11.995024   2.331471   6.154839  -0.000098   0.025426  -0.003873
 491   5  11.791261   2.102892  -1.189392  -0.000100   0.025496  -0.003937
 492   7  12.173745   1.791414  -1.184413  -0.000098   0.025496  -0.003851
 493  16  12.237348   1.496574  -1.203711  -0.000147   0.025496  -0.005760
 494   5  13.946022   5.071306   0.525389  -0.000197   0.028201  -0.006969
 495   7  14.351031   4.790584   0.549416  -0.000144   0.028201  -0.005102
 496  17  14.609601   4.791869   0.706905  -0.000143   0.028201  -0.005057
 497   5  13.840172   5.442528   3.779312  -0.000173   0.028201  -0.006118
 498   7  14.243823   5.166570   3.845099  -0.000121   0.028201  -0.004307
 499  17  14.511967   5.134279   3.708281  -0.000184   0.028201  -0.006536
 500   7  14.172169   4.700408   0.239027  -0.000157   0.069995  -0.002244
 501   5  13.648456   5.183199   0.239569  -0.000264   0.069995  -0.003776
 502   7  14.073304   5.171964   4.085116  -0.000120   0.071983  -0.001661
 503   5  13.492474   5.584685   4.093780  -0.000188   0.071983  -0.002606
 504   7  12.072809   2.978493   6.054651  -0.000087   0.078038  -0.001119
 505   5  11.463850   3.345242   5.993211  -0.000191   0.078038  -0.002450
 506   7  12.256869   2.079806  -1.240023  -0.000100   0.079488  -0.001259
 507   5  11.767964   2.594512  -1.314156  -0.000190   0.079488  -0.002391
 508  10  12.803927   6.147240   4.383699  -0.000467   0.069791  -0.006684
 509  10  12.237247   6.864951   3.717775  -0.001118   0.155739  -0.007176
 510  10  11.035475   7.329262   3.262648  -0.000857   0.155739  -0.005506
 511   5  12.856069   6.295168   3.803942  -0.001169   0.152208  -0.007682
 512   5  11.820269   7.119728   3.027676  -0.000901   0.152208  -0.005918
 513   5  10.624893   7.368855   2.767447  -0.000230   0.085265  -0.002695
 514  10   9.842453   4.346809   5.926601  -0.000610   0.091846  -0.006644
 515  10  10.977758   4.242171   6.054339  -0.000498   0.091846  -0.005419
 516   5  10.387318   3.917106   5.883864  -0.001495   0.186950  -0.007995
 517  11  10.726016   7.081545   0.458147  -0.000297   0.069135  -0.004293
 518  11  11.812071   6.820873   0.352638  -0.001039   0.153994  -0.006747
 519  11  12.758986   5.960140  -0.094840  -0.001202   0.153994  -0.007804
 520   5  11.179409   7.067803   0.847707  -0.000683   0.151038  -0.004525
 521   5  12.539325   6.449783   0.551942  -0.001126   0.151038  -0.007457
 522   5  13.209280   5.531194   0.061597  -0.000532   0.084464  -0.006300
 523  11  11.250456   3.379314  -1.599801  -0.000481   0.088323  -0.005451
 524  11  10.149386   3.480128  -1.584567  -0.000573   0.088323  -0.006493
 525   5  10.670513   3.080831  -1.408832  -0.001450   0.181693  -0.007979
 526  15  11.660103   1.816989   6.157211  -0.001374   0.292065  -0.004706
 527   5  10.728479   2.434095   5.881844  -0.000816   0.410892  -0.001987
 528  16  11.688781   0.806895  -1.024611  -0.001415   0.292124  -0.004844
 529   5  11.147539   1.817348  -1.123971  -0.000841   0.410981  -0.002045
 530  17  14.802647   5.022617   1.107216  -0.000992   0.217815  -0.004556
 531  17  14.767645   5.289683   2.663705  -0.003327   0.449365  -0.007404
 532   5  13.842343   5.685270   1.542239  -0.002915   0.593591  -0.004911
 533   5  13.769879   5.807984   3.332272  -0.000903   0.307003  -0.002940
 534   8   2.821021   1.527260   5.922598  -0.001019   0.201711  -0.005052
 535   8   2.262813   0.295427   5.398690  -0.002894   0.413046  -0.007007
 536   6   1.669991   1.636776   5.472595  -0.000623   0.552319  -0.001128
 537   6   1.137396   0.246736   4.762488  -0.000087   0.284098  -0.000306
 538   9   2.440616  -1.068646  -0.134989  -0.001032   0.200249  -0.005154
 539   9   2.991226  -0.125474  -1.073651  -0.002796   0.409857  -0.006822
 540   6   1.650320  -0.180761  -0.486814  -0.000666   0.548514  -0.001214
 541   6   2.363901   0.942333  -1.441463   0.000005   0.282037   0.000019
 542  12   1.129149   6.586591   2.607269  -0.000069   0.066632  -0.001037
 543  12   0.096005   6.280521   2.659215  -0.000364   0.146994  -0.002474
 544  12  -0.838166   5.531621   3.181309  -0.000413   0.146994  -0.002812
 545  12  -1.066759   4.597236   4.064924  -0.000410   0.146994  -0.002791
 546  12  -0.500948   3.840440   4.966715  -0.000271   0.146994  -0.001842
 547  12   0.639407   3.555302   5.536270  -0.000443   0.146994  -0.003016
 548  12   1.701226   3.717563   5.636146  -0.000189   0.066632  -0.002842
 549   6   0.747415   6.432213   2.187316   0.000005   0.146957   0.000033
 550   6  -0.559847   5.828339   2.471005  -0.000199   0.146957  -0.001355
 551   6  -1.247358   4.833058   3.302162  -0.000245   0.146957  -0.001670
 552   6  -1.047970   3.833109   4.357824  -0.000074   0.146957  -0.000507
 553   6  -0.039161   3.217042   5.227791  -0.000164   0.146957  -0.001117
 554   6   1.387076   3.224243   5.574018  -0.000377   0.146957  -0.002562
 555  13   2.171872   2.439240  -1.952827  -0.000170   0.066842  -0.002549
 556  13   1.099529   2.298233  -1.933437  -0.000389   0.147536  -0.002634
 557  13  -0.096598   2.735070  -1.627592  -0.000363   0.147536  -0.002458
 558  13  -0.747526   3.738777  -1.094721  -0.000373   0.147536  -0.002527
 559  13  -0.598924   4.917182  -0.543028  -0.000423   0.147536  -0.002869
 560  13   0.291147   5.809857  -0.188072  -0.000311   0.147536  -0.002111
 561  13   1.322591   6.128530  -0.119157  -0.000127   0.066842  -0.001899
 562   6   1.840897   1.987178  -1.771170  -0.000384   0.147344  -0.002609
 563   6   0.379988   2.067686  -1.614343  -0.000117   0.147344  -0.000796
 564   6  -0.712429   2.919677  -1.118295  -0.000119   0.147344  -0.000808
 565   6  -1.009523   4.210260  -0.476843  -0.000220   0.147344  -0.001491
 566   6  -0.395213   5.435174   0.059383  -0.000197   0.147344  -0.001334
 567   6   0.890477   6.115817   0.280868  -0.000024   0.147344  -0.000165
 568  14   0.085739  -0.163759   3.929381  -0.000200   0.067490  -0.002965
 569  14  -0.636934   0.612100   4.185025  -0.000449   0.149201  -0.003009
 570  14  -1.534287   1.503510   3.807721  -0.000336   0.149201  -0.002255
 571  14  -2.135453   2.017391   2.750963  -0.000471   0.149201  -0.003156
 572  14  -2.201682   1.949658   1.434437  -0.000497   0.149201  -0.003332
 573  14  -1.706670   1.327209   0.380998  -0.000397   0.149201  -0.002659
 574  14  -0.847011   0.397248   0.009014  -0.000398   0.149201  -0.002668
 575  14   0.035886  -0.470894   0.466217  -0.000543   0.149201  -0.003637
 576   6   0.126503   0.312894   4.277416  -0.000395   0.148551  -0.002656
 577   6  -0.900206   1.382114   4.321628  -0.000092   0.148551  -0.000621
 578   6  -1.787224   2.213948   3.472764  -0.000121   0.148551  -0.000812
 579   6  -2.182275   2.478035   2.067948  -0.000273   0.148551  -0.001840
 580   6  -1.928466   2.069496   0.665095  -0.000261   0.148551  -0.001754
 581   6  -1.126596   1.150579  -0.178655  -0.000120   0.148551  -0.000808
 582   6  -0.095126   0.086229  -0.128211  -0.000255   0.148551  -0.001719
 583   6   0.649861  -0.621270   0.499223  -0.000148   0.082454  -0.001801
 584  10  11.762567   4.388387   5.934990  -0.000999   0.196576  -0.005084
 585  10  12.608594   5.279608   5.216785  -0.003047   0.402154  -0.007576
 586   7  12.877672   3.929555   5.683603  -0.001028   0.538749  -0.001907
 587   7  13.750124   4.924134   4.751135  -0.000383   0.276946  -0.001384
 588  11  13.057693   4.991935  -0.618357  -0.001241   0.196371  -0.006319
 589  11  12.350528   3.952040  -1.282475  -0.002833   0.401717  -0.007052
 590   7  13.638548   3.906130  -0.611515  -0.001210   0.538208  -0.002248
 591   7  12.736478   2.729063  -1.256755  -0.000193   0.276659  -0.000697
 592  15  11.451920  -1.101848   4.514243  -0.000201   0.070006  -0.002873
 593  15  12.488549  -1.508700   4.327038  -0.000406   0.155986  -0.002605
 594  15  13.838353  -1.362336   4.460194  -0.000543   0.155986  -0.003484
 595  15  14.780954  -0.516677   4.967628  -0.000562   0.155986  -0.003601
 596  15  14.913755   0.667085   5.632606  -0.000449   0.155986  -0.002880
 597  15  14.180035   1.683349   6.171109  -0.000478   0.155986  -0.003061
 598  15  12.893175   2.098057   6.353135  -0.000672   0.155986  -0.004310
 599   7  11.723475  -1.316582   4.022210  -0.000236   0.152926  -0.001542
 600   7  13.227082  -1.595330   3.924257  -0.000202   0.152926  -0.001320
 601   7  14.589326  -1.005828   4.304923  -0.000353   0.152926  -0.002311
 602   7  15.228376   0.200140   5.001620  -0.000350   0.152926  -0.002291
 603   7  14.871284   1.507489   5.716780  -0.000211   0.152926  -0.001381
 604   7  13.670570   2.357833   6.144948  -0.000405   0.152926  -0.002651
 605   7  12.436158   2.523441   6.190114  -0.000213   0.085528  -0.002493
 606  16  12.706251   1.251812  -1.316538  -0.000247   0.069949  -0.003525
 607  16  13.819850   1.131613  -1.179940  -0.000531   0.155830  -0.003409
 608  16  14.854685   0.486167  -0.570901  -0.000489   0.155830  -0.003137
 609  16  15.121360  -0.502596   0.328901  -0.000511   0.155830  -0.003276
 610  16  14.506158  -1.413039   1.135765  -0.000555   0.155830  -0.003564
 611  16  13.271418  -1.856925   1.505621  -0.000440   0.155830  -0.002826
 612  16  11.943669  -1.644968   1.280754  -0.000497   0.155830  -0.003191
 613   7  13.148898   1.644738  -1.210037  -0.000517   0.152826  -0.003382
 614   7  14.572900   1.245241  -0.813354  -0.000269   0.152826  -0.001761
 615   7  15.346242   0.274212   0.083183  -0.000267   0.152826  -0.001745
 616   7  15.139151  -0.854275   1.097266  -0.000348   0.152826  -0.002277
 617   7  14.039936  -1.659003   1.796460  -0.000330   0.152826  -0.002160
 618   7  12.517333  -1.796813   1.882612  -0.000224   0.152826  -0.001466
 619   7  11.385799  -1.425347   1.518608  -0.000051   0.085458  -0.000601
 620  17  14.954207   4.904845   3.900082  -0.000271   0.066960  -0.004052
 621  17  15.473209   4.106682   4.413709  -0.000575   0.147747  -0.003889
 622  17  16.166265   2.996001   4.377035  -0.000464   0.147747  -0.003142
 623  17  16.690912   2.106917   3.571083  -0.000593   0.147747  -0.004016
 624  17  16.842447   1.786325   2.310312  -0.000626   0.147747  -0.004237
 625  17  16.561744   2.159312   1.086641  -0.000515   0.147747  -0.003488
 626  17  15.958327   3.080349   0.377512  -0.000510   0.147747  -0.003449
 627  17  15.267632   4.190071   0.459607  -0.000685   0.147747  -0.004636
 628   7  14.792216   4.560142   4.350095  -0.000547   0.147662  -0.003707
 629   7  15.551633   3.371673   4.770128  -0.000238   0.147662  -0.001609
 630   7  16.271778   2.189021   4.271803  -0.000259   0.147662  -0.001756
 631   7  16.671668   1.473625   3.049553  -0.000395   0.147662  -0.002673
 632   7  16.595279   1.504611   1.580266  -0.000374   0.147662  -0.002535
 633   7  16.072415   2.269890   0.437217  -0.000238   0.147662  -0.001613
 634   7  15.307083   3.470872   0.066392  -0.000395   0.147662  -0.002675
 635   7  14.703125   4.455544   0.368721  -0.000253   0.081807  -0.003090
 =====================================================

              3309047  WORDS OF DYNAMIC MEMORY USED
 EXECUTION OF GAMESS TERMINATED NORMALLY Thu Nov 24 04:14:04 2016
 DDI: 263640 bytes (0.3 MB / 0 MWords) used by master data server.

 ----------------------------------------
 CPU timing information for all processes
 ========================================
 0: 600.88 + 0.276 = 600.364
 ----------------------------------------
 ddikick.x: exited gracefully.
