----- GAMESS execution script -----

          ******************************************************
          *         GAMESS VERSION =  5 DEC 2014 (R1)          *
          *             FROM IOWA STATE UNIVERSITY             *
          * M.W.SCHMIDT, K.K.BALDRIDGE, J.A.BOATZ, S.T.ELBERT, *
          *   M.S.GORDON, J.H.JENSEN, S.KOSEKI, N.MATSUNAGA,   *
          *          K.A.NGUYEN, S.J.SU, T.L.WINDUS,           *
          *       TOGETHER WITH M.DUPUIS, J.A.MONTGOMERY       *
          *         J.COMPUT.CHEM.  14, 1347-1363(1993)        *
          **************** 64 BIT LINUX VERSION ****************

 EXECUTION OF GAMESS BEGUN Thu Nov 24 00:57:21 2016

            ECHO OF THE FIRST FEW INPUT CARDS -
 INPUT CARD>! SELECT RESTRICTED HARTREE-FOCK AS DEFAULT                                     
 INPUT CARD>$contrl scftyp=rhf $end                                                         
 INPUT CARD>                                                                                
 INPUT CARD>! THEORY: HF OR DFT                                                             
 INPUT CARD> $contrl mplevl=0 $end                                                          
 INPUT CARD>                                                                                
 INPUT CARD> $system timlim=10000 mwords=20 $end                                            
 INPUT CARD> $SCF DIRSCF=.TRUE. $end                                                        
 INPUT CARD>                                                                                
 INPUT CARD>                                                                                
 INPUT CARD>! BASIS SETS                                                                    
 INPUT CARD>! 6-311G(d,p)                                                                   
 INPUT CARD> $BASIS GBASIS=N311 NGAUSS=6 NDFUNC=1 NPFUNC=1 $END                             
 INPUT CARD>                                                                                
 INPUT CARD>! One of the following                                                          
 INPUT CARD> $guess guess=HUCKEL $end                                                       
 INPUT CARD>                                                                                
 INPUT CARD> $statpt projct=.FALSE. $end                                                    
 INPUT CARD> $STATPT IFREEZ(1)=1,2,3 $END                                                   
 INPUT CARD>                                                                                
 INPUT CARD>! Optimize the geometry with COSMO effects                                      
 INPUT CARD> $statpt opttol=0.0005 nstep=50 $end                                            
 INPUT CARD> $contrl nzvar=1 $end                                                           
 INPUT CARD> $zmat dlc=.t. auto=.t. $end                                                    
 INPUT CARD> $contrl runtyp=OPTIMIZE maxit=200 $end                                         
 INPUT CARD>                                                                                
 INPUT CARD>! Run COSMO on perfect conductor                                                
 INPUT CARD> $COSGMS PRFCND=.TRUE. $end                                                     
 INPUT CARD>                                                                                
 INPUT CARD>! Specifying RSOLV                                                              
 INPUT CARD> $COSGMS COSRAD = 1.4 $end                                                      
 INPUT CARD>                                                                                
 INPUT CARD>! available memory                                                              
 INPUT CARD> $SYSTEM MWORDS=40 $END                                                         
 INPUT CARD>                                                                                
 INPUT CARD> $DATA                                                                          
 INPUT CARD>http://cactus.nci.nih.gov/chemical/structure/ETHYLENE%20GLYCOL%20ETHYL%20ETHER/f
 INPUT CARD>C1                                                                              
 INPUT CARD>C      6.0     -1.7470000000   -0.4009000000    0.2786000000                    
 INPUT CARD>C      6.0      0.5973000000   -0.8872000000    0.1653000000                    
 INPUT CARD>C      6.0      1.9225000000   -0.3518000000   -0.3806000000                    
 INPUT CARD>C      6.0     -2.7953000000    0.6269000000   -0.1525000000                    
 INPUT CARD>H      1.0      3.0709000000    1.2790000000   -0.0301000000                    
 INPUT CARD>O      8.0      2.2413000000    0.8813000000    0.2675000000                    
 INPUT CARD>O      8.0     -0.4592000000    0.0086000000   -0.1860000000                    
 INPUT CARD>H      1.0     -2.5476000000    1.5991000000    0.2735000000                    
 INPUT CARD>H      1.0     -2.8074000000    0.6992000000   -1.2400000000                    
 INPUT CARD>H      1.0     -3.7776000000    0.3145000000    0.2019000000                    
 INPUT CARD>H      1.0     -1.7349000000   -0.4731000000    1.3662000000                    
 INPUT CARD>H      1.0     -1.9948000000   -1.3731000000   -0.1474000000                    
   40000000 WORDS OF MEMORY AVAILABLE

     BASIS OPTIONS
     -------------
     GBASIS=N311         IGAUSS=       6      POLAR=POPN311 
     NDFUNC=       1     NFFUNC=       0     DIFFSP=       F
     NPFUNC=       1      DIFFS=       F     BASNAM=        


     RUN TITLE
     ---------
 http://cactus.nci.nih.gov/chemical/structure/ETHYLENE%20GLYCOL%20ETHYL%20ETHER/f

 THE POINT GROUP OF THE MOLECULE IS C1      
 THE ORDER OF THE PRINCIPAL AXIS IS     0

 ATOM      ATOMIC                      COORDINATES (BOHR)
           CHARGE         X                   Y                   Z
 C           6.0    -3.3013513006       -0.7575911485        0.5264776602
 C           6.0     1.1287333325       -1.6765648963        0.3123717058
 C           6.0     3.6329982114       -0.6648056025       -0.7192297109
 C           6.0    -5.2823510535        1.1846692217       -0.2881832131
 H           1.0     5.8031595357        2.4169595383       -0.0568807522
 O           8.0     4.2354428563        1.6654155130        0.5055017017
 O           8.0    -0.8677621736        0.0162516435       -0.3514890337
 H           1.0    -4.8142659263        3.0218608270        0.5168400576
 H           1.0    -5.3052167379        1.3212964106       -2.3432602248
 H           1.0    -7.1386288912        0.5943188231        0.3815356769
 H           1.0    -3.2784856161       -0.8940293648        2.5817436444
 H           1.0    -3.7696254003       -2.5947827537       -0.2785456106
 H           1.0     0.7524888883       -3.5328427340       -0.4971869074
 H           1.0     1.2436286725       -1.8322783177        2.3631023476
 H           1.0     5.1277714677       -2.0358018066       -0.3596148555
 H           1.0     3.4631118451       -0.3503551981       -2.7476615861

          INTERNUCLEAR DISTANCES (ANGS.)




     $CONTRL OPTIONS
     ---------------
 SCFTYP=RHF          RUNTYP=OPTIMIZE     EXETYP=RUN     
 MPLEVL=       0     CITYP =NONE         CCTYP =NONE         VBTYP =NONE    
 DFTTYP=NONE         TDDFT =NONE    
 MULT  =       1     ICHARG=       0     NZVAR =       1     COORD =UNIQUE  
 PP    =NONE         RELWFN=NONE         LOCAL =NONE         NUMGRD=       F
 ISPHER=      -1     NOSYM =       0     MAXIT =     200     UNITS =ANGS    
 PLTORB=       F     MOLPLT=       F     AIMPAC=       F     FRIEND=        
 NPRINT=       7     IREST =       0     GEOM  =INPUT   
 NORMF =       0     NORMP =       0     ITOL  =      20     ICUT  =       9
 INTTYP=BEST         GRDTYP=BEST         QMTTOL= 1.0E-06

     $SYSTEM OPTIONS
     ---------------
  REPLICATED MEMORY=    40000000 WORDS (ON EVERY NODE).
 DISTRIBUTED MEMDDI=           0 MILLION WORDS IN AGGREGATE,
 MEMDDI DISTRIBUTED OVER   1 PROCESSORS IS           0 WORDS/PROCESSOR.
 TOTAL MEMORY REQUESTED ON EACH PROCESSOR=    40000000 WORDS.
 TIMLIM=       10000.00 MINUTES, OR       6.9 DAYS.
 PARALL= F  BALTYP=  DLB     KDIAG=    0  COREFL= F
 MXSEQ2=     300 MXSEQ3=     150  mem10=         0

     $COSGMS OPTIONS
     ---------------
     EPSI  =   INFTY     NSPA  =      92     COSRAD=    1.40
     DISEX =   10.00     OUTCHG=DBLCAV       COSBUG=       F
     COSWRT=       F     DCOSMO=       F

     SYMMETRY COORDINATES WILL NOT BE USED FOR 
     THE COSMO CALCULATION, EVEN IF SPECIFIED:
         -- SWITCHING TO C1 POINT GROUP --


     DEFINITION OF CAVITY
     ---------------------------
     ATOM         COORDINATES           RADIUS 
     1   -3.3014   -0.7576    0.5265    2.0000
     2    1.1287   -1.6766    0.3124    2.0000
     3    3.6330   -0.6648   -0.7192    2.0000
     4   -5.2824    1.1847   -0.2882    2.0000
     5    5.8032    2.4170   -0.0569    1.3000
     6    4.2354    1.6654    0.5055    1.7200
     7   -0.8678    0.0163   -0.3515    1.7200
     8   -4.8143    3.0219    0.5168    1.3000
     9   -5.3052    1.3213   -2.3433    1.3000
    10   -7.1386    0.5943    0.3815    1.3000
    11   -3.2785   -0.8940    2.5817    1.3000
    12   -3.7696   -2.5948   -0.2785    1.3000
    13    0.7525   -3.5328   -0.4972    1.3000
    14    1.2436   -1.8323    2.3631    1.3000
    15    5.1278   -2.0358   -0.3596    1.3000
    16    3.4631   -0.3504   -2.7477    1.3000

          ----------------
          PROPERTIES INPUT
          ----------------

     MOMENTS            FIELD           POTENTIAL          DENSITY
 IEMOM =       1   IEFLD =       0   IEPOT =       0   IEDEN =       0
 WHERE =COMASS     WHERE =NUCLEI     WHERE =NUCLEI     WHERE =NUCLEI  
 OUTPUT=BOTH       OUTPUT=BOTH       OUTPUT=BOTH       OUTPUT=BOTH    
 IEMINT=       0   IEFINT=       0                     IEDINT=       0
                                                       MORB  =       0
          EXTRAPOLATION IN EFFECT
          SOSCF IN EFFECT
 ORBITAL PRINTING OPTION: NPREO=     1   174     2     1

     -------------------------------
     INTEGRAL TRANSFORMATION OPTIONS
     -------------------------------
     NWORD  =            0
     CUTOFF = 1.0E-09     MPTRAN =       0
     DIRTRF =       T     AOINTS =DUP     

          ----------------------
          INTEGRAL INPUT OPTIONS
          ----------------------
 NOPK  =       1 NORDER=       0 SCHWRZ=       T


 -----------------------------------------------
  STATISTICS ON AUTOMATIC COORDINATE GENERATION 
 -----------------------------------------------
  NUMBER OF USER SPECIFIED BONDS                             0
  NUMBER OF BONDS                                           15
  NUMBER OF ANGLES                                          26
  NUMBER OF TORSIONS                                        27
  NUMBER OF EXTRA COORD.                                     0
  NUMBER OF EXTRA COORD. FOR CONSTRAINTS                     0
  NUMBER OF CONSTRAINED COORD.                               0

  TOTAL NUMBER OF PRIMITIVES                                68
 -----------------------------------------------

   --- ENCODED Z MATRIX ---
 COORD  TYPE   I   J   K   L   M   N
    1      1    1   4
    2      1    1  11
    3      1    1  12
    4      1    1   7
    5      1    2   7
    6      1    2  14
    7      1    2   3
    8      1    2  13
    9      1    3   6
   10      1    3  16
   11      1    3  15
   12      1    4   8
   13      1    4  10
   14      1    4   9
   15      1    5   6
   16      2    1   4   9
   17      2    1   4  10
   18      2    1   4   8
   19      2    1   7   2
   20      2    2   3   6
   21      2    2   3  15
   22      2    2   3  16
   23      2    3   2  14
   24      2    3   2   7
   25      2    3   6   5
   26      2    3   2  13
   27      2    4   1   7
   28      2    4   1  12
   29      2    4   1  11
   30      2    6   3  16
   31      2    6   3  15
   32      2    7   2  13
   33      2    7   2  14
   34      2    7   1  12
   35      2    7   1  11
   36      2    8   4  10
   37      2    8   4   9
   38      2    9   4  10
   39      2   11   1  12
   40      2   13   2  14
   41      2   15   3  16
   42      3    1   7   2  13
   43      3    1   7   2   3
   44      3    1   7   2  14
   45      3    2   7   1  12
   46      3    2   7   1  11
   47      3    2   7   1   4
   48      3    2   3   6   5
   49      3    5   6   3  15
   50      3    5   6   3  16
   51      3    6   3   2  13
   52      3    6   3   2  14
   53      3    6   3   2   7
   54      3    7   1   4  10
   55      3    7   1   4   9
   56      3    7   2   3  16
   57      3    7   2   3  15
   58      3    7   1   4   8
   59      3    8   4   1  11
   60      3    8   4   1  12
   61      3    9   4   1  12
   62      3    9   4   1  11
   63      3   10   4   1  12
   64      3   10   4   1  11
   65      3   13   2   3  16
   66      3   13   2   3  15
   67      3   14   2   3  16
   68      3   14   2   3  15

          INDEP./SYM. INTERNAL COORDINATES
          --------------------------------
 CRD  1=  -0.5706 ( 19)  0.1593 ( 20)  0.4974 ( 24) -0.1201 ( 26)  0.4084 ( 27)
          -0.1016 ( 28) -0.1860 ( 32) -0.1517 ( 33) -0.1391 ( 34) -0.1371 ( 35)
 CRD  2=  -0.2031 (  4) -0.1397 (  5) -0.2043 (  7) -0.3593 ( 19) -0.4974 ( 20)
           0.1363 ( 22) -0.1113 ( 23) -0.1415 ( 24)  0.1503 ( 25)  0.2100 ( 26)
           0.1613 ( 30)  0.1631 ( 31) -0.1459 ( 35)  0.1877 ( 42)  0.3595 ( 43)
           0.1698 ( 44)  0.1375 ( 45)
 CRD  3=   0.1852 (  1)  0.3201 (  4)  0.3005 (  5)  0.1957 (  7)  0.1139 ( 18)
           0.4590 ( 19)  0.1039 ( 22) -0.2102 ( 23)  0.1888 ( 24)  0.1122 ( 27)
          -0.1705 ( 28)  0.1830 ( 42)  0.2613 ( 43)  0.1612 ( 44)  0.1625 ( 45)
           0.1962 ( 46)  0.2488 ( 47)  0.1043 ( 51)
 CRD  4=   0.2049 (  1)  0.1097 (  4)  0.2535 (  5)  0.2376 ( 16)  0.1461 ( 19)
          -0.2221 ( 20)  0.1017 ( 21) -0.1265 ( 24)  0.4204 ( 27) -0.2559 ( 29)
           0.1996 ( 32) -0.1566 ( 34) -0.1077 ( 35) -0.1097 ( 44) -0.1723 ( 45)
          -0.2497 ( 46) -0.3716 ( 47) -0.1920 ( 53) -0.1328 ( 56) -0.1606 ( 57)
 CRD  5=   0.1237 (  1) -0.1134 (  4) -0.1382 (  7) -0.1183 ( 17)  0.2518 ( 18)
          -0.1712 ( 22)  0.1590 ( 23) -0.3880 ( 24)  0.3593 ( 27) -0.1894 ( 28)
           0.2406 ( 33) -0.1954 ( 34) -0.2090 ( 43) -0.1046 ( 44)  0.1880 ( 45)
           0.3197 ( 47)  0.1217 ( 53) -0.1559 ( 54)  0.1471 ( 56)  0.1702 ( 57)
          -0.1238 ( 58)
 CRD  6=   0.1173 (  4) -0.1117 (  7) -0.1072 (  8) -0.1180 ( 15) -0.1955 ( 16)
           0.1049 ( 18) -0.4675 ( 20)  0.1392 ( 22)  0.2366 ( 24)  0.1503 ( 25)
          -0.1569 ( 26) -0.1038 ( 27)  0.1822 ( 30)  0.1974 ( 31) -0.1148 ( 34)
           0.2116 ( 35) -0.1082 ( 41) -0.2094 ( 42) -0.2922 ( 43) -0.2540 ( 44)
          -0.2310 ( 54) -0.2014 ( 55) -0.1818 ( 58)
 CRD  7=  -0.4805 (  1)  0.3718 (  7)  0.2318 (  9)  0.1124 ( 15) -0.1080 ( 16)
          -0.3523 ( 17)  0.1240 ( 23)  0.2954 ( 25)  0.1252 ( 26) -0.2017 ( 28)
          -0.1719 ( 29)  0.1020 ( 35)  0.1547 ( 36)  0.1991 ( 38)  0.1211 ( 39)
          -0.1203 ( 42) -0.1321 ( 45)  0.1111 ( 46)
 CRD  8=  -0.3764 (  1) -0.3834 (  7) -0.3127 (  9) -0.1535 ( 15) -0.2892 ( 17)
           0.1617 ( 19) -0.1637 ( 23) -0.3802 ( 25) -0.1640 ( 26) -0.1426 ( 28)
          -0.1794 ( 29)  0.1630 ( 36)  0.1207 ( 38)  0.1023 ( 39)  0.1096 ( 40)
           0.1393 ( 42)  0.1226 ( 46)
 CRD  9=  -0.2369 (  7)  0.3132 (  9)  0.1233 ( 15)  0.3377 ( 16) -0.3194 ( 18)
          -0.1633 ( 21) -0.2082 ( 22) -0.1479 ( 23)  0.3959 ( 25)  0.1891 ( 30)
           0.1896 ( 33)  0.1313 ( 36) -0.1119 ( 38) -0.1399 ( 44) -0.1704 ( 50)
           0.2040 ( 53)  0.1996 ( 57)
 CRD 10=   0.2756 (  7) -0.2504 (  9) -0.1226 ( 15)  0.3145 ( 16) -0.3726 ( 18)
          -0.1701 ( 20)  0.3293 ( 21) -0.2489 ( 25)  0.1932 ( 26)  0.1158 ( 28)
          -0.1007 ( 29) -0.1450 ( 31) -0.1950 ( 32)  0.1228 ( 36) -0.1378 ( 38)
          -0.1271 ( 41) -0.1687 ( 42)  0.1231 ( 45)  0.1160 ( 46) -0.1701 ( 49)
           0.1520 ( 53)  0.1691 ( 56)
 CRD 11=  -0.2044 (  1) -0.1170 (  2)  0.1235 (  5)  0.1850 ( 13) -0.1022 ( 14)
          -0.3908 ( 16)  0.5250 ( 17) -0.3455 ( 18)  0.1277 ( 21) -0.1837 ( 22)
           0.1793 ( 27) -0.1333 ( 28) -0.1156 ( 35)  0.3219 ( 37)  0.1225 ( 39)
           0.1078 ( 48)
 CRD 12=   0.1240 (  3) -0.1126 (  8)  0.1825 ( 18)  0.2194 ( 21) -0.1643 ( 22)
          -0.1598 ( 23)  0.1511 ( 26) -0.2619 ( 28)  0.3015 ( 29)  0.1655 ( 30)
          -0.1555 ( 31) -0.1579 ( 32)  0.2829 ( 34) -0.2369 ( 35) -0.1870 ( 42)
          -0.1807 ( 44) -0.2953 ( 45) -0.3023 ( 46) -0.1129 ( 47)  0.1417 ( 53)
           0.1295 ( 54)  0.1562 ( 55)  0.1495 ( 58)
 CRD 13=  -0.1079 (  8)  0.1486 ( 11)  0.1283 ( 16) -0.1383 ( 17)  0.3449 ( 21)
          -0.3794 ( 22)  0.2777 ( 23)  0.1358 ( 24) -0.3374 ( 26) -0.1133 ( 27)
           0.2483 ( 30) -0.1319 ( 31)  0.1164 ( 32) -0.2690 ( 33)  0.2324 ( 42)
           0.2322 ( 44)  0.2252 ( 48) -0.1278 ( 50)
 CRD 14=  -0.1448 (  2)  0.1531 (  3) -0.1684 (  6)  0.1197 (  8)  0.1333 ( 12)
          -0.1276 ( 14) -0.2208 ( 16)  0.2315 ( 18)  0.1565 ( 21) -0.2193 ( 22)
          -0.2542 ( 23)  0.2115 ( 26)  0.3459 ( 28) -0.3330 ( 29)  0.1369 ( 30)
          -0.2108 ( 31) -0.1131 ( 32)  0.1128 ( 33) -0.2026 ( 34)  0.2132 ( 35)
          -0.1209 ( 36)  0.1273 ( 38)  0.1464 ( 43)  0.1125 ( 45)  0.1111 ( 46)
          -0.1766 ( 47)
 CRD 15=  -0.2096 (  2)  0.1590 (  3)  0.2794 (  6)  0.1043 (  7) -0.1257 (  8)
           0.3604 ( 10) -0.2410 ( 11) -0.1248 ( 16)  0.1607 ( 22)  0.2626 ( 23)
          -0.2042 ( 26)  0.1157 ( 28) -0.1214 ( 29)  0.1218 ( 30)  0.1367 ( 32)
          -0.1262 ( 43)  0.1140 ( 44) -0.1295 ( 47) -0.2757 ( 48)  0.2419 ( 51)
           0.2018 ( 52)  0.2465 ( 53)  0.1196 ( 54)  0.1064 ( 55)  0.1063 ( 58)
 CRD 16=   0.2388 (  2) -0.2810 (  3) -0.1959 (  6)  0.2892 (  8)  0.2113 ( 10)
          -0.2847 ( 11) -0.1216 ( 28)  0.1348 ( 29)  0.1934 ( 30) -0.2643 ( 31)
           0.1730 ( 32) -0.1017 ( 33) -0.1068 ( 46) -0.1925 ( 48) -0.1206 ( 49)
           0.2493 ( 51)  0.2172 ( 52) -0.1615 ( 54) -0.1455 ( 55) -0.2027 ( 56)
          -0.2257 ( 57) -0.1451 ( 58)
 CRD 17=   0.1361 (  1)  0.4974 ( 12)  0.4593 ( 13)  0.4969 ( 14) -0.1781 ( 16)
          -0.2101 ( 17) -0.1778 ( 18)  0.1965 ( 36)  0.1726 ( 37)  0.1968 ( 38)
 CRD 18=  -0.1153 (  1) -0.3688 (  2) -0.3619 (  3) -0.2840 (  4)  0.2859 (  5)
           0.3569 (  6)  0.3333 (  8)  0.1155 ( 11) -0.1647 ( 13) -0.1563 ( 23)
          -0.1635 ( 26)  0.1596 ( 28)  0.1585 ( 29) -0.1638 ( 39)  0.1648 ( 40)
           0.1215 ( 42) -0.1173 ( 44)  0.1214 ( 45) -0.1164 ( 46)
 CRD 19=  -0.4210 (  2) -0.4277 (  3) -0.4415 (  6) -0.4198 (  8)  0.1981 ( 10)
           0.1743 ( 11)  0.1280 ( 19) -0.1467 ( 39) -0.1567 ( 40) -0.1080 ( 42)
           0.1028 ( 44) -0.1015 ( 46)
 CRD 20=  -0.1424 (  2) -0.1285 (  3) -0.1115 (  6) -0.1682 (  8) -0.5923 ( 10)
          -0.5926 ( 11)  0.1088 ( 21)  0.1225 ( 22)  0.1649 ( 25) -0.2446 ( 41)
          -0.1423 ( 49)  0.1458 ( 50)
 CRD 21=  -0.3128 ( 12)  0.6546 ( 13) -0.3115 ( 14)  0.1615 ( 36) -0.3319 ( 37)
           0.1621 ( 38) -0.1742 ( 55)  0.1743 ( 58)  0.1756 ( 59)  0.1727 ( 60)
          -0.1758 ( 61) -0.1729 ( 62)
 CRD 22=  -0.5541 ( 12)  0.5548 ( 14) -0.2952 ( 36)  0.2949 ( 38)  0.2208 ( 54)
           0.2117 ( 63)  0.2116 ( 64)
 CRD 23=   0.1026 (  1) -0.2406 (  2) -0.2439 (  3)  0.4344 (  4) -0.4342 (  5)
           0.2426 (  6) -0.1074 (  7)  0.2289 (  8) -0.1126 ( 11) -0.1191 ( 32)
           0.1074 ( 34)  0.1068 ( 35) -0.1303 ( 39)  0.1300 ( 40) -0.1469 ( 51)
           0.1028 ( 52) -0.1630 ( 60)  0.1648 ( 62) -0.1264 ( 63)  0.1282 ( 64)
          -0.1421 ( 65) -0.1458 ( 66)  0.1077 ( 67)  0.1040 ( 68)
 CRD 24=   0.2544 (  2) -0.2271 (  3)  0.1350 (  5)  0.3328 (  6) -0.3713 (  8)
           0.1771 ( 10) -0.1888 ( 11) -0.1011 ( 31)  0.1676 ( 33) -0.1487 ( 51)
          -0.2026 ( 52) -0.1160 ( 56) -0.1315 ( 57)  0.1200 ( 59)  0.1007 ( 60)
           0.1134 ( 62)  0.1107 ( 64) -0.2152 ( 65) -0.2307 ( 66) -0.2691 ( 67)
          -0.2846 ( 68)
 CRD 25=  -0.4557 (  4) -0.4402 (  5)  0.3886 ( 19)  0.2125 ( 24)  0.2078 ( 27)
          -0.1654 ( 32) -0.1120 ( 33) -0.1622 ( 34) -0.1175 ( 35)  0.2168 ( 39)
           0.2163 ( 40) -0.1212 ( 51)  0.1145 ( 60)  0.1250 ( 61)  0.1182 ( 63)
          -0.1313 ( 65) -0.1362 ( 66)
 CRD 26=  -0.3145 (  2)  0.3255 (  3)  0.1487 ( 10) -0.1473 ( 11)  0.1084 ( 34)
          -0.1329 ( 35) -0.1249 ( 51) -0.1257 ( 52) -0.1402 ( 54) -0.1452 ( 55)
          -0.1314 ( 56) -0.1351 ( 57) -0.1430 ( 58) -0.2693 ( 59) -0.2494 ( 60)
          -0.2517 ( 61) -0.2716 ( 62) -0.2467 ( 63) -0.2666 ( 64) -0.1726 ( 65)
          -0.1763 ( 66) -0.1733 ( 67) -0.1770 ( 68)
 CRD 27=   0.6290 (  9) -0.1006 ( 20) -0.6017 ( 25)  0.1657 ( 30)  0.1542 ( 31)
          -0.2328 ( 41) -0.1491 ( 56)  0.1277 ( 57) -0.1574 ( 65)  0.1194 ( 66)
          -0.1654 ( 67)  0.1114 ( 68)
 CRD 28=   0.2013 (  2) -0.2105 (  3)  0.3083 (  6) -0.3118 (  8) -0.2038 ( 10)
           0.2301 ( 11)  0.2372 ( 15)  0.1354 ( 42)  0.1563 ( 43) -0.1096 ( 45)
          -0.1381 ( 47) -0.1291 ( 48) -0.1374 ( 49)  0.1112 ( 51)  0.1000 ( 53)
          -0.1651 ( 54) -0.1839 ( 55)  0.1206 ( 56) -0.1889 ( 58) -0.1748 ( 59)
          -0.2031 ( 60) -0.1981 ( 61) -0.1699 ( 62) -0.1793 ( 63) -0.1511 ( 64)
           0.1318 ( 65)  0.1158 ( 67)
 CRD 29=  -0.1109 (  6) -0.1408 (  7)  0.1505 ( 10)  0.8408 ( 15) -0.1056 ( 20)
           0.1676 ( 21)  0.1535 ( 22) -0.1033 ( 25) -0.1018 ( 41) -0.1302 ( 44)
           0.1320 ( 50)
 CRD 30=  -0.1260 (  1) -0.1762 (  2) -0.1645 (  4) -0.1561 ( 10)  0.1929 ( 11)
           0.1834 ( 12)  0.2399 ( 13)  0.2242 ( 14)  0.2221 ( 16)  0.2276 ( 17)
           0.2018 ( 18) -0.1382 ( 19) -0.1107 ( 27) -0.1904 ( 28) -0.1573 ( 29)
           0.1590 ( 34)  0.1666 ( 35) -0.2106 ( 36) -0.1974 ( 37) -0.2434 ( 38)
           0.1327 ( 39) -0.1548 ( 45)  0.2072 ( 46) -0.2059 ( 48) -0.1870 ( 49)
          -0.1383 ( 50) -0.1398 ( 67) -0.1280 ( 68)
 CRD 31=   0.1067 (  1)  0.1743 (  3)  0.1368 (  4) -0.1893 (  5) -0.2799 ( 10)
           0.2959 ( 11) -0.1605 ( 12) -0.1271 ( 13) -0.1112 ( 16) -0.1307 ( 17)
          -0.1438 ( 18)  0.1088 ( 29)  0.1579 ( 36)  0.1275 ( 37)  0.1002 ( 38)
           0.1405 ( 45) -0.3979 ( 48) -0.3210 ( 49) -0.3017 ( 50) -0.1393 ( 56)
          -0.1330 ( 57) -0.1435 ( 67) -0.1372 ( 68)
 CRD 32=  -0.2087 (  5) -0.1427 (  6) -0.1514 (  8)  0.2165 (  9)  0.1548 ( 10)
          -0.3350 ( 15) -0.1415 ( 19)  0.1591 ( 20)  0.2068 ( 21)  0.1736 ( 22)
          -0.2118 ( 23) -0.1306 ( 24)  0.1961 ( 25) -0.2218 ( 26) -0.1833 ( 30)
          -0.1921 ( 31)  0.1880 ( 32)  0.1804 ( 33)  0.1958 ( 40) -0.1641 ( 41)
           0.2315 ( 42) -0.2340 ( 44) -0.1556 ( 49)  0.2752 ( 50)
 CRD 33=   0.1814 (  1)  0.2292 (  2) -0.2269 (  3) -0.1238 (  5) -0.2247 (  6)
           0.2072 (  7)  0.2303 (  8) -0.2613 (  9)  0.1005 ( 12) -0.2437 ( 14)
          -0.1174 ( 26) -0.1056 ( 29)  0.1273 ( 30)  0.1328 ( 31)  0.2067 ( 33)
           0.1934 ( 34) -0.1183 ( 36)  0.1534 ( 38) -0.1124 ( 41) -0.1014 ( 43)
          -0.1445 ( 52)  0.1959 ( 54)  0.1813 ( 57) -0.1319 ( 59) -0.2230 ( 60)
          -0.1567 ( 61) -0.1347 ( 65) -0.2428 ( 67)
 CRD 34=  -0.5279 (  1)  0.1410 (  2)  0.3087 (  4) -0.1200 (  6)  0.2575 ( 12)
           0.1202 ( 16)  0.1282 ( 17)  0.1115 ( 18)  0.1937 ( 28)  0.1573 ( 29)
          -0.1533 ( 34) -0.2620 ( 35) -0.1266 ( 36) -0.2357 ( 37)  0.1697 ( 45)
          -0.1268 ( 46) -0.1051 ( 49) -0.2248 ( 62)  0.1033 ( 63)
 CRD 35=   0.2098 (  1) -0.1904 (  3)  0.1993 (  5) -0.4993 (  7)  0.1365 (  8)
           0.1429 (  9)  0.1299 ( 10)  0.1052 ( 12) -0.1316 ( 13)  0.1488 ( 21)
           0.1681 ( 22)  0.1726 ( 23)  0.1196 ( 25)  0.1002 ( 26) -0.1781 ( 30)
          -0.1006 ( 31) -0.1665 ( 32) -0.1069 ( 33)  0.1516 ( 38)  0.1537 ( 39)
          -0.1263 ( 41) -0.1414 ( 42)  0.1156 ( 44)  0.1449 ( 46) -0.2641 ( 49)
          -0.1024 ( 51)  0.1062 ( 54) -0.1675 ( 62)
 CRD 36=   0.2214 (  1) -0.2126 (  2) -0.1529 (  3)  0.2281 (  4) -0.1377 (  5)
           0.1928 (  7) -0.3395 ( 13)  0.1566 ( 14) -0.1324 ( 19)  0.1033 ( 32)
           0.1894 ( 36) -0.1994 ( 37)  0.1309 ( 38)  0.2803 ( 39) -0.1662 ( 45)
           0.1323 ( 46)  0.1246 ( 49) -0.1665 ( 55)  0.1610 ( 58)  0.3136 ( 60)
          -0.2660 ( 62)  0.1099 ( 63) -0.1422 ( 64)
 CRD 37=   0.2390 (  5) -0.1909 (  6)  0.2372 (  7) -0.1866 (  8) -0.2737 ( 11)
          -0.1258 ( 19) -0.1411 ( 30)  0.1342 ( 31)  0.2902 ( 40)  0.1695 ( 41)
           0.1244 ( 42) -0.1688 ( 44) -0.1775 ( 48) -0.1802 ( 49) -0.3835 ( 50)
          -0.2700 ( 51) -0.1224 ( 53)  0.1304 ( 56) -0.1656 ( 66)  0.2808 ( 67)
           0.1324 ( 68)
 CRD 38=  -0.1117 (  6) -0.2225 (  9)  0.2437 ( 10) -0.2476 ( 12)  0.2439 ( 14)
          -0.1016 ( 16)  0.1004 ( 18)  0.1605 ( 31) -0.1149 ( 32)  0.1914 ( 36)
          -0.1912 ( 38) -0.2080 ( 41)  0.1450 ( 42)  0.1191 ( 43)  0.1306 ( 44)
          -0.1336 ( 45) -0.1249 ( 46) -0.1712 ( 47) -0.2429 ( 49) -0.1372 ( 51)
          -0.2306 ( 54)  0.2474 ( 57) -0.2021 ( 63) -0.2015 ( 64) -0.1498 ( 65)
           0.1246 ( 66)  0.1933 ( 68)
 CRD 39=   0.1889 (  3) -0.2663 (  4)  0.1809 ( 12) -0.2440 ( 13)  0.2018 ( 17)
          -0.1387 ( 18)  0.1975 ( 27) -0.1298 ( 28)  0.1272 ( 35) -0.1939 ( 37)
           0.1366 ( 38) -0.2216 ( 39) -0.2377 ( 55) -0.1022 ( 56)  0.1189 ( 58)
           0.3663 ( 59) -0.3704 ( 61) -0.1136 ( 63)  0.2665 ( 64)  0.1151 ( 68)
 CRD 40=   0.1967 (  2)  0.1668 (  8)  0.2155 (  9) -0.1421 ( 10) -0.1140 ( 12)
           0.2093 ( 14) -0.1568 ( 16) -0.1531 ( 20) -0.1428 ( 26) -0.1509 ( 29)
           0.1117 ( 34)  0.1600 ( 36)  0.1802 ( 41) -0.1786 ( 43) -0.1634 ( 47)
           0.1095 ( 53)  0.1066 ( 55)  0.2283 ( 56)  0.2414 ( 58)  0.1444 ( 59)
          -0.1342 ( 61) -0.2940 ( 63) -0.1502 ( 64)  0.1198 ( 65) -0.1827 ( 66)
          -0.2785 ( 68)
 CRD 41=   0.2455 (  5) -0.1670 (  6) -0.2017 ( 10)  0.2478 ( 11) -0.2028 ( 21)
           0.1575 ( 22)  0.1222 ( 23) -0.1987 ( 24)  0.1717 ( 30) -0.1309 ( 31)
          -0.1076 ( 32)  0.2066 ( 40)  0.2226 ( 49)  0.2430 ( 50)  0.3448 ( 52)
           0.2067 ( 53) -0.1254 ( 56) -0.3471 ( 65) -0.2739 ( 66)
 CRD 42=  -0.1734 (  2)  0.1732 (  3) -0.1801 (  6)  0.1741 (  8)  0.1182 ( 23)
          -0.1156 ( 26) -0.1132 ( 28)  0.1131 ( 29) -0.1521 ( 32)  0.1487 ( 33)
          -0.1480 ( 34)  0.1484 ( 35)  0.2925 ( 42)  0.2890 ( 44) -0.2903 ( 45)
          -0.2899 ( 46)  0.2069 ( 53) -0.2115 ( 55)  0.2208 ( 56) -0.2116 ( 58)
           0.1610 ( 63)  0.1608 ( 64) -0.1726 ( 66) -0.1653 ( 68)

 THE DETERMINANT OF THE G MATRIX IS 10**(   -17)


                     --------------------
                     INTERNAL COORDINATES
                     --------------------

                 - - ATOMS - -         COORDINATE      COORDINATE
 NO.   TYPE    I  J  K  L  M  N        (BOHR,RAD)       (ANG,DEG)
 ----------------------------------------------------------------
   1 STRETCH   1  4                     2.8914370       1.5300827
   2 STRETCH   1 11                     2.0599166       1.0900610
   3 STRETCH   1 12                     2.0597612       1.0899788
   4 STRETCH   1  7                     2.7003730       1.4289759
   5 STRETCH   2  7                     2.7004320       1.4290072
   6 STRETCH   2 14                     2.0598407       1.0900208
   7 STRETCH   2  3                     2.8912283       1.5299722
   8 STRETCH   2 13                     2.0597846       1.0899911
   9 STRETCH   3  6                     2.7005253       1.4290566
  10 STRETCH   3 16                     2.0596787       1.0899351
  11 STRETCH   3 15                     2.0599273       1.0900667
  12 STRETCH   4  8                     2.0597182       1.0899560
  13 STRETCH   4 10                     2.0598069       1.0900029
  14 STRETCH   4  9                     2.0597406       1.0899679
  15 STRETCH   5  6                     1.8272460       0.9669370
  16 BEND      1  4  9                  1.9105709     109.4676488
  17 BEND      1  4 10                  1.9105995     109.4692893
  18 BEND      1  4  8                  1.9106377     109.4714774
  19 BEND      1  7  2                  1.9896504     113.9985723
  20 BEND      2  3  6                  1.9106682     109.4732245
  21 BEND      2  3 15                  1.9106280     109.4709226
  22 BEND      2  3 16                  1.9106761     109.4736743
  23 BEND      3  2 14                  1.9106682     109.4732227
  24 BEND      3  2  7                  1.9105883     109.4686459
  25 BEND      3  6  5                  1.9896547     113.9988183
  26 BEND      3  2 13                  1.9106471     109.4720149
  27 BEND      4  1  7                  1.9106383     109.4715118
  28 BEND      4  1 12                  1.9105637     109.4672352
  29 BEND      4  1 11                  1.9105027     109.4637441
  30 BEND      6  3 16                  1.9105991     109.4692639
  31 BEND      6  3 15                  1.9105340     109.4655320
  32 BEND      7  2 13                  1.9105628     109.4671843
  33 BEND      7  2 14                  1.9106768     109.4737177
  34 BEND      7  1 12                  1.9107209     109.4762410
  35 BEND      7  1 11                  1.9106733     109.4735157
  36 BEND      8  4 10                  1.9106673     109.4731730
  37 BEND      8  4  9                  1.9106122     109.4700149
  38 BEND      9  4 10                  1.9107118     109.4757202
  39 BEND     11  1 12                  1.9107005     109.4750752
  40 BEND     13  2 14                  1.9106562     109.4725381
  41 BEND     15  3 16                  1.9106941     109.4747063
  42 TORSION   1  7  2 13               1.0472434      60.0026262
  43 TORSION   1  7  2  3               3.1415848     179.9995510
  44 TORSION   1  7  2 14              -1.0471634     -59.9980446
  45 TORSION   2  7  1 12              -1.0472855     -60.0050363
  46 TORSION   2  7  1 11               1.0472702      60.0041653
  47 TORSION   2  7  1  4               3.1415332     179.9965922
  48 TORSION   2  3  6  5               3.1415849     179.9995565
  49 TORSION   5  6  3 15               1.0472356      60.0021779
  50 TORSION   5  6  3 16              -1.0471523     -59.9974096
  51 TORSION   6  3  2 13              -3.0543506    -175.0014012
  52 TORSION   6  3  2 14              -0.9598975     -54.9980751
  53 TORSION   6  3  2  7               1.1345449      65.0046324
  54 TORSION   7  1  4 10               3.1415836     179.9994819
  55 TORSION   7  1  4  9               1.0471511      59.9973411
  56 TORSION   7  2  3 16              -0.9598561     -54.9957009
  57 TORSION   7  2  3 15              -3.0543487    -175.0012902
  58 TORSION   7  1  4  8              -1.0471828     -59.9991524
  59 TORSION   8  4  1 11               1.0471846      59.9992586
  60 TORSION   8  4  1 12               3.1415396     179.9969613
  61 TORSION   9  4  1 12              -1.0473118     -60.0065452
  62 TORSION   9  4  1 11               3.1415185     179.9957520
  63 TORSION  10  4  1 12               1.0471207      59.9955956
  64 TORSION  10  4  1 11              -1.0472343     -60.0021071
  65 TORSION  13  2  3 16               1.1344337      64.9982655
  66 TORSION  13  2  3 15              -0.9600589     -55.0073237
  67 TORSION  14  2  3 16              -3.0542984    -174.9984084
  68 TORSION  14  2  3 15               1.1343942      64.9960024

     ------------------------------------------
     THE POINT GROUP IS C1 , NAXIS= 1, ORDER= 1
     ------------------------------------------

     DIMENSIONS OF THE SYMMETRY SUBSPACES ARE
 A   =  174

 ..... DONE SETTING UP THE RUN .....
 STEP CPU TIME =     0.01 TOTAL CPU TIME =        0.0 (    0.0 MIN)
 TOTAL WALL CLOCK TIME=        0.0 SECONDS, CPU UTILIZATION IS  50.00%


          -----------------------------
          STATIONARY POINT LOCATION RUN
          -----------------------------

 OBTAINING INITIAL HESSIAN, HESS=GUESS   
 DIAGONAL GUESS HESSIAN IN INTERNAL COORDS IS
     1  0.3671     2  0.3463     3  0.3464     4  0.3608     5  0.3608
     6  0.3464     7  0.3672     8  0.3464     9  0.3608    10  0.3464
    11  0.3463    12  0.3464    13  0.3464    14  0.3464    15  0.3553
    16  0.2241    17  0.2241    18  0.2241    19  0.2377    20  0.2430
    21  0.2241    22  0.2241    23  0.2241    24  0.2430    25  0.2143
    26  0.2241    27  0.2430    28  0.2241    29  0.2241    30  0.2194
    31  0.2194    32  0.2194    33  0.2194    34  0.2194    35  0.2194
    36  0.2034    37  0.2034    38  0.2034    39  0.2034    40  0.2034
    41  0.2034    42  0.2500    43  0.2500    44  0.2500    45  0.2500
    46  0.2500    47  0.2500    48  0.2500    49  0.2500    50  0.2500
    51  0.2500    52  0.2500    53  0.2500    54  0.2500    55  0.2500
    56  0.2500    57  0.2500    58  0.2500    59  0.2500    60  0.2500
    61  0.2500    62  0.2500    63  0.2500    64  0.2500    65  0.2500
    66  0.2500    67  0.2500    68  0.2500
 TRANSFORMING HESSIAN TO SYMMETRY COORDINATES

          PARAMETERS CONTROLLING GEOMETRY SEARCH ARE
          METHOD =QA                  UPHESS =BFGS    
          NNEG   =         0          NFRZ   =         3
          NSTEP  =        50          IFOLOW =         1
          HESS   =GUESS               RESTAR =         F
          IHREP  =         0          HSSEND =         F
          NPRT   =         0          NPUN   =         0
          OPTTOL = 5.000E-04          RMIN   = 1.500E-03
          RMAX   = 1.000E-01          RLIM   = 7.000E-02
          DXMAX  = 3.000E-01          PURIFY =         F
          MOVIE  =         F          TRUPD  =         T
          TRMAX  = 5.000E-01          TRMIN  = 5.000E-02
          ITBMAT =         5          STPT   =         F
          STSTEP = 1.000E-02          PROJCT=          F
          FROZEN COORD(S)=   1   2   3


      ***** EQUILIBRIUM GEOMETRY LOCATED *****
            (SUBJECT TO   3 CONSTRAINT(S))
 COORDINATES OF ALL ATOMS ARE (ANGS)
   ATOM   CHARGE       X              Y              Z
 ------------------------------------------------------------
 C           6.0  -1.7294524468  -0.3967292023   0.2966281546
 C           6.0   0.5856677809  -0.8537670913   0.1612066447
 C           6.0   1.8798628208  -0.3234467024  -0.4062396525
 C           6.0  -2.7685197279   0.5937454567  -0.1907964456
 H           1.0   3.0725373843   1.1577429364  -0.0735434057
 O           8.0   2.2548912291   0.8484383448   0.2795658140
 O           8.0  -0.4622996859   0.0247849677  -0.1424466639
 H           1.0  -2.5682357718   1.5851600581   0.2044275957
 H           1.0  -2.7615258216   0.6494408511  -1.2752301243
 H           1.0  -3.7600516805   0.2905877618   0.1319609716
 H           1.0  -1.7435113746  -0.4584290293   1.3838993283
 H           1.0  -1.9441120594  -1.3904917299  -0.0935515598
 H           1.0   0.3928766587  -1.8331152350  -0.2741039779
 H           1.0   0.6810896792  -0.9752657081   1.2394225082
 H           1.0   2.6436066985  -1.0892295188  -0.2975009699
 H           1.0   1.7501905349  -0.1185026126  -1.4659394952


                     --------------------
                     INTERNAL COORDINATES
                     --------------------

                 - - ATOMS - -         COORDINATE      COORDINATE
 NO.   TYPE    I  J  K  L  M  N        (BOHR,RAD)       (ANG,DEG)
 ----------------------------------------------------------------
   1 STRETCH   1  4                     2.8648418       1.5160091
   2 STRETCH   1 11                     2.0581217       1.0891112
   3 STRETCH   1 12                     2.0578786       1.0889825
   4 STRETCH   1  7                     2.6564850       1.4057514
   5 STRETCH   2  7                     2.6471647       1.4008194
   6 STRETCH   2 14                     2.0583416       1.0892276
   7 STRETCH   2  3                     2.8522820       1.5093627
   8 STRETCH   2 13                     2.0577949       1.0889383
   9 STRETCH   3  6                     2.6619593       1.4086483
  10 STRETCH   3 16                     2.0543162       1.0870974
  11 STRETCH   3 15                     2.0541175       1.0869922
  12 STRETCH   4  8                     2.0520881       1.0859183
  13 STRETCH   4 10                     2.0520828       1.0859155
  14 STRETCH   4  9                     2.0520260       1.0858855
  15 STRETCH   5  6                     1.7816626       0.9428153
  16 BEND      1  4  9                  1.9285640     110.4985767
  17 BEND      1  4 10                  1.9260912     110.3568961
  18 BEND      1  4  8                  1.9316304     110.6742703
  19 BEND      1  7  2                  2.0026870     114.7455105
  20 BEND      2  3  6                  1.9151047     109.7274178
  21 BEND      2  3 15                  1.8937009     108.5010720
  22 BEND      2  3 16                  1.9075619     109.2952463
  23 BEND      3  2 14                  1.9137027     109.6470863
  24 BEND      3  2  7                  1.9172989     109.8531364
  25 BEND      3  6  5                  1.8980802     108.7519833
  26 BEND      3  2 13                  1.8939000     108.5124757
  27 BEND      4  1  7                  1.8981011     108.7531826
  28 BEND      4  1 12                  1.9240063     110.2374386
  29 BEND      4  1 11                  1.9274500     110.4347506
  30 BEND      6  3 16                  1.9278374     110.4569449
  31 BEND      6  3 15                  1.9287117     110.5070408
  32 BEND      7  2 13                  1.9229799     110.1786341
  33 BEND      7  2 14                  1.9284457     110.4917988
  34 BEND      7  1 12                  1.9170800     109.8405922
  35 BEND      7  1 11                  1.9181778     109.9034948
  36 BEND      8  4 10                  1.8913678     108.3673928
  37 BEND      8  4  9                  1.8917298     108.3881358
  38 BEND      9  4 10                  1.8933862     108.4830363
  39 BEND     11  1 12                  1.8791073     107.6649168
  40 BEND     13  2 14                  1.8869422     108.1138271
  41 BEND     15  3 16                  1.8903477     108.3089424
  42 TORSION   1  7  2 13               1.0163361      58.2317698
  43 TORSION   1  7  2  3               3.1019134     177.7265452
  44 TORSION   1  7  2 14              -1.0676480     -61.1717224
  45 TORSION   2  7  1 12              -0.9609605     -55.0589792
  46 TORSION   2  7  1 11               1.1033614      63.2179528
  47 TORSION   2  7  1  4              -3.0679444    -175.7802675
  48 TORSION   2  3  6  5               3.1217623     178.8638022
  49 TORSION   5  6  3 15               1.0342380      59.2574731
  50 TORSION   5  6  3 16              -1.0572637     -60.5767450
  51 TORSION   6  3  2 13              -2.9931269    -171.4935379
  52 TORSION   6  3  2 14              -0.9356660     -53.6097142
  53 TORSION   6  3  2  7               1.1867978      67.9985032
  54 TORSION   7  1  4 10               3.1383821     179.8160504
  55 TORSION   7  1  4  9               1.0443137      59.8347659
  56 TORSION   7  2  3 16              -0.9296046     -53.2624187
  57 TORSION   7  2  3 15              -2.9875693    -171.1751109
  58 TORSION   7  1  4  8              -1.0512758     -60.2336648
  59 TORSION   8  4  1 11               1.0548990      60.4412622
  60 TORSION   8  4  1 12               3.1291975     179.2898109
  61 TORSION   9  4  1 12              -1.0583983     -60.6417583
  62 TORSION   9  4  1 11              -3.1326968    -179.4903070
  63 TORSION  10  4  1 12               1.0356701      59.3395261
  64 TORSION  10  4  1 11              -1.0386284     -59.5090226
  65 TORSION  13  2  3 16               1.1736561      67.2455402
  66 TORSION  13  2  3 15              -0.8843086     -50.6671520
  67 TORSION  14  2  3 16              -3.0520684    -174.8706361
  68 TORSION  14  2  3 15               1.1731522      67.2166717

          INTERNUCLEAR DISTANCES (ANGS.)


 =====================================================
   GAMESS/COSab RESULTS
 =====================================================

   Dielectric Constant                  = INFTY
   Basic Grid Size                      =                 1082
   Number of Segments                   =                   92
   Number of Segments located on spheres=                  241
   Number of Segments of the cavity     =                  594
   Solvent Radius (rsolv)               = 1.40
   Outlying Charge Error Method         = double cavity

 =====================================================

  Total solvated Energy (a.u.)          =  -307.0937025587
  Total Energy corrected (a.u.)         =  -307.0934863970

  Outlying charge effect (a.u.)         =     0.0002161617
  Outlying charge effect (kcal/mol)     =     0.1356436212

  Dielectric Energy (a.u.)              =    -0.0174625898
  Dielectric energy corr. (a.u.)        =    -0.0172464281

  Sum of polarization charges           =     0.0225071054
  Sum of polarization charges(cor.)     =    -0.0225071054

  Total surface area of cavity (A**2)   =  139.71
  Total volume of cavity (A**3)         =  123.63

 =====================================================
 NPS=                   594
NR.  ATOM  (X, Y, Z)(a.u.)                  CHARGE(e)  AREA(A**2) SIGMA(e/A**2)
   1   1  -2.097553   1.928511   2.956571   0.000264   0.185824   0.001421
   2   1  -6.162197  -2.646782   2.080436  -0.000367   0.185824  -0.001975
   3   1  -2.974135  -4.131840   2.221569   0.000895   0.371649   0.002408
   4   1  -3.487987  -2.228354  -2.910712   0.000138   0.139368   0.000991
   5   1  -2.840318  -1.594310  -3.098404   0.000198   0.139368   0.001422
   6   1  -3.068301  -3.619706   3.011549   0.000552   0.278737   0.001982
   7   1  -5.557227  -2.657884   2.885066  -0.000296   0.325193  -0.000909
   8   1  -1.780102   1.322671   3.348920   0.000207   0.185824   0.001115
   9   1  -6.027757  -1.801908   2.918906  -0.000409   0.232280  -0.001759
  10   1  -5.396314  -3.487310   2.064166  -0.000062   0.325193  -0.000190
  11   1  -4.164398  -3.934849   2.387005   0.000747   0.325193   0.002298
  12   1  -6.172249  -3.028344   1.372029  -0.000256   0.278737  -0.000920
  13   1  -2.726016  -2.307952  -2.839788   0.000108   0.185824   0.000580
  14   1  -4.740241  -3.388466   2.830846   0.000338   0.278737   0.001214
  15   1  -2.728162   1.758205   3.335958   0.000122   0.139368   0.000875
  16   1  -6.332985  -2.961272   0.543957  -0.000239   0.139368  -0.001714
  17   2   0.031533  -2.177550  -3.274459   0.000102   0.139368   0.000731
  18   2   3.035441  -4.645157   1.476315  -0.000703   0.325193  -0.002163
  19   2  -0.099426  -4.418552   2.531847   0.000809   0.371649   0.002178
  20   2  -0.055627  -4.915926   1.728157   0.000347   0.278737   0.001244
  21   2   2.659296  -5.036817   0.697125  -0.000639   0.278737  -0.002293
  22   2  -0.238394  -2.817371  -3.015802   0.000047   0.185824   0.000255
  23   2   2.250987  -4.724134   2.120751   0.000004   0.278737   0.000014
  24   2   1.057426  -4.768945   2.384135   0.000626   0.325193   0.001926
  25   2   3.162072  -3.969738   2.427736  -0.000772   0.278737  -0.002771
  26   2   0.817930   0.680461   3.294458   0.000005   0.092912   0.000049
  27   2   1.635086  -5.066305   1.747731   0.000132   0.278737   0.000473
  28   2   0.549869  -2.850898  -3.222793  -0.000057   0.139368  -0.000411
  29   3   5.203081  -1.664411   2.465030   0.000153   0.185824   0.000824
  30   3   3.589816  -3.619571  -3.055202  -0.000667   0.325193  -0.002051
  31   3   5.891080  -1.308928  -3.653530   0.000641   0.371649   0.001724
  32   3   2.845856   2.502454  -2.790045   0.000171   0.092912   0.001844
  33   3   7.321781  -0.797695  -0.971151  -0.000424   0.092912  -0.004566
  34   3   6.228945  -1.968409  -3.065185   0.000386   0.278737   0.001385
  35   3   4.205776  -3.950658  -2.412556  -0.000678   0.278737  -0.002434
  36   3   5.861649  -1.668045   2.031406  -0.000054   0.185824  -0.000292
  37   3   3.709815   2.427482  -3.009482  -0.000030   0.046456  -0.000653
  38   3   4.201221  -3.020358  -3.606591  -0.000004   0.278737  -0.000016
  39   3   5.167716  -2.284067  -3.747057   0.000524   0.325193   0.001610
  40   3   6.734426  -0.881749  -2.789042   0.000068   0.325193   0.000208
  41   3   7.028777  -0.335836  -2.224849  -0.000320   0.139368  -0.002299
  42   3   2.995241  -2.876091  -3.741603  -0.000727   0.278737  -0.002610
  43   3   6.073184  -0.217991  -3.556111   0.000027   0.278737   0.000097
  44   3   5.844029   0.929845  -3.347959  -0.000141   0.185824  -0.000761
  45   3   2.144067   2.248073  -2.798728   0.000135   0.092912   0.001449
  46   3   7.133099  -0.975387  -1.921100  -0.000237   0.139368  -0.001699
  47   3   4.938782  -3.045194  -3.305017   0.000105   0.278737   0.000377
  48   3   5.103214  -2.364565   2.199666  -0.000079   0.139368  -0.000568
  49   3   6.630702  -1.137062   1.361157   0.000331   0.139368   0.002371
  50   3   6.460314   0.201379  -3.041015  -0.000755   0.232280  -0.003250
  51   4  -8.225784   1.064057  -2.666336   0.001834   0.418105   0.004387
  52   4  -6.160819   2.027060   3.189386   0.000741   0.325193   0.002280
  53   4  -5.744506   4.125291  -2.596989   0.001566   0.418105   0.003746
  54   4  -8.273277   3.254166   0.337551   0.001082   0.371649   0.002912
  55   4  -7.258351  -2.008987  -0.972071   0.000294   0.278737   0.001055
  56   4  -6.016595  -1.427326  -3.038066   0.000427   0.232280   0.001839
  57   4  -6.888583  -1.644431  -2.331820   0.000713   0.325193   0.002194
  58   4  -7.764874  -0.690651  -2.501055   0.001228   0.325193   0.003777
  59   4  -7.519006   3.893439   0.810761   0.001276   0.371649   0.003435
  60   4  -5.360750   4.595284  -1.845143   0.000906   0.278737   0.003251
  61   4  -2.971963   3.943220  -1.464362   0.000621   0.185824   0.003344
  62   4  -5.911978   2.845653   2.933487   0.000461   0.185824   0.002480
  63   4  -7.661327   0.051495  -3.050415   0.000869   0.232280   0.003742
  64   4  -8.341659   0.051069  -2.222212   0.000999   0.278737   0.003584
  65   4  -3.112017   3.468438  -2.430636   0.000712   0.232280   0.003066
  66   4  -4.494007   4.125369  -2.533068   0.001302   0.278737   0.004671
  67   4  -6.755540   4.302089  -1.720497   0.001168   0.464561   0.002514
  68   4  -7.823616   3.856845  -0.655888   0.000987   0.464561   0.002125
  69   4  -7.763742   3.070459   1.658582   0.001562   0.371649   0.004202
  70   4  -7.153872   2.273418   2.683138   0.001365   0.371649   0.003674
  71   4  -6.776449   1.070410   3.088444   0.000727   0.371649   0.001956
  72   4  -6.995369   3.490717  -2.719183   0.000952   0.418105   0.002278
  73   4  -7.923115   2.375633  -2.699192   0.001139   0.418105   0.002723
  74   4  -8.599945   1.964812  -1.853607   0.001199   0.464561   0.002582
  75   4  -8.572452   2.844164  -0.758292   0.000615   0.325193   0.001890
  76   4  -6.851197  -1.021530  -3.018900   0.000618   0.232280   0.002661
  77   4  -7.686167  -1.404288  -1.730905   0.000773   0.278737   0.002775
  78   4  -7.025868   4.435219  -0.657371   0.000578   0.278737   0.002073
  79   4  -3.732780   4.156685  -2.042246   0.001108   0.278737   0.003975
  80   4  -5.126666   2.453066   3.175206   0.000366   0.232280   0.001575
  81   4  -6.890311   3.190516   2.332923   0.001221   0.325193   0.003753
  82   4  -6.773321   0.038070   2.915565  -0.000049   0.092912  -0.000523
  83   4  -3.790640   3.532625  -2.889658   0.000590   0.185824   0.003175
  84   4  -7.907676   3.355732  -1.821439   0.000771   0.464561   0.001661
  85   5   7.867145   3.073246  -1.140899  -0.008536   0.451437  -0.018908
  86   5   7.732067   2.808301   1.254348  -0.006510   0.471065  -0.013820
  87   5   6.552289   4.524730  -0.007023  -0.006537   0.451437  -0.014480
  88   5   5.884229   3.653210  -2.109170  -0.005742   0.431809  -0.013299
  89   5   7.446964   2.204892  -1.967327  -0.006567   0.372926  -0.017610
  90   5   8.068535   1.234405  -0.048604  -0.005696   0.353299  -0.016121
  91   5   7.727618   3.702959   0.079721  -0.008342   0.471065  -0.017710
  92   5   7.073089   3.995830  -1.216634  -0.008628   0.490692  -0.017583
  93   5   6.766174   2.995870  -2.251016  -0.007326   0.431809  -0.016966
  94   5   7.981586   1.617585  -1.127838  -0.007577   0.431809  -0.017548
  95   5   8.243004   2.456160   0.020200  -0.008730   0.490692  -0.017791
  96   5   7.071447   3.923600   1.053280  -0.005411   0.412182  -0.013128
  97   5   5.953519   4.447078  -1.092491  -0.004623   0.372926  -0.012396
  98   5   7.882170   1.491537   0.974957  -0.004479   0.392554  -0.011411
  99   6   2.261517   4.158206   0.725047   0.004798   0.240512   0.019949
 100   6   3.651493   2.615915   3.556101   0.004341   0.240512   0.018047
 101   6   4.975549   4.679297   1.298106   0.001564   0.274871   0.005688
 102   6   6.739422   1.854154   2.616311   0.003038   0.343589   0.008841
 103   6   4.087432   3.739043  -1.915709   0.002028   0.240512   0.008434
 104   6   2.711856   2.290923   3.301661   0.005562   0.274871   0.020236
 105   6   2.281585   3.784804   1.902024   0.007055   0.343589   0.020534
 106   6   2.859338   3.275392   2.937395   0.006210   0.343589   0.018074
 107   6   3.807727   1.686024   3.745779   0.007281   0.343589   0.021190
 108   6   4.633270   0.633206   3.608072   0.004800   0.240512   0.019955
 109   6   5.701815   4.128466   1.981811   0.000670   0.274871   0.002439
 110   6   6.335287   3.088052   2.542766   0.001591   0.309230   0.005144
 111   6   6.908020   0.941520   2.294833   0.002210   0.240512   0.009187
 112   6   7.047570   0.371849   1.661389   0.000945   0.171795   0.005503
 113   6   4.274269   4.498687  -0.948631   0.002660   0.309230   0.008602
 114   6   4.593881   4.815677   0.161317   0.001969   0.309230   0.006367
 115   6   2.947182   4.504887   1.175647   0.004763   0.274871   0.017327
 116   6   3.906945   4.775521   1.141742   0.004788   0.377948   0.012670
 117   6   4.568368   4.310514   2.300676   0.005304   0.481025   0.011027
 118   6   3.970820   3.592865   3.082125   0.006087   0.377948   0.016106
 119   6   4.681362   2.657243   3.574158   0.007029   0.412307   0.017047
 120   6   5.813036   2.237883   3.312817   0.006540   0.446666   0.014641
 121   6   6.120954   0.947727   3.112072   0.006103   0.377948   0.016147
 122   6   5.493438   0.112117   3.140263   0.005525   0.309230   0.017866
 123   6   3.318568   3.707333  -1.762847   0.003222   0.240512   0.013396
 124   6   3.315560   4.281634  -1.051944   0.004081   0.274871   0.014847
 125   6   2.554285   4.258690  -0.246499   0.006123   0.309230   0.019801
 126   6   2.119452   2.886830   2.609261   0.002878   0.171795   0.016755
 127   6   3.263728   4.173874   2.249356   0.006278   0.377948   0.016610
 128   6   5.089487   1.372777   3.662830   0.006524   0.343589   0.018986
 129   6   2.557660   3.773949  -1.189604   0.003520   0.171795   0.020489
 130   6   5.384419   3.479459   2.933074   0.004378   0.412307   0.010619
 131   6   6.410892   0.116914   2.460594   0.002629   0.206154   0.012751
 132   6   3.476242   4.720677   0.048029   0.005640   0.377948   0.014922
 133   7  -0.461584   3.199272   0.406799   0.001776   0.068718   0.025844
 134   7  -0.759839   2.106517  -2.781034   0.005732   0.274871   0.020854
 135   7  -0.352919   2.480855  -2.359408   0.003901   0.171795   0.022708
 136   7  -0.424151   3.212885  -0.851164   0.003519   0.171795   0.020485
 137   7  -0.375748   2.895816  -1.752438   0.005718   0.274871   0.020802
 138   7  -0.813519   1.268466  -3.280604   0.004473   0.206154   0.021698
 139   7  -0.913548  -0.273089  -3.503488   0.003181   0.171795   0.018519
 140   7  -0.672729   3.268383   0.112724   0.002135   0.068718   0.031076
 141   7  -1.273354  -0.971487  -3.329888   0.003351   0.206154   0.016254
 142   7  -0.735021   2.434285   1.932056   0.002083   0.103077   0.020212
 143   7  -0.630971   2.867141   1.328181   0.002953   0.171795   0.017192
 144   7  -0.838176   3.156166  -1.215442   0.001227   0.068718   0.017859
 145   7  -1.062896   0.374452  -3.497419   0.003986   0.171795   0.023203
 146   7  -0.469898   1.887579   2.379072   0.001284   0.068718   0.018692
 147   8  -4.639705   5.179693   1.490342  -0.003027   0.510320  -0.005931
 148   8  -3.579291   4.234584   2.082430  -0.001822   0.392554  -0.004641
 149   8  -5.429664   4.079571   2.514160  -0.000890   0.333671  -0.002666
 150   8  -6.129992   5.027174   0.913059  -0.001313   0.412182  -0.003186
 151   8  -4.490408   5.213590  -0.605432  -0.001156   0.412182  -0.002806
 152   8  -3.355360   4.860698  -0.172657  -0.001418   0.412182  -0.003440
 153   8  -4.404071   4.069726   2.549512  -0.001431   0.412182  -0.003472
 154   8  -5.887148   4.669903   1.856909  -0.001505   0.431809  -0.003484
 155   8  -5.547397   5.326132   0.037727  -0.001755   0.490692  -0.003577
 156   8  -4.183623   5.356401   0.499854  -0.001870   0.353299  -0.005294
 157   8  -3.232931   4.691873   1.115684  -0.002259   0.431809  -0.005232
 158   9  -5.275982   1.405643  -4.859322  -0.003414   0.569203  -0.005998
 159   9  -6.793814   0.433713  -4.119757  -0.000834   0.372926  -0.002237
 160   9  -5.154976  -0.518397  -4.137171  -0.000970   0.294415  -0.003295
 161   9  -3.922361   1.149905  -4.495277  -0.002040   0.412182  -0.004950
 162   9  -4.657569   2.947264  -4.071780  -0.000998   0.372926  -0.002675
 163   9  -6.585646   2.439063  -4.052290  -0.000966   0.372926  -0.002589
 164   9  -5.870467   0.054414  -4.467619  -0.001716   0.431809  -0.003974
 165   9  -4.450487   0.191984  -4.501099  -0.001982   0.431809  -0.004591
 166   9  -3.929617   2.218541  -4.251357  -0.001901   0.451437  -0.004212
 167   9  -5.626562   2.788933  -4.261816  -0.001788   0.471065  -0.003796
 168   9  -6.659530   1.454505  -4.386443  -0.001967   0.490692  -0.004009
 169  10  -9.379885  -0.103112   0.910163  -0.004031   0.608459  -0.006624
 170  10  -8.318207  -1.337902   1.251085  -0.001544   0.353299  -0.004371
 171  10  -8.750403  -1.012989  -0.693529  -0.000956   0.333671  -0.002866
 172  10  -9.366971   0.895250  -0.645544  -0.001106   0.353299  -0.003130
 173  10  -8.964241   1.732163   1.335847  -0.001087   0.372926  -0.002913
 174  10  -8.061986   0.289719   2.497217  -0.001028   0.353299  -0.002910
 175  10  -8.592732  -1.405751   0.288824  -0.002122   0.490692  -0.004324
 176  10  -9.307189  -0.154964  -0.582342  -0.002163   0.490692  -0.004407
 177  10  -9.438383   1.307580   0.380922  -0.002324   0.510320  -0.004554
 178  10  -8.844773   0.887926   1.950859  -0.002273   0.490692  -0.004632
 179  10  -8.410626  -0.599333   1.985065  -0.002133   0.490692  -0.004346
 180  11  -3.571496  -0.882063   5.056153  -0.002485   0.451437  -0.005505
 181  11  -4.218910   0.290755   4.575361  -0.001336   0.333671  -0.004003
 182  11  -2.377606   0.499153   4.439867  -0.001365   0.392554  -0.003476
 183  11  -3.299398  -2.755272   4.185838  -0.001136   0.392554  -0.002893
 184  11  -5.065340  -1.562375   4.169434  -0.001265   0.353299  -0.003582
 185  11  -3.355271   0.639520   4.555274  -0.001300   0.353299  -0.003679
 186  11  -2.484872  -0.619790   4.921362  -0.002343   0.431809  -0.005427
 187  11  -2.848682  -1.950188   4.774207  -0.002172   0.412182  -0.005270
 188  11  -4.209669  -2.146839   4.501543  -0.001866   0.451437  -0.004134
 189  11  -4.723067  -0.677276   4.604999  -0.001853   0.451437  -0.004105
 190  12  -4.462108  -4.798099  -1.015142  -0.002011   0.372926  -0.005391
 191  12  -4.332602  -3.477788  -2.385489  -0.001075   0.353299  -0.003042
 192  12  -5.706272  -3.934679  -0.619490  -0.001472   0.333671  -0.004411
 193  12  -4.362787  -4.778079   0.790724  -0.001184   0.372926  -0.003174
 194  12  -3.596405  -4.085336  -2.152693  -0.002438   0.490692  -0.004969
 195  12  -5.147770  -3.961642  -1.620071  -0.001902   0.471065  -0.004037
 196  12  -4.957242  -4.722393  -0.178251  -0.001469   0.294415  -0.004991
 197  12  -3.476120  -5.002606   0.419489  -0.001797   0.431809  -0.004163
 198  12  -3.534585  -4.946930  -0.974654  -0.002344   0.392554  -0.005971
 199  12  -5.412834  -4.248871   0.441787  -0.000843   0.274788  -0.003068
 200  13   0.564352  -5.685257  -1.552291  -0.002659   0.431809  -0.006157
 201  13   1.455690  -4.914764  -2.367830  -0.001430   0.314043  -0.004554
 202  13  -0.101298  -4.179477  -2.711486  -0.001259   0.314043  -0.004009
 203  13   0.095123  -5.620053   0.465819  -0.001327   0.372926  -0.003559
 204  13   1.990629  -5.577609  -0.417317  -0.001766   0.353299  -0.004999
 205  13   0.703494  -4.628615  -2.680733  -0.001709   0.372926  -0.004583
 206  13  -0.334867  -5.138883  -1.956588  -0.002463   0.392554  -0.006275
 207  13  -0.264899  -5.701851  -0.630990  -0.002474   0.412182  -0.006003
 208  13   1.007066  -5.877239  -0.141484  -0.002036   0.451437  -0.004510
 209  13   1.740197  -5.501514  -1.460574  -0.002245   0.412182  -0.005446
 210  14   1.679835  -1.890819   4.766746  -0.001858   0.333671  -0.005568
 211  14   0.924441  -0.484038   4.356334  -0.001959   0.353299  -0.005545
 212  14   3.071467  -2.500287   3.897485  -0.001608   0.314043  -0.005121
 213  14   1.384160  -3.775231   3.856153  -0.001249   0.353299  -0.003536
 214  14   0.343813  -3.383412   4.007251  -0.001310   0.314043  -0.004172
 215  14   1.748640  -0.768327   4.502531  -0.001847   0.353299  -0.005228
 216  14   2.627422  -1.627297   4.389619  -0.002129   0.353299  -0.006025
 217  14   2.138219  -2.853511   4.413285  -0.001746   0.314043  -0.005558
 218  14   1.005095  -2.935739   4.524260  -0.001625   0.314043  -0.005176
 219  14   0.647527  -1.934382   4.712350  -0.002258   0.353299  -0.006390
 220  14   2.514783  -3.469911   3.713655  -0.001208   0.314043  -0.003848
 221  15   6.789896  -3.711423  -0.273716  -0.003849   0.569203  -0.006762
 222  15   5.545231  -4.138761   0.623108  -0.001802   0.372926  -0.004833
 223  15   6.539102  -2.612514   1.266976  -0.001162   0.333671  -0.003484
 224  15   7.447505  -2.008740  -0.416501  -0.001512   0.353299  -0.004281
 225  15   6.593984  -3.084244  -2.120414  -0.001366   0.372926  -0.003664
 226  15   5.179289  -4.332048  -1.474127  -0.001773   0.353299  -0.005018
 227  15   6.006877  -3.491666   1.157739  -0.002212   0.451437  -0.004899
 228  15   7.178819  -2.516637   0.466882  -0.002391   0.490692  -0.004873
 229  15   7.261779  -2.678772  -1.279816  -0.002397   0.510320  -0.004697
 230  15   6.183378  -3.902084  -1.669027  -0.002573   0.490692  -0.005245
 231  15   5.539425  -4.449712  -0.418071  -0.002650   0.471065  -0.005626
 232  16   3.094332   0.283998  -5.164331  -0.003483   0.549575  -0.006337
 233  16   3.246974   1.847661  -4.089293  -0.001438   0.392554  -0.003664
 234  16   2.152674  -1.289206  -4.658867  -0.001952   0.392554  -0.004973
 235  16   4.111663  -1.323073  -4.814775  -0.001347   0.372926  -0.003613
 236  16   4.828255   0.571290  -4.527982  -0.001470   0.412182  -0.003566
 237  16   2.255311   1.315139  -4.370067  -0.002681   0.510320  -0.005253
 238  16   1.926409  -0.061764  -4.795496  -0.002901   0.471065  -0.006159
 239  16   3.098025  -1.253724  -4.990776  -0.002109   0.431809  -0.004883
 240  16   4.417505  -0.332556  -4.959057  -0.002176   0.471065  -0.004619
 241  16   3.977882   1.287086  -4.587468  -0.002089   0.490692  -0.004257
 242   1  -1.820802  -1.951555  -2.832549   0.000454   0.056403   0.008042
 243   2  -1.057957  -2.102205  -2.877312   0.000490   0.056403   0.008689
 244   7  -1.394271  -1.781491  -2.930122   0.000732   0.056403   0.012983
 245   1  -0.866832   1.175517   2.922602   0.000527   0.056403   0.009336
 246   2  -0.103944   1.025006   2.878097   0.000466   0.056403   0.008254
 247   7  -0.456725   1.291740   2.725940   0.000746   0.056403   0.013220
 248   1  -1.202117   0.633635   3.449653  -0.000050   0.059936  -0.000835
 249   2  -0.455980   0.441216   3.343626   0.000107   0.059936   0.001783
 250  11  -1.359007   0.472091   3.656078  -0.000211   0.059936  -0.003524
 251   1  -2.293257  -4.349654   1.363735  -0.000146   0.063012  -0.002313
 252   2  -1.522874  -4.433289   1.294375  -0.000223   0.063012  -0.003540
 253  12  -2.436965  -4.464101   1.119404  -0.000241   0.063012  -0.003826
 254   1  -1.722827  -2.858372  -2.445229   0.000003   0.061782   0.000054
 255   2  -0.974268  -3.039074  -2.555563  -0.000130   0.061782  -0.002108
 256  13  -0.907111  -3.328121  -2.482702  -0.000296   0.061782  -0.004788
 257   1  -1.479962  -3.292016   3.056758  -0.000181   0.060412  -0.002995
 258   2  -0.728943  -3.494295   3.065997  -0.000145   0.060412  -0.002402
 259  14  -0.557952  -3.367314   3.285127  -0.000249   0.060412  -0.004128
 260   2  -0.998909  -2.681693  -2.798193   0.000377   0.183730   0.002051
 261   1  -2.064491  -2.337975  -2.790754   0.000459   0.183730   0.002497
 262   2   0.039310   0.806353   3.178973   0.000399   0.137937   0.002896
 263   1  -1.061368   0.936584   3.306953   0.000393   0.137937   0.002846
 264   2  -0.959027  -4.020808   2.403136  -0.000528   0.489468  -0.001078
 265   1  -2.103945  -4.002285   2.151807  -0.000431   0.489468  -0.000881
 266   1  -3.609739   2.255820   3.000915  -0.000025   0.026160  -0.000958
 267   4  -3.941662   2.600707   2.877878  -0.000034   0.026160  -0.001285
 268   8  -3.954118   2.881796   2.766316  -0.000055   0.026160  -0.002089
 269   1  -4.421005  -1.577548  -3.057419  -0.000030   0.026389  -0.001135
 270   4  -4.762521  -1.277822  -3.251829  -0.000047   0.026389  -0.001787
 271   9  -4.785065  -1.054229  -3.454581  -0.000090   0.026389  -0.003401
 272   1  -6.762939  -2.417202   0.230481  -0.000105   0.026572  -0.003956
 273   4  -7.129418  -2.126368   0.071175  -0.000085   0.026572  -0.003208
 274  10  -7.372307  -1.982222   0.180010  -0.000090   0.026572  -0.003404
 275   1  -6.417416  -0.771806   2.837511  -0.000099   0.026572  -0.003721
 276   4  -6.779341  -0.459290   2.712559  -0.000082   0.026572  -0.003079
 277  10  -7.053611  -0.464577   2.584626  -0.000120   0.026572  -0.004517
 278   1  -5.882153  -0.674919   3.299332  -0.000131   0.026716  -0.004916
 279   4  -6.195749  -0.344914   3.106917  -0.000092   0.026716  -0.003452
 280  11  -5.670269  -0.692617   3.516918  -0.000185   0.026716  -0.006922
 281   1  -3.750156   1.639899   3.458272  -0.000060   0.026716  -0.002228
 282   4  -4.091551   1.939720   3.263785  -0.000021   0.026716  -0.000793
 283  11  -3.729526   1.414546   3.661601  -0.000080   0.026716  -0.002999
 284   1  -4.561242  -2.228938  -2.676765  -0.000065   0.026957  -0.002412
 285   4  -4.893256  -1.884184  -2.800003  -0.000035   0.026957  -0.001316
 286  12  -4.554792  -2.511058  -2.563263  -0.000110   0.026957  -0.004070
 287   1  -6.347029  -2.845756  -0.123244  -0.000133   0.026957  -0.004944
 288   4  -6.655834  -2.492986  -0.279668  -0.000093   0.026957  -0.003450
 289  12  -6.180467  -3.072572  -0.238688  -0.000146   0.026957  -0.005412
 290   4  -4.875213  -1.512200  -3.120200   0.000020   0.072495   0.000277
 291   1  -4.452705  -2.022423  -2.854000  -0.000010   0.072495  -0.000131
 292   4  -6.989764  -2.280028  -0.172685  -0.000045   0.056791  -0.000787
 293   1  -6.521848  -2.729502   0.120162  -0.000097   0.056791  -0.001702
 294   4  -6.605376  -0.367928   2.893465  -0.000035   0.061089  -0.000569
 295   1  -6.086226  -0.776977   3.159238  -0.000121   0.061089  -0.001987
 296   4  -4.117590   2.341711   3.096249   0.000040   0.075194   0.000533
 297   1  -3.566483   1.927983   3.284390  -0.000007   0.075194  -0.000092
 298   1  -2.087561   2.556738   2.054693   0.000426   0.094615   0.004508
 299   7  -1.678405   2.593577   1.824682   0.001225   0.094615   0.012946
 300   8  -2.566894   3.093217   1.834205   0.000040   0.094615   0.000418
 301   1  -2.800178  -0.796256  -3.226162   0.000408   0.094672   0.004313
 302   7  -2.362211  -0.624322  -3.243658   0.001036   0.094672   0.010938
 303   9  -3.286879  -0.307235  -3.524236   0.000140   0.094672   0.001476
 304   7  -1.703650  -1.322102  -3.109174   0.001526   0.144160   0.010584
 305   1  -2.402406  -1.403218  -3.083468   0.000880   0.157736   0.005581
 306   7  -0.981754   2.070162   2.230805   0.003064   0.217859   0.014065
 307   1  -1.445726   1.748810   2.703463   0.001286   0.238324   0.005397
 308   8  -3.553017   3.225638   2.440130  -0.001025   0.294808  -0.003475
 309   1  -2.734037   2.439043   2.621534   0.000105   0.414759   0.000254
 310   9  -4.134668  -0.502082  -3.752064  -0.000991   0.292215  -0.003393
 311   1  -3.739796  -1.419777  -3.185992   0.000020   0.411150   0.000049
 312  10  -7.552938  -1.871186   0.605028  -0.000689   0.206974  -0.003328
 313  10  -7.411430  -1.142207   1.902760  -0.002290   0.424873  -0.005389
 314   1  -6.638990  -2.273007   1.341217  -0.001675   0.565800  -0.002961
 315   1  -6.427232  -1.314804   2.729450  -0.000416   0.291602  -0.001428
 316   1  -1.918271  -3.068444   3.308255  -0.000231   0.083835  -0.002756
 317  11  -2.000011  -2.889584   3.544090  -0.000306   0.083835  -0.003651
 318  14  -0.974709  -3.045232   3.434933  -0.000246   0.083835  -0.002931
 319  11  -2.042001   0.773325   3.902202  -0.000373   0.098396  -0.003792
 320  11  -3.180326   1.188419   3.911033  -0.000328   0.098396  -0.003336
 321   1  -2.536978   1.191223   3.581826  -0.001034   0.197997  -0.005223
 322  11  -5.455813  -1.136321   3.749673  -0.000323   0.070923  -0.004548
 323  11  -4.992520  -2.172630   3.696857  -0.000781   0.158048  -0.004939
 324  11  -3.860033  -2.947636   3.667527  -0.000535   0.158048  -0.003387
 325  11  -2.725157  -3.005017   3.678951  -0.000268   0.070923  -0.003783
 326   1  -5.548836  -1.609825   3.383911  -0.000814   0.154952  -0.005256
 327   1  -4.632921  -2.848594   3.325461  -0.000491   0.154952  -0.003168
 328   1  -3.145599  -3.254456   3.321669  -0.000344   0.154952  -0.002219
 329   1  -2.218139  -2.994521  -2.378018  -0.000204   0.083506  -0.002441
 330  12  -2.364583  -3.249792  -2.290311  -0.000348   0.083506  -0.004167
 331  13  -1.378573  -3.412689  -2.293683  -0.000253   0.083506  -0.003033
 332  12  -4.100645  -2.883858  -2.571900  -0.000265   0.082829  -0.003200
 333  12  -3.103985  -3.126222  -2.502953  -0.000326   0.082829  -0.003932
 334   1  -3.503016  -2.622114  -2.626761  -0.000765   0.174576  -0.004380
 335  12  -3.098959  -4.580324   1.197826  -0.000220   0.070053  -0.003144
 336  12  -4.197722  -4.403750   1.352620  -0.000585   0.155708  -0.003756
 337  12  -5.382857  -3.955882   0.863956  -0.000814   0.155708  -0.005231
 338  12  -5.962406  -3.498213   0.017149  -0.000337   0.070053  -0.004817
 339   1  -3.409468  -4.318395   1.642137  -0.000366   0.153421  -0.002389
 340   1  -4.889685  -3.962052   1.548933  -0.000547   0.153421  -0.003568
 341   1  -5.928175  -3.366564   0.603606  -0.000822   0.153421  -0.005360
 342  13  -0.892790  -3.557322  -2.526313  -0.000037   0.019287  -0.001903
 343   1  -2.117279  -2.900489  -2.588827   0.000090   0.027260   0.003287
 344  14  -0.476065  -3.339317   3.518813  -0.000022   0.028187  -0.000794
 345   1  -1.857952  -3.327533   3.256346   0.000109   0.039873   0.002739
 346   2   1.400884  -3.239133  -3.103794  -0.000185   0.028930  -0.006402
 347   3   1.828619  -3.047042  -3.253189  -0.000214   0.028930  -0.007381
 348  13   1.311540  -3.509665  -2.997085  -0.000167   0.028930  -0.005783
 349   2   3.767647  -2.780951   2.733360  -0.000207   0.027640  -0.007485
 350   3   4.166922  -2.589434   2.518800  -0.000186   0.027640  -0.006715
 351  14   3.591353  -2.720718   2.973990  -0.000193   0.027640  -0.006975
 352   2   4.170606  -3.269679   2.022548  -0.000217   0.028800  -0.007518
 353   3   4.612072  -3.119548   1.865250  -0.000187   0.028800  -0.006503
 354  15   4.827808  -3.235634   1.686443  -0.000167   0.028800  -0.005809
 355   2   1.396383  -2.389828  -3.490302  -0.000180   0.027901  -0.006465
 356   3   1.807621  -2.234295  -3.711298  -0.000189   0.027901  -0.006757
 357  16   1.886986  -2.008897  -3.898107  -0.000183   0.027901  -0.006551
 358   3   1.928578  -2.677203  -3.546797  -0.000382   0.103908  -0.003673
 359   2   1.263883  -2.821144  -3.321006  -0.000299   0.103908  -0.002882
 360   3   4.505937  -2.787730   2.228212  -0.000317   0.107599  -0.002951
 361   2   3.908252  -3.138660   2.413388  -0.000423   0.107599  -0.003932
 362   2   0.790857   1.390146   2.652901   0.000847   0.106510   0.007953
 363   6   1.431358   1.888913   2.562431   0.001885   0.106510   0.017695
 364   7   0.431683   1.610325   2.444909   0.001304   0.106510   0.012240
 365   2   1.451535   0.682825   3.330613   0.000106   0.062411   0.001704
 366   6   2.073120   1.198816   3.219523   0.001044   0.062411   0.016727
 367  14   1.492469   0.445341   3.518541  -0.000091   0.062411  -0.001460
 368   6   2.001908   1.942554   2.994462   0.003112   0.210775   0.014764
 369   2   1.219993   1.069590   3.148756   0.000923   0.232722   0.003965
 370   2   0.318503  -1.280069  -3.415487   0.000296   0.094720   0.003128
 371   7  -0.022981  -0.959340  -3.389498   0.001117   0.094720   0.011791
 372  16   0.904214  -0.963531  -3.746772  -0.000155   0.094720  -0.001640
 373   7  -0.771455  -1.280023  -3.234234   0.002091   0.163542   0.012783
 374   2  -0.430375  -1.896203  -3.150814   0.000878   0.178943   0.004906
 375   7  -0.174845   1.454922   2.619706   0.000696   0.048757   0.014273
 376   2   0.383567   1.150245   2.854335   0.000337   0.053359   0.006322
 377   2  -0.007085   0.207767   3.498046  -0.000131   0.084311  -0.001552
 378  11  -0.940166   0.156201   3.697425  -0.000132   0.084311  -0.001565
 379  14   0.089629  -0.007795   3.694330  -0.000334   0.084311  -0.003960
 380  11  -1.426290   0.419995   3.877271  -0.000020   0.020129  -0.001017
 381   2  -0.064911   0.456208   3.507329   0.000097   0.028482   0.003410
 382   2  -1.084252  -4.692808   0.991831  -0.000295   0.082274  -0.003582
 383  12  -1.984628  -4.595610   0.776686  -0.000280   0.082274  -0.003406
 384  13  -1.018055  -4.846070   0.734229  -0.000375   0.082274  -0.004558
 385  12  -2.524206  -4.655466   0.945558  -0.000043   0.042437  -0.001024
 386   2  -1.189308  -4.715014   1.272014   0.000105   0.059933   0.001749
 387   2   3.164789  -4.739558  -0.342326  -0.000297   0.039038  -0.007601
 388  13   2.922549  -4.861850  -0.479634  -0.000350   0.039038  -0.008959
 389  15   3.850535  -4.509646  -0.487834  -0.000380   0.039038  -0.009727
 390  13  -0.271774  -3.584798  -2.739505  -0.000417   0.084278  -0.004954
 391  13   0.746210  -3.690497  -2.952544  -0.000380   0.084278  -0.004509
 392   2   0.264916  -3.239418  -2.911253  -0.000958   0.176837  -0.005418
 393  13   2.419314  -5.229197  -0.231832  -0.000473   0.076514  -0.006181
 394  13   1.539376  -5.421474   0.590437  -0.000939   0.173599  -0.005406
 395  13   0.112286  -5.277794   0.899209  -0.000874   0.173599  -0.005032
 396   2   2.355011  -5.114957   0.382587  -0.001031   0.164394  -0.006274
 397   2   0.943773  -5.211992   1.225883  -0.000574   0.164394  -0.003493
 398   2  -0.377709  -4.958255   1.240284  -0.000233   0.093478  -0.002494
 399  14   0.955390   0.124017   3.780681  -0.000264   0.065532  -0.004025
 400   2   0.722600   0.391379   3.490764  -0.000163   0.080062  -0.002039
 401  14   0.036785  -3.652438   3.436429  -0.000254   0.069627  -0.003645
 402  14   1.076876  -4.035991   3.301164  -0.000630   0.154539  -0.004078
 403  14   2.400701  -3.786195   3.212157  -0.000871   0.154539  -0.005635
 404  14   3.238868  -3.048230   3.221139  -0.000390   0.069627  -0.005606
 405   2   0.280579  -4.023570   3.032387  -0.000448   0.152703  -0.002936
 406   2   1.774332  -4.234967   2.876373  -0.000634   0.152703  -0.004149
 407   2   3.096305  -3.492264   2.843074  -0.000933   0.152703  -0.006111
 408  15   4.902992  -3.576493   1.411973  -0.000853   0.182593  -0.004673
 409  15   4.574876  -4.270451   0.296116  -0.002755   0.372804  -0.007390
 410   2   3.795433  -4.045030   1.450561  -0.002156   0.501676  -0.004297
 411   2   3.421105  -4.718422   0.116820  -0.000878   0.257547  -0.003407
 412  16   1.676617  -1.550513  -4.066390  -0.001275   0.236389  -0.005395
 413   2   0.746520  -1.888887  -3.526514  -0.000356   0.333081  -0.001070
 414   3   4.555739   2.578702  -2.704928  -0.000120   0.038607  -0.003109
 415   5   4.990831   2.974480  -2.400658  -0.000431   0.038607  -0.011175
 416   6   4.671921   2.937353  -2.424192  -0.000141   0.038607  -0.003656
 417   3   7.100280  -0.239195   0.718778  -0.000169   0.038607  -0.004387
 418   5   7.334127   0.379449   0.752270  -0.000355   0.038607  -0.009182
 419   6   7.168536   0.172531   0.935028  -0.000144   0.038607  -0.003732
 420   5   7.564656   0.438365   0.377990  -0.001720   0.180414  -0.009536
 421   5   7.599929   0.703741  -0.929948  -0.006139   0.373445  -0.016438
 422   5   6.972219   1.491926  -2.188772  -0.006881   0.373445  -0.018425
 423   5   5.796223   2.525469  -2.574405  -0.005166   0.373445  -0.013833
 424   3   7.298540  -0.351664  -0.282244  -0.002916   0.427623  -0.006819
 425   3   7.039324   0.237300  -1.975123  -0.004106   0.427623  -0.009603
 426   3   5.966794   1.320547  -2.952960  -0.003617   0.427623  -0.008459
 427   3   4.826727   2.252008  -3.012918  -0.000728   0.220415  -0.003305
 428   3   1.822206   2.583124  -1.966824   0.001056   0.106958   0.009877
 429   6   2.008791   2.890442  -1.660090   0.001526   0.106958   0.014269
 430   7   1.027224   2.557328  -1.788059   0.002058   0.106958   0.019239
 431   3   4.388692  -1.108823   2.923719   0.000330   0.095598   0.003454
 432   6   4.477733  -0.660280   3.040524   0.001211   0.095598   0.012663
 433  14   3.765028  -1.318608   3.275383  -0.000175   0.095598  -0.001830
 434   6   4.087041   3.030793  -2.380661   0.000724   0.175019   0.004135
 435   6   2.809555   3.167793  -1.916157   0.002376   0.175019   0.013575
 436   3   3.249659   2.598306  -2.546950   0.001525   0.375889   0.004056
 437   6   5.247652  -0.417733   2.877484   0.002274   0.161484   0.014085
 438   6   6.500112  -0.204720   1.828564   0.002859   0.334101   0.008556
 439   3   5.643046  -0.985054   2.267439   0.002175   0.346991   0.006268
 440   3   6.854834  -0.689410   1.099564  -0.000037   0.176679  -0.000210
 441   3   1.623932   1.901926  -2.892446   0.000131   0.062434   0.002104
 442   7   0.836265   1.893048  -2.687786   0.001157   0.062434   0.018537
 443  16   1.704505   1.761435  -3.150427  -0.000069   0.062434  -0.001104
 444   7   0.489495   2.410865  -2.233270   0.003370   0.206045   0.016355
 445   3   1.608082   2.261620  -2.575807   0.001057   0.227481   0.004646
 446   3   3.747022  -4.351240  -1.401560  -0.000291   0.038877  -0.007486
 447  13   3.073398  -4.620469  -1.263876  -0.000380   0.038877  -0.009785
 448  15   4.027735  -4.348496  -1.287041  -0.000342   0.038877  -0.008799
 449  13   1.476434  -3.899830  -2.859345  -0.000850   0.183340  -0.004638
 450  13   2.263404  -4.599906  -2.001626  -0.002778   0.374375  -0.007421
 451   3   2.641814  -3.602939  -2.929172  -0.002127   0.503654  -0.004222
 452   3   3.477835  -4.332322  -1.854287  -0.000856   0.258586  -0.003310
 453  14   3.513703  -2.311104   3.304040  -0.001307   0.237527  -0.005503
 454   3   4.406632  -1.850273   2.785307  -0.000355   0.334621  -0.001059
 455  15   4.606595  -4.265187  -1.567421  -0.000434   0.069892  -0.006208
 456  15   5.267735  -3.707848  -2.286088  -0.000826   0.155477  -0.005313
 457  15   6.233192  -2.774144  -2.491678  -0.000739   0.155477  -0.004752
 458  15   7.026436  -1.889431  -1.832721  -0.000772   0.155477  -0.004964
 459  15   7.312542  -1.427257  -0.587443  -0.000927   0.155477  -0.005965
 460  15   6.970708  -1.582763   0.718369  -0.000840   0.155477  -0.005400
 461  15   6.145265  -2.290289   1.533371  -0.000785   0.155477  -0.005050
 462  15   5.345210  -3.072032   1.647406  -0.000311   0.069892  -0.004449
 463   3   4.493773  -3.974437  -2.081482  -0.000915   0.152933  -0.005983
 464   3   5.500660  -3.070478  -2.787540  -0.000562   0.152933  -0.003676
 465   3   6.545088  -1.990587  -2.518302  -0.000537   0.152933  -0.003512
 466   3   7.186074  -1.190721  -1.387447  -0.000835   0.152933  -0.005460
 467   3   7.152980  -1.008601   0.127551  -0.000841   0.152933  -0.005502
 468   3   6.459777  -1.521124   1.387024  -0.000580   0.152933  -0.003793
 469   3   5.399154  -2.511890   1.859193  -0.000689   0.152933  -0.004502
 470  16   2.307484   1.916761  -3.444882  -0.000215   0.068329  -0.003148
 471  16   3.394883   2.048549  -3.552446  -0.000723   0.151271  -0.004777
 472  16   4.594673   1.527053  -3.800107  -0.000849   0.151271  -0.005611
 473  16   5.217789   0.388359  -4.096574  -0.000682   0.151271  -0.004505
 474  16   5.012610  -0.907718  -4.322131  -0.000542   0.151271  -0.003583
 475  16   4.061990  -1.837809  -4.385695  -0.000793   0.151271  -0.005241
 476  16   2.749798  -2.026336  -4.261599  -0.000916   0.151271  -0.006053
 477   3   2.711700   2.182816  -3.098594  -0.000399   0.150205  -0.002658
 478   3   4.187926   2.055319  -3.303880  -0.000704   0.150205  -0.004689
 479   3   5.267891   1.071754  -3.626244  -0.000807   0.150205  -0.005373
 480   3   5.515495  -0.370705  -3.935512  -0.000484   0.150205  -0.003220
 481   3   4.830752  -1.689580  -4.106799  -0.000459   0.150205  -0.003055
 482   3   3.490168  -2.352296  -4.070937  -0.000741   0.150205  -0.004935
 483   3   2.287451  -2.290079  -3.911742  -0.000393   0.083479  -0.004706
 484   4  -2.505626   3.749085  -0.788634   0.000374   0.056739   0.006596
 485   7  -1.778876   3.392489  -0.736628   0.000946   0.056739   0.016671
 486   8  -2.634251   3.920210  -0.573371   0.000093   0.056739   0.001640
 487   4  -2.804965   2.339210  -3.034182   0.000396   0.057264   0.006920
 488   7  -2.063918   2.048982  -2.877055   0.001121   0.057264   0.019574
 489   9  -2.989313   2.235821  -3.252149   0.000046   0.057264   0.000797
 490   7  -1.484431   2.416284  -2.529493   0.004924   0.315050   0.015628
 491   7  -1.322185   3.176969  -1.316756   0.004957   0.315050   0.015732
 492   4  -2.506659   3.145155  -1.994126   0.004146   0.691147   0.005999
 493   8  -3.138409   4.378045  -0.699584  -0.000110   0.069868  -0.001575
 494   8  -4.127819   4.737109  -1.098895  -0.000259   0.155522  -0.001663
 495   8  -5.460263   4.928123  -0.902821  -0.000374   0.155522  -0.002406
 496   8  -6.442900   4.757854   0.022259  -0.000410   0.155522  -0.002634
 497   8  -6.659202   4.298477   1.284212  -0.000298   0.155522  -0.001919
 498   8  -6.017480   3.744717   2.348111  -0.000337   0.155522  -0.002167
 499   8  -4.789753   3.331306   2.762981  -0.000518   0.155522  -0.003333
 500   4  -3.430455   4.275857  -1.214951  -0.000063   0.152779  -0.000413
 501   4  -4.885669   4.669284  -1.464409  -0.000025   0.152779  -0.000163
 502   4  -6.260809   4.681606  -0.798453  -0.000192   0.152779  -0.001259
 503   4  -6.972970   4.307601   0.500627  -0.000190   0.152779  -0.001247
 504   4  -6.720273   3.705806   1.882165  -0.000062   0.152779  -0.000407
 505   4  -5.609835   3.131313   2.760543  -0.000258   0.152779  -0.001691
 506   4  -4.414289   2.829210   2.912508  -0.000103   0.085359  -0.001208
 507   9  -5.225966  -0.861298  -3.702081  -0.000165   0.069647  -0.002375
 508   9  -6.288561  -0.499839  -3.690373  -0.000382   0.154926  -0.002465
 509   9  -7.160823   0.537925  -3.642700  -0.000337   0.154926  -0.002178
 510   9  -7.211543   1.891700  -3.573493  -0.000350   0.154926  -0.002261
 511   9  -6.419352   2.991112  -3.511911  -0.000396   0.154926  -0.002555
 512   9  -5.118015   3.372957  -3.483900  -0.000264   0.154926  -0.001704
 513   9  -3.855813   2.876356  -3.501261  -0.000330   0.154926  -0.002130
 514   4  -5.705323  -1.021323  -3.378236  -0.000368   0.152391  -0.002416
 515   4  -7.010816  -0.236160  -3.346333  -0.000110   0.152391  -0.000720
 516   4  -7.558876   1.183920  -3.276930  -0.000105   0.152391  -0.000687
 517   4  -7.118596   2.640605  -3.199269  -0.000175   0.152391  -0.001147
 518   4  -5.875473   3.520166  -3.146069  -0.000119   0.152391  -0.000781
 519   4  -4.353261   3.452024  -3.139746  -0.000047   0.152391  -0.000307
 520   4  -3.314519   2.777545  -3.167685   0.000132   0.085089   0.001557
 521  10  -7.440864  -0.093016   2.597093  -0.000206   0.068321  -0.003017
 522  10  -7.785140   0.951457   2.520515  -0.000478   0.151363  -0.003160
 523  10  -8.321541   1.933048   1.794639  -0.000349   0.151363  -0.002306
 524  10  -8.802905   2.218978   0.584401  -0.000483   0.151363  -0.003190
 525  10  -9.033892   1.693214  -0.619077  -0.000510   0.151363  -0.003369
 526  10  -8.920767   0.569115  -1.327418  -0.000399   0.151363  -0.002636
 527  10  -8.509435  -0.697154  -1.253172  -0.000413   0.151363  -0.002726
 528  10  -7.966818  -1.591733  -0.426468  -0.000549   0.151363  -0.003630
 529   4  -7.183803   0.422708   2.745057  -0.000407   0.150071  -0.002709
 530   4  -7.723161   1.762274   2.346345  -0.000104   0.150071  -0.000696
 531   4  -8.326284   2.513401   1.199014  -0.000118   0.150071  -0.000783
 532   4  -8.748420   2.371276  -0.231342  -0.000264   0.150071  -0.001759
 533   4  -8.818264   1.393576  -1.364277  -0.000244   0.150071  -0.001625
 534   4  -8.507473  -0.022944  -1.740038  -0.000117   0.150071  -0.000781
 535   4  -7.942168  -1.303452  -1.206140  -0.000278   0.150071  -0.001850
 536   4  -7.450375  -1.939975  -0.293179  -0.000173   0.083469  -0.002070
 537  11  -4.026260   1.131156   3.903799  -0.000631   0.207975  -0.003032
 538  11  -5.084389   0.069411   3.883127  -0.002331   0.426966  -0.005459
 539   4  -5.110800   1.471951   3.401497  -0.000271   0.568465  -0.000477
 540   4  -6.221775   0.186357   3.265651  -0.000002   0.292982  -0.000005
 541  12  -6.036308  -3.222426  -0.671460  -0.000851   0.209577  -0.004062
 542  12  -5.248020  -2.956746  -1.933269  -0.002182   0.430544  -0.005069
 543   4  -6.463875  -2.298541  -1.385713  -0.000505   0.572591  -0.000882
 544   4  -5.443966  -1.940251  -2.721475   0.000191   0.295254   0.000647
 545   6   7.254412   0.601152   1.295636  -0.000305   0.095759  -0.003190
 546   6   7.104816   1.745933   1.952031  -0.000642   0.178922  -0.003590
 547   6   6.542920   3.274200   1.989629  -0.001105   0.178922  -0.006176
 548   6   5.739893   4.366479   1.086958  -0.001297   0.178922  -0.007249
 549   6   5.038513   4.556525  -0.370673  -0.000725   0.178922  -0.004051
 550   6   4.738166   3.763216  -1.761067  -0.000518   0.178922  -0.002892
 551   5   7.478978   1.251503   1.278882  -0.001639   0.181789  -0.009018
 552   5   7.164639   2.640358   1.767601  -0.001780   0.181789  -0.009790
 553   5   6.497186   3.921815   1.344577  -0.002079   0.181789  -0.011439
 554   5   5.761526   4.548876   0.190380  -0.002054   0.181789  -0.011301
 555   5   5.271677   4.253878  -1.202314  -0.001660   0.181789  -0.009129
 556   5   5.169262   3.449854  -2.143768  -0.000546   0.083635  -0.006526
 557   7   0.178829   2.137246   2.254276   0.004324   0.341702   0.012653
 558   7   0.115007   3.013813   0.954355   0.012253   0.683487   0.017928
 559   7   0.385562   3.088373  -0.933193   0.011539   0.683487   0.016883
 560   6   1.551306   2.933905   1.999278   0.011017   0.683487   0.016119
 561   6   1.610979   3.644042   0.229040   0.012715   0.683487   0.018604
 562   6   1.928677   3.370745  -1.283115   0.004549   0.341702   0.013314
 563  14   3.415379  -1.262450   3.752463  -0.000345   0.223177  -0.001547
 564  14   2.626289  -0.442996   4.015596  -0.000466   0.448645  -0.001038
 565  14   1.708917   0.259015   3.845255   0.000103   0.223177   0.000463
 566   6   4.100653   0.061894   3.551773   0.006548   0.550423   0.011897
 567   6   2.933251   1.102738   3.615252   0.007256   0.550423   0.013182
 568   8  -2.629323   3.667554   1.591444  -0.000130   0.260259  -0.000499
 569   8  -2.546249   4.059809   0.331314   0.000038   0.524081   0.000073
 570   7  -1.285357   3.147942   1.014820   0.007714   0.642452   0.012007
 571   7  -1.273597   3.476102  -0.389947   0.004121   0.323831   0.012727
 572   9  -3.025808   1.964350  -3.630485   0.000368   0.263124   0.001399
 573   9  -3.242764   0.672393  -3.902567  -0.000189   0.530007  -0.000356
 574   7  -1.720743   1.180155  -3.336529   0.008941   0.649253   0.013770
 575   7  -2.018325  -0.237626  -3.514347   0.003589   0.327313   0.010964
 576  16   1.102526  -0.563263  -4.137628  -0.000317   0.223607  -0.001416
 577  16   1.240516   0.597943  -4.032661  -0.000463   0.449578  -0.001029
 578  16   1.599408   1.602098  -3.541413   0.000117   0.223607   0.000523
 579   7  -0.188577  -0.030797  -3.593232   0.006386   0.551168   0.011586
 580   7   0.151285   1.450286  -3.185428   0.007649   0.551168   0.013878
 581  14   0.095608  -0.230253   4.104112  -0.000146   0.255360  -0.000572
 582  14  -0.114875  -1.322801   4.480169  -0.001245   0.510738  -0.002439
 583  14  -0.423689  -2.673224   4.128538  -0.001058   0.510738  -0.002071
 584  11  -1.435612  -0.328402   4.364848  -0.001010   0.510738  -0.001978
 585  11  -1.723377  -1.720291   4.514812  -0.001130   0.510738  -0.002212
 586  11  -1.971935  -2.737834   3.983580  -0.000067   0.255360  -0.000261
 587  13  -1.082017  -5.162448   0.383873  -0.000329   0.258177  -0.001273
 588  13  -1.176942  -5.164346  -0.840087  -0.001696   0.516600  -0.003282
 589  13  -1.117370  -4.343073  -2.082328  -0.001541   0.516600  -0.002984
 590  12  -2.522486  -4.932632   0.023317  -0.001292   0.516600  -0.002500
 591  12  -2.571998  -4.601616  -1.428984  -0.001554   0.516600  -0.003007
 592  12  -2.469355  -3.715588  -2.272494  -0.000261   0.258177  -0.001013
 593  15   4.212087  -4.576551  -0.854195  -0.000615   0.232958  -0.002640
 594  13   2.857506  -4.998099  -0.980581  -0.000619   0.232958  -0.002657
 =====================================================


   1 warning(s) detected.
     A line exceeding 80 characters begins with "http://cactus.nci.ni".
 There may be a problem in your input file.

              2746555  WORDS OF DYNAMIC MEMORY USED
 EXECUTION OF GAMESS TERMINATED NORMALLY Thu Nov 24 01:08:09 2016
 DDI: 263640 bytes (0.3 MB / 0 MWords) used by master data server.

 ----------------------------------------
 CPU timing information for all processes
 ========================================
 0: 646.820 + 0.312 = 647.132
 ----------------------------------------
 ddikick.x: exited gracefully.
