----- GAMESS execution script -----

          ******************************************************
          *         GAMESS VERSION =  5 DEC 2014 (R1)          *
          *             FROM IOWA STATE UNIVERSITY             *
          * M.W.SCHMIDT, K.K.BALDRIDGE, J.A.BOATZ, S.T.ELBERT, *
          *   M.S.GORDON, J.H.JENSEN, S.KOSEKI, N.MATSUNAGA,   *
          *          K.A.NGUYEN, S.J.SU, T.L.WINDUS,           *
          *       TOGETHER WITH M.DUPUIS, J.A.MONTGOMERY       *
          *         J.COMPUT.CHEM.  14, 1347-1363(1993)        *
          **************** 64 BIT LINUX VERSION ****************

 EXECUTION OF GAMESS BEGUN Thu Nov 24 01:17:05 2016

            ECHO OF THE FIRST FEW INPUT CARDS -
 INPUT CARD>! SELECT RESTRICTED HARTREE-FOCK AS DEFAULT                                     
 INPUT CARD>$contrl scftyp=rhf $end                                                         
 INPUT CARD>                                                                                
 INPUT CARD>! THEORY: HF OR DFT                                                             
 INPUT CARD> $contrl mplevl=0 $end                                                          
 INPUT CARD>                                                                                
 INPUT CARD> $system timlim=10000 mwords=20 $end                                            
 INPUT CARD> $SCF DIRSCF=.TRUE. $end                                                        
 INPUT CARD>                                                                                
 INPUT CARD>                                                                                
 INPUT CARD>! BASIS SETS                                                                    
 INPUT CARD>! 6-311G(d,p)                                                                   
 INPUT CARD> $BASIS GBASIS=N311 NGAUSS=6 NDFUNC=1 NPFUNC=1 $END                             
 INPUT CARD>                                                                                
 INPUT CARD>! One of the following                                                          
 INPUT CARD> $guess guess=HUCKEL $end                                                       
 INPUT CARD>                                                                                
 INPUT CARD> $statpt projct=.FALSE. $end                                                    
 INPUT CARD> $STATPT IFREEZ(1)=1,2,3 $END                                                   
 INPUT CARD>                                                                                
 INPUT CARD>! Optimize the geometry with COSMO effects                                      
 INPUT CARD> $statpt opttol=0.0005 nstep=50 $end                                            
 INPUT CARD> $contrl nzvar=1 $end                                                           
 INPUT CARD> $zmat dlc=.t. auto=.t. $end                                                    
 INPUT CARD> $contrl runtyp=OPTIMIZE maxit=200 $end                                         
 INPUT CARD>                                                                                
 INPUT CARD>! Run COSMO on perfect conductor                                                
 INPUT CARD> $COSGMS PRFCND=.TRUE. $end                                                     
 INPUT CARD>                                                                                
 INPUT CARD>! Specifying RSOLV                                                              
 INPUT CARD> $COSGMS COSRAD = 1.4 $end                                                      
 INPUT CARD>                                                                                
 INPUT CARD>! available memory                                                              
 INPUT CARD> $SYSTEM MWORDS=40 $END                                                         
 INPUT CARD>                                                                                
 INPUT CARD> $DATA                                                                          
 INPUT CARD>file:/home/renata/glycerol/METHYLOLEATE.mol                                     
 INPUT CARD>C1                                                                              
 INPUT CARD>C      6.0     -0.6050000000    0.0718400000   -0.2656000000                    
 INPUT CARD>O      8.0     -0.5424600000    1.2908000000   -0.1672900000                    
 INPUT CARD>O      8.0     -1.7235700000   -0.6708400000   -0.0482200000                    
 INPUT CARD>C      6.0      0.5883600000   -0.8010000000   -0.5719200000                    
 INPUT CARD>C      6.0     -2.8823400000    0.1031300000    0.2651700000                    
 INPUT CARD>C      6.0     -4.0457400000   -0.8344300000    0.3974000000                    
 INPUT CARD>H      1.0     -3.1016100000    0.8135100000   -0.5384300000                    
 INPUT CARD>H      1.0     -2.7457100000    0.6243700000    1.2176500000                    
 INPUT CARD>H      1.0      0.9731500000   -1.2024200000    0.3717000000                    
 INPUT CARD>H      1.0      1.3613300000   -0.1511700000   -0.9996700000                    
 INPUT CARD>C      6.0      0.2722800000   -1.9277600000   -1.5544300000                    
 INPUT CARD>H      1.0     -0.2904200000   -1.5297900000   -2.4081300000                    
   40000000 WORDS OF MEMORY AVAILABLE

     BASIS OPTIONS
     -------------
     GBASIS=N311         IGAUSS=       6      POLAR=POPN311 
     NDFUNC=       1     NFFUNC=       0     DIFFSP=       F
     NPFUNC=       1      DIFFS=       F     BASNAM=        


     RUN TITLE
     ---------
 file:/home/renata/glycerol/METHYLOLEATE.mol                                     

 THE POINT GROUP OF THE MOLECULE IS C1      
 THE ORDER OF THE PRINCIPAL AXIS IS     0

 ATOM      ATOMIC                      COORDINATES (BOHR)
           CHARGE         X                   Y                   Z
 C           6.0    -1.1432842226        0.1357579150       -0.5019112223
 O           8.0    -1.0251007593        2.4392583050       -0.3161322605
 O           8.0    -3.2570750207       -1.2677037816       -0.0911225871
 C           6.0     1.1118391821       -1.5136705162       -1.0807720869
 C           6.0    -5.4468328035        0.1948874411        0.5010986402
 C           6.0    -7.6453400176       -1.5768440559        0.7509771075
 H           1.0    -5.8611930208        1.5373109883       -1.0174851636
 H           1.0    -5.1886395417        1.1798882150        2.3010248489
 H           1.0     1.8389868450       -2.2722443222        0.7024111496
 H           1.0     2.5725406789       -0.2856698776       -1.8891023781
 C           6.0     0.5145345919       -3.6429381701       -2.9374467671
 H           1.0    -0.5488142214       -2.8908839188       -4.5507058428
 H           1.0    -0.7034127044       -5.0482329009       -2.0219123206
 C           6.0     2.9309839042       -4.9160654653       -3.8807223911
 H           1.0     4.0409900521       -5.5947038620       -2.2669530894
 H           1.0     4.0943937086       -3.5188209672       -4.8760788634
 C           6.0     2.3505734643       -7.1323738982       -5.6451595459
 H           1.0     1.0705675666       -6.5120335482       -7.1526317608
 H           1.0     1.3746622725       -8.6233110107       -4.5871019653
 C           6.0     4.7735990231       -8.1798112187       -6.8218730212
 H           1.0     6.1112793580       -8.6979551872       -5.3252856279
 H           1.0     5.6748282439       -6.6973211813       -7.9559920727
 C           6.0     4.2549259312      -10.4933838482       -8.4790304316
 H           1.0     2.7363421275      -10.0683277818       -9.8254413006
 H           1.0     3.5928604314      -12.0563573154       -7.2882007031
 C           6.0     6.6367743607      -11.2748989277       -9.9300754285
 H           1.0     8.2030548483      -11.4456356707       -8.5866125321
 H           1.0     7.1277818640       -9.7831492330      -11.2812484070
 C           6.0     6.2705643615      -13.7067684040      -11.3558547890
 C           6.0     8.0379494888      -15.4911799624      -11.7330440961
 C           6.0    10.7567360618      -15.3397373218      -10.9182698393
 H           1.0    10.9527762358      -16.2866223224       -9.0859159325
 H           1.0    11.3336505086      -13.3668066988      -10.6687693171
 C           6.0    12.5409775449      -16.5894698092      -12.8278568471
 H           1.0     4.3899090585      -14.0413821846      -12.1233292044
 H           1.0     7.4801590690      -17.1987930567      -12.7382838353
 H           1.0    12.1972741823      -15.8403068387      -14.7305841496
 H           1.0    12.1616339501      -18.6268022939      -12.8973609689
 C           6.0    15.3014703705      -16.1287546134      -12.0987627665
 H           1.0    15.5996691314      -16.6721453212      -10.1208999587
 H           1.0    15.7137518893      -14.1017400327      -12.2404355238
 C           6.0    17.1294401130      -17.6100730207      -13.7769717244
 H           1.0    16.7915571064      -17.1510207837      -15.7693665251
 H           1.0    16.7829210586      -19.6403379301      -13.5470487635
 C           6.0    19.8723773841      -17.0017702252      -13.0924940744
 H           1.0    20.1693667204      -17.3165985748      -11.0653472129
 H           1.0    20.2420266846      -14.9947867400      -13.4567954503
 C           6.0    21.7372156806      -18.6198858967      -14.5933900429
 H           1.0    21.4327430295      -18.3398662999      -16.6240706921
 H           1.0    21.3917926673      -20.6239781012      -14.1928626198
 C           6.0    24.4668114863      -17.9524913697      -13.9195515502
 H           1.0    24.7644811239      -18.1724176801      -11.8810096410
 H           1.0    24.8370277046      -15.9670885552      -14.3809659446
 C           6.0    26.3419298921      -19.6133715403      -15.3255265823
 H           1.0    26.1288821843      -19.4062575720      -17.3724210805
 H           1.0    26.0733809320      -21.6064466423      -14.8409252501
 H           1.0    28.2785588789      -19.0876686677      -14.8241822778
 H           1.0    -7.2642767721       -2.9442119861        2.2695609113
 H           1.0    -7.9244714432       -2.5919859593       -1.0413901973
 H           1.0    -9.3596994336       -0.4937854006        1.2080262349

          INTERNUCLEAR DISTANCES (ANGS.)




     $CONTRL OPTIONS
     ---------------
 SCFTYP=RHF          RUNTYP=OPTIMIZE     EXETYP=RUN     
 MPLEVL=       0     CITYP =NONE         CCTYP =NONE         VBTYP =NONE    
 DFTTYP=NONE         TDDFT =NONE    
 MULT  =       1     ICHARG=       0     NZVAR =       1     COORD =UNIQUE  
 PP    =NONE         RELWFN=NONE         LOCAL =NONE         NUMGRD=       F
 ISPHER=      -1     NOSYM =       0     MAXIT =     200     UNITS =ANGS    
 PLTORB=       F     MOLPLT=       F     AIMPAC=       F     FRIEND=        
 NPRINT=       7     IREST =       0     GEOM  =INPUT   
 NORMF =       0     NORMP =       0     ITOL  =      20     ICUT  =       9
 INTTYP=BEST         GRDTYP=BEST         QMTTOL= 1.0E-06

     $SYSTEM OPTIONS
     ---------------
  REPLICATED MEMORY=    40000000 WORDS (ON EVERY NODE).
 DISTRIBUTED MEMDDI=           0 MILLION WORDS IN AGGREGATE,
 MEMDDI DISTRIBUTED OVER   1 PROCESSORS IS           0 WORDS/PROCESSOR.
 TOTAL MEMORY REQUESTED ON EACH PROCESSOR=    40000000 WORDS.
 TIMLIM=       10000.00 MINUTES, OR       6.9 DAYS.
 PARALL= F  BALTYP=  DLB     KDIAG=    0  COREFL= F
 MXSEQ2=     300 MXSEQ3=     150  mem10=         0

     $COSGMS OPTIONS
     ---------------
     EPSI  =   INFTY     NSPA  =      92     COSRAD=    1.40
     DISEX =   10.00     OUTCHG=DBLCAV       COSBUG=       F
     COSWRT=       F     DCOSMO=       F

     SYMMETRY COORDINATES WILL NOT BE USED FOR 
     THE COSMO CALCULATION, EVEN IF SPECIFIED:
         -- SWITCHING TO C1 POINT GROUP --


     DEFINITION OF CAVITY
     ---------------------------
     ATOM         COORDINATES           RADIUS 
     1   -1.1433    0.1358   -0.5019    2.0000
     2   -1.0251    2.4393   -0.3161    1.7200
     3   -3.2571   -1.2677   -0.0911    1.7200
     4    1.1118   -1.5137   -1.0808    2.0000
     5   -5.4468    0.1949    0.5011    2.0000
     6   -7.6453   -1.5768    0.7510    2.0000
     7   -5.8612    1.5373   -1.0175    1.3000
     8   -5.1886    1.1799    2.3010    1.3000
     9    1.8390   -2.2722    0.7024    1.3000
    10    2.5725   -0.2857   -1.8891    1.3000
    11    0.5145   -3.6429   -2.9374    2.0000
    12   -0.5488   -2.8909   -4.5507    1.3000
    13   -0.7034   -5.0482   -2.0219    1.3000
    14    2.9310   -4.9161   -3.8807    2.0000
    15    4.0410   -5.5947   -2.2670    1.3000
    16    4.0944   -3.5188   -4.8761    1.3000
    17    2.3506   -7.1324   -5.6452    2.0000
    18    1.0706   -6.5120   -7.1526    1.3000
    19    1.3747   -8.6233   -4.5871    1.3000
    20    4.7736   -8.1798   -6.8219    2.0000
    21    6.1113   -8.6980   -5.3253    1.3000
    22    5.6748   -6.6973   -7.9560    1.3000
    23    4.2549  -10.4934   -8.4790    2.0000
    24    2.7363  -10.0683   -9.8254    1.3000
    25    3.5929  -12.0564   -7.2882    1.3000
    26    6.6368  -11.2749   -9.9301    2.0000
    27    8.2031  -11.4456   -8.5866    1.3000
    28    7.1278   -9.7831  -11.2812    1.3000
    29    6.2706  -13.7068  -11.3559    2.0000
    30    8.0379  -15.4912  -11.7330    2.0000
    31   10.7567  -15.3397  -10.9183    2.0000
    32   10.9528  -16.2866   -9.0859    1.3000
    33   11.3337  -13.3668  -10.6688    1.3000
    34   12.5410  -16.5895  -12.8279    2.0000
    35    4.3899  -14.0414  -12.1233    1.3000
    36    7.4802  -17.1988  -12.7383    1.3000
    37   12.1973  -15.8403  -14.7306    1.3000
    38   12.1616  -18.6268  -12.8974    1.3000
    39   15.3015  -16.1288  -12.0988    2.0000
    40   15.5997  -16.6721  -10.1209    1.3000
    41   15.7138  -14.1017  -12.2404    1.3000
    42   17.1294  -17.6101  -13.7770    2.0000
    43   16.7916  -17.1510  -15.7694    1.3000
    44   16.7829  -19.6403  -13.5470    1.3000
    45   19.8724  -17.0018  -13.0925    2.0000
    46   20.1694  -17.3166  -11.0653    1.3000
    47   20.2420  -14.9948  -13.4568    1.3000
    48   21.7372  -18.6199  -14.5934    2.0000
    49   21.4327  -18.3399  -16.6241    1.3000
    50   21.3918  -20.6240  -14.1929    1.3000
    51   24.4668  -17.9525  -13.9196    2.0000
    52   24.7645  -18.1724  -11.8810    1.3000
    53   24.8370  -15.9671  -14.3810    1.3000
    54   26.3419  -19.6134  -15.3255    2.0000
    55   26.1289  -19.4063  -17.3724    1.3000
    56   26.0734  -21.6064  -14.8409    1.3000
    57   28.2786  -19.0877  -14.8242    1.3000
    58   -7.2643   -2.9442    2.2696    1.3000
    59   -7.9245   -2.5920   -1.0414    1.3000
    60   -9.3597   -0.4938    1.2080    1.3000

          ----------------
          PROPERTIES INPUT
          ----------------

     MOMENTS            FIELD           POTENTIAL          DENSITY
 IEMOM =       1   IEFLD =       0   IEPOT =       0   IEDEN =       0
 WHERE =COMASS     WHERE =NUCLEI     WHERE =NUCLEI     WHERE =NUCLEI  
 OUTPUT=BOTH       OUTPUT=BOTH       OUTPUT=BOTH       OUTPUT=BOTH    
 IEMINT=       0   IEFINT=       0                     IEDINT=       0
                                                       MORB  =       0
          EXTRAPOLATION IN EFFECT
          SOSCF IN EFFECT
 ORBITAL PRINTING OPTION: NPREO=     1   646     2     1

     -------------------------------
     INTEGRAL TRANSFORMATION OPTIONS
     -------------------------------
     NWORD  =            0
     CUTOFF = 1.0E-09     MPTRAN =       0
     DIRTRF =       T     AOINTS =DUP     

          ----------------------
          INTEGRAL INPUT OPTIONS
          ----------------------
 NOPK  =       1 NORDER=       0 SCHWRZ=       T


 -----------------------------------------------
  STATISTICS ON AUTOMATIC COORDINATE GENERATION 
 -----------------------------------------------
  NUMBER OF USER SPECIFIED BONDS                             0
  NUMBER OF BONDS                                           59
  NUMBER OF ANGLES                                         112
  NUMBER OF TORSIONS                                       153
  NUMBER OF EXTRA COORD.                                     0
  NUMBER OF EXTRA COORD. FOR CONSTRAINTS                     0
  NUMBER OF CONSTRAINED COORD.                               0

  TOTAL NUMBER OF PRIMITIVES                               324
 -----------------------------------------------

   --- ENCODED Z MATRIX ---
 COORD  TYPE   I   J   K   L   M   N
    1      1    1   3
    2      1    1   2
    3      1    1   4
    4      1    3   5
    5      1    4  10
    6      1    4  11
    7      1    4   9
    8      1    5   8
    9      1    5   7
   10      1    5   6
   11      1    6  59
   12      1    6  58
   13      1    6  60
   14      1   11  12
   15      1   11  14
   16      1   11  13
   17      1   14  16
   18      1   14  15
   19      1   14  17
   20      1   17  20
   21      1   17  19
   22      1   17  18
   23      1   20  23
   24      1   20  22
   25      1   20  21
   26      1   23  26
   27      1   23  25
   28      1   23  24
   29      1   26  29
   30      1   26  28
   31      1   26  27
   32      1   29  30
   33      1   29  35
   34      1   30  31
   35      1   30  36
   36      1   31  32
   37      1   31  34
   38      1   31  33
   39      1   34  39
   40      1   34  38
   41      1   34  37
   42      1   39  42
   43      1   39  41
   44      1   39  40
   45      1   42  45
   46      1   42  44
   47      1   42  43
   48      1   45  48
   49      1   45  47
   50      1   45  46
   51      1   48  51
   52      1   48  50
   53      1   48  49
   54      1   51  54
   55      1   51  53
   56      1   51  52
   57      1   54  57
   58      1   54  56
   59      1   54  55
   60      2    1   4  11
   61      2    1   4   9
   62      2    1   4  10
   63      2    1   3   5
   64      2    2   1   4
   65      2    2   1   3
   66      2    3   5   8
   67      2    3   1   4
   68      2    3   5   7
   69      2    3   5   6
   70      2    4  11  14
   71      2    4  11  12
   72      2    4  11  13
   73      2    5   6  58
   74      2    5   6  60
   75      2    5   6  59
   76      2    6   5   7
   77      2    6   5   8
   78      2    7   5   8
   79      2    9   4  10
   80      2    9   4  11
   81      2   10   4  11
   82      2   11  14  16
   83      2   11  14  15
   84      2   11  14  17
   85      2   12  11  14
   86      2   12  11  13
   87      2   13  11  14
   88      2   14  17  18
   89      2   14  17  19
   90      2   14  17  20
   91      2   15  14  17
   92      2   15  14  16
   93      2   16  14  17
   94      2   17  20  21
   95      2   17  20  22
   96      2   17  20  23
   97      2   18  17  20
   98      2   18  17  19
   99      2   19  17  20
  100      2   20  23  24
  101      2   20  23  25
  102      2   20  23  26
  103      2   21  20  22
  104      2   21  20  23
  105      2   22  20  23
  106      2   23  26  27
  107      2   23  26  29
  108      2   23  26  28
  109      2   24  23  25
  110      2   24  23  26
  111      2   25  23  26
  112      2   26  29  30
  113      2   26  29  35
  114      2   27  26  28
  115      2   27  26  29
  116      2   28  26  29
  117      2   29  30  36
  118      2   29  30  31
  119      2   30  29  35
  120      2   30  31  33
  121      2   30  31  34
  122      2   30  31  32
  123      2   31  34  37
  124      2   31  34  38
  125      2   31  34  39
  126      2   31  30  36
  127      2   32  31  33
  128      2   32  31  34
  129      2   33  31  34
  130      2   34  39  40
  131      2   34  39  41
  132      2   34  39  42
  133      2   37  34  38
  134      2   37  34  39
  135      2   38  34  39
  136      2   39  42  43
  137      2   39  42  44
  138      2   39  42  45
  139      2   40  39  41
  140      2   40  39  42
  141      2   41  39  42
  142      2   42  45  46
  143      2   42  45  47
  144      2   42  45  48
  145      2   43  42  44
  146      2   43  42  45
  147      2   44  42  45
  148      2   45  48  49
  149      2   45  48  50
  150      2   45  48  51
  151      2   46  45  47
  152      2   46  45  48
  153      2   47  45  48
  154      2   48  51  52
  155      2   48  51  53
  156      2   48  51  54
  157      2   49  48  50
  158      2   49  48  51
  159      2   50  48  51
  160      2   51  54  55
  161      2   51  54  56
  162      2   51  54  57
  163      2   52  51  53
  164      2   52  51  54
  165      2   53  51  54
  166      2   55  54  56
  167      2   55  54  57
  168      2   56  54  57
  169      2   58   6  60
  170      2   58   6  59
  171      2   59   6  60
  172      3    1   4  11  12
  173      3    1   3   5   6
  174      3    1   3   5   7
  175      3    1   3   5   8
  176      3    1   4  11  13
  177      3    1   4  11  14
  178      3    2   1   4   9
  179      3    2   1   3   5
  180      3    2   1   4  10
  181      3    2   1   4  11
  182      3    3   1   4  10
  183      3    3   5   6  60
  184      3    3   5   6  58
  185      3    3   1   4   9
  186      3    3   5   6  59
  187      3    3   1   4  11
  188      3    4   1   3   5
  189      3    4  11  14  17
  190      3    4  11  14  15
  191      3    4  11  14  16
  192      3    7   5   6  59
  193      3    7   5   6  60
  194      3    7   5   6  58
  195      3    8   5   6  59
  196      3    8   5   6  60
  197      3    8   5   6  58
  198      3    9   4  11  14
  199      3    9   4  11  13
  200      3    9   4  11  12
  201      3   10   4  11  14
  202      3   10   4  11  13
  203      3   10   4  11  12
  204      3   11  14  17  18
  205      3   11  14  17  19
  206      3   11  14  17  20
  207      3   12  11  14  16
  208      3   12  11  14  17
  209      3   12  11  14  15
  210      3   13  11  14  17
  211      3   13  11  14  15
  212      3   13  11  14  16
  213      3   14  17  20  21
  214      3   14  17  20  22
  215      3   14  17  20  23
  216      3   15  14  17  20
  217      3   15  14  17  19
  218      3   15  14  17  18
  219      3   16  14  17  20
  220      3   16  14  17  19
  221      3   16  14  17  18
  222      3   17  20  23  24
  223      3   17  20  23  25
  224      3   17  20  23  26
  225      3   18  17  20  23
  226      3   18  17  20  22
  227      3   18  17  20  21
  228      3   19  17  20  23
  229      3   19  17  20  22
  230      3   19  17  20  21
  231      3   20  23  26  27
  232      3   20  23  26  28
  233      3   20  23  26  29
  234      3   21  20  23  26
  235      3   21  20  23  25
  236      3   21  20  23  24
  237      3   22  20  23  26
  238      3   22  20  23  25
  239      3   22  20  23  24
  240      3   23  26  29  35
  241      3   23  26  29  30
  242      3   24  23  26  28
  243      3   24  23  26  29
  244      3   24  23  26  27
  245      3   25  23  26  28
  246      3   25  23  26  29
  247      3   25  23  26  27
  248      3   26  29  30  36
  249      3   26  29  30  31
  250      3   27  26  29  35
  251      3   27  26  29  30
  252      3   28  26  29  35
  253      3   28  26  29  30
  254      3   29  30  31  33
  255      3   29  30  31  34
  256      3   29  30  31  32
  257      3   30  31  34  37
  258      3   30  31  34  38
  259      3   30  31  34  39
  260      3   31  34  39  40
  261      3   31  34  39  41
  262      3   31  34  39  42
  263      3   31  30  29  35
  264      3   32  31  34  39
  265      3   32  31  34  38
  266      3   32  31  34  37
  267      3   32  31  30  36
  268      3   33  31  34  39
  269      3   33  31  34  38
  270      3   33  31  34  37
  271      3   33  31  30  36
  272      3   34  39  42  43
  273      3   34  39  42  44
  274      3   34  39  42  45
  275      3   34  31  30  36
  276      3   35  29  30  36
  277      3   37  34  39  42
  278      3   37  34  39  41
  279      3   37  34  39  40
  280      3   38  34  39  42
  281      3   38  34  39  41
  282      3   38  34  39  40
  283      3   39  42  45  46
  284      3   39  42  45  47
  285      3   39  42  45  48
  286      3   40  39  42  45
  287      3   40  39  42  44
  288      3   40  39  42  43
  289      3   41  39  42  45
  290      3   41  39  42  44
  291      3   41  39  42  43
  292      3   42  45  48  49
  293      3   42  45  48  50
  294      3   42  45  48  51
  295      3   43  42  45  48
  296      3   43  42  45  47
  297      3   43  42  45  46
  298      3   44  42  45  48
  299      3   44  42  45  47
  300      3   44  42  45  46
  301      3   45  48  51  52
  302      3   45  48  51  53
  303      3   45  48  51  54
  304      3   46  45  48  51
  305      3   46  45  48  50
  306      3   46  45  48  49
  307      3   47  45  48  51
  308      3   47  45  48  50
  309      3   47  45  48  49
  310      3   48  51  54  55
  311      3   48  51  54  56
  312      3   48  51  54  57
  313      3   49  48  51  54
  314      3   49  48  51  53
  315      3   49  48  51  52
  316      3   50  48  51  54
  317      3   50  48  51  53
  318      3   50  48  51  52
  319      3   52  51  54  57
  320      3   52  51  54  56
  321      3   52  51  54  55
  322      3   53  51  54  57
  323      3   53  51  54  56
  324      3   53  51  54  55

          INDEP./SYM. INTERNAL COORDINATES
          --------------------------------
 CRD  1=   0.1345 ( 70) -0.1729 ( 84)  0.2191 ( 90) -0.2414 ( 96)  0.2752 (102)
          -0.2721 (107)  0.2895 (112) -0.1464 (113) -0.1390 (117)  0.2798 (118)
          -0.1432 (119) -0.2489 (121)  0.2337 (125) -0.1410 (126) -0.1859 (132)
           0.1525 (138) -0.1000 (144)
 CRD  2=  -0.1954 ( 60)  0.1142 ( 62)  0.2343 ( 63)  0.1230 ( 64)  0.1182 ( 65)
          -0.2429 ( 67)  0.1592 ( 70)  0.1241 ( 82) -0.1960 ( 84) -0.1059 ( 87)
           0.1462 ( 90)  0.1180 ( 95) -0.1566 ( 96) -0.1115 ( 99)  0.1151 (108)
           0.1991 (121) -0.2034 (125)  0.1375 (132) -0.1345 (138)  0.1320 (177)
           0.1570 (206)  0.1700 (224)  0.1252 (240)  0.1891 (241) -0.1252 (255)
           0.1273 (263)
 CRD  3=  -0.2600 ( 60)  0.1335 ( 61)  0.2381 ( 70)  0.1104 ( 81)  0.1432 ( 83)
          -0.2602 ( 84) -0.1234 ( 85)  0.1663 ( 90)  0.1111 ( 94) -0.1292 ( 96)
          -0.1164 ( 97) -0.1018 (108) -0.1277 (112) -0.2012 (118)  0.1025 (126)
          -0.1070 (138) -0.1125 (182) -0.1118 (187)  0.1321 (188) -0.1524 (206)
          -0.1023 (216) -0.1740 (224) -0.1057 (240) -0.1761 (241)  0.1662 (255)
          -0.1344 (259)  0.1147 (262) -0.1059 (263)
 CRD  4=   0.1845 ( 60) -0.1579 ( 63) -0.1071 ( 65)  0.2013 ( 67)  0.1287 ( 90)
           0.2177 (102)  0.2196 (112) -0.1130 (113)  0.1205 (118) -0.1066 (119)
          -0.1573 (125)  0.3057 (132) -0.2916 (138)  0.3065 (144) -0.2001 (150)
           0.1280 (156)
 CRD  5=  -0.1249 ( 60)  0.2068 ( 63) -0.1997 ( 67) -0.1230 ( 69)  0.1447 ( 96)
           0.1237 (101) -0.1447 (102) -0.1118 (105)  0.1759 (107)  0.2253 (112)
          -0.1109 (113) -0.1270 (116) -0.1139 (117)  0.2220 (118) -0.1133 (119)
          -0.1083 (126)  0.1574 (215)  0.1080 (232)  0.1958 (233)  0.1116 (246)
           0.1719 (248)  0.1559 (249)  0.1312 (255)  0.1158 (262)  0.1153 (275)
 CRD  6=  -0.1215 ( 60) -0.1048 ( 63)  0.1054 ( 70)  0.1480 (121) -0.1065 (128)
          -0.1512 (177)  0.1422 (188)  0.1327 (189) -0.1825 (206)  0.1540 (215)
          -0.1200 (224) -0.1647 (255)  0.1799 (259) -0.1064 (260) -0.1027 (261)
          -0.2371 (262)  0.2105 (274) -0.1006 (275) -0.1140 (277) -0.1067 (280)
          -0.1131 (284) -0.2138 (285)  0.1356 (294) -0.1043 (303)
 CRD  7=   0.1123 ( 32)  0.1259 ( 37)  0.1133 ( 42) -0.1921 ( 60)  0.1847 ( 63)
           0.1120 ( 65) -0.2006 ( 67) -0.1498 ( 69)  0.1072 ( 81)  0.1000 ( 88)
          -0.1636 ( 90)  0.2219 ( 96) -0.1222 (104)  0.1515 (118) -0.1010 (124)
           0.1571 (125)  0.2045 (144) -0.1099 (150)  0.1283 (156) -0.1279 (187)
          -0.1167 (215) -0.1285 (233) -0.1464 (248) -0.1527 (249) -0.1132 (255)
          -0.1194 (275)
 CRD  8=   0.1009 (  3)  0.1487 ( 15)  0.1727 ( 19)  0.1567 ( 20)  0.2002 ( 23)
           0.1623 ( 26)  0.1516 ( 29)  0.1887 ( 32)  0.1335 ( 34)  0.1433 ( 37)
           0.1723 ( 39)  0.1146 ( 42)  0.1403 ( 45)  0.2077 ( 70) -0.1039 ( 89)
           0.2415 ( 90)  0.2501 (107)  0.2591 (121)  0.2179 (138) -0.1144 (144)
           0.2492 (150)
 CRD  9=  -0.2526 ( 63) -0.1146 ( 65)  0.1889 ( 67)  0.2312 ( 69)  0.1843 ( 70)
          -0.2063 ( 84) -0.1980 (102) -0.1059 (106)  0.1352 (107)  0.1121 (110)
          -0.1150 (112)  0.2419 (125) -0.1343 (132) -0.1026 (135)  0.2141 (144)
          -0.2261 (150)  0.2326 (156)  0.1193 (224)  0.1069 (240)  0.1323 (241)
 CRD 10=   0.1928 ( 60)  0.1120 ( 63) -0.1234 ( 80)  0.1430 ( 90)  0.1635 (107)
          -0.1359 (121)  0.1096 (131)  0.1092 (146) -0.1171 (150) -0.1620 (173)
          -0.1127 (174) -0.1282 (175)  0.1166 (177) -0.1810 (179) -0.1447 (181)
          -0.1207 (187) -0.2058 (188) -0.1873 (189) -0.1167 (241)  0.1026 (259)
           0.1027 (272)  0.2089 (274) -0.1385 (285)  0.1038 (286)  0.1097 (289)
           0.1059 (292)  0.1821 (294)
 CRD 11=  -0.1182 (  3) -0.1020 (  6) -0.1554 ( 15) -0.1273 ( 19) -0.1220 ( 20)
          -0.1010 ( 23) -0.1328 ( 60)  0.1156 ( 61) -0.2596 ( 63)  0.1170 ( 69)
           0.1021 ( 71)  0.1175 ( 81)  0.1081 ( 88) -0.1499 ( 90)  0.1373 (112)
           0.1424 (118) -0.1283 (125)  0.1629 (132)  0.1647 (150) -0.1133 (156)
          -0.1776 (173) -0.1272 (174) -0.1417 (182) -0.1115 (185) -0.1983 (187)
          -0.1478 (189) -0.1375 (215)
 CRD 12=  -0.1038 (  6) -0.1121 ( 15) -0.1706 ( 19) -0.1396 ( 20) -0.1233 ( 23)
          -0.1058 ( 26)  0.1220 ( 37)  0.1963 ( 39)  0.2283 ( 42)  0.2272 ( 45)
           0.2310 ( 48)  0.1674 ( 51)  0.1161 ( 54)  0.1152 ( 60) -0.2265 ( 70)
           0.1019 ( 94) -0.2659 ( 96) -0.1085 (118)  0.1045 (121)  0.1324 (125)
           0.2245 (138)  0.1613 (144)  0.1941 (156) -0.1524 (188)
 CRD 13=  -0.1073 ( 20) -0.1473 ( 63)  0.2460 ( 69)  0.1337 ( 82) -0.2121 ( 84)
          -0.1984 (102) -0.1623 (121)  0.1941 (132)  0.1109 (136) -0.1670 (138)
           0.1716 (150) -0.2301 (156)  0.1217 (173)  0.1440 (177)  0.1023 (182)
           0.1120 (185)  0.1190 (187) -0.1156 (188)  0.1114 (206) -0.1119 (241)
          -0.1109 (249) -0.1335 (263)
 CRD 14=  -0.1501 ( 60)  0.1774 ( 84) -0.1049 (101)  0.1915 (102) -0.1040 (112)
          -0.1078 (121)  0.1110 (128) -0.1030 (142)  0.2039 (173)  0.1471 (174)
           0.1539 (175)  0.2639 (179)  0.1185 (181)  0.1106 (187)  0.2728 (188)
          -0.1524 (215)  0.1540 (255)  0.1575 (274)  0.1017 (275)  0.1023 (286)
           0.1075 (292)  0.1133 (293)  0.1990 (294)
 CRD 15=   0.2083 (  3)  0.1824 (  4)  0.1120 (  6)  0.1043 ( 15) -0.1092 ( 23)
          -0.1364 ( 26) -0.1570 ( 29) -0.1259 ( 32)  0.1264 ( 45)  0.1743 ( 60)
           0.3371 ( 63) -0.1051 ( 64)  0.1396 ( 67) -0.1493 ( 69)  0.1500 ( 70)
          -0.1477 (102) -0.1755 (107) -0.1879 (121)  0.1893 (132) -0.1117 (138)
           0.1201 (144)  0.2416 (150) -0.1354 (156) -0.1036 (159)
 CRD 16=  -0.1357 (  1)  0.1198 ( 32)  0.1248 ( 34) -0.1256 ( 48) -0.1047 ( 51)
          -0.1014 ( 54)  0.1141 ( 60) -0.2457 ( 69) -0.2585 ( 70) -0.1137 ( 84)
           0.1023 ( 87)  0.2180 ( 90) -0.1805 ( 96) -0.1020 (106)  0.2805 (107)
          -0.1159 (115)  0.1333 (118)  0.1491 (125) -0.1658 (138) -0.2344 (156)
 CRD 17=  -0.1654 (  1) -0.1128 (  3) -0.1725 (  4)  0.1202 ( 19)  0.1291 ( 20)
           0.1039 ( 23) -0.2762 ( 63)  0.1081 ( 64)  0.1013 ( 77)  0.1330 ( 84)
           0.1067 ( 90) -0.1067 (112) -0.1915 (121)  0.1797 (125) -0.1330 (138)
           0.1861 (144)  0.1725 (150) -0.1737 (156) -0.1623 (173) -0.1092 (174)
          -0.1088 (179)  0.1188 (215)
 CRD 18=  -0.1272 (  4) -0.1910 ( 63)  0.1132 ( 64) -0.1436 ( 67)  0.1067 ( 69)
           0.1109 ( 96) -0.1248 (112) -0.1366 (148)  0.1149 (149)  0.1128 (152)
          -0.1183 (153) -0.1010 (160)  0.1028 (161) -0.1234 (179) -0.2104 (188)
          -0.1048 (224) -0.1542 (248) -0.1262 (249) -0.1432 (255)  0.1088 (259)
           0.1138 (274) -0.1152 (275)  0.1849 (285)  0.1251 (295)  0.1308 (298)
           0.1429 (301)  0.1381 (302)  0.2206 (303)  0.1024 (313)
 CRD 19=  -0.1832 (  1) -0.1300 (  4) -0.1330 ( 10) -0.1221 ( 34) -0.1644 ( 37)
          -0.1490 ( 39)  0.1246 ( 48)  0.1533 ( 51)  0.1657 ( 54) -0.1752 ( 63)
          -0.2133 ( 69) -0.1018 ( 84)  0.1689 ( 90) -0.1603 (102)  0.1223 (118)
          -0.2001 (121) -0.2948 (125) -0.1107 (126)  0.1016 (134)  0.1128 (135)
          -0.1075 (144)  0.1572 (150) -0.1057 (155)  0.3169 (156) -0.1118 (164)
          -0.1057 (165)
 CRD 20=  -0.2270 (  1) -0.1342 (  4) -0.1796 ( 10)  0.1076 ( 37)  0.1124 ( 39)
          -0.1164 ( 51)  0.1374 ( 60) -0.2320 ( 63) -0.1250 ( 65) -0.2820 ( 69)
           0.1923 ( 70) -0.1691 ( 84)  0.1522 ( 96) -0.2324 (107)  0.1029 (116)
           0.1324 (121) -0.1676 (150) -0.1023 (188) -0.1024 (259)  0.1333 (294)
 CRD 21=   0.1862 (  6)  0.1852 ( 15)  0.1316 ( 19) -0.1618 ( 23) -0.1952 ( 26)
          -0.1559 ( 29) -0.1544 ( 63)  0.1138 ( 64)  0.1362 ( 70)  0.2759 ( 84)
          -0.1499 ( 91)  0.1299 ( 94) -0.1901 ( 96) -0.2178 (102)  0.1056 (111)
          -0.1041 (156)  0.1346 (179)  0.1291 (188) -0.1293 (189)  0.1002 (233)
          -0.1329 (294)
 CRD 22=   0.1029 ( 37)  0.1346 ( 39) -0.1391 ( 48) -0.1023 ( 51)  0.1578 ( 84)
          -0.1417 ( 96) -0.1612 (121) -0.1004 (131)  0.3665 (132) -0.1196 (140)
          -0.1458 (141)  0.1161 (142)  0.1612 (143) -0.3919 (144) -0.1032 (150)
           0.1201 (152) -0.1008 (154)  0.2145 (156) -0.1099 (173)
 CRD 23=   0.1368 (  6) -0.1002 ( 19) -0.1714 ( 20) -0.1139 ( 42)  0.1044 ( 54)
          -0.1011 ( 63) -0.1241 ( 65) -0.1247 ( 69)  0.2732 ( 70) -0.1221 ( 87)
           0.1182 ( 88)  0.1466 ( 89) -0.3290 ( 90) -0.2587 ( 96)  0.1547 (102)
           0.1204 (104)  0.1217 (105)  0.2013 (107) -0.2143 (138)  0.1573 (150)
           0.1306 (156)
 CRD 24=  -0.1233 ( 70) -0.1049 ( 88)  0.1366 ( 90) -0.1385 ( 99)  0.1252 (101)
          -0.1962 (102)  0.1086 (112) -0.1051 (113) -0.1278 (120)  0.1252 (121)
          -0.1650 (132) -0.1092 (138) -0.1207 (142)  0.1028 (146) -0.1112 (159)
          -0.1432 (173)  0.1051 (179)  0.1111 (183)  0.2149 (188)  0.1525 (206)
           0.1014 (219) -0.1392 (249) -0.1033 (258) -0.1250 (259) -0.1349 (263)
           0.1483 (294)  0.1002 (307)
 CRD 25=  -0.1010 ( 26)  0.1420 ( 34) -0.1385 ( 42) -0.1198 ( 45)  0.1008 ( 51)
           0.1189 ( 54) -0.1174 ( 67)  0.1191 ( 69) -0.1068 ( 82)  0.1018 ( 84)
           0.1571 ( 90) -0.1415 ( 97) -0.1365 (102) -0.1447 (107)  0.2028 (121)
           0.1476 (125) -0.1333 (132) -0.2703 (138)  0.1023 (147) -0.1276 (149)
           0.1756 (150)  0.1492 (156)  0.1175 (160) -0.1255 (188) -0.1354 (206)
          -0.1054 (303)
 CRD 26=   0.1046 ( 23) -0.1300 ( 32)  0.1020 ( 37)  0.1025 ( 39) -0.1867 ( 84)
           0.1133 ( 93)  0.2344 ( 96)  0.1305 (102) -0.1155 (107) -0.1394 (118)
          -0.1034 (124)  0.2545 (125)  0.1062 (126)  0.1134 (132) -0.1017 (135)
           0.1140 (136) -0.1955 (138) -0.1132 (140) -0.1702 (144)  0.1222 (156)
           0.1283 (179)  0.1378 (188) -0.1392 (189)  0.1410 (233)  0.1070 (243)
          -0.1140 (294)
 CRD 27=  -0.1399 ( 29)  0.1520 ( 34)  0.1079 ( 72)  0.1074 ( 73) -0.1413 ( 75)
           0.1220 ( 91)  0.1504 (106) -0.1463 (129)  0.1005 (131) -0.1077 (158)
          -0.1914 (173)  0.1840 (189)  0.1125 (191)  0.1079 (210) -0.1052 (232)
          -0.1401 (233) -0.1249 (240) -0.1290 (241)  0.1088 (255)  0.1308 (259)
           0.1232 (264) -0.1623 (294) -0.1138 (304) -0.1067 (307)
 CRD 28=  -0.1732 (  6) -0.2039 ( 60)  0.1269 ( 61) -0.1067 ( 64)  0.1493 ( 67)
           0.1546 ( 68) -0.1773 ( 73) -0.1851 (160)  0.1852 (161)  0.1080 (173)
          -0.1342 (177) -0.1944 (179) -0.1713 (183) -0.1449 (184) -0.1282 (186)
          -0.2184 (188)  0.1232 (224)  0.1178 (255) -0.1358 (262) -0.1008 (277)
          -0.1086 (280)  0.1779 (303)  0.1146 (313)  0.1126 (316)
 CRD 29=  -0.1002 (  2)  0.1034 (  4) -0.1906 (  6) -0.1874 ( 60)  0.1567 ( 61)
          -0.1294 ( 65)  0.1884 ( 67)  0.1225 ( 68) -0.1262 ( 69) -0.2397 ( 73)
           0.1028 ( 75)  0.1102 ( 81)  0.1002 (140)  0.1970 (160) -0.1974 (161)
          -0.1058 (164)  0.1032 (165)  0.1417 (173) -0.1396 (183) -0.1088 (184)
          -0.1129 (248) -0.1170 (255)  0.1082 (283)  0.1087 (284)  0.1199 (285)
          -0.1582 (303) -0.1154 (313) -0.1144 (316)
 CRD 30=   0.1020 (  2) -0.1592 (  3) -0.1294 (  4)  0.1676 (  6)  0.1578 ( 34)
           0.2053 ( 60) -0.2122 ( 62)  0.2322 ( 65) -0.1605 ( 67)  0.1254 ( 69)
           0.1103 ( 71) -0.1140 ( 74)  0.2573 ( 75) -0.1276 ( 80)  0.1113 ( 81)
          -0.1419 ( 85) -0.1069 ( 94)  0.1139 ( 95)  0.1002 (104)  0.1084 (119)
           0.1285 (173) -0.1174 (177) -0.1048 (181) -0.1111 (187) -0.1044 (198)
           0.1018 (215)  0.1019 (223)  0.1338 (224) -0.1056 (263)
 CRD 31=  -0.3629 ( 29)  0.3422 ( 34)  0.1158 (102)  0.1143 (106) -0.1915 (112)
          -0.1103 (115) -0.2392 (117)  0.2202 (118)  0.2008 (119)  0.1339 (120)
          -0.1133 (129)  0.1106 (130)  0.1192 (135) -0.1083 (154)  0.1113 (155)
           0.1040 (158) -0.1303 (268) -0.1075 (272) -0.1349 (274)  0.1096 (294)
           0.1058 (304)
 CRD 32=  -0.6039 ( 10)  0.1193 ( 63)  0.1059 ( 66)  0.1041 ( 68)  0.1179 ( 69)
          -0.4521 ( 74) -0.2435 ( 76) -0.2507 ( 77)  0.1509 ( 78)  0.2299 (169)
           0.1017 (170)  0.2226 (171)  0.1687 (174) -0.1677 (175)
 CRD 33=   0.2816 (  3)  0.2003 ( 32)  0.1173 ( 62)  0.2670 ( 64) -0.2431 ( 65)
          -0.1024 ( 73) -0.1415 ( 80) -0.2123 (160)  0.2075 (161)  0.1446 (177)
          -0.1097 (181) -0.1098 (187)  0.1133 (198)  0.1298 (215)  0.1203 (241)
          -0.1195 (285) -0.1120 (312)
 CRD 34=  -0.1446 ( 42)  0.1993 ( 45) -0.1023 ( 48)  0.1321 ( 51) -0.5006 ( 54)
          -0.1073 ( 75)  0.1014 (146)  0.1028 (150)  0.1325 (154) -0.3305 (162)
          -0.1884 (164) -0.1284 (165)  0.1837 (167)  0.1797 (168)
 CRD 35=   0.1192 ( 15) -0.1431 ( 19)  0.1585 ( 20) -0.1637 ( 23)  0.1868 ( 26)
          -0.1320 ( 29)  0.2885 ( 54)  0.1707 ( 73) -0.1969 ( 75)  0.1001 ( 80)
          -0.1023 ( 81)  0.1236 ( 83) -0.1256 ( 89) -0.1319 ( 91) -0.1389 (100)
           0.1095 (108)  0.1499 (110) -0.1173 (113) -0.1109 (116)  0.1310 (119)
          -0.1113 (155)  0.2110 (162)  0.1259 (165) -0.1196 (168)  0.1343 (187)
          -0.1017 (214)
 CRD 36=   0.1819 ( 37) -0.2559 ( 39)  0.2702 ( 42) -0.2321 ( 45)  0.2888 ( 48)
          -0.2927 ( 51) -0.2018 ( 54) -0.1014 (143)  0.1114 (150) -0.1092 (158)
          -0.1416 (159) -0.3468 (162)  0.1219 (167)  0.1198 (168)
 CRD 37=  -0.2570 ( 15)  0.3075 ( 19) -0.2972 ( 20)  0.2872 ( 23) -0.1578 ( 26)
           0.1705 ( 34)  0.1126 ( 48) -0.1409 ( 51) -0.1425 ( 75) -0.1370 ( 82)
           0.1290 ( 88)  0.1349 ( 93) -0.1146 ( 97)  0.1161 (101)  0.1286 (104)
          -0.1172 (111)  0.1045 (122) -0.1010 (217) -0.1037 (230)
 CRD 38=   0.1761 (  2)  0.3811 (  3)  0.1373 (  6) -0.1423 ( 32) -0.1037 ( 51)
           0.1010 ( 62)  0.3723 ( 64) -0.2181 ( 65) -0.1525 ( 67)  0.1376 ( 75)
          -0.1245 (117) -0.1052 (119)  0.1274 (126)  0.2155 (160) -0.1412 (161)
          -0.1154 (201)  0.1148 (224) -0.1052 (262)
 CRD 39=   0.1289 (  3) -0.1029 ( 15)  0.3074 ( 37) -0.2552 ( 39)  0.1222 ( 42)
          -0.1607 ( 48)  0.3494 ( 51) -0.1035 ( 54)  0.1244 ( 64)  0.1103 (119)
           0.1133 (124) -0.1171 (126)  0.1015 (155)  0.1292 (158) -0.1006 (160)
          -0.1767 (161)  0.1863 (162)  0.1298 (166)
 CRD 40=  -0.4286 ( 32) -0.1230 ( 35)  0.3076 (113) -0.3385 (117) -0.3493 (119)
           0.2549 (126) -0.1916 (160)  0.1855 (161) -0.1130 (248)  0.1226 (262)
 CRD 41=   0.2390 (  6) -0.2890 ( 15)  0.1257 ( 19) -0.2033 ( 23)  0.3133 ( 26)
          -0.1527 ( 29) -0.1109 ( 32) -0.1079 ( 33)  0.1613 ( 72) -0.1381 ( 73)
           0.1277 ( 75) -0.1423 ( 83) -0.1553 ( 87)  0.1164 ( 91)  0.1056 ( 94)
          -0.1257 (101) -0.1093 (104)  0.1376 (108)  0.1278 (111) -0.1612 (116)
           0.1033 (126) -0.1429 (160)  0.1066 (246)
 CRD 42=   0.1234 (  6) -0.2015 ( 15)  0.1287 ( 19) -0.1364 ( 23)  0.1966 ( 26)
          -0.1384 ( 34)  0.1712 ( 39) -0.1756 ( 42)  0.1484 ( 45) -0.1913 ( 51)
           0.1645 (117) -0.1207 (123) -0.1190 (126)  0.1270 (134) -0.1104 (137)
           0.1053 (142)  0.1570 (147) -0.1611 (154)  0.1029 (155) -0.1000 (159)
           0.1305 (161) -0.1282 (162)  0.1332 (164)  0.1205 (259) -0.1300 (289)
           0.1149 (310)
 CRD 43=   0.1170 ( 29)  0.1107 ( 35) -0.3605 ( 37)  0.1846 ( 39)  0.1842 ( 42)
          -0.3592 ( 45)  0.1990 ( 48)  0.1849 ( 51) -0.1455 ( 54) -0.1545 (123)
           0.1423 (134)  0.1112 (136) -0.1220 (143) -0.1214 (146)  0.1169 (153)
          -0.1241 (160) -0.1803 (161)  0.1697 (162)  0.1438 (166)
 CRD 44=   0.1024 ( 16) -0.1695 ( 19) -0.1144 ( 21)  0.2103 ( 23) -0.1857 ( 26)
          -0.1219 ( 30) -0.1181 ( 37) -0.1366 ( 74)  0.2063 ( 75) -0.1625 (113)
           0.1641 (119) -0.1197 (128) -0.1658 (160)  0.1506 (161)  0.1160 (190)
          -0.1097 (213) -0.1338 (215)  0.1292 (233)  0.1333 (243) -0.1192 (255)
          -0.1181 (275)
 CRD 45=  -0.2976 (  6)  0.2572 ( 15)  0.1945 ( 19) -0.3918 ( 20)  0.3095 ( 26)
          -0.1535 ( 29) -0.1194 ( 33)  0.1082 ( 73) -0.1380 ( 74) -0.1219 ( 80)
           0.1068 ( 89) -0.1211 ( 99)  0.1318 (108)  0.1129 (111) -0.1330 (113)
          -0.1205 (116) -0.1016 (236)
 CRD 46=   0.1013 (  3)  0.1029 (  9) -0.1493 ( 66)  0.1776 ( 68)  0.1036 ( 71)
           0.3703 ( 73) -0.1569 ( 74) -0.1398 ( 75) -0.1417 ( 76)  0.1862 ( 77)
           0.1087 ( 97) -0.1082 (110) -0.1219 (160)  0.1482 (161) -0.1006 (170)
           0.1151 (171)  0.1142 (173)  0.2064 (174)  0.2321 (175) -0.1041 (184)
          -0.1221 (186)
 CRD 47=  -0.1792 ( 34) -0.1212 ( 35)  0.2214 ( 37)  0.2207 ( 39)  0.1014 ( 40)
          -0.3439 ( 42) -0.1119 ( 45) -0.1049 ( 47)  0.3750 ( 48)  0.1071 ( 53)
          -0.1225 ( 54) -0.1263 (122) -0.1624 (126)  0.1219 (128)  0.1136 (130)
           0.1212 (135) -0.1074 (136)  0.1194 (148)  0.1017 (152) -0.2336 (160)
           0.1689 (162)  0.1336 (166) -0.1058 (264)  0.1016 (299)
 CRD 48=  -0.1160 ( 34) -0.1551 ( 37)  0.1685 ( 42) -0.1462 ( 48) -0.1247 ( 68)
           0.1018 ( 69) -0.2617 ( 73)  0.2344 ( 74) -0.1286 ( 77)  0.1057 ( 80)
          -0.1049 ( 81)  0.1166 ( 87) -0.1081 ( 94)  0.1115 (106) -0.1037 (126)
          -0.1169 (160)  0.2277 (161)  0.1443 (170) -0.1007 (174) -0.1261 (175)
 CRD 49=   0.1714 (  6) -0.1216 (  8) -0.1141 ( 10)  0.1267 ( 13) -0.1834 ( 19)
           0.1719 ( 23) -0.1076 ( 29) -0.1541 ( 66)  0.1724 ( 69) -0.1378 ( 73)
           0.3418 ( 74) -0.3265 ( 75) -0.1542 ( 76) -0.1034 ( 93)  0.1215 (100)
          -0.1083 (113) -0.1064 (116) -0.1001 (161)  0.2083 (170)  0.1282 (174)
 CRD 50=   0.2050 (  6) -0.2726 ( 19) -0.1123 ( 20)  0.2230 ( 23)  0.1606 ( 26)
           0.1081 ( 39)  0.1182 ( 72)  0.1138 ( 81) -0.1116 ( 89) -0.1029 ( 91)
           0.1095 (101) -0.1044 (122)  0.1284 (128) -0.1382 (129)  0.1175 (130)
           0.1147 (141) -0.1073 (148)  0.1469 (154) -0.1222 (155) -0.1202 (164)
           0.1216 (165)
 CRD 51=  -0.1087 (  2)  0.1344 (  6) -0.1187 ( 18) -0.1734 ( 19)  0.1109 ( 23)
           0.1033 ( 26) -0.1480 ( 39)  0.1193 ( 45)  0.1047 ( 48) -0.1030 ( 60)
          -0.1102 ( 61)  0.1204 ( 62)  0.1379 ( 66) -0.1124 ( 69)  0.1456 ( 71)
          -0.1777 ( 74)  0.1770 ( 75)  0.1304 ( 76)  0.2025 ( 80) -0.1440 ( 85)
           0.1144 ( 87) -0.1136 ( 88)  0.1492 (100) -0.1283 (110)  0.1648 (111)
          -0.1173 (161) -0.1085 (170) -0.1162 (174) -0.1093 (175) -0.1152 (234)
          -0.1019 (237)
 CRD 52=   0.1029 ( 19) -0.1006 ( 37) -0.2386 ( 39) -0.1348 ( 43)  0.2522 ( 45)
           0.1834 ( 48)  0.1457 ( 49) -0.1274 ( 51) -0.1588 (123)  0.1236 (124)
          -0.1621 (131) -0.1908 (135) -0.1152 (140)  0.1001 (141) -0.1111 (144)
           0.1426 (149) -0.1776 (155) -0.1090 (159) -0.1871 (160)  0.1523 (162)
          -0.1370 (164)  0.1203 (165)  0.1058 (166) -0.1046 (272) -0.1045 (316)
 CRD 53=  -0.1330 (  6) -0.1203 ( 15)  0.1711 ( 20) -0.1072 ( 26)  0.1555 ( 39)
          -0.1498 ( 45)  0.1238 ( 71) -0.1799 ( 72) -0.1220 ( 83) -0.1773 ( 85)
           0.1184 ( 87)  0.1481 ( 91) -0.1687 (106)  0.1078 (115) -0.1437 (116)
           0.1320 (124)  0.1431 (134) -0.1480 (148)  0.1055 (149)  0.1462 (154)
           0.1206 (158) -0.1170 (164)  0.1202 (165) -0.1053 (190)  0.1045 (210)
 CRD 54=  -0.1015 ( 45)  0.1061 ( 72) -0.1485 ( 82)  0.1748 ( 83) -0.1499 ( 88)
           0.1571 ( 89) -0.1496 ( 91)  0.1677 ( 93)  0.1583 ( 97) -0.1806 ( 99)
          -0.1201 (104) -0.1461 (136)  0.1297 (137)  0.1666 (142) -0.2173 (143)
          -0.1474 (147) -0.1599 (148)  0.1356 (149) -0.2019 (152)  0.1819 (153)
           0.1794 (158) -0.1529 (159)  0.1166 (216)  0.1082 (219) -0.1204 (292)
          -0.1021 (293) -0.1124 (295) -0.1122 (298)  0.1205 (307)
 CRD 55=   0.1135 ( 82) -0.1206 ( 83)  0.1911 ( 88) -0.2034 ( 89) -0.1088 ( 93)
          -0.1661 ( 94)  0.1785 ( 95) -0.1886 ( 97)  0.2001 ( 99)  0.1995 (104)
          -0.1728 (105)  0.1245 (130) -0.1388 (131) -0.1961 (136)  0.2039 (137)
          -0.1057 (140)  0.1135 (141)  0.1704 (142) -0.1555 (143)  0.1933 (146)
          -0.1865 (147) -0.1810 (152)  0.1745 (153) -0.1242 (213) -0.1116 (214)
          -0.1161 (216) -0.1174 (219)  0.1125 (225)  0.1209 (228)  0.1296 (283)
           0.1233 (284)  0.1032 (286)  0.1116 (289) -0.1084 (295) -0.1136 (298)
 CRD 56=   0.1540 ( 71) -0.1396 ( 72)  0.1088 ( 82) -0.1092 ( 83) -0.1342 ( 85)
           0.1401 ( 87)  0.1238 ( 91) -0.1357 ( 93)  0.1764 ( 94) -0.2083 ( 95)
          -0.1369 (100)  0.1451 (101) -0.1650 (104)  0.1821 (105)  0.1796 (110)
          -0.1391 (111)  0.1621 (130) -0.1641 (131) -0.1275 (136)  0.1267 (137)
          -0.1583 (140)  0.1615 (141)  0.1504 (146) -0.1393 (147)  0.1112 (148)
          -0.1150 (149)  0.1019 (159) -0.1343 (222) -0.1146 (223)  0.1151 (237)
 CRD 57=   0.1249 ( 15) -0.1502 ( 20) -0.1027 ( 23)  0.1433 ( 71)  0.1932 ( 82)
          -0.1311 ( 83)  0.1457 ( 87)  0.1495 ( 91) -0.1449 ( 93) -0.1292 ( 97)
          -0.1310 (100)  0.1267 (123) -0.1345 (124) -0.1544 (130)  0.1416 (131)
          -0.1246 (134)  0.1186 (135)  0.1633 (140) -0.1599 (141) -0.1387 (148)
           0.1396 (149)  0.1380 (158) -0.1360 (159)  0.1307 (204)  0.1011 (277)
           0.1060 (280)
 CRD 58=  -0.1301 (  6) -0.1837 ( 15)  0.1519 ( 20)  0.2122 ( 23)  0.1125 ( 24)
          -0.1157 ( 29) -0.1104 ( 33) -0.1099 ( 34) -0.1505 ( 37)  0.1345 ( 42)
           0.1559 ( 45)  0.1096 ( 47) -0.1053 ( 51)  0.1079 ( 70)  0.1255 ( 94)
          -0.1170 ( 96)  0.1082 (101)  0.1508 (105)  0.1066 (110) -0.1339 (122)
          -0.1452 (124) -0.1585 (129) -0.1326 (134)  0.1110 (140)  0.1394 (142)
           0.1002 (153) -0.1008 (159)
 CRD 59=   0.1173 ( 15) -0.1576 ( 23) -0.1057 ( 26) -0.1177 ( 28)  0.1455 ( 33)
           0.1138 ( 42) -0.1458 (101) -0.3030 (106)  0.2015 (108) -0.1100 (110)
           0.2580 (115) -0.2008 (116)  0.2086 (120) -0.1475 (122)  0.1771 (128)
          -0.2405 (129)  0.1331 (246) -0.1134 (248) -0.1074 (249) -0.1153 (251)
          -0.1049 (254) -0.1290 (263) -0.1349 (276)
 CRD 60=   0.1265 ( 29)  0.1607 ( 34)  0.1836 ( 35) -0.2357 ( 39) -0.1225 ( 40)
          -0.2413 ( 42) -0.1213 ( 43) -0.1460 ( 44) -0.1147 ( 45) -0.1129 ( 47)
           0.2263 ( 51)  0.1069 ( 53)  0.1201 ( 55)  0.1860 (120) -0.1176 (122)
           0.1141 (125)  0.1231 (128) -0.1662 (129)  0.1834 (132) -0.1277 (134)
           0.1374 (138)  0.1060 (139) -0.1029 (150) -0.1480 (156)  0.1514 (161)
          -0.1742 (162) -0.1176 (166)  0.1193 (257)
 CRD 61=   0.1122 (  5) -0.1195 ( 17) -0.1363 ( 19) -0.1436 ( 20) -0.1635 ( 22)
          -0.1070 ( 25) -0.1319 ( 27) -0.1044 ( 47)  0.1275 ( 66)  0.1469 ( 73)
           0.1825 ( 76) -0.1681 ( 77)  0.1639 ( 81)  0.1157 ( 90)  0.1013 ( 96)
          -0.1474 (160)  0.1497 (161) -0.1033 (181) -0.1136 (251) -0.1086 (253)
          -0.1159 (303)
 CRD 62=   0.1320 (  6)  0.1398 ( 14)  0.1691 ( 15)  0.1063 ( 18)  0.1072 ( 19)
          -0.1476 ( 26) -0.1117 ( 27) -0.2060 ( 29) -0.1027 ( 30) -0.1107 ( 31)
          -0.1734 ( 33) -0.1927 ( 34) -0.1384 ( 35) -0.1038 ( 36) -0.1662 ( 37)
          -0.1084 ( 38) -0.1081 ( 39) -0.1313 ( 41)  0.1275 ( 48)  0.1664 ( 51)
           0.1304 ( 52)  0.1156 ( 56) -0.1286 ( 70)  0.1025 ( 81) -0.1152 ( 84)
           0.1376 (107) -0.1129 (113)  0.1403 (121)  0.1261 (125) -0.1163 (150)
          -0.1161 (156)  0.1430 (160) -0.1148 (162)
 CRD 63=   0.1147 (  2) -0.1271 (  8) -0.1040 ( 11) -0.1378 ( 14) -0.1088 ( 15)
          -0.1262 ( 19) -0.1437 ( 20) -0.1540 ( 21) -0.1103 ( 23) -0.1124 ( 28)
           0.1116 ( 61)  0.1206 ( 66) -0.1640 ( 68)  0.1443 ( 73) -0.1807 ( 75)
           0.2567 ( 76) -0.2714 ( 77) -0.1128 ( 80)  0.1080 ( 84)  0.1252 ( 90)
           0.1175 ( 96)  0.1149 (160)  0.1170 (173) -0.1253 (174) -0.1176 (175)
 CRD 64=   0.1001 (  6) -0.1009 (  8)  0.1035 (  9)  0.1649 ( 15)  0.1148 ( 16)
           0.1126 ( 17)  0.1097 ( 18)  0.1721 ( 19)  0.1474 ( 20)  0.1236 ( 22)
           0.1052 ( 23) -0.1281 ( 45) -0.1495 ( 48) -0.1383 ( 51)  0.1109 ( 66)
          -0.1113 ( 68) -0.1271 ( 70)  0.1453 ( 73) -0.1444 ( 75)  0.2202 ( 76)
          -0.2268 ( 77)  0.1163 ( 81) -0.1556 ( 84) -0.1508 ( 90) -0.1212 ( 96)
           0.1060 (138)  0.1295 (144)  0.1275 (150)  0.1014 (156)  0.1090 (173)
 CRD 65=   0.1016 ( 19)  0.1045 ( 20)  0.1065 ( 37)  0.1412 ( 39)  0.1139 ( 41)
           0.1758 ( 42)  0.1169 ( 43)  0.1958 ( 45)  0.1540 ( 46)  0.1952 ( 48)
           0.1142 ( 49)  0.1484 ( 50)  0.1640 ( 51)  0.1003 ( 52)  0.1411 ( 53)
           0.1080 ( 55) -0.1239 (125) -0.1558 (132) -0.1811 (138) -0.1869 (144)
          -0.1010 (145) -0.1644 (150) -0.1036 (151) -0.1223 (156)  0.1054 (161)
          -0.1044 (162)
 CRD 66=  -0.1272 ( 29) -0.1415 ( 31) -0.3338 ( 33)  0.1267 ( 34)  0.3343 ( 35)
           0.1394 ( 38)  0.1662 (107) -0.2170 (108)  0.2258 (112) -0.2367 (113)
           0.1051 (114) -0.1639 (115) -0.2253 (118)  0.1653 (120) -0.1648 (121)
           0.2355 (126) -0.1042 (127)  0.2185 (128)  0.1617 (253) -0.1612 (256)
 CRD 67=   0.1131 (  2) -0.1555 (  5)  0.1546 (  7)  0.1530 ( 17) -0.1678 ( 18)
          -0.1712 ( 24)  0.1481 ( 25)  0.1017 ( 30) -0.2036 ( 31) -0.1120 ( 33)
          -0.1914 ( 38)  0.1248 ( 43) -0.1546 ( 44) -0.1381 ( 49)  0.1412 ( 50)
           0.1330 ( 55) -0.1372 ( 56) -0.1020 (106) -0.1030 (172) -0.1181 (176)
           0.1154 (181) -0.1027 (223)  0.1038 (241) -0.1031 (243)  0.1119 (255)
 CRD 68=  -0.1506 (  5)  0.1702 (  7)  0.1416 ( 17) -0.1575 ( 18) -0.1104 ( 24)
           0.1309 ( 25) -0.1331 ( 27)  0.1192 ( 28)  0.1161 ( 38)  0.1134 ( 41)
          -0.1674 ( 43)  0.1567 ( 44)  0.1811 ( 49) -0.1798 ( 50) -0.1742 ( 55)
           0.1759 ( 56) -0.1054 (176)  0.1072 (181) -0.1039 (251) -0.1093 (253)
           0.1022 (254)  0.1040 (256)
 CRD 69=  -0.2860 (  8)  0.2942 (  9) -0.2760 ( 61)  0.2148 ( 62)  0.2293 ( 80)
          -0.2638 ( 81)  0.1193 (173) -0.2207 (178) -0.2274 (180) -0.2980 (182)
          -0.1664 (183) -0.1499 (184) -0.2913 (185) -0.1497 (186) -0.1547 (187)
           0.1724 (188)
 CRD 70=   0.1514 (  5) -0.1762 (  7) -0.1096 ( 14)  0.1390 ( 16)  0.1031 ( 18)
          -0.2057 ( 21)  0.2006 ( 22)  0.1353 ( 27) -0.1624 ( 28)  0.1486 ( 30)
          -0.1792 ( 31)  0.1174 ( 36) -0.1460 ( 38) -0.1700 ( 40)  0.1489 ( 41)
           0.1712 ( 46) -0.1797 ( 47)  0.1251 ( 49) -0.1155 ( 50) -0.1774 ( 55)
           0.1766 ( 56)
 CRD 71=  -0.1179 (  5)  0.1496 (  7)  0.1326 ( 14) -0.1512 ( 16)  0.1600 ( 21)
          -0.1674 ( 22)  0.1643 ( 24) -0.1581 ( 25) -0.1223 ( 30)  0.1241 ( 31)
           0.1538 ( 36) -0.1600 ( 38)  0.1475 ( 43) -0.1586 ( 44)  0.2010 ( 46)
          -0.1984 ( 47) -0.1394 ( 52)  0.1456 ( 53) -0.1885 ( 55)  0.1866 ( 56)
 CRD 72=   0.1565 (  1)  0.1055 (  2)  0.1099 (  3) -0.1382 (  4)  0.1042 (  7)
           0.3695 ( 11)  0.3750 ( 12)  0.3187 ( 13)  0.1276 ( 14) -0.1275 ( 16)
          -0.1159 ( 17)  0.1109 ( 18)  0.1270 ( 27) -0.1295 ( 28) -0.1120 ( 64)
          -0.1376 ( 73) -0.1783 ( 74) -0.1414 ( 75)  0.1140 ( 76)  0.1105 ( 77)
           0.1614 (169)  0.1315 (170)  0.1645 (171)
 CRD 73=  -0.1450 (  5)  0.1103 (  7) -0.2701 ( 11) -0.2649 ( 12) -0.2404 ( 13)
           0.1474 ( 14) -0.1603 ( 16)  0.1324 ( 24) -0.1455 ( 25)  0.1635 ( 27)
          -0.1633 ( 28) -0.1066 ( 38) -0.1720 ( 40)  0.1701 ( 41) -0.1445 ( 43)
           0.1323 ( 44)  0.1032 ( 49) -0.1075 ( 50)  0.1769 ( 52) -0.1785 ( 53)
           0.1483 ( 55) -0.1453 ( 56)  0.1199 ( 74) -0.1123 (169) -0.1091 (171)
 CRD 74=  -0.1761 ( 54) -0.4814 ( 57) -0.5067 ( 58) -0.5074 ( 59)  0.1755 (160)
           0.1753 (161)  0.1907 (162) -0.1830 (166) -0.1920 (167) -0.1914 (168)
 CRD 75=   0.1065 (  5) -0.1321 (  7) -0.1880 ( 14)  0.1958 ( 16)  0.1712 ( 17)
          -0.1665 ( 18) -0.1347 ( 27)  0.1389 ( 28) -0.1545 ( 30)  0.1476 ( 31)
           0.1570 ( 36) -0.1499 ( 38) -0.1433 ( 40)  0.1385 ( 41)  0.1732 ( 49)
          -0.1738 ( 50)  0.2129 ( 52) -0.2133 ( 53)  0.1614 ( 55) -0.1581 ( 56)
 CRD 76=  -0.1047 (  7) -0.1580 ( 14)  0.1602 ( 16)  0.1902 ( 17) -0.1944 ( 18)
           0.1972 ( 21) -0.1936 ( 22)  0.1805 ( 24) -0.1838 ( 25)  0.1467 ( 27)
          -0.1424 ( 28) -0.1748 ( 40)  0.1777 ( 41) -0.2153 ( 43)  0.2108 ( 44)
          -0.2205 ( 46)  0.2207 ( 47) -0.2153 ( 49)  0.2091 ( 50) -0.1861 ( 52)
           0.1849 ( 53) -0.1259 ( 55)  0.1228 ( 56)
 CRD 77=   0.1012 (  7)  0.1426 ( 14) -0.1433 ( 16) -0.1793 ( 17)  0.1840 ( 18)
          -0.1996 ( 21)  0.1973 ( 22) -0.2049 ( 24)  0.2104 ( 25) -0.2002 ( 27)
           0.1942 ( 28) -0.1659 ( 30)  0.1545 ( 31)  0.1552 ( 36) -0.1415 ( 38)
          -0.1723 ( 40)  0.1758 ( 41) -0.1814 ( 43)  0.1770 ( 44) -0.1674 ( 46)
           0.1669 ( 47) -0.1530 ( 49)  0.1483 ( 50) -0.1292 ( 52)  0.1283 ( 53)
 CRD 78=  -0.3332 (  1) -0.1847 (  2) -0.2273 (  3)  0.3309 (  4) -0.3158 (  5)
           0.2316 (  8)  0.2488 (  9)  0.1630 ( 10)  0.1806 ( 11)  0.1812 ( 12)
           0.2713 ( 13) -0.1043 ( 16)  0.2466 ( 64) -0.1642 ( 65)  0.1325 ( 69)
          -0.1410 ( 76) -0.1512 ( 77)  0.1058 ( 78)
 CRD 79=  -0.1158 ( 38) -0.1321 ( 40)  0.1271 ( 41)  0.1121 (130) -0.1097 (131)
           0.1236 (136) -0.1226 (137)  0.1173 (142) -0.1163 (143) -0.1125 (146)
           0.1124 (147) -0.1214 (152)  0.1211 (153) -0.1183 (158)  0.1187 (159)
           0.1110 (278)  0.1112 (279)  0.1088 (281)  0.1090 (282)  0.1415 (287)
           0.1407 (288)  0.1396 (290)  0.1388 (291)  0.1536 (296)  0.1534 (297)
           0.1528 (299)  0.1525 (300)  0.1485 (305)  0.1478 (306)  0.1474 (308)
           0.1467 (309)  0.1233 (314)  0.1231 (315)  0.1233 (317)  0.1231 (318)
 CRD 80=  -0.1197 (  5)  0.1007 (  7)  0.1238 ( 14) -0.1354 ( 16)  0.1367 ( 27)
          -0.1423 ( 28)  0.1421 ( 30) -0.1487 ( 31) -0.1019 ( 36) -0.1202 ( 82)
           0.1218 ( 83)  0.1242 ( 88) -0.1226 ( 89) -0.1007 ( 91) -0.1238 ( 97)
           0.1239 ( 99) -0.1189 (104)  0.1210 (105)  0.1306 (207)  0.1302 (209)
           0.1267 (211)  0.1272 (212)  0.1609 (217)  0.1604 (218)  0.1595 (220)
           0.1589 (221)  0.1613 (226)  0.1593 (227)  0.1592 (229)  0.1572 (230)
           0.1265 (235)  0.1256 (236)  0.1259 (238)  0.1251 (239)
 CRD 81=  -0.1905 (  1) -0.2163 (  2) -0.1912 (  5) -0.1099 (  7) -0.5501 (  8)
          -0.5534 (  9)  0.1788 ( 13)  0.1475 ( 63)  0.1095 ( 64) -0.1460 ( 65)
          -0.2053 ( 78) -0.1213 (174)  0.1072 (175)  0.1233 (192) -0.1262 (197)
 CRD 82=  -0.1047 ( 30) -0.1571 ( 38)  0.1480 ( 46) -0.1538 ( 47)  0.1474 ( 49)
          -0.1448 ( 50)  0.1106 (123) -0.1038 (124) -0.1021 (140)  0.1032 (141)
          -0.1049 (148)  0.1047 (149)  0.1147 (164) -0.1150 (165)  0.1293 (265)
           0.1266 (266)  0.1187 (269)  0.1160 (270)  0.1678 (278)  0.1663 (279)
           0.1630 (281)  0.1615 (282)  0.1162 (287)  0.1152 (288)  0.1133 (290)
           0.1124 (291) -0.1167 (305) -0.1159 (306) -0.1163 (308) -0.1154 (309)
          -0.1676 (314) -0.1671 (315) -0.1675 (317) -0.1670 (318) -0.1080 (319)
          -0.1070 (322)
 CRD 83=  -0.1827 ( 55) -0.1827 ( 56)  0.6344 ( 57) -0.2942 ( 58) -0.2855 ( 59)
          -0.3271 (166)  0.1601 (167)  0.1559 (168) -0.1698 (310)  0.1688 (311)
           0.1866 (320) -0.1519 (321)  0.1507 (323) -0.1878 (324)
 CRD 84=   0.2895 (  5)  0.2687 (  7)  0.2176 ( 11) -0.5413 ( 12)  0.3498 ( 13)
           0.1196 ( 79) -0.1198 (169) -0.1734 (170)  0.2865 (171) -0.1440 (183)
           0.1624 (186)  0.1491 (192) -0.1572 (193)  0.1681 (195) -0.1383 (196)
 CRD 85=   0.2391 (  5)  0.2526 (  7) -0.5676 ( 11)  0.2001 ( 12)  0.3870 ( 13)
           0.1083 ( 79)  0.3006 (169) -0.1949 (170) -0.1107 (171)  0.1548 (183)
          -0.1664 (184)  0.1358 (193) -0.1854 (194)  0.1601 (196) -0.1612 (197)
 CRD 86=   0.1182 ( 12) -0.1536 ( 30) -0.2344 ( 31) -0.5749 ( 36) -0.4587 ( 38)
          -0.2193 (127)  0.1338 (254)  0.1333 (271)
 CRD 87=  -0.5624 ( 30) -0.5511 ( 31)  0.2315 ( 36)  0.2454 ( 38) -0.2439 (114)
           0.1061 (127)  0.1048 (245)  0.1209 (250)  0.1148 (251) -0.1146 (252)
          -0.1207 (253)
 CRD 88=   0.5385 ( 58) -0.5404 ( 59) -0.2918 (167)  0.2936 (168) -0.2224 (312)
          -0.2123 (319)  0.1011 (320) -0.2130 (322)  0.1004 (323)
 CRD 89=  -0.1768 (  1) -0.1943 (  2)  0.4127 (  5)  0.4590 (  7) -0.1147 (  8)
          -0.1366 (  9)  0.1725 ( 11)  0.2399 ( 12) -0.3322 ( 13)  0.2024 ( 79)
           0.1981 (170) -0.1282 (171)  0.1098 (184) -0.1082 (186)  0.1292 (194)
          -0.1464 (195)
 CRD 90=   0.1308 (  7)  0.1512 ( 21) -0.1493 ( 22)  0.1020 ( 24) -0.2520 ( 30)
          -0.1108 ( 36) -0.2654 ( 38)  0.1001 ( 71)  0.1110 (199)  0.1070 (200)
           0.1255 (202)  0.1215 (203)  0.1661 (207)  0.1636 (209)  0.1544 (211)
           0.1569 (212) -0.1098 (231) -0.1603 (235) -0.1498 (236) -0.1602 (238)
          -0.1496 (239) -0.1164 (242) -0.1588 (244) -0.1019 (245) -0.1444 (247)
 CRD 91=   0.1665 ( 40)  0.1612 ( 41) -0.2682 ( 43) -0.2697 ( 44)  0.3546 ( 46)
           0.3515 ( 47) -0.3209 ( 49) -0.3286 ( 50)  0.2618 ( 52)  0.2607 ( 53)
          -0.1248 ( 55) -0.1269 ( 56)  0.1155 (145) -0.1034 (151) -0.1021 (297)
           0.1039 (299)
 CRD 92=  -0.1624 ( 14) -0.1639 ( 16)  0.3151 ( 17)  0.3041 ( 18) -0.3794 ( 21)
          -0.3875 ( 22)  0.3246 ( 24)  0.3198 ( 25) -0.1978 ( 27) -0.2057 ( 28)
           0.1002 ( 92) -0.1261 ( 98)  0.1035 (103) -0.1072 (218)  0.1069 (220)
           0.1072 (227) -0.1101 (229)
 CRD 93=  -0.2873 ( 40) -0.2811 ( 41)  0.3042 ( 43)  0.3108 ( 44) -0.1299 ( 46)
          -0.1346 ( 47) -0.1612 ( 49) -0.1563 ( 50)  0.3463 ( 52)  0.3473 ( 53)
          -0.2378 ( 55) -0.2423 ( 56) -0.1008 (133)  0.1046 (139)  0.1210 (157)
 CRD 94=  -0.2834 ( 14) -0.2825 ( 16)  0.3270 ( 17)  0.3327 ( 18) -0.3021 ( 24)
          -0.2835 ( 25)  0.3431 ( 27)  0.3507 ( 28)  0.1174 ( 92) -0.1036 (103)
           0.1266 (109) -0.1098 (212)  0.1178 (236) -0.1055 (238)
 CRD 95=  -0.3570 ( 40) -0.3562 ( 41)  0.1098 ( 43)  0.1224 ( 44)  0.2963 ( 46)
           0.2928 ( 47) -0.2119 ( 49) -0.2158 ( 50) -0.1750 ( 52) -0.1685 ( 53)
           0.2736 ( 55)  0.2760 ( 56) -0.1382 (133)  0.1134 (145)  0.1008 (163)
 CRD 96=   0.3551 ( 14)  0.3526 ( 16) -0.3616 ( 21) -0.3545 ( 22)  0.3417 ( 27)
           0.3380 ( 28)  0.1389 ( 86) -0.1450 ( 98)  0.1385 (109)
 CRD 97=   0.2564 ( 40)  0.2637 ( 41)  0.1571 ( 43)  0.1512 ( 44) -0.2212 ( 46)
          -0.2292 ( 47) -0.2905 ( 49) -0.2920 ( 50)  0.1197 ( 52)  0.1196 ( 53)
           0.3424 ( 55)  0.3428 ( 56)  0.1119 (133) -0.1212 (151)  0.1412 (163)
 CRD 98=   0.3258 ( 14)  0.3127 ( 16)  0.2828 ( 17)  0.2644 ( 18) -0.3107 ( 24)
          -0.3291 ( 25) -0.2763 ( 27) -0.2618 ( 28)  0.1421 ( 86)  0.1231 ( 92)
          -0.1429 (103) -0.1240 (109)  0.1070 (211) -0.1084 (239)
 CRD 99=   0.2252 ( 40)  0.2388 ( 41)  0.3249 ( 43)  0.3243 ( 44)  0.1292 ( 46)
           0.1175 ( 47) -0.1426 ( 49) -0.1549 ( 50) -0.2936 ( 52) -0.2998 ( 53)
          -0.2492 ( 55) -0.2459 ( 56)  0.1096 (133)  0.1472 (139) -0.1386 (157)
          -0.1130 (163)
 CRD100=   0.2063 ( 14)  0.1965 ( 16)  0.2981 ( 17)  0.3061 ( 18)  0.3139 ( 21)
           0.3127 ( 22)  0.2908 ( 24)  0.2861 ( 25)  0.1638 ( 27)  0.1503 ( 28)
           0.1474 ( 92)  0.1559 ( 98)  0.1397 (103) -0.1121 (217)  0.1176 (221)
          -0.1095 (226)  0.1139 (230)
 CRD101=   0.1310 ( 40)  0.1419 ( 41)  0.2576 ( 43)  0.2605 ( 44)  0.2870 ( 46)
           0.2860 ( 47)  0.3088 ( 49)  0.3026 ( 50)  0.2374 ( 52)  0.2339 ( 53)
           0.1380 ( 55)  0.1362 ( 56)  0.1255 (139)  0.1441 (145)  0.1493 (151)
           0.1176 (157)  0.1040 (291) -0.1096 (296)  0.1127 (300) -0.1014 (305)
           0.1002 (309)
 CRD102=   0.1151 ( 36)  0.1464 ( 43) -0.1353 ( 44) -0.1003 ( 49) -0.1395 ( 52)
           0.1382 ( 53)  0.1072 (264)  0.1653 (265)  0.1724 (266)  0.1127 (268)
           0.1709 (269)  0.1780 (270) -0.1068 (283) -0.1052 (284) -0.1015 (295)
          -0.1683 (296) -0.1699 (297) -0.1022 (298) -0.1690 (299) -0.1706 (300)
           0.1410 (314)  0.1410 (315)  0.1412 (317)  0.1413 (318)  0.1142 (319)
           0.1351 (320)  0.1354 (321)  0.1142 (322)  0.1351 (323)  0.1354 (324)
 CRD103=   0.1087 (  5) -0.1032 (  7)  0.1248 (  8) -0.1332 (  9) -0.1362 ( 17)
           0.1380 ( 18)  0.1256 ( 24) -0.1297 ( 25)  0.1019 ( 27) -0.1090 ( 28)
          -0.1125 ( 30)  0.1121 ( 31)  0.1267 ( 36) -0.1348 ( 38) -0.1003 (172)
          -0.1062 (198) -0.1556 (199) -0.1618 (200) -0.1131 (201) -0.1625 (202)
          -0.1687 (203)  0.1032 (213)  0.1038 (214)  0.1145 (217)  0.1129 (218)
           0.1174 (220)  0.1158 (221)  0.1488 (226)  0.1481 (227)  0.1471 (229)
           0.1464 (230) -0.1140 (231) -0.1137 (232) -0.1773 (242) -0.1776 (244)
          -0.1829 (245) -0.1056 (246) -0.1832 (247)  0.1065 (263)
 CRD104=   0.2059 (  1)  0.4418 (  2) -0.1767 (  3)  0.5556 (  4)  0.1012 (  7)
          -0.3230 ( 63)  0.1189 ( 65)  0.1566 ( 66) -0.1827 ( 67)  0.1672 ( 68)
          -0.1544 ( 69) -0.2246 ( 78)  0.1271 (192)  0.1307 (193)  0.1360 (194)
          -0.1133 (195) -0.1097 (196) -0.1044 (197)
 CRD105=   0.2183 ( 30) -0.2171 ( 31) -0.1158 ( 40)  0.1155 ( 41)  0.1350 ( 46)
          -0.1339 ( 47) -0.1323 ( 52)  0.1315 ( 53)  0.1520 (248)  0.1141 (249)
          -0.1117 (250) -0.1054 (251) -0.1563 (252) -0.1500 (253) -0.1284 (256)
           0.1206 (263) -0.1104 (265) -0.1231 (266) -0.1662 (267) -0.1066 (269)
          -0.1193 (270) -0.1236 (271) -0.1321 (275)  0.1585 (276)  0.1243 (287)
           0.1227 (288)  0.1256 (290)  0.1239 (291) -0.1285 (305) -0.1284 (306)
          -0.1271 (308) -0.1270 (309)  0.1059 (320)  0.1060 (321)  0.1055 (323)
           0.1056 (324)
 CRD106=  -0.2999 (  8)  0.3040 (  9)  0.1882 ( 36) -0.1914 ( 38)  0.1502 ( 40)
          -0.1472 ( 41) -0.1196 ( 66)  0.1080 ( 68)  0.1026 (178)  0.1999 (192)
           0.1942 (193)  0.1989 (194)  0.2091 (195)  0.2034 (196)  0.2082 (197)
 CRD107=   0.1837 (  8) -0.1795 (  9) -0.1202 ( 27)  0.1231 ( 28)  0.2008 ( 30)
          -0.1914 ( 31)  0.2650 ( 36) -0.2617 ( 38)  0.2139 ( 40) -0.2101 ( 41)
          -0.1396 (192) -0.1367 (193) -0.1404 (194) -0.1387 (195) -0.1358 (196)
          -0.1394 (197) -0.1079 (250) -0.1358 (252) -0.1223 (253) -0.1253 (256)
           0.1366 (265)  0.1322 (266) -0.1308 (267)  0.1279 (269)  0.1235 (270)
          -0.1034 (271)
 CRD108=  -0.2137 (  5)  0.2022 (  7)  0.1043 (  8) -0.2444 ( 14)  0.2464 ( 16)
          -0.1252 ( 17)  0.1248 ( 18) -0.1935 ( 24)  0.1935 ( 25)  0.2459 ( 27)
          -0.2472 ( 28) -0.1301 ( 30)  0.1400 ( 31)  0.1030 (172)  0.1024 (176)
           0.1566 (199)  0.1572 (200)  0.1494 (202)  0.1499 (203)  0.1369 (235)
           0.1419 (236)  0.1335 (238)  0.1385 (239) -0.1102 (242) -0.1174 (245)
          -0.1066 (247)
 CRD109=  -0.2454 ( 43)  0.2440 ( 44)  0.3181 ( 46) -0.3168 ( 47) -0.2709 ( 49)
           0.2709 ( 50)  0.1908 ( 52) -0.1904 ( 53) -0.1257 ( 55)  0.1258 ( 56)
           0.1442 (287)  0.1451 (288)  0.1426 (290)  0.1435 (291) -0.1331 (296)
          -0.1318 (297) -0.1340 (299) -0.1326 (300)
 CRD110=  -0.1693 ( 14)  0.1707 ( 16) -0.3208 ( 17)  0.3203 ( 18)  0.2863 ( 21)
          -0.2879 ( 22) -0.1159 ( 27)  0.1170 ( 28)  0.1274 ( 30) -0.1327 ( 31)
           0.1146 (204)  0.1171 (205) -0.1144 (207) -0.1167 (209) -0.1153 (211)
          -0.1129 (212)  0.1254 (216)  0.1904 (217)  0.1880 (218)  0.1253 (219)
           0.1903 (220)  0.1879 (221)
 CRD111=   0.1333 (  5) -0.1269 (  7)  0.1567 ( 14) -0.1578 ( 16)  0.1412 ( 21)
          -0.1416 ( 22) -0.1802 ( 24)  0.1806 ( 25)  0.1814 ( 40) -0.1808 ( 41)
          -0.1561 ( 43)  0.1556 ( 44)  0.1917 ( 49) -0.1911 ( 50) -0.1976 ( 52)
           0.1968 ( 53) -0.1122 (226) -0.1108 (227) -0.1120 (229) -0.1106 (230)
          -0.1126 (278) -0.1094 (279) -0.1164 (281) -0.1131 (282) -0.1277 (305)
          -0.1271 (306) -0.1277 (308) -0.1271 (309)
 CRD112=  -0.1173 (  5)  0.1129 (  7) -0.1577 ( 14)  0.1587 ( 16) -0.1176 ( 21)
           0.1177 ( 22)  0.2256 ( 24) -0.2261 ( 25) -0.1560 ( 27)  0.1554 ( 28)
           0.1509 ( 40) -0.1515 ( 41) -0.1855 ( 43)  0.1845 ( 44)  0.1032 ( 49)
          -0.1027 ( 50) -0.1245 ( 52)  0.1239 ( 53)  0.1105 (226)  0.1088 (227)
           0.1103 (229)  0.1085 (230) -0.1210 (235) -0.1246 (236) -0.1183 (238)
          -0.1219 (239) -0.1008 (276) -0.1190 (278) -0.1154 (279) -0.1244 (281)
          -0.1208 (282)
 CRD113=   0.1286 ( 46) -0.1280 ( 47) -0.1529 ( 52)  0.1524 ( 53)  0.3363 ( 55)
          -0.3359 ( 56) -0.1030 (296) -0.1017 (297) -0.1024 (299) -0.1011 (300)
           0.1208 (301)  0.1197 (302) -0.1516 (310) -0.1518 (311) -0.1682 (312)
           0.1020 (313)  0.1407 (314)  0.1417 (315)  0.1378 (317)  0.1388 (318)
          -0.2484 (319) -0.2321 (320) -0.2318 (321) -0.2486 (322) -0.2323 (323)
          -0.2320 (324)
 CRD114=   0.1358 ( 29)  0.3523 ( 33) -0.1360 ( 34) -0.3505 ( 35) -0.1107 (106)
          -0.1344 (108) -0.3215 (113)  0.1038 (116) -0.2951 (117)  0.2958 (119)
          -0.1041 (122)  0.3209 (126)  0.1343 (128)  0.1093 (129) -0.1289 (244)
          -0.1060 (250)  0.1297 (269)  0.1055 (271)
 CRD115=  -0.1646 (  5)  0.2217 (  7)  0.1746 (  8) -0.1731 (  9)  0.1422 (173)
           0.1344 (174)  0.1382 (175) -0.3408 (178) -0.2434 (180) -0.2899 (181)
           0.2126 (183)  0.2262 (184) -0.1638 (185)  0.2281 (186) -0.1130 (187)
          -0.1805 (188)  0.1910 (192)  0.1756 (193)  0.1891 (194)  0.2073 (195)
           0.1919 (196)  0.2054 (197)
 CRD116=   0.2102 ( 29) -0.2915 ( 32) -0.4132 ( 33)  0.2102 ( 34) -0.4132 ( 35)
          -0.1012 (106) -0.1191 (113)  0.1583 (115)  0.1300 (116)  0.1674 (117)
           0.1668 (119)  0.1586 (120)  0.1301 (122) -0.1197 (126) -0.1017 (129)
          -0.1307 (244)  0.1245 (245)  0.1251 (266) -0.1304 (269)
 CRD117=  -0.2562 (  2)  0.1136 (  4)  0.1064 ( 29) -0.1516 ( 35)  0.1654 ( 61)
           0.1526 ( 62) -0.1238 ( 63)  0.1917 ( 65) -0.1035 ( 67)  0.1472 ( 71)
           0.1556 ( 72) -0.1375 ( 80) -0.1253 ( 81)  0.1360 ( 82)  0.1483 ( 83)
          -0.1354 ( 85) -0.1558 ( 87)  0.1218 ( 88)  0.1236 ( 89) -0.1483 ( 91)
          -0.1444 ( 93) -0.1289 ( 97) -0.1324 ( 99) -0.1032 (104) -0.1051 (105)
          -0.1058 (182)  0.1584 (200) -0.1829 (202)  0.1810 (209) -0.1653 (212)
           0.1589 (218) -0.1573 (220)  0.1305 (227) -0.1323 (229)
 CRD118=  -0.1763 ( 33)  0.1248 ( 34) -0.1008 ( 35) -0.1564 ( 57) -0.1222 (130)
          -0.1211 (131) -0.1479 (136) -0.1431 (137)  0.1081 (140)  0.1112 (141)
          -0.1550 (142) -0.1550 (143)  0.1388 (146)  0.1388 (147) -0.1454 (148)
          -0.1425 (149)  0.1529 (152)  0.1564 (153) -0.1114 (154) -0.1117 (155)
           0.1477 (158)  0.1466 (159) -0.1153 (162)  0.1410 (164)  0.1422 (165)
           0.1202 (167)  0.1203 (168) -0.1114 (279)  0.1103 (281) -0.1498 (288)
           0.1518 (290) -0.1743 (297)  0.1732 (299) -0.1748 (306)  0.1727 (308)
          -0.1713 (315)  0.1720 (317)
 CRD119=   0.1574 (  1) -0.1421 (  2)  0.1631 (  4)  0.1154 (  8)  0.1245 (  9)
           0.1058 ( 10) -0.2218 ( 11) -0.2249 ( 12) -0.2752 ( 13)  0.1357 ( 63)
           0.1482 ( 64) -0.1185 ( 65) -0.1778 ( 66) -0.1777 ( 68)  0.1032 ( 69)
          -0.2290 ( 73) -0.2486 ( 74) -0.2273 ( 75)  0.2094 ( 76)  0.2117 ( 77)
          -0.1463 ( 78)  0.2503 (169)  0.2068 (170)  0.2479 (171) -0.2178 (174)
           0.2130 (175)
 CRD120=  -0.2508 (  2)  0.1039 ( 15) -0.1822 ( 29) -0.1130 ( 32)  0.2085 ( 33)
          -0.1120 ( 34)  0.2719 ( 35)  0.1203 ( 61)  0.1166 ( 62) -0.1386 ( 63)
          -0.1141 ( 64)  0.2331 ( 65) -0.1187 ( 67) -0.1054 ( 80) -0.1011 ( 81)
          -0.1261 ( 94) -0.1209 ( 95) -0.1144 (100) -0.1055 (101)  0.1157 (104)
           0.1192 (105)  0.1254 (110)  0.1247 (111) -0.1066 (202) -0.1174 (227)
           0.1223 (229) -0.1393 (236)  0.1461 (238)
 CRD121=   0.1338 (  2)  0.1831 ( 33) -0.1490 ( 34)  0.1080 ( 45)  0.1114 ( 48)
          -0.1963 ( 57) -0.1184 ( 58) -0.1194 ( 59) -0.1294 ( 65)  0.1285 (123)
           0.1145 (124)  0.1153 (130)  0.1154 (131) -0.1089 (134) -0.1080 (135)
          -0.1230 (140) -0.1234 (141) -0.1138 (154) -0.1129 (155) -0.1298 (160)
          -0.1296 (161) -0.1564 (162)  0.1349 (164)  0.1356 (165)  0.1037 (166)
           0.1662 (167)  0.1653 (168)  0.1429 (279) -0.1370 (281)  0.1115 (288)
          -0.1131 (290) -0.1350 (315)  0.1339 (317)
 CRD122=   0.1899 (  1)  0.1357 (  2) -0.1892 (  3)  0.1015 ( 20)  0.1021 ( 23)
          -0.1204 ( 29) -0.2669 ( 32)  0.1994 ( 33)  0.2459 ( 35) -0.1068 ( 54)
           0.1104 ( 57)  0.1223 ( 64) -0.2162 ( 65) -0.1114 (108) -0.1039 (167)
          -0.1038 (168)
 CRD123=  -0.3372 (  1)  0.2217 (  3) -0.1101 ( 32)  0.1666 ( 33) -0.1150 ( 34)
           0.1108 ( 42) -0.1025 ( 51) -0.1560 ( 54)  0.1129 ( 57)  0.1039 ( 58)
           0.1043 ( 59) -0.1539 ( 64)  0.1990 ( 65)  0.1064 (160)  0.1064 (161)
           0.1103 (162) -0.1082 (166) -0.1152 (167) -0.1147 (168) -0.1308 (271)
 CRD124=   0.4888 (  1) -0.3144 (  2) -0.1263 (  3) -0.1508 (  5)  0.1262 (  6)
          -0.1513 ( 10)  0.1030 ( 32) -0.1376 ( 35) -0.1061 ( 54)  0.1669 ( 64)
          -0.1190 ( 80)  0.1202 (250)
 CRD125=  -0.1720 (  1)  0.2743 (  2) -0.1306 (  3)  0.1271 ( 19) -0.1381 ( 26)
           0.3158 ( 32) -0.1446 ( 33) -0.1369 ( 35) -0.1411 ( 37)  0.1289 ( 45)
          -0.1908 ( 54)  0.1004 ( 63)  0.1186 ( 67)  0.1012 (113) -0.1129 (166)
           0.1004 (200)
 CRD126=  -0.1774 (  2)  0.1253 (  3) -0.1288 ( 30) -0.1190 ( 33)  0.1210 ( 36)
          -0.1262 ( 37)  0.1192 ( 45) -0.1744 ( 54) -0.1203 (106)  0.1248 (129)
          -0.1018 (166) -0.1322 (240) -0.1626 (248) -0.2542 (250) -0.1556 (252)
           0.1655 (263)  0.1438 (267)  0.2528 (271)  0.1324 (275)
 CRD127=  -0.1183 (  3)  0.1426 (  6) -0.2113 (  7)  0.2155 (  8) -0.2262 (  9)
          -0.1257 ( 11)  0.1261 ( 12) -0.1365 ( 20)  0.1297 ( 26) -0.1538 ( 32)
           0.1065 ( 36) -0.1348 ( 81) -0.1004 ( 83)  0.1021 (171)  0.1209 (173)
           0.1399 (178) -0.1710 (179)  0.1460 (181) -0.2229 (182) -0.1251 (183)
           0.1212 (192)  0.1174 (194)  0.1315 (195)  0.1278 (197)  0.1036 (202)
          -0.1319 (248) -0.1390 (250)  0.1069 (263)  0.1265 (267)  0.1699 (271)
 CRD128=   0.1843 ( 29) -0.3142 ( 33) -0.1380 ( 34)  0.3539 ( 35) -0.1181 ( 38)
          -0.2433 (112) -0.1468 (114) -0.2984 (117)  0.2550 (118)  0.3309 (119)
           0.1568 (127)  0.1478 (250) -0.1084 (263) -0.1243 (266) -0.1308 (271)
 CRD129=   0.1215 ( 31)  0.2020 ( 32) -0.1489 ( 33) -0.2177 ( 34)  0.1413 ( 39)
           0.1796 ( 42) -0.2027 ( 48)  0.2776 ( 54) -0.1315 ( 58) -0.1331 ( 59)
          -0.1727 (117)  0.1047 (123)  0.1170 (124)  0.1318 (126) -0.1051 (134)
          -0.1132 (135) -0.1101 (136) -0.1085 (137)  0.1026 (154)  0.1018 (155)
           0.1720 (166) -0.1187 (250) -0.1458 (252)  0.1120 (263)  0.1008 (267)
          -0.1089 (297)  0.1023 (299)  0.1350 (321) -0.1370 (323)
 CRD130=  -0.1563 (  2)  0.1725 (  3) -0.1105 (  7)  0.1622 (  8) -0.1181 (  9)
           0.1173 ( 12) -0.1600 ( 15) -0.1460 ( 19)  0.1109 ( 20)  0.1819 ( 23)
          -0.2096 ( 29)  0.2070 ( 32)  0.1039 ( 38) -0.1083 ( 62) -0.1012 ( 71)
           0.1323 ( 87)  0.1180 ( 88) -0.1024 ( 97) -0.1029 (101)  0.1260 (113)
          -0.1197 (119)  0.1050 (181) -0.1070 (183)  0.1711 (202) -0.1043 (209)
           0.1020 (227)  0.1030 (245)  0.1027 (248) -0.1161 (267) -0.1102 (271)
 CRD131=  -0.1590 (  1)  0.3242 (  4) -0.5462 ( 10)  0.1904 ( 11)  0.1702 ( 12)
           0.1032 ( 63) -0.2063 ( 66) -0.2229 ( 68)  0.1158 ( 69)  0.1172 ( 73)
           0.1300 ( 74)  0.1157 ( 75)  0.1809 ( 76)  0.1843 ( 77) -0.2389 (170)
          -0.1652 (174)  0.1707 (175) -0.1694 (194)  0.1550 (195)
 CRD132=   0.1002 ( 41)  0.1220 ( 43) -0.1214 ( 44)  0.1808 ( 52) -0.1894 ( 53)
          -0.2586 ( 55)  0.2575 ( 56)  0.1983 ( 58) -0.1927 ( 59)  0.1491 (167)
          -0.1480 (168) -0.1026 (279) -0.1017 (281) -0.1073 (282) -0.1055 (305)
          -0.1019 (306) -0.1156 (308) -0.1120 (309)  0.1446 (312)  0.1987 (314)
           0.1975 (315)  0.2058 (317)  0.2046 (318) -0.1912 (320) -0.1950 (321)
          -0.1884 (323) -0.1922 (324)
 CRD133=   0.1237 ( 27) -0.1250 ( 28) -0.1776 ( 30)  0.1373 ( 31) -0.1692 ( 34)
           0.1143 ( 37)  0.1527 ( 39) -0.1538 ( 45)  0.1814 ( 51) -0.1537 ( 54)
          -0.1120 ( 57)  0.1347 ( 59)  0.1148 (122) -0.1059 (129) -0.1077 (130)
          -0.1043 (152) -0.1199 (155) -0.1462 (166)  0.1172 (242)  0.1450 (244)
           0.1027 (245)  0.1304 (247) -0.1545 (250) -0.1244 (252)  0.1200 (263)
          -0.1137 (271)  0.1489 (276) -0.1341 (321)  0.1814 (323)
 CRD134=   0.1350 (  2) -0.1681 (  3) -0.1112 ( 14)  0.1310 ( 15)  0.1015 ( 16)
          -0.1271 ( 20)  0.1003 ( 23)  0.1414 ( 26) -0.1373 ( 29) -0.1511 ( 36)
           0.1277 ( 38) -0.1347 ( 40)  0.1332 ( 41)  0.1338 ( 62)  0.1083 ( 93)
           0.1049 ( 94) -0.1015 (106)  0.1069 (115) -0.1028 (120) -0.1143 (202)
          -0.1023 (203)  0.1259 (207)  0.1010 (212) -0.1013 (218) -0.1010 (267)
           0.1383 (269)  0.1393 (270)
 CRD135=  -0.1710 ( 24)  0.1970 ( 25)  0.1992 ( 27) -0.1938 ( 28) -0.1046 ( 30)
          -0.1477 ( 32)  0.1340 ( 34) -0.1351 ( 39)  0.1291 ( 45) -0.1456 ( 51)
           0.1022 (166)  0.1374 (229)  0.1361 (230) -0.1615 (235) -0.1511 (236)
          -0.1919 (238) -0.1815 (239)  0.1341 (242)  0.1458 (244)  0.1142 (245)
           0.1258 (247)  0.1314 (321) -0.1048 (323)
 CRD136=   0.1362 ( 14) -0.1362 ( 16)  0.2093 ( 17) -0.2170 ( 18) -0.2223 ( 21)
           0.2019 ( 22)  0.1489 ( 24) -0.1265 ( 25)  0.1001 (200) -0.1621 (207)
          -0.1516 (209) -0.1687 (211) -0.1792 (212)  0.2024 (217)  0.2003 (218)
           0.1964 (220)  0.1943 (221) -0.1671 (226) -0.1926 (227) -0.1391 (229)
          -0.1646 (230)  0.1093 (236)  0.1059 (239)
 CRD137=   0.1191 ( 40) -0.1297 ( 41) -0.1861 ( 43)  0.1888 ( 44)  0.2073 ( 46)
          -0.2101 ( 47) -0.1813 ( 49)  0.1766 ( 50)  0.1218 ( 52) -0.1193 ( 53)
           0.1482 (278)  0.1475 (279)  0.1528 (281)  0.1521 (282) -0.1841 (287)
          -0.1876 (288) -0.1886 (290) -0.1921 (291)  0.1788 (296)  0.1839 (297)
           0.1855 (299)  0.1907 (300) -0.1463 (305) -0.1467 (306) -0.1447 (308)
          -0.1451 (309)
 CRD138=  -0.1404 (  3)  0.1007 (  6) -0.1061 (  8) -0.1037 ( 13)  0.1166 ( 15)
          -0.1256 ( 19)  0.1492 ( 23) -0.1569 ( 29)  0.1344 ( 32)  0.1529 ( 40)
          -0.1353 ( 41)  0.1350 ( 49) -0.1460 ( 50)  0.1023 ( 58) -0.1223 ( 59)
          -0.1028 ( 82) -0.1289 (194)  0.1022 (220)  0.1033 (221)  0.1051 (279)
           0.1074 (282) -0.1035 (299) -0.1022 (300)  0.1250 (312)
 CRD139=   0.1982 (  4) -0.1644 (  8) -0.2195 (  9)  0.2751 ( 10)  0.1443 ( 12)
          -0.3470 ( 13) -0.1507 ( 63)  0.2972 ( 78)  0.1413 (169) -0.1857 (170)
           0.1934 (171)  0.1590 (174) -0.1918 (175) -0.1649 (184)  0.1578 (186)
          -0.1376 (193) -0.2633 (194)  0.3064 (195)  0.1094 (196)
 CRD140=  -0.1321 ( 16)  0.1129 ( 30) -0.1968 ( 37)  0.1606 ( 42) -0.1700 ( 48)
           0.1583 ( 51) -0.1092 ( 56) -0.1899 ( 57)  0.1045 ( 59)  0.1049 (129)
           0.1568 (163) -0.1207 (166)  0.1036 (168)  0.1215 (200) -0.1105 (209)
           0.1528 (315) -0.1437 (317) -0.1603 (321)  0.1890 (323)
 CRD141=  -0.1015 ( 24) -0.1262 ( 86)  0.1472 ( 92) -0.1519 ( 98)  0.1536 (103)
          -0.1443 (109) -0.1264 (133)  0.1300 (139) -0.1238 (145)  0.1167 (151)
           0.1089 (202)  0.1255 (209) -0.1435 (212) -0.1297 (218)  0.1361 (220)
           0.1355 (227) -0.1282 (229) -0.1443 (236)  0.1369 (238)  0.1228 (244)
          -0.1281 (245) -0.1127 (266)  0.1132 (269)  0.1198 (279) -0.1259 (281)
          -0.1089 (288)  0.1088 (290)  0.1091 (297) -0.1106 (306)
 CRD142=  -0.1270 ( 14)  0.1006 ( 18) -0.1096 ( 21)  0.1088 ( 24)  0.1019 ( 46)
           0.1175 ( 86) -0.1317 ( 92)  0.1364 ( 98) -0.1231 (103) -0.1237 (133)
           0.1455 (139) -0.1586 (145)  0.1534 (151) -0.1115 (157) -0.1279 (202)
           0.1441 (212)  0.1264 (218) -0.1241 (220) -0.1480 (227)  0.1013 (229)
           0.1055 (236) -0.1008 (266)  0.1076 (269)  0.1221 (279) -0.1153 (281)
          -0.1349 (288)  0.1229 (290)  0.1476 (297) -0.1449 (299) -0.1343 (306)
           0.1395 (308)
 CRD143=   0.1584 (  5) -0.1826 ( 16) -0.1014 ( 22)  0.1530 ( 28) -0.1384 ( 31)
           0.1519 ( 32)  0.1388 ( 48)  0.1128 ( 57) -0.1122 ( 85)  0.1291 ( 86)
           0.1063 (113)  0.1026 (115) -0.1004 (163) -0.1020 (177) -0.1406 (178)
          -0.1142 (185)  0.1923 (200)  0.1289 (203) -0.1297 (209)  0.1126 (230)
           0.1008 (233) -0.1472 (245) -0.1118 (247)  0.1136 (253) -0.1044 (315)
           0.1084 (317)  0.1039 (321)
 CRD144=  -0.1624 (  6)  0.1088 (  7)  0.1032 ( 12)  0.1450 ( 26) -0.1113 ( 30)
           0.1121 ( 44) -0.1269 ( 48)  0.1026 ( 49)  0.1127 ( 58) -0.1329 ( 79)
          -0.1118 (109)  0.1284 (114)  0.1536 (180)  0.1124 (182) -0.1109 (183)
          -0.1223 (202)  0.1306 (244) -0.1019 (245) -0.1012 (250) -0.1034 (251)
          -0.1178 (290) -0.1122 (297) -0.1091 (321)
 CRD145=  -0.1099 (  6) -0.1036 ( 20) -0.1817 ( 34)  0.1246 ( 38) -0.1280 ( 40)
          -0.2000 ( 42)  0.1264 ( 45) -0.1325 ( 50) -0.1597 ( 51)  0.1270 ( 53)
           0.1175 ( 54) -0.1218 (127)  0.1805 (133)  0.1648 (151) -0.1536 (157)
          -0.1008 (258)  0.1837 (266) -0.1337 (269) -0.1033 (277) -0.1453 (279)
           0.1576 (281)  0.1185 (297) -0.1265 (299) -0.1450 (306)  0.1945 (308)
          -0.1034 (317)
 CRD146=  -0.1838 (  3)  0.1864 (  6) -0.1048 ( 14) -0.2180 ( 19)  0.2082 ( 20)
          -0.2167 ( 26)  0.1024 ( 27)  0.1880 ( 29)  0.1129 ( 45)  0.1350 ( 86)
          -0.1031 ( 92)  0.1321 (103) -0.1372 (109) -0.1205 (202) -0.1480 (209)
           0.1495 (212) -0.1029 (229) -0.1711 (236)  0.1591 (238)  0.1058 (244)
          -0.1033 (279)
 CRD147=   0.1625 (  6) -0.1493 (  7)  0.1255 ( 11) -0.1233 ( 12) -0.1910 ( 15)
           0.1007 ( 20) -0.1226 ( 22) -0.1625 ( 23) -0.1062 ( 36)  0.1452 ( 37)
          -0.1237 ( 39)  0.1009 ( 45)  0.1503 ( 79)  0.1329 ( 98)  0.1065 (127)
          -0.1350 (180) -0.1346 (182)  0.1315 (183)  0.1416 (202) -0.1492 (220)
          -0.1082 (227)  0.1175 (229) -0.1052 (250) -0.1028 (290)
 CRD148=   0.1100 (  6)  0.1033 ( 20)  0.1081 ( 29) -0.1448 ( 32)  0.1083 ( 35)
          -0.2163 ( 37)  0.1641 ( 38)  0.1439 ( 39) -0.1133 ( 43) -0.1675 ( 45)
           0.1390 ( 46)  0.1116 ( 48) -0.1220 ( 52) -0.1230 ( 54) -0.1230 ( 59)
           0.1348 (118) -0.1527 (120) -0.1366 (126)  0.1326 (128) -0.1142 (134)
          -0.1094 (145)  0.1329 (146) -0.1259 (168) -0.1394 (256) -0.1197 (258)
          -0.1051 (259)  0.1215 (266) -0.1619 (267)  0.1233 (270)  0.1044 (273)
          -0.1600 (288) -0.1233 (291)  0.1174 (312) -0.1062 (315)  0.1036 (319)
 CRD149=  -0.1390 (  5) -0.1095 ( 15)  0.1010 ( 19) -0.1159 ( 21) -0.1328 ( 23)
           0.1447 ( 26)  0.1114 ( 27) -0.1420 ( 31)  0.1004 ( 32)  0.1033 ( 36)
          -0.1061 ( 58)  0.1298 ( 98) -0.1295 (108) -0.1099 (109) -0.1102 (112)
[...]
1812  44  17.871869 -19.526232 -17.169691   0.000398   0.253489   0.001570
1813  45  20.164121 -21.329690 -12.811368   0.000041   0.028394   0.001439
1814  46  20.136407 -21.367732 -12.510480   0.000002   0.028394   0.000069
1815  48  20.532139 -21.342061 -13.147417   0.000063   0.028394   0.002223
1816  45  21.756365 -18.936164  -9.610327   0.000174   0.089781   0.001935
1817  46  21.612749 -19.207079  -9.584353   0.000033   0.089781   0.000363
1818  52  22.653976 -19.324321  -9.836000   0.000224   0.089781   0.002495
1819  46  18.794866 -21.351927 -12.082759  -0.000068   0.072003  -0.000939
1820  46  19.673666 -21.461400 -12.223516  -0.000059   0.072003  -0.000814
1821  45  19.186308 -21.286707 -12.545852  -0.000163   0.156877  -0.001037
1822  46  20.929339 -19.055074  -9.177555   0.000045   0.082480   0.000548
1823  46  19.667795 -18.849523  -8.914169  -0.000237   0.190889  -0.001242
1824  45  20.544299 -18.539016  -9.067608   0.000248   0.174135   0.001424
1825  45  19.122780 -18.399610  -8.887657   0.000204   0.100768   0.002023
1826  45  21.008908 -14.093345 -13.069860   0.000023   0.028562   0.000805
1827  47  20.994713 -14.029262 -12.772459  -0.000010   0.028562  -0.000362
1828  48  21.367173 -14.189497 -13.402916   0.000041   0.028562   0.001425
1829  45  21.971680 -16.695401  -9.636296   0.000204   0.068176   0.002999
1830  47  21.890982 -16.400057  -9.641655  -0.000020   0.068176  -0.000292
1831  51  22.779607 -16.810387  -9.846532   0.000258   0.068176   0.003789
1832  47  19.521464 -16.022443  -8.984492   0.000042   0.080891   0.000520
1833  47  20.780062 -16.214769  -9.135195  -0.000225   0.186166  -0.001207
1834  45  19.918380 -16.532703  -8.989375   0.000188   0.171610   0.001098
1835  45  21.298816 -16.664205  -9.268109   0.000222   0.098826   0.002247
1836  47  20.574234 -13.812567 -12.495898  -0.000066   0.070646  -0.000927
1837  47  19.711561 -13.705153 -12.357744  -0.000063   0.070646  -0.000886
1838  45  20.064850 -13.890545 -12.811785  -0.000134   0.154529  -0.000865
1839  45  20.858516 -14.150969 -13.888745   0.000042   0.028360   0.001473
1840  48  21.226255 -14.163308 -14.225100   0.000015   0.028360   0.000546
1841  49  21.253767 -14.127219 -14.526282  -0.000015   0.028360  -0.000542
1842  45  20.067546 -21.306092 -13.586074   0.000064   0.028255   0.002252
1843  48  20.425979 -21.402450 -13.918875   0.000040   0.028255   0.001401
1844  50  20.443192 -21.468940 -14.215656   0.000001   0.028255   0.000029
1845  48  21.347642 -14.136057 -13.926696   0.000143   0.085698   0.001673
1846  45  20.893147 -14.062671 -13.370627   0.000174   0.085698   0.002030
1847  48  20.583436 -21.435275 -13.570830   0.000178   0.074880   0.002380
1848  45  19.999621 -21.352761 -13.157286   0.000184   0.074880   0.002454
1849  49  20.960653 -14.069093 -14.911206  -0.000132   0.135875  -0.000969
1850  45  20.444084 -14.031748 -13.913497   0.000418   0.191574   0.002184
1851  50  20.233221 -21.511097 -14.534561  -0.000106   0.150071  -0.000705
1852  45  19.503056 -21.297192 -13.704127   0.000452   0.211556   0.002136
1853  45  22.247479 -18.819279  -9.731399   0.000260   0.067512   0.003844
1854  51  23.081306 -18.931979  -9.777528   0.000175   0.067512   0.002593
1855  52  23.163304 -19.225827  -9.797902  -0.000025   0.067512  -0.000375
1856  51  23.155543 -17.696390  -9.682065   0.001421   0.523276   0.002716
1857  45  21.934048 -17.928191  -9.484646   0.001555   0.523276   0.002972
1858  45  21.889572 -18.828667  -9.450946   0.000056   0.005981   0.009304
1859  46  21.206152 -21.262069 -12.057078  -0.000014   0.166113  -0.000087
1860  48  21.658475 -21.303042 -12.659633   0.000170   0.166113   0.001022
1861  52  22.267976 -21.383737 -12.222201   0.000024   0.166113   0.000147
1862  48  21.082287 -21.452136 -13.028645   0.000424   0.209486   0.002022
1863  46  20.333307 -21.431951 -12.189239  -0.000106   0.148593  -0.000711
1864  52  23.079209 -19.816104  -9.665378   0.000371   0.254009   0.001462
1865  52  22.888329 -20.830908 -10.145089  -0.000155   0.507900  -0.000304
1866  52  22.625902 -21.552539 -11.300904  -0.000129   0.507900  -0.000254
1867  46  21.495991 -20.043609  -9.586350   0.000228   0.507900   0.000448
1868  46  21.242394 -21.121060 -10.423199  -0.000248   0.507900  -0.000489
1869  46  21.035557 -21.492872 -11.479304   0.000174   0.254009   0.000684
1870  47  21.973347 -14.317694 -12.339859   0.000027   0.165861   0.000162
1871  48  22.411074 -14.423609 -12.944423   0.000160   0.165861   0.000964
1872  53  23.025726 -14.438821 -12.507347  -0.000033   0.165861  -0.000196
1873  48  21.798581 -14.164479 -13.384254   0.000384   0.191537   0.002003
1874  47  21.298518 -14.008836 -12.391013  -0.000127   0.135839  -0.000938
1875  47  22.364796 -16.295370  -9.839087   0.000223   0.089341   0.002500
1876  51  23.285187 -16.681694  -9.889713   0.000144   0.089341   0.001616
1877  53  23.424332 -16.409227  -9.919057   0.000022   0.089341   0.000246
1878  51  23.208670 -16.788585  -9.693489   0.000072   0.009878   0.007278
1879  47  21.861038 -16.213206  -9.526288   0.000014   0.006953   0.002060
1880  53  23.365086 -14.184187 -12.017856   0.000171   0.255794   0.000670
1881  53  23.502371 -14.509935 -10.919853  -0.000279   0.511508  -0.000546
1882  53  23.528624 -15.564859  -9.992475   0.000187   0.511508   0.000365
1883  47  21.923117 -14.106753 -11.351458  -0.000165   0.511508  -0.000323
1884  47  22.040198 -14.784112 -10.126280  -0.000157   0.511508  -0.000307
1885  47  22.013293 -15.792386  -9.566611   0.000370   0.255794   0.001445
1886  48  23.177599 -14.389721 -14.528584   0.000037   0.028494   0.001304
1887  49  23.070092 -14.337909 -14.808817  -0.000002   0.028494  -0.000069
1888  51  23.623043 -14.471806 -14.319917   0.000056   0.028494   0.001955
1889  48  23.063023 -17.128156 -17.983389   0.000185   0.067930   0.002719
1890  49  22.982990 -16.833180 -17.964464   0.000003   0.067930   0.000050
1891  54  23.896968 -17.237121 -18.030180   0.000254   0.067930   0.003734
1892  49  21.711789 -14.032072 -14.813452  -0.000076   0.071002  -0.001072
1893  49  22.580119 -14.132793 -14.948178  -0.000064   0.071002  -0.000899
1894  48  22.193718 -14.198513 -14.486187  -0.000162   0.155155  -0.001042
1895  49  22.260149 -16.679293 -18.124708   0.000037   0.083290   0.000448
1896  49  20.956289 -16.572071 -17.977372  -0.000249   0.193308  -0.001287
1897  48  21.746088 -17.086110 -18.087330   0.000234   0.175421   0.001336
1898  48  20.335428 -16.877564 -17.812367   0.000202   0.101757   0.001986
1899  48  22.390916 -21.630832 -14.222854   0.000022   0.028453   0.000779
1900  50  22.271857 -21.681581 -14.498627  -0.000010   0.028453  -0.000336
1901  51  22.845469 -21.629004 -14.017728   0.000042   0.028453   0.001484
1902  48  22.839385 -19.231495 -17.891970   0.000203   0.067676   0.002999
1903  50  22.697298 -19.499363 -17.848996  -0.000019   0.067676  -0.000284
1904  54  23.677257 -19.303330 -17.940000   0.000247   0.067676   0.003657
1905  50  20.149586 -19.308095 -17.711988   0.000039   0.083987   0.000468
1906  50  21.443646 -19.407779 -17.985168  -0.000252   0.195398  -0.001290
1907  48  20.645799 -18.899656 -17.860311   0.000167   0.176529   0.000948
1908  48  22.084431 -19.095617 -18.040269   0.000225   0.102609   0.002197
1909  50  21.745559 -21.787545 -14.624023  -0.000065   0.071642  -0.000904
1910  50  20.869636 -21.685733 -14.489018  -0.000066   0.071642  -0.000915
1911  48  21.382531 -21.600472 -14.173035  -0.000143   0.156274  -0.000918
1912  48  22.531578 -21.571247 -13.440966   0.000041   0.028323   0.001451
1913  51  22.977040 -21.653385 -13.232369   0.000012   0.028323   0.000428
1914  52  23.085504 -21.705812 -12.953102  -0.000018   0.028323  -0.000619
1915  48  23.298844 -14.412892 -13.721155   0.000055   0.028383   0.001933
1916  51  23.753314 -14.411067 -13.515847   0.000033   0.028383   0.001163
1917  53  23.872230 -14.361365 -13.240330  -0.000006   0.028383  -0.000224
1918  51  23.812563 -14.404604 -13.919969   0.000178   0.082184   0.002164
1919  48  23.124302 -14.338795 -14.126453   0.000187   0.082184   0.002274
1920  51  22.985669 -21.695528 -13.535610   0.000139   0.078110   0.001783
1921  48  22.375897 -21.645298 -13.916908   0.000160   0.078110   0.002046
1922  52  22.906162 -21.704536 -12.478565  -0.000143   0.143430  -0.000995
1923  48  22.119566 -21.590733 -13.274232   0.000433   0.202217   0.002141
1924  53  23.793585 -14.282767 -12.890552  -0.000107   0.139189  -0.000771
1925  48  22.828056 -14.295395 -13.465618   0.000405   0.196247   0.002064
1926  54  24.172419 -18.512085 -18.251292   0.001507   0.529712   0.002844
1927  48  23.031482 -18.005600 -18.081928   0.001508   0.529712   0.002847
1928  49  23.897197 -14.665320 -15.539765  -0.000042   0.168099  -0.000248
1929  51  24.506372 -14.743792 -15.101666   0.000127   0.168099   0.000753
1930  55  24.974885 -14.784326 -15.702452  -0.000038   0.168099  -0.000229
1931  51  24.114218 -14.482636 -14.591875   0.000384   0.203062   0.001890
1932  49  23.165770 -14.308655 -15.170295  -0.000110   0.144029  -0.000767
1933  49  23.543994 -16.636517 -17.911658   0.000231   0.088451   0.002610
1934  54  24.444774 -17.008764 -18.138453   0.000109   0.088451   0.001228
1935  55  24.602009 -16.746601 -18.160552  -0.000094   0.088451  -0.001067
1936  54  24.275278 -17.180411 -18.305587   0.000233   0.051384   0.004525
1937  49  22.943554 -16.588011 -18.066032   0.000078   0.036165   0.002143
1938  55  24.654421 -16.317557 -18.308089   0.000372   0.249492   0.001493
1939  55  24.835611 -15.343077 -17.812944  -0.000241   0.498802  -0.000482
1940  55  25.082486 -14.654614 -16.675546  -0.000234   0.498802  -0.000468
1941  49  23.184757 -15.764686 -17.912528   0.000155   0.498802   0.000311
1942  49  23.424324 -14.732595 -17.072290  -0.000228   0.498802  -0.000456
1943  49  23.618711 -14.378652 -16.040521   0.000176   0.249492   0.000705
1944  50  23.158820 -21.592404 -15.269162   0.000014   0.168175   0.000083
1945  51  23.776787 -21.610255 -14.836364   0.000132   0.168175   0.000788
1946  56  24.238997 -21.714085 -15.434596  -0.000081   0.168175  -0.000481
1947  51  23.250927 -21.747405 -14.190359   0.000428   0.211345   0.002025
1948  50  22.454333 -21.754681 -14.985283  -0.000154   0.149914  -0.001024
1949  50  23.201381 -19.782010 -17.779244   0.000216   0.088622   0.002443
1950  54  24.159724 -19.625161 -18.029335   0.000105   0.088622   0.001183
1951  56  24.259461 -19.915017 -18.030491  -0.000006   0.088622  -0.000063
1952  54  24.034897 -19.471136 -18.205150   0.000195   0.042380   0.004611
1953  50  22.597978 -19.702982 -17.936583   0.000036   0.029821   0.001218
1954  56  24.360650 -22.027486 -15.982684   0.000098   0.249359   0.000392
1955  56  24.234317 -21.720198 -17.036482  -0.000333   0.498527  -0.000667
1956  56  24.206739 -20.730605 -17.952432   0.000075   0.498527   0.000151
1957  50  22.768473 -21.762165 -16.156378  -0.000081   0.498527  -0.000162
1958  50  22.659403 -21.127022 -17.341164  -0.000126   0.498527  -0.000253
1959  50  22.680218 -20.179709 -17.909529   0.000348   0.249359   0.001394
1960  51  24.943770 -21.874817 -13.540086   0.000054   0.028220   0.001910
1961  52  24.915830 -21.911861 -13.239507   0.000014   0.028220   0.000505
1962  54  25.311223 -21.884211 -13.876546   0.000101   0.028220   0.003582
1963  51  26.996336 -20.269678 -11.550693   0.000035   0.028220   0.001236
1964  52  26.784606 -20.450449 -11.428247   0.000016   0.028220   0.000572
1965  54  27.337130 -20.299919 -11.912990   0.000063   0.028220   0.002221
1966  52  23.578498 -21.911071 -12.815880  -0.000064   0.071607  -0.000893
1967  52  24.455428 -22.009775 -12.952906  -0.000065   0.071607  -0.000908
1968  51  23.968771 -21.842981 -13.277401  -0.000178   0.156101  -0.001139
1969  52  26.534219 -20.399491 -10.957424  -0.000049   0.067195  -0.000724
1970  52  26.017497 -19.812542 -10.211402  -0.000148   0.148107  -0.001000
1971  52  24.902427 -19.394357  -9.668940  -0.000010   0.148107  -0.000067
1972  52  23.822167 -19.382388  -9.638058  -0.000042   0.067195  -0.000629
1973  51  26.598505 -19.836262 -10.791224  -0.000032   0.148357  -0.000217
1974  51  25.647521 -19.145221  -9.907880   0.000245   0.148357   0.001649
1975  51  24.217236 -18.943212  -9.632778   0.000182   0.148357   0.001228
1976  51  27.399884 -16.478388 -11.695372   0.000044   0.028290   0.001557
1977  53  27.232007 -16.248087 -11.589079   0.000012   0.028290   0.000426
1978  54  27.736536 -16.547774 -12.056160   0.000099   0.028290   0.003486
1979  51  25.709391 -14.631164 -13.822135   0.000036   0.028290   0.001266
1980  53  25.692863 -14.566244 -13.525433   0.000013   0.028290   0.000445
1981  54  26.067980 -14.724521 -14.155324   0.000065   0.028290   0.002296
1982  53  24.139214 -16.532637  -9.745404   0.000027   0.066906   0.000399
1983  53  25.193685 -16.746534  -9.772903  -0.000047   0.147340  -0.000321
1984  53  26.361119 -16.613412 -10.337193  -0.000165   0.147340  -0.001117
1985  53  26.980545 -16.208642 -11.118787  -0.000065   0.066906  -0.000976
1986  51  24.433127 -17.042187  -9.705032   0.000191   0.147843   0.001294
1987  51  25.865292 -17.163061  -9.987181   0.000217   0.147843   0.001470
1988  51  26.927453 -16.757760 -10.910686  -0.000030   0.147843  -0.000201
1989  53  25.267589 -14.352932 -13.250633  -0.000060   0.071115  -0.000847
1990  53  24.396613 -14.254916 -13.114408  -0.000072   0.071115  -0.001007
1991  51  24.756991 -14.438085 -13.566220  -0.000154   0.155258  -0.000995
1992  51  25.573013 -14.692601 -14.635070   0.000034   0.025858   0.001324
1993  54  25.940186 -14.700805 -14.971765   0.000002   0.025858   0.000080
1994  55  25.988954 -14.664105 -15.268929  -0.000030   0.025858  -0.001157
1995  51  24.814327 -21.848417 -14.359432   0.000049   0.025829   0.001913
1996  54  25.172343 -21.942943 -14.692802   0.000025   0.025829   0.000984
1997  56  25.210228 -22.011618 -14.985891  -0.000016   0.025829  -0.000618
1998  51  27.804143 -16.948428 -11.856820   0.000088   0.025616   0.003433
1999  54  28.195923 -16.981455 -12.162860   0.000028   0.025616   0.001089
2000  57  28.445571 -17.146128 -12.211349  -0.000006   0.025616  -0.000220
2001  51  27.491576 -19.902855 -11.742225   0.000052   0.025616   0.002048
2002  54  27.879115 -19.975958 -12.046710   0.000024   0.025616   0.000931
2003  57  28.157259 -19.871290 -12.105646  -0.000003   0.025616  -0.000102
2004  54  26.050022 -14.672403 -14.676865   0.000150   0.084922   0.001771
2005  51  25.595142 -14.602419 -14.121205   0.000179   0.084922   0.002103
2006  54  28.068495 -16.735875 -12.159379   0.000121   0.044641   0.002700
2007  51  27.556862 -16.710070 -11.658758   0.000141   0.044641   0.003149
2008  54  27.723829 -20.144703 -12.009751   0.000105   0.045778   0.002300
2009  51  27.178043 -20.117924 -11.546495   0.000112   0.045778   0.002455
2010  54  25.346230 -21.975809 -14.318521   0.000217   0.085624   0.002536
2011  51  24.753748 -21.897117 -13.914149   0.000201   0.085624   0.002353
2012  55  25.708893 -14.611154 -15.661977  -0.000197   0.138734  -0.001418
2013  51  25.159875 -14.579005 -14.668193   0.000395   0.195496   0.002019
2014  56  25.031516 -22.061270 -15.293858  -0.000168   0.138915  -0.001206
2015  51  24.286373 -21.850602 -14.462620   0.000380   0.195748   0.001944
2016  57  28.620890 -17.541055 -12.062867  -0.000216   0.199826  -0.001083
2017  57  28.488896 -18.962695 -11.936902  -0.001033   0.408811  -0.002527
2018  51  27.656557 -17.900244 -11.368344   0.000920   0.547496   0.001681
2019  51  27.468491 -19.519341 -11.370063   0.000704   0.281404   0.002502
2020  54  27.398780 -20.758249 -12.257295   0.000783   0.305934   0.002560
2021  54  26.335848 -21.691012 -13.328837   0.000937   0.592309   0.001582
2022  52  26.237010 -21.247963 -11.891894  -0.001157   0.447286  -0.002587
2023  52  25.210010 -21.939617 -12.841916  -0.000146   0.217173  -0.000674
2024  54  26.628784 -14.760679 -14.021480   0.000786   0.306576   0.002564
2025  54  27.602499 -15.705403 -12.872127   0.000958   0.593471   0.001613
2026  53  26.367180 -14.850887 -12.737794  -0.001162   0.448309  -0.002592
2027  53  27.105134 -15.788205 -11.726336  -0.000166   0.217626  -0.000763
2028  55  26.442137 -14.562892 -15.533774  -0.000072   0.067664  -0.001069
2029  55  27.502540 -14.746052 -15.707854  -0.000208   0.149475  -0.001392
2030  55  28.459814 -15.332818 -16.400671  -0.000166   0.149475  -0.001111
2031  55  28.686270 -16.142554 -17.417385  -0.000165   0.149475  -0.001105
2032  55  28.092308 -16.854876 -18.355719  -0.000241   0.149475  -0.001610
2033  55  26.912938 -17.187944 -18.844405  -0.000124   0.149475  -0.000828
2034  55  25.614794 -17.009973 -18.690089  -0.000232   0.149475  -0.001554
2035  54  26.879555 -14.720713 -15.166673  -0.000118   0.149057  -0.000795
2036  54  28.220968 -15.145872 -15.632795   0.000046   0.149057   0.000308
2037  54  28.921519 -15.972345 -16.644523   0.000161   0.149057   0.001078
2038  54  28.704023 -16.873123 -17.801551  -0.000014   0.149057  -0.000095
2039  54  27.654537 -17.491802 -18.646084   0.000015   0.149057   0.000102
2040  54  26.188304 -17.583590 -18.843970   0.000183   0.149057   0.001228
2041  54  25.067623 -17.283691 -18.524840   0.000052   0.082667   0.000630
2042  56  24.903792 -19.942639 -18.428259  -0.000033   0.067769  -0.000483
2043  56  25.948097 -19.901459 -18.743280  -0.000131   0.149746  -0.000877
2044  56  27.211441 -20.238177 -18.554278  -0.000198   0.149746  -0.001319
2045  56  28.019597 -20.912737 -17.756159  -0.000247   0.149746  -0.001646
2046  56  28.051940 -21.657519 -16.665565  -0.000130   0.149746  -0.000868
2047  56  27.295640 -22.177040 -15.715172  -0.000149   0.149746  -0.000993
2048  56  26.050746 -22.265190 -15.282033  -0.000321   0.149746  -0.002141
2049  54  25.251723 -19.487335 -18.580390   0.000026   0.149251   0.000172
2050  54  26.720024 -19.606902 -18.761568   0.000039   0.149251   0.000261
2051  54  27.946140 -20.205476 -18.177293   0.000022   0.149251   0.000148
2052  54  28.443629 -21.045581 -17.059368   0.000080   0.149251   0.000533
2053  54  28.015121 -21.793919 -15.851312   0.000159   0.149251   0.001065
2054  54  26.830618 -22.153599 -15.032403   0.000017   0.149251   0.000112
2055  54  25.645316 -22.099747 -14.823211   0.000007   0.082795   0.000084
2056  57  28.563977 -20.101006 -12.377448  -0.000078   0.069401  -0.001124
2057  57  28.955879 -20.666301 -13.258287  -0.000231   0.154191  -0.001497
2058  57  29.561243 -20.653558 -14.465945  -0.000187   0.154191  -0.001213
2059  57  30.093730 -19.820173 -15.386268  -0.000207   0.154191  -0.001341
2060  57  30.331214 -18.513792 -15.635344  -0.000289   0.154191  -0.001878
2061  57  30.174629 -17.279371 -15.109272  -0.000162   0.154191  -0.001052
2062  57  29.689293 -16.631846 -14.027501  -0.000209   0.154191  -0.001356
2063  57  29.077664 -16.841331 -12.841291  -0.000333   0.154191  -0.002157
2064  54  28.323808 -20.528004 -12.722597  -0.000113   0.152036  -0.000744
2065  54  28.935723 -21.003059 -14.027566   0.000115   0.152036   0.000757
2066  54  29.611004 -20.500907 -15.290460   0.000165   0.152036   0.001084
2067  54  30.067959 -19.231020 -15.984463  -0.000046   0.152036  -0.000304
2068  54  30.115969 -17.723130 -15.820074  -0.000005   0.152036  -0.000034
2069  54  29.735008 -16.606250 -14.865867   0.000162   0.152036   0.001064
2070  54  29.083993 -16.346287 -13.519888   0.000014   0.152036   0.000094
2071  54  28.537082 -16.775354 -12.500933   0.000016   0.084788   0.000189
 =====================================================

             36442761  WORDS OF DYNAMIC MEMORY USED
 EXECUTION OF GAMESS TERMINATED NORMALLY Thu Nov 24 19:34:35 2016
 DDI: 263640 bytes (0.3 MB / 0 MWords) used by master data server.

 ----------------------------------------
 CPU timing information for all processes
 ========================================
 0: 65698.332 + 17.936 = 65716.268
 ----------------------------------------
 ddikick.x: exited gracefully.
