----- GAMESS execution script -----

          ******************************************************
          *         GAMESS VERSION =  5 DEC 2014 (R1)          *
          *             FROM IOWA STATE UNIVERSITY             *
          * M.W.SCHMIDT, K.K.BALDRIDGE, J.A.BOATZ, S.T.ELBERT, *
          *   M.S.GORDON, J.H.JENSEN, S.KOSEKI, N.MATSUNAGA,   *
          *          K.A.NGUYEN, S.J.SU, T.L.WINDUS,           *
          *       TOGETHER WITH M.DUPUIS, J.A.MONTGOMERY       *
          *         J.COMPUT.CHEM.  14, 1347-1363(1993)        *
          **************** 64 BIT LINUX VERSION ****************

 EXECUTION OF GAMESS BEGUN Thu Nov 24 04:48:58 2016

            ECHO OF THE FIRST FEW INPUT CARDS -
 INPUT CARD>! SELECT RESTRICTED HARTREE-FOCK AS DEFAULT                                     
 INPUT CARD>$contrl scftyp=rhf $end                                                         
 INPUT CARD>                                                                                
 INPUT CARD>! THEORY: HF OR DFT                                                             
 INPUT CARD> $contrl mplevl=0 $end                                                          
 INPUT CARD>                                                                                
 INPUT CARD> $system timlim=10000 mwords=20 $end                                            
 INPUT CARD> $SCF DIRSCF=.TRUE. $end                                                        
 INPUT CARD>                                                                                
 INPUT CARD>                                                                                
 INPUT CARD>! BASIS SETS                                                                    
 INPUT CARD>! 6-311G(d,p)                                                                   
 INPUT CARD> $BASIS GBASIS=N311 NGAUSS=6 NDFUNC=1 NPFUNC=1 $END                             
 INPUT CARD>                                                                                
 INPUT CARD>! One of the following                                                          
 INPUT CARD> $guess guess=HUCKEL $end                                                       
 INPUT CARD>                                                                                
 INPUT CARD> $statpt projct=.FALSE. $end                                                    
 INPUT CARD> $STATPT IFREEZ(1)=1,2,3 $END                                                   
 INPUT CARD>                                                                                
 INPUT CARD>! Optimize the geometry with COSMO effects                                      
 INPUT CARD> $statpt opttol=0.0005 nstep=50 $end                                            
 INPUT CARD> $contrl nzvar=1 $end                                                           
 INPUT CARD> $zmat dlc=.t. auto=.t. $end                                                    
 INPUT CARD> $contrl runtyp=OPTIMIZE maxit=200 $end                                         
 INPUT CARD>                                                                                
 INPUT CARD>! Run COSMO on perfect conductor                                                
 INPUT CARD> $COSGMS PRFCND=.TRUE. $end                                                     
 INPUT CARD>                                                                                
 INPUT CARD>! Specifying RSOLV                                                              
 INPUT CARD> $COSGMS COSRAD = 1.4 $end                                                      
 INPUT CARD>                                                                                
 INPUT CARD>! available memory                                                              
 INPUT CARD> $SYSTEM MWORDS=40 $END                                                         
 INPUT CARD>                                                                                
 INPUT CARD> $DATA                                                                          
 INPUT CARD>Jmol Model Kit                                                                  
 INPUT CARD>C1                                                                              
 INPUT CARD>C      6.0     -0.0002600000   -0.0001000000   -0.0000400000                    
 INPUT CARD>C      6.0      1.3810700000    0.5509800000    0.1955100000                    
 INPUT CARD>H      1.0     -0.3238400000   -0.5021800000    0.9129400000                    
 INPUT CARD>O      8.0     -0.9453100000    1.1209700000   -0.3163900000                    
 INPUT CARD>H      1.0      0.0067000000   -0.7139800000   -0.8250500000                    
 INPUT CARD>O      8.0      2.3264500000   -0.5698100000    0.5118900000                    
 INPUT CARD>H      1.0      1.3743700000    1.2707900000    1.0272800000                    
 INPUT CARD>H      1.0      1.7075900000    1.0572700000   -0.7248400000                    
 INPUT CARD>H      1.0      3.2473300000   -0.2024200000    0.6422600000                    
 INPUT CARD>H      1.0     -1.8663000000    0.7538500000   -0.4468100000                    
 INPUT CARD> $END                                                                           
 INPUT CARD>                                                                                
   40000000 WORDS OF MEMORY AVAILABLE

     BASIS OPTIONS
     -------------
     GBASIS=N311         IGAUSS=       6      POLAR=POPN311 
     NDFUNC=       1     NFFUNC=       0     DIFFSP=       F
     NPFUNC=       1      DIFFS=       F     BASNAM=        


     RUN TITLE
     ---------
 Jmol Model Kit                                                                  

 THE POINT GROUP OF THE MOLECULE IS C1      
 THE ORDER OF THE PRINCIPAL AXIS IS     0

 ATOM      ATOMIC                      COORDINATES (BOHR)
           CHARGE         X                   Y                   Z
 C           6.0    -0.0004913288       -0.0001889726       -0.0000755890
 C           6.0     2.6098438699        1.0412012247        0.3694603279
 H           1.0    -0.6119688639       -0.9489825965        1.7252064432
 O           8.0    -1.7863768735        2.1183261405       -0.5978904053
 H           1.0     0.0126611641       -1.3492265607       -1.5591184262
 O           8.0     4.3963530241       -1.0767847651        0.9673318359
 H           1.0     2.5971827057        2.4014448879        1.9412777127
 H           1.0     3.2268771994        1.9979505950       -1.3697489849
 H           1.0     6.1365638917       -0.3825183344        1.2136954129
 H           1.0    -3.5267956109        1.4245699358       -0.8443484686

          INTERNUCLEAR DISTANCES (ANGS.)




     $CONTRL OPTIONS
     ---------------
 SCFTYP=RHF          RUNTYP=OPTIMIZE     EXETYP=RUN     
 MPLEVL=       0     CITYP =NONE         CCTYP =NONE         VBTYP =NONE    
 DFTTYP=NONE         TDDFT =NONE    
 MULT  =       1     ICHARG=       0     NZVAR =       1     COORD =UNIQUE  
 PP    =NONE         RELWFN=NONE         LOCAL =NONE         NUMGRD=       F
 ISPHER=      -1     NOSYM =       0     MAXIT =     200     UNITS =ANGS    
 PLTORB=       F     MOLPLT=       F     AIMPAC=       F     FRIEND=        
 NPRINT=       7     IREST =       0     GEOM  =INPUT   
 NORMF =       0     NORMP =       0     ITOL  =      20     ICUT  =       9
 INTTYP=BEST         GRDTYP=BEST         QMTTOL= 1.0E-06

     $SYSTEM OPTIONS
     ---------------
  REPLICATED MEMORY=    40000000 WORDS (ON EVERY NODE).
 DISTRIBUTED MEMDDI=           0 MILLION WORDS IN AGGREGATE,
 MEMDDI DISTRIBUTED OVER   1 PROCESSORS IS           0 WORDS/PROCESSOR.
 TOTAL MEMORY REQUESTED ON EACH PROCESSOR=    40000000 WORDS.
 TIMLIM=       10000.00 MINUTES, OR       6.9 DAYS.
 PARALL= F  BALTYP=  DLB     KDIAG=    0  COREFL= F
 MXSEQ2=     300 MXSEQ3=     150  mem10=         0

     $COSGMS OPTIONS
     ---------------
     EPSI  =   INFTY     NSPA  =      92     COSRAD=    1.40
     DISEX =   10.00     OUTCHG=DBLCAV       COSBUG=       F
     COSWRT=       F     DCOSMO=       F

     SYMMETRY COORDINATES WILL NOT BE USED FOR 
     THE COSMO CALCULATION, EVEN IF SPECIFIED:
         -- SWITCHING TO C1 POINT GROUP --


     DEFINITION OF CAVITY
     ---------------------------
     ATOM         COORDINATES           RADIUS 
     1   -0.0005   -0.0002   -0.0001    2.0000
     2    2.6098    1.0412    0.3695    2.0000
     3   -0.6120   -0.9490    1.7252    1.3000
     4   -1.7864    2.1183   -0.5979    1.7200
     5    0.0127   -1.3492   -1.5591    1.3000
     6    4.3964   -1.0768    0.9673    1.7200
     7    2.5972    2.4014    1.9413    1.3000
     8    3.2269    1.9980   -1.3697    1.3000
     9    6.1366   -0.3825    1.2137    1.3000
    10   -3.5268    1.4246   -0.8443    1.3000

          ----------------
          PROPERTIES INPUT
          ----------------

     MOMENTS            FIELD           POTENTIAL          DENSITY
 IEMOM =       1   IEFLD =       0   IEPOT =       0   IEDEN =       0
 WHERE =COMASS     WHERE =NUCLEI     WHERE =NUCLEI     WHERE =NUCLEI  
 OUTPUT=BOTH       OUTPUT=BOTH       OUTPUT=BOTH       OUTPUT=BOTH    
 IEMINT=       0   IEFINT=       0                     IEDINT=       0
                                                       MORB  =       0
          EXTRAPOLATION IN EFFECT
          SOSCF IN EFFECT
 ORBITAL PRINTING OPTION: NPREO=     1   112     2     1

     -------------------------------
     INTEGRAL TRANSFORMATION OPTIONS
     -------------------------------
     NWORD  =            0
     CUTOFF = 1.0E-09     MPTRAN =       0
     DIRTRF =       T     AOINTS =DUP     

          ----------------------
          INTEGRAL INPUT OPTIONS
          ----------------------
 NOPK  =       1 NORDER=       0 SCHWRZ=       T


 -----------------------------------------------
  STATISTICS ON AUTOMATIC COORDINATE GENERATION 
 -----------------------------------------------
  NUMBER OF USER SPECIFIED BONDS                             0
  NUMBER OF BONDS                                            9
  NUMBER OF ANGLES                                          14
  NUMBER OF TORSIONS                                        15
  NUMBER OF EXTRA COORD.                                     0
  NUMBER OF EXTRA COORD. FOR CONSTRAINTS                     0
  NUMBER OF CONSTRAINED COORD.                               0

  TOTAL NUMBER OF PRIMITIVES                                38
 -----------------------------------------------

   --- ENCODED Z MATRIX ---
 COORD  TYPE   I   J   K   L   M   N
    1      1    1   5
    2      1    1   4
    3      1    1   2
    4      1    1   3
    5      1    2   7
    6      1    2   8
    7      1    2   6
    8      1    4  10
    9      1    6   9
   10      2    1   2   7
   11      2    1   2   6
   12      2    1   4  10
   13      2    1   2   8
   14      2    2   6   9
   15      2    2   1   3
   16      2    2   1   5
   17      2    2   1   4
   18      2    3   1   5
   19      2    3   1   4
   20      2    4   1   5
   21      2    6   2   8
   22      2    6   2   7
   23      2    7   2   8
   24      3    1   2   6   9
   25      3    2   1   4  10
   26      3    3   1   2   7
   27      3    3   1   2   8
   28      3    3   1   2   6
   29      3    3   1   4  10
   30      3    4   1   2   8
   31      3    4   1   2   6
   32      3    4   1   2   7
   33      3    5   1   2   8
   34      3    5   1   4  10
   35      3    5   1   2   6
   36      3    5   1   2   7
   37      3    7   2   6   9
   38      3    8   2   6   9

          INDEP./SYM. INTERNAL COORDINATES
          --------------------------------
 CRD  1=  -0.1718 ( 10)  0.5583 ( 11)  0.2088 ( 12) -0.1718 ( 13) -0.2085 ( 14)
           0.1714 ( 15)  0.1714 ( 16) -0.5589 ( 17)  0.1577 ( 19)  0.1577 ( 20)
          -0.1573 ( 21) -0.1573 ( 22)
 CRD  2=   0.1550 (  2)  0.4991 (  3)  0.1537 (  7)  0.1623 (  8)  0.1622 (  9)
           0.4454 ( 11)  0.4447 ( 17) -0.2195 ( 19) -0.2195 ( 20) -0.2210 ( 21)
          -0.2210 ( 22)  0.1179 ( 29) -0.1179 ( 34)  0.1186 ( 37) -0.1186 ( 38)
 CRD  3=   0.1170 (  1) -0.1170 (  4) -0.1179 (  5)  0.1179 (  6) -0.3221 ( 10)
           0.3221 ( 13) -0.3175 ( 15)  0.3175 ( 16)  0.3928 ( 24)  0.3917 ( 25)
          -0.1558 ( 28) -0.1577 ( 30) -0.3518 ( 31) -0.1577 ( 32) -0.1558 ( 35)
 CRD  4=   0.3514 (  2)  0.1667 (  3)  0.3572 (  7)  0.1212 (  8)  0.1235 (  9)
          -0.1208 ( 11)  0.5306 ( 12)  0.5384 ( 14) -0.1221 ( 17)  0.1066 ( 19)
           0.1066 ( 20)  0.1087 ( 21)  0.1087 ( 22)
 CRD  5=  -0.3554 (  2)  0.3523 (  7) -0.1648 (  8)  0.1643 (  9) -0.1584 ( 10)
           0.1140 ( 11) -0.4891 ( 12) -0.1584 ( 13)  0.4799 ( 14)  0.1540 ( 15)
           0.1540 ( 16) -0.1054 ( 17)  0.1280 ( 27) -0.1280 ( 36)
 CRD  6=   0.1316 (  1) -0.1340 (  2)  0.5423 (  3)  0.1316 (  4)  0.1312 (  5)
           0.1312 (  6) -0.1272 (  7)  0.2541 ( 10) -0.2720 ( 11)  0.2541 ( 13)
           0.2554 ( 15)  0.2554 ( 16) -0.2752 ( 17) -0.2223 ( 18) -0.2236 ( 23)
           0.1402 ( 29) -0.1402 ( 34)  0.1408 ( 37) -0.1408 ( 38)
 CRD  7=   0.2658 ( 10) -0.2658 ( 13)  0.2351 ( 15) -0.2351 ( 16) -0.2646 ( 19)
           0.2646 ( 20)  0.2893 ( 21) -0.2893 ( 22) -0.1974 ( 28)  0.1636 ( 29)
          -0.1860 ( 30) -0.3776 ( 31) -0.1860 ( 32)  0.1636 ( 34) -0.1974 ( 35)
           0.1762 ( 37)  0.1762 ( 38)
 CRD  8=  -0.3314 ( 10)  0.3314 ( 13)  0.3578 ( 15) -0.3578 ( 16) -0.2929 ( 19)
           0.2929 ( 20) -0.2691 ( 21)  0.2691 ( 22)  0.1101 ( 24) -0.1132 ( 25)
           0.1250 ( 28)  0.1457 ( 29) -0.1414 ( 30) -0.1414 ( 32)  0.1457 ( 34)
           0.1250 ( 35) -0.1310 ( 37) -0.1310 ( 38)
 CRD  9=  -0.3935 (  1)  0.3935 (  4) -0.3954 (  5)  0.3954 (  6)  0.1302 ( 19)
          -0.1302 ( 20)  0.1313 ( 21) -0.1313 ( 22)  0.2332 ( 24) -0.2325 ( 25)
          -0.2008 ( 28)  0.2028 ( 30)  0.2028 ( 32) -0.2008 ( 35)
 CRD 10=   0.2787 (  1)  0.2787 (  4) -0.5498 (  5) -0.5498 (  6)  0.1188 ( 10)
          -0.1017 ( 12)  0.1188 ( 13)  0.1725 ( 14)  0.1086 ( 18) -0.2222 ( 23)
           0.1454 ( 37) -0.1454 ( 38)
 CRD 11=  -0.5535 (  1) -0.5535 (  4) -0.2844 (  5) -0.2844 (  6)  0.1585 ( 12)
           0.1187 ( 15)  0.1187 ( 16) -0.2258 ( 18) -0.1220 ( 23) -0.1028 ( 26)
           0.1360 ( 29)  0.1028 ( 33) -0.1360 ( 34)
 CRD 12=  -0.3108 (  1)  0.3108 (  4)  0.3070 (  5) -0.3070 (  6) -0.3132 ( 26)
          -0.3132 ( 27) -0.2036 ( 28) -0.2022 ( 30) -0.2022 ( 32) -0.3132 ( 33)
          -0.2036 ( 35) -0.3132 ( 36)
 CRD 13=  -0.2817 (  2)  0.5454 (  7)  0.2632 ( 12) -0.4918 ( 14)  0.1137 ( 18)
          -0.1021 ( 19) -0.1021 ( 20)  0.1619 ( 21)  0.1619 ( 22) -0.1992 ( 23)
           0.2203 ( 27)  0.1368 ( 30) -0.1368 ( 32) -0.2202 ( 36)
 CRD 14=  -0.5768 (  2) -0.3343 (  7)  0.4999 ( 12)  0.2813 ( 14)  0.1942 ( 18)
          -0.1407 ( 19) -0.1407 ( 20)  0.1035 ( 23)  0.1824 ( 26)  0.1228 ( 28)
          -0.1824 ( 33) -0.1228 ( 35)
 CRD 15=   0.1342 (  2) -0.1368 (  7)  0.5823 (  8) -0.5874 (  9) -0.1568 ( 10)
          -0.1568 ( 13)  0.1565 ( 15)  0.1565 ( 16)  0.1159 ( 29) -0.1159 ( 34)
          -0.1160 ( 37)  0.1160 ( 38)
 CRD 16=  -0.1782 (  3)  0.6685 (  8)  0.6622 (  9) -0.1046 ( 11) -0.1175 ( 12)
          -0.1158 ( 14) -0.1058 ( 17)
 CRD 17=   0.2720 (  1) -0.2720 (  4) -0.2727 (  5)  0.2727 (  6) -0.2844 ( 24)
          -0.2858 ( 25) -0.2046 ( 26) -0.2046 ( 27) -0.1476 ( 28) -0.2603 ( 29)
          -0.1474 ( 30) -0.1474 ( 32) -0.2046 ( 33) -0.2603 ( 34) -0.1476 ( 35)
          -0.2046 ( 36) -0.2582 ( 37) -0.2582 ( 38)
 CRD 18=  -0.1743 (  1)  0.1743 (  4) -0.1744 (  5)  0.1744 (  6) -0.4165 ( 24)
           0.4151 ( 25)  0.3526 ( 29)  0.3526 ( 34) -0.3539 ( 37) -0.3539 ( 38)
 CRD 19=  -0.1095 (  1) -0.2459 (  2) -0.1095 (  4)  0.1117 (  5)  0.1117 (  6)
           0.2500 (  7)  0.3304 (  8) -0.3345 (  9)  0.1839 ( 10)  0.1627 ( 11)
          -0.1636 ( 12)  0.1839 ( 13)  0.1660 ( 14) -0.1827 ( 15) -0.1827 ( 16)
          -0.1608 ( 17)  0.1379 ( 18)  0.1939 ( 19)  0.1939 ( 20) -0.1960 ( 21)
          -0.1960 ( 22) -0.1385 ( 23) -0.2034 ( 29)  0.2035 ( 34)  0.2048 ( 37)
          -0.2048 ( 38)
 CRD 20=   0.1099 (  1)  0.1767 (  2) -0.6263 (  3)  0.1099 (  4)  0.1136 (  5)
           0.1136 (  6)  0.1657 (  7)  0.1839 ( 10)  0.1255 ( 12)  0.1839 ( 13)
           0.1263 ( 14)  0.1878 ( 15)  0.1878 ( 16) -0.1439 ( 18) -0.1637 ( 19)
          -0.1637 ( 20) -0.1576 ( 21) -0.1576 ( 22) -0.1482 ( 23)  0.1885 ( 29)
          -0.1885 ( 34)  0.1872 ( 37) -0.1872 ( 38)
 CRD 21=   0.1857 (  1) -0.3145 (  2)  0.1857 (  4) -0.1877 (  5) -0.1877 (  6)
           0.3274 (  7)  0.1011 ( 12) -0.1009 ( 14) -0.2943 ( 18)  0.1049 ( 19)
           0.1049 ( 20) -0.1101 ( 21) -0.1101 ( 22)  0.2940 ( 23) -0.3439 ( 27)
          -0.1697 ( 28)  0.1160 ( 29) -0.1742 ( 30)  0.1742 ( 32) -0.1160 ( 34)
           0.1697 ( 35)  0.3439 ( 36) -0.1126 ( 37)  0.1126 ( 38)
 CRD 22=  -0.2398 (  1)  0.2398 (  4)  0.2434 (  5) -0.2434 (  6) -0.1746 ( 19)
           0.1746 ( 20)  0.1759 ( 21) -0.1759 ( 22) -0.1374 ( 24) -0.1394 ( 25)
           0.1863 ( 26)  0.1863 ( 27) -0.2986 ( 29) -0.2967 ( 31)  0.1863 ( 33)
          -0.2986 ( 34)  0.1863 ( 36) -0.3003 ( 37) -0.3003 ( 38)
 CRD 23=  -0.2362 (  1)  0.2363 (  4) -0.2339 (  5)  0.2340 (  6)  0.1944 ( 10)
          -0.1945 ( 13) -0.1953 ( 15)  0.1953 ( 16) -0.1455 ( 19)  0.1456 ( 20)
          -0.1433 ( 21)  0.1433 ( 22) -0.1272 ( 24)  0.1262 ( 25)  0.2964 ( 28)
          -0.2020 ( 29) -0.2958 ( 30) -0.2959 ( 32) -0.2021 ( 34)  0.2965 ( 35)
           0.1987 ( 37)  0.1986 ( 38)
 CRD 24=   0.1476 (  1) -0.2702 (  2)  0.1474 (  4)  0.1444 (  5)  0.1442 (  6)
          -0.2645 (  7)  0.2153 ( 11)  0.2161 ( 17) -0.2318 ( 18)  0.1010 ( 19)
           0.1009 ( 20) -0.2240 ( 23) -0.3931 ( 26) -0.1990 ( 28)  0.1943 ( 30)
          -0.1941 ( 32)  0.3931 ( 33)  0.1988 ( 35)

 THE DETERMINANT OF THE G MATRIX IS 10**(    -9)


                     --------------------
                     INTERNAL COORDINATES
                     --------------------

                 - - ATOMS - -         COORDINATE      COORDINATE
 NO.   TYPE    I  J  K  L  M  N        (BOHR,RAD)       (ANG,DEG)
 ----------------------------------------------------------------
   1 STRETCH   1  5                     2.0617201       1.0910154
   2 STRETCH   1  4                     2.8345857       1.4999983
   3 STRETCH   1  2                     2.8345900       1.5000005
   4 STRETCH   1  3                     2.0617255       1.0910183
   5 STRETCH   2  7                     2.0787095       1.1000058
   6 STRETCH   2  8                     2.0786891       1.0999950
   7 STRETCH   2  6                     2.8345952       1.5000033
   8 STRETCH   4 10                     1.8897345       1.0000045
   9 STRETCH   6  9                     1.8897182       0.9999959
  10 BEND      1  2  7                  1.9106767     109.4737083
  11 BEND      1  2  6                  1.9106818     109.4740029
  12 BEND      1  4 10                  1.9106835     109.4740999
  13 BEND      1  2  8                  1.9106757     109.4736528
  14 BEND      2  6  9                  1.9106770     109.4737297
  15 BEND      2  1  3                  1.9103834     109.4569044
  16 BEND      2  1  5                  1.9103829     109.4568783
  17 BEND      2  1  4                  1.9103926     109.4574334
  18 BEND      3  1  5                  1.9108759     109.4851238
  19 BEND      3  1  4                  1.9108797     109.4853426
  20 BEND      4  1  5                  1.9108847     109.4856303
  21 BEND      6  2  8                  1.9105953     109.4690446
  22 BEND      6  2  7                  1.9105885     109.4686579
  23 BEND      7  2  8                  1.9105815     109.4682569
  24 TORSION   1  2  6  9              -3.1415875    -179.9997032
  25 TORSION   2  1  4 10               3.1415914     179.9999298
  26 TORSION   3  1  2  7              -1.0472016     -60.0002330
  27 TORSION   3  1  2  8              -3.1415860    -179.9996160
  28 TORSION   3  1  2  6               1.0471950      59.9998557
  29 TORSION   3  1  4 10              -1.0475012     -60.0174005
  30 TORSION   4  1  2  8              -1.0471893     -59.9995255
  31 TORSION   4  1  2  6               3.1415917     179.9999462
  32 TORSION   4  1  2  7               1.0471951      59.9998575
  33 TORSION   5  1  2  8               1.0472133      60.0009012
  34 TORSION   5  1  4 10               1.0474963      60.0171160
  35 TORSION   5  1  2  6              -1.0471910     -59.9996271
  36 TORSION   5  1  2  7              -3.1415877    -179.9997158
  37 TORSION   7  2  6  9              -1.0471368     -59.9965220
  38 TORSION   8  2  6  9               1.0471443      59.9969468

     ------------------------------------------
     THE POINT GROUP IS C1 , NAXIS= 1, ORDER= 1
     ------------------------------------------

     DIMENSIONS OF THE SYMMETRY SUBSPACES ARE
 A   =  112

 ..... DONE SETTING UP THE RUN .....
 STEP CPU TIME =     0.00 TOTAL CPU TIME =        0.0 (    0.0 MIN)
 TOTAL WALL CLOCK TIME=        0.0 SECONDS, CPU UTILIZATION IS   0.00%


          -----------------------------
          STATIONARY POINT LOCATION RUN
          -----------------------------

 OBTAINING INITIAL HESSIAN, HESS=GUESS   
 DIAGONAL GUESS HESSIAN IN INTERNAL COORDS IS
     1  0.3457     2  0.3143     3  0.3892     4  0.3457     5  0.3397
     6  0.3397     7  0.3143     8  0.3332     9  0.3332    10  0.2253
    11  0.2402    12  0.2087    13  0.2253    14  0.2087    15  0.2258
    16  0.2258    17  0.2402    18  0.2033    19  0.2154    20  0.2154
    21  0.2149    22  0.2149    23  0.2024    24  0.2500    25  0.2500
    26  0.2500    27  0.2500    28  0.2500    29  0.2500    30  0.2500
    31  0.2500    32  0.2500    33  0.2500    34  0.2500    35  0.2500
    36  0.2500    37  0.2500    38  0.2500
 TRANSFORMING HESSIAN TO SYMMETRY COORDINATES

          PARAMETERS CONTROLLING GEOMETRY SEARCH ARE
          METHOD =QA                  UPHESS =BFGS    
          NNEG   =         0          NFRZ   =         3
          NSTEP  =        50          IFOLOW =         1
          HESS   =GUESS               RESTAR =         F
          IHREP  =         0          HSSEND =         F
          NPRT   =         0          NPUN   =         0
          OPTTOL = 5.000E-04          RMIN   = 1.500E-03
          RMAX   = 1.000E-01          RLIM   = 7.000E-02
          DXMAX  = 3.000E-01          PURIFY =         F
          MOVIE  =         F          TRUPD  =         T
          TRMAX  = 5.000E-01          TRMIN  = 5.000E-02
          ITBMAT =         5          STPT   =         F
          STSTEP = 1.000E-02          PROJCT=          F
          FROZEN COORD(S)=   1   2   3


      ***** EQUILIBRIUM GEOMETRY LOCATED *****
            (SUBJECT TO   3 CONSTRAINT(S))
 COORDINATES OF ALL ATOMS ARE (ANGS)
   ATOM   CHARGE       X              Y              Z
 ------------------------------------------------------------
 C           6.0  -0.0270785022   0.0182332796  -0.0073594362
 C           6.0   1.4087177388   0.5337691189   0.2028811299
 H           1.0  -0.3789472918  -0.4798438230   0.8903483773
 O           8.0  -0.9077441726   1.0875589885  -0.3051882266
 H           1.0  -0.0518485543  -0.6894870911  -0.8297267912
 O           8.0   2.2882460736  -0.5366133913   0.5005645493
 H           1.0   1.4344465153   1.2411190835   1.0255376935
 H           1.0   1.7616182851   1.0315283356  -0.6945970300
 H           1.0   3.1567264705  -0.1771186188   0.6219378132
 H           1.0  -1.7758919121   0.7271706335  -0.4263727227


                     --------------------
                     INTERNAL COORDINATES
                     --------------------

                 - - ATOMS - -         COORDINATE      COORDINATE
 NO.   TYPE    I  J  K  L  M  N        (BOHR,RAD)       (ANG,DEG)
 ----------------------------------------------------------------
   1 STRETCH   1  5                     2.0508270       1.0852510
   2 STRETCH   1  4                     2.6776367       1.4169444
   3 STRETCH   1  2                     2.9101100       1.5399640
   4 STRETCH   1  3                     2.0508288       1.0852519
   5 STRETCH   2  7                     2.0508270       1.0852510
   6 STRETCH   2  8                     2.0508273       1.0852512
   7 STRETCH   2  6                     2.6777519       1.4170054
   8 STRETCH   4 10                     1.7910036       0.9477584
   9 STRETCH   6  9                     1.7909839       0.9477479
  10 BEND      1  2  7                  1.9217483     110.1080651
  11 BEND      1  2  6                  1.9331856     110.7633765
  12 BEND      1  4 10                  1.8851766     108.0126608
  13 BEND      1  2  8                  1.9217854     110.1101928
  14 BEND      2  6  9                  1.8851030     108.0084487
  15 BEND      2  1  3                  1.9209150     110.0603219
  16 BEND      2  1  5                  1.9209542     110.0625683
  17 BEND      2  1  4                  1.9342845     110.8263387
  18 BEND      3  1  5                  1.8966547     108.6703108
  19 BEND      3  1  4                  1.8951628     108.5848297
  20 BEND      4  1  5                  1.8951313     108.5830245
  21 BEND      6  2  8                  1.8947918     108.5635750
  22 BEND      6  2  7                  1.8948217     108.5652884
  23 BEND      7  2  8                  1.8967591     108.6762892
  24 TORSION   1  2  6  9              -3.1415814    -179.9993545
  25 TORSION   2  1  4 10              -3.1415881    -179.9997404
  26 TORSION   3  1  2  7              -1.0509915     -60.2173754
  27 TORSION   3  1  2  8               3.1410325     179.9679032
  28 TORSION   3  1  2  6               1.0450271      59.8756409
  29 TORSION   3  1  4 10              -1.0296896     -58.9968698
  30 TORSION   4  1  2  8              -1.0455447     -59.9052969
  31 TORSION   4  1  2  6              -3.1415501    -179.9975592
  32 TORSION   4  1  2  7               1.0456167      59.9094245
  33 TORSION   5  1  2  8               1.0510497      60.2207137
  34 TORSION   5  1  4 10               1.0296705      58.9957760
  35 TORSION   5  1  2  6              -1.0449557     -59.8715485
  36 TORSION   5  1  2  7              -3.1409742    -179.9645649
  37 TORSION   7  2  6  9              -1.0295542     -58.9891097
  38 TORSION   8  2  6  9               1.0295501      58.9888745

          INTERNUCLEAR DISTANCES (ANGS.)


 =====================================================
   GAMESS/COSab RESULTS
 =====================================================

   Dielectric Constant                  = INFTY
   Basic Grid Size                      =                 1082
   Number of Segments                   =                   92
   Number of Segments located on spheres=                  184
   Number of Segments of the cavity     =                  416
   Solvent Radius (rsolv)               = 1.40
   Outlying Charge Error Method         = double cavity

 =====================================================

  Total solvated Energy (a.u.)          =  -229.0120594788
  Total Energy corrected (a.u.)         =  -229.0121054063

  Outlying charge effect (a.u.)         =    -0.0000459275
  Outlying charge effect (kcal/mol)     =    -0.0288199800

  Dielectric Energy (a.u.)              =    -0.0181835126
  Dielectric energy corr. (a.u.)        =    -0.0182294402

  Sum of polarization charges           =     0.0140741748
  Sum of polarization charges(cor.)     =    -0.0140741748

  Total surface area of cavity (A**2)   =   98.63
  Total volume of cavity (A**3)         =   80.29

 =====================================================
 NPS=                   416
NR.  ATOM  (X, Y, Z)(a.u.)                  CHARGE(e)  AREA(A**2) SIGMA(e/A**2)
   1   1  -3.163207  -2.107966  -0.111410  -0.000792   0.232280  -0.003412
   2   1  -0.082148  -3.744875  -0.013264   0.000131   0.278737   0.000469
   3   1   0.494043   0.967436  -3.635593   0.000218   0.185824   0.001173
   4   1   0.041727   0.329514  -3.780688  -0.000020   0.092912  -0.000213
   5   1  -0.741553  -3.590952   0.800996   0.000217   0.185824   0.001166
   6   1  -3.017667  -2.158967   0.806477  -0.000146   0.278737  -0.000524
   7   1  -2.085938   1.048289   3.005370   0.000099   0.092912   0.001070
   8   1  -0.406039   1.018706   3.617827  -0.000247   0.185824  -0.001331
   9   1  -0.923582   1.722130   3.253327   0.000186   0.139368   0.001336
  10   1  -2.570607  -2.780257  -0.132651   0.000228   0.325193   0.000701
  11   1  -1.066906  -3.605834   0.015440   0.000680   0.325193   0.002090
  12   1   0.190801  -3.609192   0.960550   0.000016   0.232280   0.000068
  13   1  -2.755258  -2.289594  -1.267295  -0.000341   0.278737  -0.001222
  14   1   0.729800  -3.660712  -0.155788  -0.000056   0.139368  -0.000403
  15   1  -0.262081   0.634110  -3.739528  -0.000094   0.092912  -0.001008
  16   1   1.044369   0.052167  -3.631063  -0.000262   0.185824  -0.001412
  17   1   0.561939  -3.338119   1.577982  -0.000121   0.092912  -0.001307
  18   1  -1.972814  -3.190487   0.423466   0.000399   0.232280   0.001718
  19   1  -1.436919   1.293767   3.269080  -0.000123   0.139368  -0.000881
  20   1  -1.840874  -3.247877  -0.568469   0.000262   0.232280   0.001129
  21   2   5.693211   3.199987   0.926241  -0.000795   0.232280  -0.003421
  22   2   2.863627   4.682696  -0.479839   0.000130   0.278737   0.000467
  23   2   3.421728  -0.761916  -2.868114   0.000217   0.185824   0.001166
  24   2   3.924580  -0.156506  -2.983030  -0.000020   0.092912  -0.000216
  25   2   3.176073   4.750144   0.529793   0.000217   0.185824   0.001166
  26   2   5.228012   3.456471   1.690509  -0.000151   0.278737  -0.000541
  27   2   3.418305   0.810780   4.081119   0.000098   0.092912   0.001059
  28   2   1.633860   0.910430   4.018952  -0.000248   0.185824  -0.001332
  29   2   2.215438   0.164216   4.040113   0.000185   0.139368   0.001329
  30   2   5.179845   3.823208   0.536816   0.000225   0.325193   0.000692
  31   2   3.763857   4.596035  -0.065132   0.000680   0.325193   0.002092
  32   2   2.251019   4.765347   0.332014   0.000016   0.232280   0.000069
  33   2   5.739751   3.090820  -0.307209  -0.000343   0.278737  -0.001231
  34   2   2.155271   4.533368  -0.883059  -0.000055   0.139368  -0.000392
  35   2   4.178651  -0.430050  -2.765329  -0.000094   0.092912  -0.001007
  36   2   2.949522   0.105196  -3.275218  -0.000263   0.185824  -0.001415
  37   2   1.669692   4.629527   0.817872  -0.000122   0.092912  -0.001309
  38   2   4.440816   4.325592   0.727493   0.000398   0.232280   0.001713
  39   2   2.707342   0.605919   4.141044  -0.000123   0.139368  -0.000881
  40   2   4.679378   4.145472  -0.229211   0.000260   0.232280   0.001119
  41   3  -1.593996  -2.041808   3.676544  -0.003657   0.569203  -0.006425
  42   3  -2.390604  -0.290375   3.371075  -0.001629   0.372926  -0.004367
  43   3  -0.622023  -0.266391   4.052360  -0.001238   0.294415  -0.004207
  44   3  -0.190585  -2.286221   3.646206  -0.002387   0.412182  -0.005791
  45   3  -1.308084  -3.212724   2.288572  -0.001347   0.372926  -0.003612
  46   3  -2.849174  -1.947654   2.316345  -0.001522   0.372926  -0.004082
  47   3  -1.552199  -0.542298   3.963574  -0.002097   0.431809  -0.004857
  48   3  -0.344730  -1.293884   4.079877  -0.002171   0.431809  -0.005027
  49   3  -0.474950  -3.030579   2.893478  -0.002349   0.451437  -0.005204
  50   3  -2.177400  -2.737173   2.423739  -0.002066   0.471065  -0.004385
  51   3  -2.674076  -1.300786   3.112988  -0.002443   0.471065  -0.005187
  52   4  -1.514562   4.593314   1.443740   0.006224   0.309230   0.020126
  53   4  -1.125661   4.933886  -1.965940   0.005624   0.309230   0.018187
  54   4  -4.107776   4.252049  -0.454364   0.001486   0.274871   0.005407
  55   4  -3.113638   2.582080  -3.463223   0.002989   0.343589   0.008700
  56   4  -3.621867   1.910133   2.051779   0.001811   0.240512   0.007531
  57   4  -0.800748   4.881541   0.742299   0.004006   0.206154   0.019433
  58   4  -0.266623   4.870893  -1.309859   0.005002   0.274871   0.018199
  59   4  -1.437439   5.160909   0.340831   0.005680   0.309230   0.018367
  60   4  -1.291417   5.263357  -0.880914   0.006153   0.343589   0.017909
  61   4  -0.545336   4.349164  -2.559961   0.009059   0.446666   0.020280
  62   4  -0.523711   3.411357  -3.279550   0.004903   0.240512   0.020384
  63   4  -1.655818   3.874459   2.116120   0.004394   0.206154   0.021314
  64   4  -4.078515   4.050858  -1.575522   0.000594   0.274871   0.002162
  65   4  -3.683113   3.491471  -2.728415   0.001532   0.309230   0.004955
  66   4  -2.691467   1.717035  -3.658526   0.002183   0.240512   0.009075
  67   4  -2.555384   0.881567  -3.489043   0.001034   0.171795   0.006019
  68   4  -4.034108   2.954306   1.516087   0.002541   0.309230   0.008218
  69   4  -4.205678   3.752971   0.640120   0.001882   0.309230   0.006085
  70   4  -2.472791   4.867876   0.865434   0.006653   0.377948   0.017602
  71   4  -3.465021   4.640897   0.327484   0.004632   0.377948   0.012255
  72   4  -3.334863   4.830401  -1.066785   0.005195   0.481025   0.010799
  73   4  -2.246375   5.116338  -1.531736   0.005970   0.377948   0.015796
  74   4  -1.992005   4.548700  -2.643239   0.006887   0.412307   0.016703
  75   4  -2.560319   3.654385  -3.277327   0.006478   0.446666   0.014502
  76   4  -1.951344   2.568768  -3.777525   0.006031   0.377948   0.015956
  77   4  -0.913419   2.359511  -3.711813   0.006130   0.343589   0.017840
  78   4  -3.027728   2.297614   2.387011   0.003219   0.240512   0.013385
  79   4  -3.179988   3.111797   2.125730   0.004659   0.309230   0.015066
  80   4  -2.478977   3.995077   1.916964   0.006239   0.343589   0.018157
  81   4  -0.549419   5.074376  -0.277304   0.003858   0.206154   0.018713
  82   4  -2.345051   5.232245  -0.303776   0.006173   0.377948   0.016332
  83   4  -1.387527   3.614968  -3.409419   0.006345   0.343589   0.018467
  84   4  -2.015467   3.045217   2.504593   0.005448   0.309230   0.017618
  85   4  -3.191147   4.379207  -2.304642   0.004305   0.412307   0.010442
  86   4  -1.748001   1.492947  -3.777877   0.002690   0.206154   0.013047
  87   4  -3.389223   4.066299   1.351599   0.005542   0.377948   0.014664
  88   5  -0.281981  -2.664377  -3.604547  -0.003178   0.510320  -0.006228
  89   5   1.159885  -2.135435  -3.506978  -0.002066   0.392554  -0.005264
  90   5  -0.300481  -1.013151  -3.999028  -0.001240   0.333671  -0.003716
  91   5  -1.739578  -2.127215  -3.199155  -0.002026   0.412182  -0.004915
  92   5  -0.818581  -3.637815  -1.821240  -0.001450   0.412182  -0.003518
  93   5   0.444214  -3.678121  -1.883550  -0.001928   0.412182  -0.004677
  94   5   0.626822  -1.443906  -3.911005  -0.001806   0.412182  -0.004382
  95   5  -1.109011  -1.554874  -3.792688  -0.002202   0.431809  -0.005099
  96   5  -1.594598  -2.989477  -2.543044  -0.002038   0.490692  -0.004154
  97   5  -0.245442  -3.422214  -2.801646  -0.002060   0.353299  -0.005830
  98   5   1.013604  -3.057141  -2.880291  -0.002624   0.431809  -0.006076
  99   6   3.291694  -3.020257   3.285528   0.006216   0.309230   0.020101
 100   6   4.147821  -4.159212   0.144990   0.005625   0.309230   0.018190
 101   6   6.408526  -3.017336   2.431495   0.001487   0.274871   0.005408
 102   6   6.646733  -2.135626  -1.032057   0.002990   0.343589   0.008701
 103   6   5.154964  -0.180958   3.975833   0.001809   0.240512   0.007520
 104   6   2.867797  -3.493881   2.460534   0.004001   0.206154   0.019408
 105   6   3.113386  -3.982775   0.411772   0.004997   0.274871   0.018181
 106   6   3.593313  -3.831078   2.393275   0.005681   0.309230   0.018370
 107   6   3.894747  -4.220441   1.261016   0.006154   0.343589   0.017911
 108   6   3.848727  -3.753870  -0.736928   0.009056   0.446666   0.020274
 109   6   4.131231  -3.010478  -1.611752   0.004892   0.240512   0.020341
 110   6   3.212381  -2.159592   3.777227   0.004392   0.206154   0.021306
 111   6   6.795985  -3.083263   1.361982   0.000595   0.274871   0.002164
 112   6   6.870143  -2.824262   0.048271   0.001533   0.309230   0.004957
 113   6   6.363294  -1.358540  -1.561653   0.002183   0.240512   0.009075
 114   6   6.212938  -0.513211  -1.651452   0.001030   0.171795   0.005996
 115   6   5.685550  -1.302174   3.883310   0.002542   0.309230   0.008220
 116   6   6.126214  -2.274155   3.339537   0.001882   0.309230   0.006087
 117   6   4.380812  -3.379962   3.173898   0.006654   0.377948   0.017605
 118   6   5.509607  -3.241466   2.994819   0.004632   0.377948   0.012256
 119   6   5.884306  -3.754777   1.732697   0.005195   0.481025   0.010799
 120   6   5.026067  -4.187445   0.985054   0.005970   0.377948   0.015796
 121   6   5.216946  -3.904742  -0.242138   0.006887   0.412307   0.016705
 122   6   6.015884  -3.158345  -0.816103   0.006478   0.446666   0.014503
 123   6   5.678759  -2.245722  -1.739727   0.006031   0.377948   0.015956
 124   6   4.697942  -2.071864  -2.104647   0.006132   0.343589   0.017848
 125   6   4.462961  -0.505306   4.153186   0.003218   0.240512   0.013379
 126   6   4.662553  -1.350556   4.161025   0.004659   0.309230   0.015066
 127   6   4.045492  -2.287539   3.923369   0.006240   0.343589   0.018161
 128   6   2.993962  -3.928707   1.493606   0.003854   0.206154   0.018695
 129   6   4.668450  -4.010867   2.156372   0.006173   0.377948   0.016332
 130   6   4.973391  -3.201242  -1.369103   0.006346   0.343589   0.018470
 131   6   3.444122  -1.248130   4.066075   0.005450   0.309230   0.017624
 132   6   6.218685  -3.609780   0.458457   0.004306   0.412307   0.010443
 133   6   5.538059  -1.209143  -2.062907   0.002688   0.206154   0.013038
 134   6   5.094417  -2.448715   3.758941   0.005543   0.377948   0.014666
 135   7   2.858839   3.948520   3.793529  -0.003659   0.569203  -0.006428
 136   7   3.630971   2.209448   4.211691  -0.001635   0.372926  -0.004383
 137   7   1.736600   2.269261   4.191959  -0.001239   0.294415  -0.004209
 138   7   1.574187   4.119431   3.201350  -0.002391   0.412182  -0.005801
 139   7   3.148228   4.751990   2.165665  -0.001349   0.372926  -0.003617
 140   7   4.515311   3.594501   3.041698  -0.001527   0.372926  -0.004095
 141   7   2.647488   2.556234   4.384742  -0.002099   0.431809  -0.004860
 142   7   1.515454   3.262350   3.878495  -0.002171   0.431809  -0.005028
 143   7   2.145306   4.680074   2.452327  -0.002346   0.451437  -0.005197
 144   7   3.887056   4.358143   2.712608  -0.002066   0.471065  -0.004386
 145   7   4.034514   3.143427   3.847367  -0.002445   0.471065  -0.005191
 146   8   4.299214   2.807069  -3.400160  -0.003180   0.510320  -0.006230
 147   8   2.897084   2.254536  -3.711632  -0.002068   0.392554  -0.005268
 148   8   4.383544   1.111691  -3.367185  -0.001243   0.333671  -0.003724
 149   8   5.485287   2.441118  -2.381934  -0.002031   0.412182  -0.004927
 150   8   4.198445   4.189940  -1.821167  -0.001450   0.412182  -0.003519
 151   8   3.014949   4.151958  -2.354129  -0.002004   0.431809  -0.004641
 152   8   3.507940   1.511349  -3.723244  -0.001807   0.412182  -0.004384
 153   8   5.086594   1.720343  -3.013594  -0.002207   0.431809  -0.005111
 154   8   5.152445   3.425233  -2.041738  -0.002040   0.490692  -0.004158
 155   8   4.009479   3.728405  -2.863974  -0.002060   0.353299  -0.005829
 156   8   2.848821   3.301943  -3.306310  -0.002614   0.431809  -0.006053
 157   9   8.191795   0.602995   1.621121  -0.008654   0.451437  -0.019170
 158   9   7.968442  -1.239296   0.077836  -0.006714   0.471065  -0.014252
 159   9   7.724372  -1.432433   2.492829  -0.006742   0.451437  -0.014935
 160   9   6.714899   0.492902   3.363522  -0.006252   0.431809  -0.014479
 161   9   7.405374   1.600349   1.641149  -0.006749   0.372926  -0.018097
 162   9   7.541148   0.744470  -0.369814  -0.006227   0.353299  -0.017625
 163   9   8.375450  -0.748861   1.409752  -0.008543   0.471065  -0.018135
 164   9   7.924657  -0.033800   2.626383  -0.008812   0.490692  -0.017958
 165   9   7.174466   1.231606   2.631256  -0.007711   0.431809  -0.017856
 166   9   7.630465   1.371566   0.582710  -0.007340   0.392554  -0.018699
 167   9   8.242990   0.085575   0.356260  -0.008869   0.490692  -0.018074
 168   9   7.908649  -1.835991   1.244507  -0.005595   0.412182  -0.013574
 169   9   7.132865  -0.702726   3.305211  -0.004906   0.392554  -0.012498
 170   9   7.478878  -0.293788  -0.759301  -0.004698   0.392554  -0.011968
 171  10  -5.630953   0.465832  -0.991118  -0.008655   0.451437  -0.019171
 172  10  -4.784837   1.908600  -2.731280  -0.006715   0.471065  -0.014256
 173  10  -5.423572   2.666788  -0.507267  -0.006743   0.451437  -0.014937
 174  10  -4.881796   1.043097   1.090908  -0.006245   0.431809  -0.014464
 175  10  -4.948902  -0.463237  -0.457065  -0.006745   0.372926  -0.018088
 176  10  -4.310390  -0.103558  -2.520525  -0.006224   0.353299  -0.017617
 177  10  -5.667176   1.722241  -1.562121  -0.008543   0.471065  -0.018136
 178  10  -5.718704   1.329580  -0.134578  -0.008813   0.490692  -0.017960
 179  10  -5.076456   0.134888   0.434887  -0.007711   0.431809  -0.017858
 180  10  -4.765440  -0.496286  -1.547272  -0.007339   0.392554  -0.018696
 181  10  -5.198391   0.673284  -2.271771  -0.008870   0.490692  -0.018077
 182  10  -5.125826   2.761424  -1.794713  -0.005595   0.412182  -0.013575
 183  10  -5.198348   2.172585   0.609583  -0.004907   0.392554  -0.012500
 184  10  -4.066647   0.817938  -3.090605  -0.004686   0.392554  -0.011936
 185   1   0.276089   0.517499   3.727967  -0.000107   0.027122  -0.003948
 186   2   0.750270   0.680670   3.753859  -0.000097   0.027122  -0.003572
 187   3   0.117109   0.266544   3.784391  -0.000165   0.027122  -0.006090
 188   1   1.629177  -0.349766  -3.385999  -0.000098   0.027117  -0.003601
 189   2   2.087285  -0.176293  -3.275606  -0.000104   0.027117  -0.003822
 190   5   1.490466  -0.613702  -3.436275  -0.000115   0.027117  -0.004235
 191   1   0.523487   1.220453   3.644814  -0.000097   0.027059  -0.003572
 192   2   0.981579   1.393946   3.755233  -0.000107   0.027059  -0.003947
 193   7   1.120732   1.657630   3.805628  -0.000165   0.027059  -0.006089
 194   1   1.860268   0.364124  -3.384508  -0.000103   0.027056  -0.003822
 195   2   2.334441   0.527315  -3.358654  -0.000097   0.027056  -0.003597
 196   8   2.493899   0.777989  -3.414924  -0.000114   0.027056  -0.004231
 197   2   2.335237   0.167243  -3.342973  -0.000079   0.069683  -0.001130
 198   1   1.638393   0.003895  -3.455578  -0.000079   0.069683  -0.001131
 199   2   0.946281   1.118296   3.810437  -0.000081   0.069569  -0.001166
 200   1   0.300921   0.799863   3.726523  -0.000081   0.069569  -0.001167
 201   1  -2.731241   0.640763   2.584221  -0.000009   0.005872  -0.001604
 202   3  -2.652174   0.387637   2.728562  -0.000036   0.005872  -0.006080
 203   4  -2.946492   1.004396   2.373587   0.000044   0.005872   0.007525
 204   1  -3.101768   0.231991   2.212188  -0.000037   0.005872  -0.006377
 205   3  -2.988434   0.016668   2.390934  -0.000053   0.005872  -0.009092
 206   4  -3.301160   0.613120   2.017477  -0.000018   0.005872  -0.003004
 207   1   0.912735  -3.090503   1.943915  -0.000033   0.057905  -0.000565
 208   3   0.711279  -3.018154   2.158778  -0.000208   0.057905  -0.003601
 209   6   1.739038  -3.121597   2.037247   0.000647   0.057905   0.011176
 210   1  -3.195984   0.183119   2.095695  -0.000136   0.019669  -0.006894
 211   3  -3.077078  -0.033651   2.268773  -0.000124   0.019669  -0.006322
 212  10  -3.637491   0.470641   1.695293  -0.000237   0.019669  -0.012069
 213   1  -3.444367  -0.814176   1.445008  -0.000312   0.019669  -0.015857
 214   3  -3.300608  -0.931156   1.683195  -0.000249   0.019669  -0.012667
 215  10  -3.857856  -0.414158   1.118004  -0.000419   0.019669  -0.021285
 216   3  -3.106204  -1.443680   1.880140  -0.000379   0.067255  -0.005641
 217   3  -2.626956  -2.364606   1.557033  -0.000669   0.148587  -0.004502
 218   3  -1.572150  -3.151214   1.534050  -0.000531   0.148587  -0.003574
 219   3  -0.331120  -3.266669   1.956436  -0.000720   0.148587  -0.004847
 220   1  -3.066343  -1.699994   1.349487  -0.000854   0.148124  -0.005764
 221   1  -2.174526  -2.844378   1.064113  -0.000421   0.148124  -0.002844
 222   1  -0.815994  -3.378163   1.300455  -0.000460   0.148124  -0.003105
 223   1   0.277053  -3.276373   1.785370  -0.000264   0.082167  -0.003218
 224   3  -0.410308   0.206571   3.852452  -0.000260   0.066713  -0.003893
 225   3  -1.430326   0.411770   3.566488  -0.000671   0.147151  -0.004559
 226   3  -2.381192   0.226784   3.091143  -0.000295   0.066713  -0.004429
 227   1  -0.659616   0.684205   3.615669  -0.000579   0.147158  -0.003934
 228   1  -2.028976   0.698249   3.086716  -0.000548   0.147158  -0.003725
 229   1  -1.579730  -0.097130  -3.470348  -0.000011   0.005874  -0.001900
 230   4  -1.840357   0.295580  -3.442401   0.000036   0.005874   0.006189
 231   5  -1.465050  -0.373088  -3.513346  -0.000047   0.005874  -0.008000
 232   1  -2.077628  -0.424536  -3.173588  -0.000037   0.005874  -0.006327
 233   4  -2.316945  -0.017813  -3.158342  -0.000014   0.005874  -0.002330
 234   5  -1.916903  -0.670216  -3.244030  -0.000045   0.005874  -0.007647
 235   1  -0.443861   2.581811   2.797225   0.000242   0.094314   0.002562
 236   4  -0.735332   2.881746   2.572861   0.000873   0.094314   0.009251
 237   7   0.240706   2.874638   2.937901  -0.000188   0.094314  -0.001991
 238   1   0.712953   1.840595  -3.284964   0.000235   0.094316   0.002489
 239   4   0.373572   2.171228  -3.257433   0.001114   0.094316   0.011806
 240   8   1.414227   2.122735  -3.232122  -0.000255   0.094316  -0.002704
 241   1  -2.410923  -0.137677  -3.070203  -0.000202   0.039353  -0.005124
 242   4  -2.682124   0.246723  -3.119116  -0.000166   0.039353  -0.004223
 243  10  -2.982967   0.192713  -3.011446  -0.000407   0.039353  -0.010343
 244   1  -3.362219   0.471876   1.931478  -0.000215   0.039353  -0.005476
 245   4  -3.615499   0.844793   1.788343  -0.000171   0.039353  -0.004344
 246  10  -3.859047   0.754071   1.594771  -0.000504   0.039353  -0.012801
 247   4  -2.788691   1.634775   2.441973   0.001754   0.200686   0.008740
 248   4  -1.622403   2.639307   2.599973   0.002630   0.200686   0.013106
 249   1  -1.807367   1.640516   2.738588   0.002486   0.431694   0.005759
 250   4  -0.453324   1.890211  -3.546747   0.002855   0.200690   0.014228
 251   4  -1.640846   0.899250  -3.593233   0.001715   0.200690   0.008548
 252   1  -0.619455   0.879335  -3.507215   0.002491   0.431704   0.005770
 253   1   1.417075  -3.413716  -0.708148  -0.000037   0.057902  -0.000644
 254   5   1.310423  -3.402127  -0.991820  -0.000218   0.057902  -0.003764
 255   6   2.218917  -3.429134  -0.486187   0.000579   0.057902   0.010004
 256   1  -2.720358  -1.278377  -2.362183  -0.000290   0.019676  -0.014761
 257   5  -2.505460  -1.440932  -2.498100  -0.000180   0.019676  -0.009150
 258  10  -3.206077  -0.832050  -2.309380  -0.000507   0.019676  -0.025749
 259   1  -2.209390  -0.448918  -3.091396  -0.000141   0.019676  -0.007165
 260   5  -2.045620  -0.694468  -3.154349  -0.000155   0.019676  -0.007879
 261  10  -2.752746  -0.096153  -2.956339  -0.000173   0.019676  -0.008799
 262   5   0.673790  -3.602968  -1.175453  -0.000342   0.067250  -0.005089
 263   5  -0.410510  -3.644370  -1.107158  -0.000593   0.148576  -0.003990
 264   5  -1.591562  -3.187325  -1.464905  -0.000650   0.148576  -0.004372
 265   5  -2.193893  -2.291576  -2.217628  -0.000842   0.148576  -0.005669
 266   1   0.310276  -3.618366  -0.710187  -0.000587   0.148113  -0.003963
 267   1  -1.154129  -3.443786  -0.816312  -0.000418   0.148113  -0.002820
 268   1  -2.209420  -2.643290  -1.473416  -0.000589   0.148113  -0.003979
 269   1  -2.542178  -1.764416  -2.219736  -0.000495   0.082161  -0.006029
 270   5  -1.088584  -0.601544  -3.705342  -0.000268   0.066713  -0.004010
 271   5  -0.022927  -0.490167  -3.833294  -0.000725   0.147154  -0.004927
 272   5   1.021335  -0.710999  -3.674708  -0.000262   0.066713  -0.003929
 273   1  -0.741367  -0.126880  -3.683226  -0.000537   0.147157  -0.003650
 274   1   0.724594  -0.202929  -3.661942  -0.000571   0.147157  -0.003878
 275   6   2.252240  -3.540151   1.615225   0.004285   0.330469   0.012966
 276   6   2.525625  -3.715351   0.177643   0.004002   0.330469   0.012111
 277   1   1.239825  -3.439663   0.654986   0.000513   0.726088   0.000707
 278   7   0.864063   2.514379   3.518599  -0.001556   0.308019  -0.005050
 279   1   0.025971   1.718381   3.425405  -0.000527   0.433115  -0.001217
 280   8   2.334212   1.395759  -3.466957  -0.001525   0.307954  -0.004953
 281   1   1.207237   1.122619  -3.464006  -0.000509   0.433024  -0.001175
 282  10  -3.751778  -0.795784  -2.042160  -0.003165   0.194613  -0.016261
 283  10  -4.136620  -0.935620  -0.672562  -0.007832   0.405182  -0.019331
 284  10  -4.267711  -0.464979   0.670854  -0.002857   0.194613  -0.014681
 285   1  -3.203135  -1.488156  -1.417200  -0.004519   0.459521  -0.009834
 286   1  -3.561218  -1.258561   0.465769  -0.004490   0.459521  -0.009771
 287   2   1.898306  -0.795727   3.655571   0.000242   0.094374   0.002568
 288   3   1.197445  -1.078281   3.602895  -0.000187   0.094374  -0.001986
 289   6   2.237233  -1.126864   3.628074   0.000874   0.094374   0.009257
 290   3   0.422841  -0.620999   3.817454  -0.001555   0.307861  -0.005052
 291   2   1.271300   0.168206   3.851732  -0.000527   0.432898  -0.001218
 292   2   1.190618   4.454552   1.081759  -0.000035   0.057795  -0.000599
 293   4   0.388545   4.469514   0.859448   0.000644   0.057795   0.011139
 294   7   1.298007   4.442875   1.365145  -0.000209   0.057795  -0.003617
 295   2   1.696631   4.130388  -1.578713  -0.000038   0.057794  -0.000666
 296   4   0.869970   4.161101  -1.671748   0.000576   0.057794   0.009970
 297   8   1.898678   4.058072  -1.793007  -0.000217   0.057794  -0.003749
 298   4   0.081617   4.756343   0.194206   0.004306   0.331876   0.012975
 299   4   0.356050   4.580534  -1.248685   0.004023   0.331876   0.012123
 300   2   1.368362   4.480409  -0.285693   0.000497   0.729213   0.000682
 301   2   3.055420  -1.537152  -2.429179   0.000236   0.094376   0.002497
 302   5   2.371267  -1.830432  -2.569715  -0.000255   0.094376  -0.002698
 303   6   3.346472  -1.837615  -2.204923   0.001116   0.094376   0.011820
 304   5   1.631337  -1.218971  -3.282463  -0.001525   0.307770  -0.004955
 305   2   2.691334  -0.902630  -2.935741  -0.000509   0.432772  -0.001177
 306   2   4.184854   1.133879   3.842626  -0.000010   0.006008  -0.001610
 307   6   4.445322   0.741052   3.814520   0.000045   0.006008   0.007475
 308   7   4.071110   1.410250   3.885500  -0.000036   0.006008  -0.005937
 309   2   5.337198   0.395187  -2.218207  -0.000011   0.006017  -0.001848
 310   6   5.552259   0.031469  -2.007484   0.000037   0.006017   0.006195
 311   8   5.259022   0.648818  -2.362135  -0.000047   0.006017  -0.007837
 312   6   4.231815  -1.596698  -2.231597   0.002841   0.199840   0.014217
 313   6   5.394673  -0.597586  -2.074875   0.001713   0.199840   0.008572
 314   2   4.415673  -0.600207  -2.371304   0.002478   0.429828   0.005764
 315   6   4.246431   0.138430   3.964243   0.001753   0.199865   0.008771
 316   6   3.062672  -0.847498   3.916680   0.002618   0.199865   0.013100
 317   2   3.227345   0.161394   3.878252   0.002472   0.429885   0.005751
 318   2   5.333700   2.319761   2.729904  -0.000314   0.019780  -0.015863
 319   7   5.118978   2.482294   2.866141  -0.000250   0.019780  -0.012650
 320   9   5.818826   1.872762   2.677343  -0.000421   0.019780  -0.021290
 321   7   1.589305   1.754603   4.044060  -0.000259   0.066578  -0.003894
 322   7   2.630913   1.531693   4.203148  -0.000669   0.146798  -0.004558
 323   7   3.695035   1.639723   4.076979  -0.000294   0.066578  -0.004417
 324   2   1.884124   1.246028   4.031210  -0.000577   0.146918  -0.003928
 325   2   3.347196   1.166209   4.054081  -0.000547   0.146918  -0.003720
 326   7   4.889506   3.017956   2.854567  -0.000380   0.067315  -0.005644
 327   7   4.599430   3.817702   2.175989  -0.000670   0.148748  -0.004504
 328   7   3.658052   4.530516   1.592530  -0.000534   0.148748  -0.003588
 329   7   2.353251   4.684745   1.500727  -0.000721   0.148748  -0.004850
 330   2   5.054865   3.142747   2.301175  -0.000855   0.148230  -0.005769
 331   2   4.375986   4.150214   1.456152  -0.000422   0.148230  -0.002849
 332   2   3.046716   4.663323   1.056537  -0.000462   0.148230  -0.003118
 333   2   1.848087   4.627189   1.125095  -0.000266   0.082241  -0.003230
 334   2   6.056875   1.856600  -1.072318  -0.000292   0.019784  -0.014772
 335   8   5.913412   1.973473  -1.310731  -0.000181   0.019784  -0.009128
 336   9   6.469877   1.455793  -0.745666  -0.000510   0.019784  -0.025776
 337   8   2.566889   4.239560  -1.774764  -0.000341   0.067313  -0.005060
 338   8   3.553539   4.345344  -1.328132  -0.000595   0.148742  -0.003999
 339   8   4.763740   3.871317  -1.115177  -0.000652   0.148742  -0.004380
 340   8   5.559045   2.852299  -1.367632  -0.000845   0.148742  -0.005678
 341   2   2.736766   4.379249  -1.226334  -0.000589   0.148225  -0.003973
 342   2   4.131538   4.251621  -0.748682  -0.000419   0.148225  -0.002828
 343   2   5.318378   3.368051  -0.772058  -0.000591   0.148225  -0.003985
 344   2   5.860850   2.354750  -1.120758  -0.000496   0.082238  -0.006032
 345   8   4.988240   0.810882  -2.724307  -0.000266   0.066570  -0.003999
 346   8   4.038302   0.629915  -3.198202  -0.000723   0.146777  -0.004923
 347   8   3.020757   0.837590  -3.483129  -0.000261   0.066570  -0.003928
 348   2   4.635144   0.340780  -2.719724  -0.000536   0.146903  -0.003648
 349   2   3.268125   0.359337  -3.246958  -0.000569   0.146903  -0.003871
 350   9   6.879463   1.505642  -0.298579  -0.003161   0.194269  -0.016273
 351   9   6.748611   1.974715   1.042957  -0.007813   0.404405  -0.019319
 352   9   6.364230   1.835618   2.410354  -0.002854   0.194269  -0.014690
 353   2   6.173718   2.299409  -0.093978  -0.004511   0.458752  -0.009832
 354   2   5.816114   2.528433   1.786190  -0.004481   0.458752  -0.009767
 355   4  -3.339689   0.936918   2.165276   0.000352   0.170794   0.002062
 356   3  -2.801910   0.131473   2.732583  -0.000353   0.139990  -0.002520
 357   6   2.333533  -1.683438   3.702377   0.003109   0.319259   0.009739
 358   6   2.190173  -2.809771   2.885438   0.007129   0.633754   0.011248
 359   3   0.787305  -1.993963   3.440024  -0.001276   0.514953  -0.002478
 360   3   0.644796  -2.955120   2.604849  -0.000365   0.255989  -0.001426
 361  10  -4.110318   0.050566   1.307187  -0.003037   0.342640  -0.008863
 362   3  -3.233081  -0.490317   2.208675  -0.001147   0.342640  -0.003349
 363   5  -1.709359  -0.692033  -3.455104  -0.000387   0.140047  -0.002761
 364   4  -2.197600   0.318359  -3.432959   0.000432   0.170863   0.002529
 365   7   1.196547   4.487976   1.805815  -0.000367   0.255357  -0.001437
 366   7   0.721250   3.742890   2.728362  -0.001273   0.513648  -0.002478
 367   4  -0.350985   4.343671   1.532305   0.007105   0.632274   0.011237
 368   4  -0.827819   3.434537   2.476486   0.003101   0.318501   0.009737
 369   8   1.778161   2.616747  -3.325163  -0.000558   0.255369  -0.002186
 370   8   1.907715   3.650638  -2.585852  -0.001186   0.513672  -0.002308
 371   4   0.327336   3.173943  -3.051038   0.006971   0.632304   0.011024
 372   4   0.481010   4.226770  -2.149106   0.002871   0.318516   0.009012
 373  10  -4.242185   1.157359   1.471963  -0.000620   0.083923  -0.007394
 374  10  -4.628754   2.242121   1.015318  -0.001691   0.182130  -0.009283
 375  10  -4.834003   3.136310  -0.173446  -0.002168   0.182130  -0.011905
 376  10  -4.647330   3.187399  -1.662540  -0.002183   0.182130  -0.011988
 377  10  -4.147763   2.373761  -2.821541  -0.001886   0.182130  -0.010357
 378  10  -3.546800   1.039856  -3.159774  -0.001737   0.182130  -0.009535
 379   4  -4.058122   1.781787   1.562579  -0.000550   0.179758  -0.003059
 380   4  -4.467440   3.070566   0.662217  -0.000776   0.179758  -0.004315
 381   4  -4.478067   3.611313  -0.869653  -0.001381   0.179758  -0.007680
 382   4  -4.085503   3.175097  -2.384497  -0.001175   0.179758  -0.006535
 383   4  -3.455944   1.946593  -3.240991  -0.000710   0.179758  -0.003951
 384   4  -2.944356   0.725486  -3.274440  -0.000365   0.096089  -0.003803
 385   6   2.751310  -3.586612  -0.761937   0.002876   0.319273   0.009007
 386   6   3.269437  -2.764206  -1.767879   0.006997   0.633781   0.011040
 387   5   1.608624  -3.190032  -1.807445  -0.001241   0.514976  -0.002409
 388   5   2.044219  -2.348943  -2.670351  -0.000559   0.256000  -0.002182
 389  10  -3.260590  -0.286781  -2.810072  -0.002869   0.342771  -0.008371
 390   5  -2.324386  -1.279858  -2.919891  -0.001167   0.342771  -0.003406
 391   6   5.200182   0.891143   3.475877  -0.000247   0.064972  -0.003807
 392   7   4.762138   1.524029   3.488096  -0.000388   0.064972  -0.005979
 393   9   5.499567   0.942843   3.360624  -0.000694   0.064972  -0.010679
 394   7   4.223425   1.668209   3.882658  -0.000381   0.141991  -0.002681
 395   6   4.894060   0.777782   3.751052   0.000342   0.173234   0.001973
 396   6   6.139538   0.289406  -1.463077  -0.000236   0.064971  -0.003625
 397   8   5.763980   0.882261  -1.779369  -0.000407   0.064971  -0.006266
 398   9   6.378883   0.379567  -1.262646  -0.000527   0.064971  -0.008117
 399   8   5.483237   0.985984  -2.292174  -0.000431   0.142098  -0.003037
 400   6   5.882774   0.029130  -1.862378   0.000430   0.173364   0.002478
 401   9   5.976440   0.442371   3.502612  -0.000644   0.083914  -0.007677
 402   9   6.452664  -0.700927   3.481406  -0.001690   0.182107  -0.009282
 403   9   7.033485  -1.836700   2.689502  -0.002167   0.182107  -0.011901
 404   9   7.396069  -2.239896   1.289356  -0.002182   0.182107  -0.011984
 405   9   7.386945  -1.739853  -0.126383  -0.001886   0.182107  -0.010355
 406   9   7.009972  -0.548227  -0.958467  -0.001740   0.182107  -0.009557
 407   6   5.744106  -0.151298   3.662394  -0.000555   0.179739  -0.003087
 408   6   6.392822  -1.594780   3.296073  -0.000775   0.179739  -0.004312
 409   6   6.932491  -2.475138   2.042123  -0.001380   0.179739  -0.007677
 410   6   7.134686  -2.419738   0.431313  -0.001174   0.179739  -0.006532
 411   6   6.913821  -1.452028  -0.854541  -0.000710   0.179739  -0.003950
 412   6   6.504710  -0.295405  -1.352993  -0.000387   0.096079  -0.004024
 413   9   5.963838   1.474846   3.048347  -0.003071   0.343976  -0.008928
 414   7   4.845177   2.171258   3.420052  -0.001192   0.343976  -0.003466
 415   9   6.676863   0.810187  -1.053090  -0.002909   0.344008  -0.008455
 416   8   5.889984   1.709954  -1.720751  -0.001197   0.344008  -0.003480
 =====================================================

              1191584  WORDS OF DYNAMIC MEMORY USED
 EXECUTION OF GAMESS TERMINATED NORMALLY Thu Nov 24 04:50:46 2016
 DDI: 263640 bytes (0.3 MB / 0 MWords) used by master data server.

 ----------------------------------------
 CPU timing information for all processes
 ========================================
 0: 107.392 + 0.96 = 107.488
 ----------------------------------------
 ddikick.x: exited gracefully.
