----- GAMESS execution script -----

          ******************************************************
          *         GAMESS VERSION =  5 DEC 2014 (R1)          *
          *             FROM IOWA STATE UNIVERSITY             *
          * M.W.SCHMIDT, K.K.BALDRIDGE, J.A.BOATZ, S.T.ELBERT, *
          *   M.S.GORDON, J.H.JENSEN, S.KOSEKI, N.MATSUNAGA,   *
          *          K.A.NGUYEN, S.J.SU, T.L.WINDUS,           *
          *       TOGETHER WITH M.DUPUIS, J.A.MONTGOMERY       *
          *         J.COMPUT.CHEM.  14, 1347-1363(1993)        *
          **************** 64 BIT LINUX VERSION ****************

 EXECUTION OF GAMESS BEGUN Thu Nov 24 03:47:27 2016

            ECHO OF THE FIRST FEW INPUT CARDS -
 INPUT CARD>! SELECT RESTRICTED HARTREE-FOCK AS DEFAULT                                     
 INPUT CARD>$contrl scftyp=rhf $end                                                         
 INPUT CARD>                                                                                
 INPUT CARD>! THEORY: HF OR DFT                                                             
 INPUT CARD> $contrl mplevl=0 $end                                                          
 INPUT CARD>                                                                                
 INPUT CARD> $system timlim=10000 mwords=20 $end                                            
 INPUT CARD> $SCF DIRSCF=.TRUE. $end                                                        
 INPUT CARD>                                                                                
 INPUT CARD>                                                                                
 INPUT CARD>! BASIS SETS                                                                    
 INPUT CARD>! 6-311G(d,p)                                                                   
 INPUT CARD> $BASIS GBASIS=N311 NGAUSS=6 NDFUNC=1 NPFUNC=1 $END                             
 INPUT CARD>                                                                                
 INPUT CARD>! One of the following                                                          
 INPUT CARD> $guess guess=HUCKEL $end                                                       
 INPUT CARD>                                                                                
 INPUT CARD> $statpt projct=.FALSE. $end                                                    
 INPUT CARD> $STATPT IFREEZ(1)=1,2,3 $END                                                   
 INPUT CARD>                                                                                
 INPUT CARD>! Optimize the geometry with COSMO effects                                      
 INPUT CARD> $statpt opttol=0.0005 nstep=50 $end                                            
 INPUT CARD> $contrl nzvar=1 $end                                                           
 INPUT CARD> $zmat dlc=.t. auto=.t. $end                                                    
 INPUT CARD> $contrl runtyp=OPTIMIZE maxit=200 $end                                         
 INPUT CARD>                                                                                
 INPUT CARD>! Run COSMO on perfect conductor                                                
 INPUT CARD> $COSGMS PRFCND=.TRUE. $end                                                     
 INPUT CARD>                                                                                
 INPUT CARD>! Specifying RSOLV                                                              
 INPUT CARD> $COSGMS COSRAD = 1.4 $end                                                      
 INPUT CARD>                                                                                
 INPUT CARD>! available memory                                                              
 INPUT CARD> $SYSTEM MWORDS=40 $END                                                         
 INPUT CARD>                                                                                
 INPUT CARD> $DATA                                                                          
 INPUT CARD>http://cactus.nci.nih.gov/chemical/structure/ethyl%20propyl%20ketone/file?format
 INPUT CARD>C1                                                                              
 INPUT CARD>C      6.0     -0.8137000000   -0.6546000000   -0.0000000000                    
 INPUT CARD>C      6.0     -1.8962000000    0.4267000000    0.0000000000                    
 INPUT CARD>C      6.0     -3.2764000000   -0.2335000000    0.0000000000                    
 INPUT CARD>C      6.0      0.5458000000   -0.0043000000    0.0000000000                    
 INPUT CARD>O      8.0      0.6393000000    1.1997000000    0.0000000000                    
 INPUT CARD>C      6.0      1.7887000000   -0.8566000000    0.0000000000                    
 INPUT CARD>C      6.0      3.0251000000    0.0447000000    0.0000000000                    
 INPUT CARD>H      1.0     -0.9197000000   -1.2749000000    0.8900000000                    
 INPUT CARD>H      1.0     -0.9197000000   -1.2749000000   -0.8900000000                    
 INPUT CARD>H      1.0     -1.7901000000    1.0470000000    0.8900000000                    
 INPUT CARD>H      1.0     -1.7901000000    1.0470000000   -0.8900000000                    
 INPUT CARD>H      1.0     -4.0476000000    0.5368000000    0.0000000000                    
   40000000 WORDS OF MEMORY AVAILABLE

     BASIS OPTIONS
     -------------
     GBASIS=N311         IGAUSS=       6      POLAR=POPN311 
     NDFUNC=       1     NFFUNC=       0     DIFFSP=       F
     NPFUNC=       1      DIFFS=       F     BASNAM=        


     RUN TITLE
     ---------
 http://cactus.nci.nih.gov/chemical/structure/ethyl%20propyl%20ketone/file?format

 THE POINT GROUP OF THE MOLECULE IS C1      
 THE ORDER OF THE PRINCIPAL AXIS IS     0

 ATOM      ATOMIC                      COORDINATES (BOHR)
           CHARGE         X                   Y                   Z
 C           6.0    -1.5376700362       -1.2370146316       -0.0000000000
 C           6.0    -3.5832984179        0.8063460790        0.0000000000
 C           6.0    -6.1914982262       -0.4412510181        0.0000000000
 C           6.0     1.0314124441       -0.0081258217        0.0000000000
 O           8.0     1.2081018240        2.2671042675        0.0000000000
 C           6.0     3.3801528742       -1.6187392811        0.0000000000
 C           6.0     5.7166100855        0.0844707517        0.0000000000
 H           1.0    -1.7379809909       -2.4092116617        1.6818561291
 H           1.0    -1.7379809909       -2.4092116617       -1.6818561291
 H           1.0    -3.3827984906        1.9785431091        1.6818561291
 H           1.0    -3.3827984906        1.9785431091       -1.6818561291
 H           1.0    -7.6488549079        1.0144049102        0.0000000000
 H           1.0    -6.3919981535       -1.6134480483       -1.6818561291
 H           1.0    -6.3919981535       -1.6134480483        1.6818561291
 H           1.0     3.3973493807       -2.8077548726        1.6818561291
 H           1.0     3.3973493807       -2.8077548726       -1.6818561291
 H           1.0     7.4152847758       -1.0803563472        0.0000000000
 H           1.0     5.6994135790        1.2736753157       -1.6818561291
 H           1.0     5.6994135790        1.2736753157        1.6818561291

          INTERNUCLEAR DISTANCES (ANGS.)




     $CONTRL OPTIONS
     ---------------
 SCFTYP=RHF          RUNTYP=OPTIMIZE     EXETYP=RUN     
 MPLEVL=       0     CITYP =NONE         CCTYP =NONE         VBTYP =NONE    
 DFTTYP=NONE         TDDFT =NONE    
 MULT  =       1     ICHARG=       0     NZVAR =       1     COORD =UNIQUE  
 PP    =NONE         RELWFN=NONE         LOCAL =NONE         NUMGRD=       F
 ISPHER=      -1     NOSYM =       0     MAXIT =     200     UNITS =ANGS    
 PLTORB=       F     MOLPLT=       F     AIMPAC=       F     FRIEND=        
 NPRINT=       7     IREST =       0     GEOM  =INPUT   
 NORMF =       0     NORMP =       0     ITOL  =      20     ICUT  =       9
 INTTYP=BEST         GRDTYP=BEST         QMTTOL= 1.0E-06

     $SYSTEM OPTIONS
     ---------------
  REPLICATED MEMORY=    40000000 WORDS (ON EVERY NODE).
 DISTRIBUTED MEMDDI=           0 MILLION WORDS IN AGGREGATE,
 MEMDDI DISTRIBUTED OVER   1 PROCESSORS IS           0 WORDS/PROCESSOR.
 TOTAL MEMORY REQUESTED ON EACH PROCESSOR=    40000000 WORDS.
 TIMLIM=       10000.00 MINUTES, OR       6.9 DAYS.
 PARALL= F  BALTYP=  DLB     KDIAG=    0  COREFL= F
 MXSEQ2=     300 MXSEQ3=     150  mem10=         0

     $COSGMS OPTIONS
     ---------------
     EPSI  =   INFTY     NSPA  =      92     COSRAD=    1.40
     DISEX =   10.00     OUTCHG=DBLCAV       COSBUG=       F
     COSWRT=       F     DCOSMO=       F

     SYMMETRY COORDINATES WILL NOT BE USED FOR 
     THE COSMO CALCULATION, EVEN IF SPECIFIED:
         -- SWITCHING TO C1 POINT GROUP --


     DEFINITION OF CAVITY
     ---------------------------
     ATOM         COORDINATES           RADIUS 
     1   -1.5377   -1.2370   -0.0000    2.0000
     2   -3.5833    0.8063    0.0000    2.0000
     3   -6.1915   -0.4413    0.0000    2.0000
     4    1.0314   -0.0081    0.0000    2.0000
     5    1.2081    2.2671    0.0000    1.7200
     6    3.3802   -1.6187    0.0000    2.0000
     7    5.7166    0.0845    0.0000    2.0000
     8   -1.7380   -2.4092    1.6819    1.3000
     9   -1.7380   -2.4092   -1.6819    1.3000
    10   -3.3828    1.9785    1.6819    1.3000
    11   -3.3828    1.9785   -1.6819    1.3000
    12   -7.6489    1.0144    0.0000    1.3000
    13   -6.3920   -1.6134   -1.6819    1.3000
    14   -6.3920   -1.6134    1.6819    1.3000
    15    3.3973   -2.8078    1.6819    1.3000
    16    3.3973   -2.8078   -1.6819    1.3000
    17    7.4153   -1.0804    0.0000    1.3000
    18    5.6994    1.2737   -1.6819    1.3000
    19    5.6994    1.2737    1.6819    1.3000

          ----------------
          PROPERTIES INPUT
          ----------------

     MOMENTS            FIELD           POTENTIAL          DENSITY
 IEMOM =       1   IEFLD =       0   IEPOT =       0   IEDEN =       0
 WHERE =COMASS     WHERE =NUCLEI     WHERE =NUCLEI     WHERE =NUCLEI  
 OUTPUT=BOTH       OUTPUT=BOTH       OUTPUT=BOTH       OUTPUT=BOTH    
 IEMINT=       0   IEFINT=       0                     IEDINT=       0
                                                       MORB  =       0
          EXTRAPOLATION IN EFFECT
          SOSCF IN EFFECT
 ORBITAL PRINTING OPTION: NPREO=     1   205     2     1

     -------------------------------
     INTEGRAL TRANSFORMATION OPTIONS
     -------------------------------
     NWORD  =            0
     CUTOFF = 1.0E-09     MPTRAN =       0
     DIRTRF =       T     AOINTS =DUP     

          ----------------------
          INTEGRAL INPUT OPTIONS
          ----------------------
 NOPK  =       1 NORDER=       0 SCHWRZ=       T


 -----------------------------------------------
  STATISTICS ON AUTOMATIC COORDINATE GENERATION 
 -----------------------------------------------
  NUMBER OF USER SPECIFIED BONDS                             0
  NUMBER OF BONDS                                           18
  NUMBER OF ANGLES                                          33
  NUMBER OF TORSIONS                                        39
  NUMBER OF EXTRA COORD.                                     0
  NUMBER OF EXTRA COORD. FOR CONSTRAINTS                     0
  NUMBER OF CONSTRAINED COORD.                               0

  TOTAL NUMBER OF PRIMITIVES                                90
 -----------------------------------------------

   --- ENCODED Z MATRIX ---
 COORD  TYPE   I   J   K   L   M   N
    1      1    1   4
    2      1    1   8
    3      1    1   2
    4      1    1   9
    5      1    2  11
    6      1    2  10
    7      1    2   3
    8      1    3  14
    9      1    3  13
   10      1    3  12
   11      1    4   6
   12      1    4   5
   13      1    6  16
   14      1    6  15
   15      1    6   7
   16      1    7  19
   17      1    7  18
   18      1    7  17
   19      2    1   4   5
   20      2    1   2   3
   21      2    1   4   6
   22      2    1   2  11
   23      2    1   2  10
   24      2    2   3  14
   25      2    2   1   8
   26      2    2   3  12
   27      2    2   1   9
   28      2    2   3  13
   29      2    2   1   4
   30      2    3   2  11
   31      2    3   2  10
   32      2    4   6   7
   33      2    4   1   8
   34      2    4   6  16
   35      2    4   6  15
   36      2    4   1   9
   37      2    5   4   6
   38      2    6   7  17
   39      2    6   7  19
   40      2    6   7  18
   41      2    7   6  15
   42      2    7   6  16
   43      2    8   1   9
   44      2   10   2  11
   45      2   12   3  13
   46      2   12   3  14
   47      2   13   3  14
   48      2   15   6  16
   49      2   17   7  18
   50      2   17   7  19
   51      2   18   7  19
   52      3    1   4   6   7
   53      3    1   4   6  15
   54      3    1   2   3  14
   55      3    1   4   6  16
   56      3    1   2   3  12
   57      3    1   2   3  13
   58      3    2   1   4   6
   59      3    2   1   4   5
   60      3    3   2   1   9
   61      3    3   2   1   8
   62      3    3   2   1   4
   63      3    4   6   7  17
   64      3    4   6   7  18
   65      3    4   6   7  19
   66      3    4   1   2  10
   67      3    4   1   2  11
   68      3    5   4   1   9
   69      3    5   4   6  15
   70      3    5   4   6  16
   71      3    5   4   6   7
   72      3    5   4   1   8
   73      3    6   4   1   9
   74      3    6   4   1   8
   75      3    8   1   2  10
   76      3    8   1   2  11
   77      3    9   1   2  10
   78      3    9   1   2  11
   79      3   10   2   3  12
   80      3   10   2   3  14
   81      3   10   2   3  13
   82      3   11   2   3  12
   83      3   11   2   3  14
   84      3   11   2   3  13
   85      3   15   6   7  18
   86      3   15   6   7  19
   87      3   15   6   7  17
   88      3   16   6   7  18
   89      3   16   6   7  19
   90      3   16   6   7  17

          INDEP./SYM. INTERNAL COORDINATES
          --------------------------------
 CRD  1=  -0.2243 ( 19)  0.3228 ( 20)  0.4288 ( 21) -0.1095 ( 22) -0.1095 ( 23)
           0.1415 ( 25)  0.1415 ( 27) -0.5138 ( 29) -0.3464 ( 32)  0.1564 ( 33)
           0.1155 ( 34)  0.1155 ( 35)  0.1564 ( 36) -0.2045 ( 37)
 CRD  2=  -0.3299 (  1) -0.2285 (  3) -0.2014 (  7) -0.2541 ( 11) -0.1983 ( 15)
          -0.4796 ( 20)  0.1306 ( 22)  0.1306 ( 23) -0.1022 ( 24) -0.1022 ( 28)
           0.1548 ( 30)  0.1548 ( 31) -0.4358 ( 32)  0.1141 ( 34)  0.1141 ( 35)
           0.1407 ( 41)  0.1407 ( 42)
 CRD  3=  -0.1589 ( 24)  0.1589 ( 28)  0.1300 ( 30) -0.1300 ( 31) -0.1756 ( 33)
           0.1756 ( 36) -0.1457 ( 39)  0.1457 ( 40) -0.1451 ( 41)  0.1451 ( 42)
           0.3897 ( 52)  0.2008 ( 53)  0.2008 ( 55) -0.1053 ( 56) -0.2511 ( 58)
           0.1546 ( 60)  0.1546 ( 61)  0.3951 ( 62) -0.1311 ( 63)  0.2364 ( 66)
           0.2364 ( 67)  0.2018 ( 71)
 CRD  4=  -0.2490 (  1) -0.2565 (  3) -0.1372 (  7) -0.2538 ( 11)  0.1362 ( 20)
          -0.3576 ( 21)  0.1529 ( 25) -0.1060 ( 26)  0.1529 ( 27) -0.4392 ( 29)
           0.3435 ( 32)  0.1080 ( 33) -0.1532 ( 34) -0.1532 ( 35)  0.1080 ( 36)
           0.3006 ( 37) -0.1511 ( 38)
 CRD  5=   0.1615 ( 22) -0.1615 ( 23) -0.2483 ( 25)  0.2483 ( 27)  0.1030 ( 33)
           0.1690 ( 34) -0.1690 ( 35) -0.1030 ( 36)  0.1072 ( 41) -0.1072 ( 42)
          -0.1678 ( 54) -0.1658 ( 56) -0.1678 ( 57) -0.4409 ( 58) -0.3606 ( 59)
          -0.1354 ( 63) -0.1628 ( 64) -0.1628 ( 65) -0.1196 ( 68) -0.1471 ( 69)
          -0.1471 ( 70) -0.1749 ( 71) -0.1196 ( 72) -0.1999 ( 73) -0.1999 ( 74)
 CRD  6=  -0.1147 (  1)  0.1013 (  3)  0.1918 (  7) -0.2216 ( 11) -0.2334 ( 15)
           0.3164 ( 19)  0.4230 ( 20) -0.3344 ( 21) -0.1249 ( 22) -0.1249 ( 23)
           0.1214 ( 24)  0.1214 ( 28)  0.2216 ( 29) -0.1309 ( 30) -0.1309 ( 31)
          -0.3122 ( 32) -0.1530 ( 33) -0.1530 ( 36) -0.1029 ( 39) -0.1029 ( 40)
           0.1086 ( 41)  0.1086 ( 42)
 CRD  7=   0.3477 ( 24) -0.3477 ( 28) -0.1594 ( 30)  0.1594 ( 31) -0.3594 ( 39)
           0.3594 ( 40) -0.1536 ( 41)  0.1536 ( 42) -0.1023 ( 49)  0.1023 ( 50)
           0.2489 ( 52) -0.1808 ( 60) -0.1808 ( 61) -0.2260 ( 62) -0.1562 ( 63)
           0.2245 ( 71)
 CRD  8=  -0.2365 (  1)  0.3323 (  3)  0.3029 ( 11) -0.4428 ( 15) -0.3399 ( 19)
           0.1223 ( 26)  0.3128 ( 37) -0.1201 ( 38) -0.1401 ( 39) -0.1401 ( 40)
          -0.1409 ( 41) -0.1409 ( 42)  0.1239 ( 49)  0.1239 ( 50)  0.1524 ( 51)
 CRD  9=   0.5456 (  7) -0.1493 ( 11) -0.2196 ( 15) -0.1078 ( 20)  0.4073 ( 26)
          -0.1144 ( 29)  0.1583 ( 30)  0.1583 ( 31) -0.1419 ( 37) -0.2963 ( 38)
          -0.2059 ( 45) -0.2059 ( 46)  0.1090 ( 49)  0.1090 ( 50)
 CRD 10=   0.2359 (  1) -0.1766 (  3) -0.2704 (  7) -0.3772 ( 15)  0.1360 ( 19)
           0.1319 ( 21) -0.1039 ( 25) -0.3416 ( 26) -0.1039 ( 27) -0.2679 ( 37)
          -0.4200 ( 38) -0.1288 ( 41) -0.1288 ( 42)  0.1319 ( 45)  0.1319 ( 46)
           0.1707 ( 49)  0.1707 ( 50)
 CRD 11=  -0.4454 (  3)  0.2234 (  7) -0.1090 ( 10)  0.2801 ( 11)  0.1099 ( 12)
          -0.1027 ( 15) -0.1971 ( 19)  0.2445 ( 24) -0.1127 ( 25) -0.2743 ( 26)
          -0.1127 ( 27)  0.2445 ( 28)  0.1943 ( 37)  0.2571 ( 38) -0.1779 ( 39)
          -0.1779 ( 40) -0.2166 ( 47)  0.1508 ( 51)
 CRD 12=   0.2500 ( 22) -0.2500 ( 23) -0.2372 ( 24) -0.1359 ( 25)  0.1359 ( 27)
           0.2372 ( 28) -0.1514 ( 30)  0.1514 ( 31) -0.2720 ( 34)  0.2720 ( 35)
          -0.2143 ( 41)  0.2143 ( 42) -0.1020 ( 45)  0.1020 ( 46) -0.2172 ( 54)
          -0.2375 ( 56) -0.2172 ( 57) -0.1034 ( 59)  0.1965 ( 63)  0.2176 ( 64)
           0.2176 ( 65)  0.1324 ( 71)  0.1274 ( 73)  0.1274 ( 74)
 CRD 13=  -0.1222 ( 16)  0.1222 ( 17) -0.1229 ( 22)  0.1229 ( 23) -0.3523 ( 24)
           0.3523 ( 28)  0.1269 ( 30) -0.1269 ( 31)  0.1539 ( 33)  0.1060 ( 34)
          -0.1060 ( 35) -0.1539 ( 36) -0.3829 ( 39)  0.3829 ( 40) -0.1329 ( 45)
           0.1329 ( 46) -0.1591 ( 49)  0.1591 ( 50) -0.1298 ( 63) -0.1716 ( 66)
          -0.1716 ( 67)
 CRD 14=  -0.3455 (  1)  0.1329 (  7) -0.1727 ( 12)  0.1931 ( 15) -0.1304 ( 18)
          -0.2257 ( 19)  0.1989 ( 24) -0.2598 ( 26)  0.1989 ( 28) -0.1147 ( 32)
           0.1403 ( 37) -0.3683 ( 38)  0.2844 ( 39)  0.2844 ( 40) -0.1720 ( 47)
          -0.2493 ( 51)
 CRD 15=  -0.1226 (  2)  0.1226 (  4)  0.1074 (  8) -0.1074 (  9) -0.2307 ( 22)
           0.2307 ( 23)  0.1406 ( 24) -0.2528 ( 25)  0.2528 ( 27) -0.1406 ( 28)
           0.2534 ( 30) -0.2534 ( 31)  0.2341 ( 33) -0.1839 ( 34)  0.1839 ( 35)
          -0.2341 ( 36) -0.1726 ( 41)  0.1726 ( 42)  0.1365 ( 54)  0.1173 ( 56)
           0.1365 ( 57) -0.1329 ( 58) -0.2115 ( 59)  0.1779 ( 60)  0.1779 ( 61)
           0.1125 ( 63)  0.1210 ( 64)  0.1210 ( 65) -0.1231 ( 66) -0.1231 ( 67)
 CRD 16=  -0.1217 (  2) -0.3879 (  3) -0.1217 (  4) -0.1767 (  5) -0.1767 (  6)
          -0.1183 (  7)  0.1124 ( 10)  0.2190 ( 11)  0.1116 ( 12)  0.1066 ( 13)
           0.1066 ( 14) -0.1009 ( 19)  0.2464 ( 20) -0.1548 ( 22) -0.1548 ( 23)
          -0.2170 ( 24) -0.1141 ( 25)  0.2976 ( 26) -0.1141 ( 27) -0.2170 ( 28)
           0.1464 ( 29) -0.1481 ( 32)  0.1385 ( 37) -0.1773 ( 38)  0.1317 ( 39)
           0.1317 ( 40)  0.1173 ( 43)  0.1475 ( 44)  0.1976 ( 47) -0.1204 ( 51)
 CRD 17=   0.1299 (  2) -0.1299 (  4) -0.1476 (  5)  0.1476 (  6)  0.2534 ( 13)
          -0.2534 ( 14)  0.1412 ( 16) -0.1412 ( 17) -0.1732 ( 24) -0.1100 ( 25)
           0.1100 ( 27)  0.1732 ( 28)  0.1529 ( 33)  0.1002 ( 34) -0.1002 ( 35)
          -0.1529 ( 36)  0.2817 ( 39) -0.2817 ( 40)  0.1474 ( 49) -0.1474 ( 50)
           0.2507 ( 52)  0.1587 ( 53)  0.1587 ( 55) -0.1925 ( 62) -0.1382 ( 63)
          -0.1302 ( 64) -0.1302 ( 65) -0.1359 ( 66) -0.1359 ( 67)  0.1310 ( 69)
           0.1310 ( 70)  0.2230 ( 71)
 CRD 18=  -0.3115 (  1) -0.1578 (  2) -0.1225 (  3) -0.1578 (  4) -0.3085 ( 11)
          -0.5400 ( 12) -0.1469 ( 13) -0.1469 ( 14) -0.1449 ( 19)  0.1090 ( 20)
           0.2775 ( 21)  0.2156 ( 29)  0.2061 ( 32) -0.1134 ( 34) -0.1134 ( 35)
          -0.1327 ( 37)  0.1280 ( 38)  0.1304 ( 43)  0.1166 ( 48)
 CRD 19=   0.1847 (  5) -0.1847 (  6)  0.1050 ( 24) -0.2292 ( 25)  0.2292 ( 27)
          -0.1050 ( 28)  0.1567 ( 33)  0.1441 ( 34) -0.1441 ( 35) -0.1567 ( 36)
           0.2552 ( 41) -0.2552 ( 42)  0.1689 ( 53) -0.1127 ( 54)  0.1689 ( 55)
          -0.1314 ( 56) -0.1127 ( 57)  0.1353 ( 60)  0.1353 ( 61)  0.2476 ( 68)
           0.1919 ( 69)  0.1919 ( 70)  0.2476 ( 72)  0.2706 ( 73)  0.2706 ( 74)
 CRD 20=  -0.2931 (  2)  0.2931 (  4) -0.3901 (  5)  0.3901 (  6) -0.2306 ( 13)
           0.2306 ( 14) -0.1104 ( 25)  0.1104 ( 27) -0.1199 ( 30)  0.1199 ( 31)
           0.1372 ( 41) -0.1372 ( 42)  0.1441 ( 53)  0.1257 ( 54)  0.1441 ( 55)
           0.1497 ( 56)  0.1257 ( 57) -0.1020 ( 58) -0.1339 ( 60) -0.1339 ( 61)
           0.1190 ( 63)  0.1054 ( 64)  0.1054 ( 65)  0.1214 ( 66)  0.1214 ( 67)
           0.1320 ( 69)  0.1320 ( 70)
 CRD 21=  -0.1727 ( 15) -0.5092 ( 16) -0.5092 ( 17) -0.4866 ( 18)  0.1925 ( 38)
           0.1733 ( 39)  0.1733 ( 40) -0.1845 ( 49) -0.1845 ( 50) -0.1702 ( 51)
 CRD 22=   0.1815 (  7)  0.5101 (  8)  0.5101 (  9)  0.4898 ( 10) -0.1710 ( 24)
          -0.1867 ( 26) -0.1710 ( 28)  0.1802 ( 45)  0.1802 ( 46)  0.1683 ( 47)
 CRD 23=  -0.2813 (  2)  0.2813 (  4)  0.3241 ( 13) -0.3241 ( 14) -0.1075 ( 30)
           0.1075 ( 31) -0.2087 ( 53) -0.2087 ( 55) -0.1132 ( 63) -0.1220 ( 64)
          -0.1220 ( 65)  0.1448 ( 66)  0.1448 ( 67)  0.1859 ( 68) -0.2100 ( 69)
          -0.2100 ( 70)  0.1859 ( 72)  0.1846 ( 73)  0.1846 ( 74)  0.1150 ( 75)
           0.1150 ( 76)  0.1150 ( 77)  0.1150 ( 78)
 CRD 24=   0.3155 (  2)  0.3155 (  4) -0.4849 ( 13) -0.4849 ( 14)  0.2023 ( 18)
           0.1362 ( 43) -0.2082 ( 48) -0.1318 ( 51)  0.1023 ( 53) -0.1023 ( 55)
           0.1023 ( 69) -0.1023 ( 70) -0.1256 ( 86)  0.1256 ( 88)
 CRD 25=  -0.5072 (  2) -0.5072 (  4) -0.2549 ( 13) -0.2549 ( 14)  0.2381 ( 18)
          -0.2173 ( 43) -0.1063 ( 48) -0.1279 ( 51)  0.1050 ( 68) -0.1050 ( 72)
           0.1050 ( 73) -0.1050 ( 74) -0.1030 ( 86)  0.1030 ( 88)
 CRD 26=  -0.2372 (  5) -0.2372 (  6) -0.2726 (  8) -0.2726 (  9)  0.6013 ( 10)
           0.1519 ( 45)  0.1519 ( 46) -0.3189 ( 47) -0.1609 ( 54)  0.1609 ( 57)
          -0.1898 ( 80)  0.1320 ( 81) -0.1320 ( 83)  0.1898 ( 84)
 CRD 27=  -0.5517 ( 16)  0.5517 ( 17)  0.2960 ( 49) -0.2960 ( 50) -0.2259 ( 63)
          -0.2166 ( 87) -0.2166 ( 90)
 CRD 28=   0.5487 (  8) -0.5487 (  9) -0.2980 ( 45)  0.2980 ( 46)  0.2259 ( 56)
           0.2181 ( 79)  0.2181 ( 82)
 CRD 29=  -0.2746 ( 13) -0.2746 ( 14)  0.2949 ( 16)  0.2949 ( 17) -0.5714 ( 18)
          -0.1233 ( 48) -0.1436 ( 49) -0.1436 ( 50)  0.2819 ( 51) -0.1563 ( 64)
           0.1563 ( 65) -0.2085 ( 85)  0.1040 ( 86) -0.1040 ( 88)  0.2085 ( 89)
 CRD 30=  -0.5684 (  5) -0.5684 (  6)  0.1755 (  8)  0.1755 (  9) -0.2268 ( 10)
          -0.2188 ( 44) -0.1668 ( 81)  0.1668 ( 83)
 CRD 31=  -0.3187 (  2)  0.3187 (  4)  0.1374 ( 13) -0.1374 ( 14) -0.1174 ( 22)
           0.1174 ( 23)  0.1380 ( 30) -0.1380 ( 31) -0.1291 ( 33)  0.1291 ( 36)
          -0.1413 ( 54) -0.1177 ( 56) -0.1413 ( 57) -0.1557 ( 60) -0.1557 ( 61)
          -0.1025 ( 66) -0.1025 ( 67)  0.1043 ( 73)  0.1043 ( 74) -0.2528 ( 75)
          -0.2528 ( 76) -0.2528 ( 77) -0.2528 ( 78) -0.1770 ( 79) -0.2006 ( 80)
          -0.2006 ( 81) -0.1770 ( 82) -0.2006 ( 83) -0.2006 ( 84)
 CRD 32=  -0.2800 ( 13)  0.2800 ( 14) -0.1225 ( 34)  0.1225 ( 35) -0.1812 ( 63)
          -0.1896 ( 64) -0.1896 ( 65)  0.1084 ( 68)  0.1084 ( 72) -0.1017 ( 79)
          -0.1057 ( 80) -0.1057 ( 81) -0.1017 ( 82) -0.1057 ( 83) -0.1057 ( 84)
          -0.3056 ( 85) -0.3056 ( 86) -0.2972 ( 87) -0.3056 ( 88) -0.3056 ( 89)
          -0.2972 ( 90)
 CRD 33=   0.2041 (  2) -0.2041 (  4) -0.3559 (  5)  0.3559 (  6)  0.1100 ( 13)
          -0.1100 ( 14) -0.1382 ( 54) -0.1560 ( 56) -0.1382 ( 57)  0.1170 ( 60)
           0.1170 ( 61)  0.1225 ( 66)  0.1225 ( 67)  0.1578 ( 75)  0.1578 ( 76)
           0.1578 ( 77)  0.1578 ( 78) -0.2406 ( 79) -0.2228 ( 80) -0.2228 ( 81)
          -0.2406 ( 82) -0.2228 ( 83) -0.2228 ( 84)
 CRD 34=  -0.3096 (  1) -0.1322 (  3)  0.3131 ( 11)  0.1422 ( 18)  0.3602 ( 19)
           0.1621 ( 25)  0.1621 ( 27) -0.1420 ( 33)  0.1358 ( 34)  0.1358 ( 35)
          -0.1420 ( 36) -0.3600 ( 37) -0.1726 ( 41) -0.1726 ( 42)  0.1072 ( 60)
          -0.1072 ( 61) -0.1548 ( 76)  0.1548 ( 77) -0.1237 ( 85)  0.1237 ( 89)
 CRD 35=   0.2298 (  1) -0.1053 (  8) -0.1053 (  9) -0.1838 ( 10)  0.2289 ( 11)
          -0.4427 ( 12) -0.1393 ( 16) -0.1393 ( 17) -0.1762 ( 18) -0.1164 ( 22)
          -0.1164 ( 23) -0.1223 ( 24) -0.1531 ( 26) -0.1223 ( 28)  0.1319 ( 30)
           0.1319 ( 31) -0.1582 ( 38) -0.1502 ( 39) -0.1502 ( 40)  0.1267 ( 41)
           0.1267 ( 42)  0.1543 ( 45)  0.1543 ( 46) -0.1329 ( 48)  0.1636 ( 49)
           0.1636 ( 50)  0.1313 ( 51)  0.1091 ( 53) -0.1091 ( 55)  0.1091 ( 69)
          -0.1091 ( 70) -0.1044 ( 76)  0.1044 ( 77)
 CRD 36=  -0.1512 (  3) -0.2250 (  7)  0.1796 (  8)  0.1796 (  9)  0.2414 ( 10)
           0.2267 ( 11) -0.4322 ( 12)  0.1601 ( 19) -0.1286 ( 21)  0.2016 ( 24)
           0.2224 ( 26)  0.2016 ( 28) -0.1126 ( 29) -0.1250 ( 30) -0.1250 ( 31)
          -0.2254 ( 45) -0.2254 ( 46) -0.1748 ( 47) -0.1080 ( 48) -0.1002 ( 66)
           0.1002 ( 67)  0.1421 ( 76) -0.1421 ( 77)
 CRD 37=   0.2286 (  1) -0.4740 ( 12) -0.3106 ( 15)  0.1841 ( 16)  0.1841 ( 17)
           0.2090 ( 18) -0.1937 ( 21) -0.1220 ( 32)  0.1240 ( 34)  0.1240 ( 35)
           0.2160 ( 37)  0.2182 ( 38)  0.1991 ( 39)  0.1991 ( 40) -0.2114 ( 49)
          -0.2114 ( 50) -0.1935 ( 51)
 CRD 38=   0.2711 (  1) -0.3936 (  7)  0.1792 (  8)  0.1792 (  9) -0.1655 ( 15)
          -0.1702 ( 19)  0.1058 ( 21) -0.1390 ( 22) -0.1390 ( 23)  0.1312 ( 24)
           0.1497 ( 25)  0.1142 ( 26)  0.1497 ( 27)  0.1312 ( 28)  0.1120 ( 30)
           0.1120 ( 31) -0.1790 ( 33) -0.1790 ( 36) -0.2354 ( 47) -0.1117 ( 51)
           0.1285 ( 68) -0.1285 ( 72)  0.1285 ( 73) -0.1285 ( 74) -0.1033 ( 76)
           0.1033 ( 77)  0.1231 ( 79)  0.1869 ( 81) -0.1231 ( 82) -0.1869 ( 83)
           0.1066 ( 85) -0.1066 ( 89)
 CRD 39=  -0.1183 (  5)  0.1183 (  6)  0.3261 ( 13) -0.3261 ( 14) -0.2065 ( 16)
           0.2065 ( 17) -0.1120 ( 34)  0.1120 ( 35) -0.1621 ( 49)  0.1621 ( 50)
          -0.1744 ( 59)  0.1752 ( 63) -0.1921 ( 68)  0.2566 ( 69)  0.2566 ( 70)
          -0.1921 ( 72) -0.2119 ( 85) -0.2119 ( 86) -0.2119 ( 88) -0.2119 ( 89)
 CRD 40=   0.2746 (  2) -0.2746 (  4) -0.2510 (  5)  0.2510 (  6)  0.1462 (  8)
          -0.1462 (  9) -0.1061 ( 33)  0.1061 ( 36)  0.1136 ( 45) -0.1136 ( 46)
           0.2219 ( 68) -0.1726 ( 69) -0.1726 ( 70) -0.1490 ( 71)  0.2219 ( 72)
          -0.2288 ( 75) -0.2288 ( 76) -0.2288 ( 77) -0.2288 ( 78)  0.1719 ( 80)
           0.1719 ( 81)  0.1719 ( 83)  0.1719 ( 84)
 CRD 41=   0.1768 (  3) -0.1027 (  7) -0.1257 ( 10) -0.3826 ( 11)  0.2971 ( 15)
          -0.1791 ( 16) -0.1791 ( 17)  0.2028 ( 18)  0.1902 ( 34)  0.1902 ( 35)
           0.1157 ( 37) -0.1143 ( 41) -0.1143 ( 42) -0.1341 ( 47) -0.1044 ( 48)
           0.2616 ( 51) -0.1306 ( 64)  0.1306 ( 65)  0.1531 ( 81) -0.1531 ( 83)
          -0.2645 ( 85) -0.1339 ( 87)  0.2645 ( 89)  0.1339 ( 90)
 CRD 42=   0.2950 (  1) -0.2395 (  3)  0.1247 (  5)  0.1247 (  6) -0.1145 (  7)
          -0.1193 (  8) -0.1193 (  9)  0.2870 ( 10) -0.1755 ( 11)  0.1576 ( 18)
          -0.1440 ( 33) -0.1440 ( 36) -0.2116 ( 44) -0.1253 ( 45) -0.1253 ( 46)
           0.1923 ( 47)  0.1158 ( 51)  0.1479 ( 54) -0.1479 ( 57)  0.1094 ( 60)
          -0.1094 ( 61) -0.1932 ( 76)  0.1932 ( 77) -0.2456 ( 81)  0.2456 ( 83)
          -0.1330 ( 85)  0.1330 ( 89)
 CRD 43=   0.1711 (  2) -0.1711 (  4)  0.1202 (  5) -0.1202 (  6) -0.2573 (  8)
           0.2573 (  9) -0.1942 ( 16)  0.1942 ( 17) -0.1118 ( 22)  0.1118 ( 23)
          -0.1191 ( 25)  0.1191 ( 27) -0.2020 ( 45)  0.2020 ( 46) -0.1527 ( 49)
           0.1527 ( 50)  0.2841 ( 56) -0.1843 ( 58)  0.2135 ( 63)  0.1021 ( 66)
           0.1021 ( 67)  0.1492 ( 68) -0.1082 ( 69) -0.1082 ( 70) -0.1233 ( 71)
           0.1492 ( 72)  0.1623 ( 79) -0.1304 ( 80) -0.1304 ( 81)  0.1623 ( 82)
          -0.1304 ( 83) -0.1304 ( 84)  0.1322 ( 87)  0.1322 ( 90)
 CRD 44=   0.1367 (  2) -0.2779 (  3)  0.1367 (  4)  0.1724 (  7) -0.1230 ( 11)
          -0.1259 ( 13) -0.1259 ( 14)  0.3434 ( 15) -0.1659 ( 18) -0.1551 ( 19)
           0.1252 ( 25)  0.1252 ( 27)  0.1552 ( 37) -0.1428 ( 41) -0.1428 ( 42)
          -0.2178 ( 43)  0.1985 ( 48)  0.1012 ( 49)  0.1012 ( 50) -0.1728 ( 53)
           0.1728 ( 55)  0.1711 ( 68) -0.1728 ( 69)  0.1728 ( 70) -0.1711 ( 72)
           0.1711 ( 73) -0.1711 ( 74)  0.1225 ( 76) -0.1225 ( 77)  0.1033 ( 85)
          -0.1033 ( 89)
 CRD 45=   0.1230 (  2) -0.2234 (  3)  0.1230 (  4)  0.2696 (  7)  0.1240 ( 12)
          -0.2611 ( 15)  0.2152 ( 18)  0.1949 ( 21)  0.1140 ( 25)  0.1140 ( 27)
          -0.1130 ( 30) -0.1130 ( 31) -0.1064 ( 37)  0.1267 ( 41)  0.1267 ( 42)
          -0.1935 ( 43)  0.1534 ( 44) -0.1464 ( 48) -0.1099 ( 49) -0.1099 ( 50)
           0.1062 ( 51)  0.1392 ( 53) -0.1392 ( 55) -0.1095 ( 64)  0.1095 ( 65)
          -0.1260 ( 66)  0.1260 ( 67)  0.1478 ( 68)  0.1392 ( 69) -0.1392 ( 70)
          -0.1478 ( 72)  0.1478 ( 73) -0.1478 ( 74)  0.1746 ( 76) -0.1746 ( 77)
          -0.1215 ( 85)  0.1215 ( 89)
 CRD 46=  -0.2703 (  1)  0.1095 (  2)  0.2042 (  3)  0.1095 (  4) -0.1840 (  7)
          -0.1035 (  8) -0.1035 (  9)  0.2566 ( 10) -0.1639 ( 22) -0.1639 ( 23)
           0.1006 ( 24) -0.1394 ( 26)  0.1006 ( 28)  0.1235 ( 29)  0.1545 ( 30)
           0.1545 ( 31)  0.1058 ( 33)  0.1058 ( 36) -0.1804 ( 43) -0.1143 ( 45)
          -0.1143 ( 46)  0.1667 ( 47)  0.1637 ( 54) -0.1637 ( 57) -0.1579 ( 60)
           0.1579 ( 61)  0.2345 ( 75) -0.2345 ( 78)  0.1183 ( 79)  0.2821 ( 80)
          -0.1183 ( 82) -0.2821 ( 84)
 CRD 47=   0.1137 (  2) -0.1137 (  4) -0.1605 (  8)  0.1605 (  9)  0.1224 ( 13)
          -0.1224 ( 14)  0.2407 ( 16) -0.2407 ( 17) -0.1492 ( 39)  0.1492 ( 40)
           0.1369 ( 41) -0.1369 ( 42) -0.1241 ( 45)  0.1241 ( 46)  0.1865 ( 49)
          -0.1865 ( 50) -0.2250 ( 52)  0.1307 ( 56) -0.1578 ( 59)  0.1697 ( 62)
          -0.1623 ( 63)  0.1574 ( 64)  0.1574 ( 65)  0.1110 ( 69)  0.1110 ( 70)
           0.1841 ( 79)  0.1841 ( 82) -0.2837 ( 87) -0.2837 ( 90)
 CRD 48=   0.2730 ( 11) -0.1683 ( 13) -0.1683 ( 14) -0.1239 ( 16) -0.1239 ( 17)
           0.2288 ( 18) -0.2270 ( 32) -0.2091 ( 38)  0.2694 ( 48)  0.1909 ( 51)
          -0.1130 ( 53)  0.1130 ( 55) -0.1736 ( 64)  0.1736 ( 65) -0.1130 ( 69)
           0.1130 ( 70)  0.3776 ( 86)  0.2039 ( 87) -0.3776 ( 88) -0.2039 ( 90)
 CRD 49=  -0.1530 (  1)  0.1154 (  2) -0.2201 (  3)  0.1154 (  4)  0.1669 (  5)
           0.1669 (  6) -0.1731 (  7) -0.1209 ( 10)  0.2391 ( 20)  0.1502 ( 26)
           0.1803 ( 29) -0.1821 ( 43) -0.2721 ( 44) -0.1173 ( 47) -0.1045 ( 54)
           0.1045 ( 57) -0.1334 ( 60)  0.1334 ( 61)  0.1632 ( 66) -0.1632 ( 67)
           0.2966 ( 75) -0.2966 ( 78) -0.1600 ( 79) -0.2644 ( 80)  0.1600 ( 82)
           0.2644 ( 84)
 CRD 50=  -0.1967 (  5)  0.1967 (  6) -0.1460 (  8)  0.1460 (  9) -0.1277 ( 13)
           0.1277 ( 14)  0.1293 ( 22) -0.1293 ( 23)  0.1347 ( 24)  0.1069 ( 25)
          -0.1069 ( 27) -0.1347 ( 28)  0.1480 ( 30) -0.1480 ( 31) -0.1114 ( 45)
           0.1114 ( 46) -0.2280 ( 54) -0.2280 ( 57)  0.1996 ( 58)  0.2195 ( 60)
           0.2195 ( 61)  0.1320 ( 62) -0.1534 ( 64) -0.1534 ( 65) -0.1284 ( 66)
          -0.1284 ( 67)  0.2104 ( 71)  0.2399 ( 79)  0.2399 ( 82)  0.1459 ( 87)
           0.1459 ( 90)
 CRD 51=   0.1384 (  2) -0.1384 (  4) -0.1109 ( 13)  0.1109 ( 14) -0.1323 ( 33)
           0.1181 ( 34) -0.1181 ( 35)  0.1323 ( 36) -0.1053 ( 52) -0.2625 ( 53)
           0.1190 ( 54) -0.2625 ( 55)  0.1190 ( 57) -0.3242 ( 59) -0.1341 ( 60)
          -0.1341 ( 61) -0.1615 ( 64) -0.1615 ( 65)  0.2004 ( 66)  0.2004 ( 67)
          -0.1253 ( 68)  0.1300 ( 69)  0.1300 ( 70)  0.2871 ( 71) -0.1253 ( 72)
           0.2672 ( 73)  0.2672 ( 74)

 THE DETERMINANT OF THE G MATRIX IS 10**(   -20)


                     --------------------
                     INTERNAL COORDINATES
                     --------------------

                 - - ATOMS - -         COORDINATE      COORDINATE
 NO.   TYPE    I  J  K  L  M  N        (BOHR,RAD)       (ANG,DEG)
 ----------------------------------------------------------------
   1 STRETCH   1  4                     2.8478681       1.5070270
   2 STRETCH   1  8                     2.0598083       1.0900037
   3 STRETCH   1  2                     2.8913524       1.5300379
   4 STRETCH   1  9                     2.0598083       1.0900037
   5 STRETCH   2 11                     2.0598267       1.0900134
   6 STRETCH   2 10                     2.0598267       1.0900134
   7 STRETCH   2  3                     2.8912289       1.5299726
   8 STRETCH   3 14                     2.0598267       1.0900134
   9 STRETCH   3 13                     2.0598267       1.0900134
  10 STRETCH   3 12                     2.0598113       1.0900053
  11 STRETCH   4  6                     2.8479216       1.5070553
  12 STRETCH   4  5                     2.2820804       1.2076250
  13 STRETCH   6 16                     2.0597800       1.0899887
  14 STRETCH   6 15                     2.0597800       1.0899887
  15 STRETCH   6  7                     2.8913590       1.5300414
  16 STRETCH   7 19                     2.0598891       1.0900465
  17 STRETCH   7 18                     2.0598891       1.0900465
  18 STRETCH   7 17                     2.0596888       1.0899404
  19 BEND      1  4  5                  2.0944666     120.0040964
  20 BEND      1  2  3                  1.9105820     109.4682846
  21 BEND      1  4  6                  2.0943368     119.9966603
  22 BEND      1  2 11                  1.9106056     109.4696362
  23 BEND      1  2 10                  1.9106056     109.4696362
  24 BEND      2  3 14                  1.9106742     109.4735671
  25 BEND      2  1  8                  1.9106776     109.4737616
  26 BEND      2  3 12                  1.9106113     109.4699615
  27 BEND      2  1  9                  1.9106776     109.4737616
  28 BEND      2  3 13                  1.9106742     109.4735671
  29 BEND      2  1  4                  1.9105811     109.4682310
  30 BEND      3  2 11                  1.9106742     109.4735671
  31 BEND      3  2 10                  1.9106742     109.4735671
  32 BEND      4  6  7                  1.9105985     109.4692327
  33 BEND      4  1  8                  1.9105900     109.4687452
  34 BEND      4  6 16                  1.9106460     109.4719524
  35 BEND      4  6 15                  1.9106460     109.4719524
  36 BEND      4  1  9                  1.9105900     109.4687452
  37 BEND      5  4  6                  2.0943819     119.9992433
  38 BEND      6  7 17                  1.9106040     109.4695435
  39 BEND      6  7 19                  1.9106320     109.4711519
  40 BEND      6  7 18                  1.9106320     109.4711519
  41 BEND      7  6 15                  1.9105934     109.4689405
  42 BEND      7  6 16                  1.9105934     109.4689405
  43 BEND      8  1  9                  1.9106831     109.4740789
  44 BEND     10  2 11                  1.9106579     109.4726323
  45 BEND     12  3 13                  1.9105909     109.4687978
  46 BEND     12  3 14                  1.9105909     109.4687978
  47 BEND     13  3 14                  1.9106579     109.4726323
  48 BEND     15  6 16                  1.9107220     109.4763051
  49 BEND     17  7 18                  1.9106796     109.4738771
  50 BEND     17  7 19                  1.9106796     109.4738771
  51 BEND     18  7 19                  1.9105722     109.4677223
  52 TORSION   1  4  6  7               3.1415927     180.0000000
  53 TORSION   1  4  6 15              -1.0472597     -60.0035618
  54 TORSION   1  2  3 14               1.0472377      60.0023016
  55 TORSION   1  4  6 16               1.0472597      60.0035618
  56 TORSION   1  2  3 12               3.1415927     180.0000000
  57 TORSION   1  2  3 13              -1.0472377     -60.0023016
  58 TORSION   2  1  4  6               3.1415927     180.0000000
  59 TORSION   2  1  4  5               0.0000000       0.0000000
  60 TORSION   3  2  1  9               1.0472553      60.0033066
  61 TORSION   3  2  1  8              -1.0472553     -60.0033066
  62 TORSION   3  2  1  4               3.1415927     180.0000000
  63 TORSION   4  6  7 17               3.1415927     180.0000000
  64 TORSION   4  6  7 18              -1.0471594     -59.9978157
  65 TORSION   4  6  7 19               1.0471594      59.9978157
  66 TORSION   4  1  2 10              -1.0471957     -59.9998943
  67 TORSION   4  1  2 11               1.0471957      59.9998943
  68 TORSION   5  4  1  9               2.0943910     119.9997655
  69 TORSION   5  4  6 15               2.0943329     119.9964382
  70 TORSION   5  4  6 16              -2.0943329    -119.9964382
  71 TORSION   5  4  6  7               0.0000000       0.0000000
  72 TORSION   5  4  1  8              -2.0943910    -119.9997655
  73 TORSION   6  4  1  9              -1.0472016     -60.0002345
  74 TORSION   6  4  1  8               1.0472016      60.0002345
  75 TORSION   8  1  2 10               1.0471417      59.9967991
  76 TORSION   8  1  2 11               3.1415331     179.9965877
  77 TORSION   9  1  2 10              -3.1415331    -179.9965877
  78 TORSION   9  1  2 11              -1.0471417     -59.9967991
  79 TORSION  10  2  3 12               1.0472377      60.0023016
  80 TORSION  10  2  3 14              -1.0471172     -59.9953969
  81 TORSION  10  2  3 13               3.1415927     180.0000000
  82 TORSION  11  2  3 12              -1.0472377     -60.0023016
  83 TORSION  11  2  3 14               3.1415927     180.0000000
  84 TORSION  11  2  3 13               1.0471172      59.9953969
  85 TORSION  15  6  7 18              -3.1415246    -179.9960984
  86 TORSION  15  6  7 19              -1.0472057     -60.0004670
  87 TORSION  15  6  7 17               1.0472275      60.0017173
  88 TORSION  16  6  7 18               1.0472057      60.0004670
  89 TORSION  16  6  7 19               3.1415246     179.9960984
  90 TORSION  16  6  7 17              -1.0472275     -60.0017173

     ------------------------------------------
     THE POINT GROUP IS C1 , NAXIS= 1, ORDER= 1
     ------------------------------------------

     DIMENSIONS OF THE SYMMETRY SUBSPACES ARE
 A   =  205

 ..... DONE SETTING UP THE RUN .....
 STEP CPU TIME =     0.01 TOTAL CPU TIME =        0.0 (    0.0 MIN)
 TOTAL WALL CLOCK TIME=        0.0 SECONDS, CPU UTILIZATION IS  50.00%


          -----------------------------
          STATIONARY POINT LOCATION RUN
          -----------------------------

 OBTAINING INITIAL HESSIAN, HESS=GUESS   
 DIAGONAL GUESS HESSIAN IN INTERNAL COORDS IS
     1  0.3839     2  0.3464     3  0.3671     4  0.3464     5  0.3464
     6  0.3464     7  0.3672     8  0.3464     9  0.3464    10  0.3464
    11  0.3839    12  0.5548    13  0.3464    14  0.3464    15  0.3671
    16  0.3463    17  0.3463    18  0.3464    19  0.2605    20  0.2485
    21  0.2517    22  0.2241    23  0.2241    24  0.2241    25  0.2241
    26  0.2241    27  0.2241    28  0.2241    29  0.2501    30  0.2241
    31  0.2241    32  0.2501    33  0.2254    34  0.2254    35  0.2254
    36  0.2254    37  0.2605    38  0.2241    39  0.2241    40  0.2241
    41  0.2241    42  0.2241    43  0.2034    44  0.2034    45  0.2034
    46  0.2034    47  0.2034    48  0.2034    49  0.2034    50  0.2034
    51  0.2034    52  0.2500    53  0.2500    54  0.2500    55  0.2500
    56  0.2500    57  0.2500    58  0.2500    59  0.2500    60  0.2500
    61  0.2500    62  0.2500    63  0.2500    64  0.2500    65  0.2500
    66  0.2500    67  0.2500    68  0.2500    69  0.2500    70  0.2500
    71  0.2500    72  0.2500    73  0.2500    74  0.2500    75  0.2500
    76  0.2500    77  0.2500    78  0.2500    79  0.2500    80  0.2500
    81  0.2500    82  0.2500    83  0.2500    84  0.2500    85  0.2500
    86  0.2500    87  0.2500    88  0.2500    89  0.2500    90  0.2500
 TRANSFORMING HESSIAN TO SYMMETRY COORDINATES

          PARAMETERS CONTROLLING GEOMETRY SEARCH ARE
          METHOD =QA                  UPHESS =BFGS    
          NNEG   =         0          NFRZ   =         3
          NSTEP  =        50          IFOLOW =         1
          HESS   =GUESS               RESTAR =         F
          IHREP  =         0          HSSEND =         F
          NPRT   =         0          NPUN   =         0
          OPTTOL = 5.000E-04          RMIN   = 1.500E-03
          RMAX   = 1.000E-01          RLIM   = 7.000E-02
          DXMAX  = 3.000E-01          PURIFY =         F
          MOVIE  =         F          TRUPD  =         T
          TRMAX  = 5.000E-01          TRMIN  = 5.000E-02
          ITBMAT =         5          STPT   =         F
          STSTEP = 1.000E-02          PROJCT=          F
          FROZEN COORD(S)=   1   2   3


      ***** EQUILIBRIUM GEOMETRY LOCATED *****
            (SUBJECT TO   3 CONSTRAINT(S))
 COORDINATES OF ALL ATOMS ARE (ANGS)
   ATOM   CHARGE       X              Y              Z
 ------------------------------------------------------------
 C           6.0  -0.8015875156  -0.6403520575  -0.0000007230
 C           6.0  -1.9061204418   0.4045558076  -0.0000276528
 C           6.0  -3.2844894265  -0.2327895021   0.0000092310
 C           6.0   0.5522996610   0.0138234409   0.0000078130
 O           8.0   0.6505619914   1.2060422922   0.0000175381
 C           6.0   1.7850443697  -0.8554913664   0.0000072667
 C           6.0   3.0198753775   0.0309831885  -0.0000070547
 H           1.0  -0.8687408242  -1.2915317192   0.8699355903
 H           1.0  -0.8687453628  -1.2915641496  -0.8699094407
 H           1.0  -1.7821673972   1.0439677170   0.8686572744
 H           1.0  -1.7821809442   1.0439254309  -0.8687466285
 H           1.0  -4.0621601508   0.5234480172  -0.0000570495
 H           1.0  -3.4121725823  -0.8572672566  -0.8800397436
 H           1.0  -3.4121579584  -0.8571728788   0.8801208375
 H           1.0   1.7439509767  -1.5095665397   0.8688449503
 H           1.0   1.7439208048  -1.5094960718  -0.8688883741
 H           1.0   3.9363937753  -0.5438313969  -0.0001008741
 H           1.0   3.0015973564   0.6732454189  -0.8734184585
 H           1.0   3.0016908177   0.6731769014   0.8734559751


                     --------------------
                     INTERNAL COORDINATES
                     --------------------

                 - - ATOMS - -         COORDINATE      COORDINATE
 NO.   TYPE    I  J  K  L  M  N        (BOHR,RAD)       (ANG,DEG)
 ----------------------------------------------------------------
   1 STRETCH   1  4                     2.8414819       1.5036476
   2 STRETCH   1  8                     2.0574020       1.0887303
   3 STRETCH   1  2                     2.8732694       1.5204688
   4 STRETCH   1  9                     2.0573975       1.0887279
   5 STRETCH   2 11                     2.0517475       1.0857381
   6 STRETCH   2 10                     2.0517460       1.0857373
   7 STRETCH   2  3                     2.8697156       1.5185882
   8 STRETCH   3 14                     2.0534204       1.0866233
   9 STRETCH   3 13                     2.0534303       1.0866286
  10 STRETCH   3 12                     2.0498667       1.0847428
  11 STRETCH   4  6                     2.8505236       1.5084322
  12 STRETCH   4  5                     2.2606062       1.1962614
  13 STRETCH   6 16                     2.0565854       1.0882982
  14 STRETCH   6 15                     2.0565758       1.0882931
  15 STRETCH   6  7                     2.8725356       1.5200805
  16 STRETCH   7 19                     2.0490078       1.0842883
  17 STRETCH   7 18                     2.0490088       1.0842889
  18 STRETCH   7 17                     2.0444161       1.0818585
  19 BEND      1  4  5                  2.1031340     120.5007036
  20 BEND      1  2  3                  1.9508169     111.7735732
  21 BEND      1  4  6                  2.0772905     119.0199781
  22 BEND      1  2 11                  1.8984091     108.7708303
  23 BEND      1  2 10                  1.8983981     108.7702007
  24 BEND      2  3 14                  1.9260446     110.3542281
  25 BEND      2  1  8                  1.9457656     111.4841592
  26 BEND      2  3 12                  1.9370562     110.9851453
  27 BEND      2  1  9                  1.9457548     111.4835395
  28 BEND      2  3 13                  1.9260528     110.3546957
  29 BEND      2  1  4                  1.9338233     110.7999144
  30 BEND      3  2 11                  1.9292024     110.5351576
  31 BEND      3  2 10                  1.9291908     110.5344883
  32 BEND      4  6  7                  1.9047614     109.1347889
  33 BEND      4  1  8                  1.8920385     108.4058214
  34 BEND      4  6 16                  1.8917216     108.3876616
  35 BEND      4  6 15                  1.8917857     108.3913364
  36 BEND      4  1  9                  1.8920664     108.4074200
  37 BEND      5  4  6                  2.1027608     120.4793183
  38 BEND      6  7 17                  1.9588001     112.2309777
  39 BEND      6  7 19                  1.9089729     109.3760907
  40 BEND      6  7 18                  1.9089537     109.3749874
  41 BEND      7  6 15                  1.9618643     112.4065453
  42 BEND      7  6 16                  1.9618296     112.4045587
  43 BEND      8  1  9                  1.8513461     106.0743207
  44 BEND     10  2 11                  1.8549337     106.2798743
  45 BEND     12  3 13                  1.8926883     108.4430497
  46 BEND     12  3 14                  1.8927405     108.4460452
  47 BEND     13  3 14                  1.8880320     108.1762670
  48 BEND     15  6 16                  1.8491793     105.9501694
  49 BEND     17  7 18                  1.9059680     109.2039219
  50 BEND     17  7 19                  1.9060032     109.2059416
  51 BEND     18  7 19                  1.8731706     107.3247690
  52 TORSION   1  4  6  7               3.1415761     179.9990523
  53 TORSION   1  4  6 15              -0.9997284     -57.2802184
  54 TORSION   1  2  3 14               1.0429002      59.7537802
  55 TORSION   1  4  6 16               0.9997780      57.2830585
  56 TORSION   1  2  3 12              -3.1415467    -179.9973652
  57 TORSION   1  2  3 13              -1.0428684     -59.7519595
  58 TORSION   2  1  4  6              -3.1415723    -179.9988338
  59 TORSION   2  1  4  5               0.0000229       0.0013110
  60 TORSION   3  2  1  9               1.0327197      59.1704796
  61 TORSION   3  2  1  8              -1.0326827     -59.1683579
  62 TORSION   3  2  1  4              -3.1415601    -179.9981337
  63 TORSION   4  6  7 17              -3.1414999    -179.9946876
  64 TORSION   4  6  7 18              -1.0233710     -58.6348419
  65 TORSION   4  6  7 19               1.0234985      58.6421444
  66 TORSION   4  1  2 10              -1.0066313     -57.6757241
  67 TORSION   4  1  2 11               1.0066742      57.6781802
  68 TORSION   5  4  1  9               2.1404374     122.6380289
  69 TORSION   5  4  6 15               2.1418617     122.7196368
  70 TORSION   5  4  6 16              -2.1418172    -122.7170863
  71 TORSION   5  4  6  7              -0.0000191      -0.0010924
  72 TORSION   5  4  1  8              -2.1403866    -122.6351171
  73 TORSION   6  4  1  9              -1.0011578     -57.3621159
  74 TORSION   6  4  1  8               1.0012036      57.3647381
  75 TORSION   8  1  2 10               1.1022461      63.1540517
  76 TORSION   8  1  2 11               3.1155516     178.5079559
  77 TORSION   9  1  2 10              -3.1155368    -178.5071108
  78 TORSION   9  1  2 11              -1.1022314     -63.1532065
  79 TORSION  10  2  3 12               1.0244362      58.6958703
  80 TORSION  10  2  3 14              -1.0743022     -61.5529844
  81 TORSION  10  2  3 13               3.1231144     178.9412759
  82 TORSION  11  2  3 12              -1.0243221     -58.6893329
  83 TORSION  11  2  3 14              -3.1230605    -178.9381876
  84 TORSION  11  2  3 13               1.0743561      61.5560727
  85 TORSION  15  6  7 18              -3.1227176    -178.9185394
  86 TORSION  15  6  7 19              -1.0758481     -61.6415531
  87 TORSION  15  6  7 17               1.0423388      59.7216149
  88 TORSION  16  6  7 18               1.0758725      61.6429559
  89 TORSION  16  6  7 19               3.1227421     178.9199422
  90 TORSION  16  6  7 17              -1.0422563     -59.7168898

          INTERNUCLEAR DISTANCES (ANGS.)


 =====================================================
   GAMESS/COSab RESULTS
 =====================================================

   Dielectric Constant                  = INFTY
   Basic Grid Size                      =                 1082
   Number of Segments                   =                   92
   Number of Segments located on spheres=                  266
   Number of Segments of the cavity     =                  690
   Solvent Radius (rsolv)               = 1.40
   Outlying Charge Error Method         = double cavity

 =====================================================

  Total solvated Energy (a.u.)          =  -309.1540927882
  Total Energy corrected (a.u.)         =  -309.1538004512

  Outlying charge effect (a.u.)         =     0.0002923370
  Outlying charge effect (kcal/mol)     =     0.1834443800

  Dielectric Energy (a.u.)              =    -0.0119846701
  Dielectric energy corr. (a.u.)        =    -0.0116923331

  Sum of polarization charges           =     0.0257825068
  Sum of polarization charges(cor.)     =    -0.0257825068

  Total surface area of cavity (A**2)   =  156.28
  Total volume of cavity (A**3)         =  147.54

 =====================================================
 NPS=                   690
NR.  ATOM  (X, Y, Z)(a.u.)                  CHARGE(e)  AREA(A**2) SIGMA(e/A**2)
   1   1  -0.886681  -4.921010  -0.344785   0.000619   0.325193   0.001905
   2   1  -1.444358  -0.451312  -3.701840  -0.000117   0.092912  -0.001259
   3   1  -1.963365  -0.802469  -3.730542  -0.000089   0.046456  -0.001925
   4   1  -1.090625  -4.930860   0.510156   0.000336   0.278737   0.001206
   5   1  -3.273317  -4.495872   0.628848   0.000118   0.139368   0.000849
   6   1  -1.102937  -0.670599   3.717998  -0.000240   0.185824  -0.001290
   7   1  -3.091864  -4.634515  -0.265339   0.000621   0.278737   0.002229
   8   1  -2.034988  -4.939272  -0.326932   0.000527   0.232280   0.002271
   9   1  -1.162102  -0.728454  -3.732021  -0.000112   0.046456  -0.002415
  10   1  -2.416241  -4.865423   0.331957   0.000427   0.185824   0.002299
  11   1  -1.716651  -0.654701   3.732956  -0.000054   0.046456  -0.001171
  12   2  -4.291833   4.466196  -0.325360   0.001483   0.371649   0.003991
  13   2  -3.738197   0.021245  -3.703205   0.000082   0.092912   0.000883
  14   2  -3.190114   0.325094  -3.731210   0.000010   0.046456   0.000205
  15   2  -3.757637   4.495237   0.584388   0.000765   0.232280   0.003292
  16   2  -4.002157   0.295587   3.728790   0.000210   0.139368   0.001507
  17   2  -3.274919   4.522273  -0.237370   0.001356   0.232280   0.005838
  18   2  -5.166641   4.199120   0.198971   0.001062   0.371649   0.002858
  19   2  -5.429416   3.980875   0.774435   0.000307   0.139368   0.002205
  20   2  -5.250529   4.032451  -0.941963   0.000770   0.278737   0.002762
  21   2  -3.994782   0.322353  -3.732955   0.000071   0.046456   0.001536
  22   2  -5.325497   3.854268   1.329318   0.000377   0.185824   0.002029
  23   2  -3.451375   0.187026   3.731979   0.000045   0.046456   0.000965
  24   3  -7.604697  -3.949163  -0.123712   0.002181   0.418105   0.005216
  25   3  -6.808908   1.292511   3.304626   0.000755   0.278737   0.002707
  26   3  -6.912983   1.368625  -3.242620   0.000631   0.232280   0.002716
  27   3  -9.299892  -0.991063  -2.100745   0.001869   0.418105   0.004470
  28   3  -9.373963  -1.344693   1.853307   0.001474   0.371649   0.003967
  29   3  -5.781273  -4.195325   0.010174   0.001612   0.371649   0.004336
  30   3  -9.592875  -0.286073   1.671855   0.001525   0.371649   0.004104
  31   3  -9.503456  -0.090862  -1.815031   0.001145   0.278737   0.004109
  32   3  -7.620532   1.763495  -2.725885   0.000730   0.232280   0.003144
  33   3  -7.667154   1.669078   2.775583   0.000929   0.278737   0.003334
  34   3  -6.479996  -4.169823  -0.545338   0.000983   0.232280   0.004232
  35   3  -6.707874  -4.152244   0.501817   0.001252   0.278737   0.004492
  36   3  -6.970405   2.397722  -2.376732   0.000526   0.232280   0.002263
  37   3  -7.579068   0.822228  -3.287546   0.001354   0.325193   0.004163
  38   3  -8.761619  -0.073302  -2.760903   0.001452   0.278737   0.005210
  39   3  -9.824988  -1.109301  -0.863014   0.001470   0.464561   0.003165
  40   3  -9.799689  -1.393007   0.683367   0.001331   0.464561   0.002866
  41   3  -8.892058  -0.265196   2.653901   0.001900   0.371649   0.005111
  42   3  -7.670950   0.808626   3.252965   0.000860   0.232280   0.003704
  43   3  -6.542368   0.454174   3.656830   0.000907   0.325193   0.002790
  44   3  -6.516739   0.642023  -3.607969   0.000716   0.278737   0.002570
  45   3  -9.270813  -2.186819  -1.358050   0.001269   0.418105   0.003034
  46   3  -8.660138  -3.254044  -0.588224   0.001477   0.418105   0.003532
  47   3  -8.515332  -3.380649   0.554093   0.001682   0.464561   0.003620
  48   3  -9.214139  -2.368550   1.233103   0.000957   0.325193   0.002943
  49   3  -9.980710  -0.611519   0.111153   0.000766   0.278737   0.002747
  50   3  -8.428293   0.768094  -2.808875   0.001260   0.278737   0.004520
  51   3  -7.096857   2.261744   2.488609   0.000567   0.232280   0.002439
  52   3  -8.577097   0.799022   2.670404   0.001411   0.325193   0.004340
  53   3  -5.642252   0.023916   3.708177   0.000103   0.092912   0.001111
  54   3  -5.826596   0.163467  -3.711532   0.000266   0.139368   0.001909
  55   3  -7.953973  -0.019134  -3.324818   0.000672   0.185824   0.003614
  56   3  -9.471184  -2.342214  -0.096236   0.001110   0.464561   0.002390
  57   3  -7.895037   0.128100   3.333405   0.000988   0.232280   0.004253
  58   4   1.111569   1.065004   3.633257  -0.000243   0.139368  -0.001740
  59   4   1.806599   1.040460  -3.559939  -0.000342   0.185824  -0.001842
  60   4   0.338888   1.085281  -3.558866  -0.000576   0.185824  -0.003099
  61   4   0.436971   1.428899   3.456667   0.000025   0.139368   0.000182
  62   4   1.831388   0.285536  -3.687317  -0.001205   0.232280  -0.005187
  63   4   1.227405  -0.448867  -3.744957  -0.001993   0.232280  -0.008580
  64   4   0.465894   0.024192  -3.735000  -0.001553   0.232280  -0.006684
  65   4   0.528604   0.474851   3.717227  -0.001598   0.278737  -0.005732
  66   4   1.805823   0.585808   3.659281  -0.001671   0.325193  -0.005138
  67   4   1.137612  -0.320013   3.762421  -0.002645   0.325193  -0.008133
  68   4   0.982644   0.941402  -3.666417  -0.001086   0.278737  -0.003898
  69   5   1.642254   5.503096  -0.004221   0.004851   0.343589   0.014118
  70   5   1.271726   3.852249   2.843984   0.003733   0.309230   0.012073
  71   5   0.227577   4.192520  -2.428924   0.003903   0.240512   0.016228
  72   5   2.199114   5.221060  -0.984406   0.005863   0.412307   0.014219
  73   5   2.725772   4.569708  -1.754550   0.004618   0.274871   0.016799
  74   5   2.589690   5.212111   0.334167   0.005231   0.343589   0.015224
  75   5   3.176684   4.803794   0.631359   0.003861   0.206154   0.018731
  76   5   1.495987   5.286920   1.202771   0.005674   0.412307   0.013762
  77   5   1.163573   4.703072   2.164443   0.004993   0.377948   0.013212
  78   5   0.602674   5.448747   0.353877   0.005073   0.343589   0.014765
  79   5  -0.220549   5.157409   0.421539   0.004727   0.240512   0.019654
  80   5   0.818334   5.363742  -0.938396   0.006446   0.446666   0.014432
  81   5   0.248738   4.845543  -1.736727   0.004872   0.343589   0.014181
  82   5   2.209215   4.003965   2.574798   0.004754   0.309230   0.015374
  83   5   0.317104   4.119417   2.519086   0.003860   0.240512   0.016051
  84   5   1.066808   4.148820  -2.653708   0.004360   0.343589   0.012689
  85   5   2.099791   3.982580  -2.627735   0.005342   0.377948   0.014134
  86   5   1.723931   2.871419   3.157442   0.003672   0.309230   0.011874
  87   5   0.759978   3.108142   3.107604   0.002827   0.240512   0.011754
  88   5   0.685677   3.082429  -3.102171   0.003011   0.240512   0.012518
  89   5   3.198689   4.801261  -0.570203   0.005505   0.274871   0.020027
  90   5   2.484086   4.761232   1.682109   0.006797   0.446666   0.015216
  91   5   0.139288   4.952241   1.493568   0.006457   0.412307   0.015661
  92   5  -0.273109   5.102103  -0.581175   0.005624   0.309230   0.018186
  93   5   1.593288   4.882531  -1.911601   0.004595   0.343589   0.013375
  94   5   1.647755   3.007496  -3.139876   0.004253   0.377948   0.011252
  95   6   4.394550  -5.230712  -0.423914   0.000729   0.371649   0.001961
  96   6   3.311701  -0.761653  -3.680955  -0.000274   0.139368  -0.001965
  97   6   2.908930  -1.223011  -3.730105  -0.000143   0.046456  -0.003086
  98   6   5.742622  -3.919651   1.834806  -0.000064   0.092912  -0.000687
  99   6   3.945815  -5.318050   0.505970   0.000499   0.278737   0.001790
 100   6   1.674876  -4.881552   0.860309  -0.000111   0.046456  -0.002396
 101   6   3.709285  -1.110997   3.730375  -0.000128   0.139368  -0.000922
 102   6   3.043694  -0.678357   3.646272   0.000010   0.046456   0.000209
 103   6   2.007705  -5.127323  -0.307640   0.000277   0.232280   0.001191
 104   6   3.032125  -5.375734  -0.192637   0.000894   0.371649   0.002407
 105   6   5.246585  -4.893008   0.200780   0.000638   0.464561   0.001373
 106   6   5.849523  -4.341475   0.853017   0.000079   0.185824   0.000423
 107   6   5.427265  -4.573179  -1.150727   0.000040   0.185824   0.000217
 108   6   5.835719  -3.961061  -1.650518  -0.000037   0.092912  -0.000402
 109   6   3.706592  -1.117015  -3.731419  -0.000036   0.046456  -0.000777
 110   6   5.393351  -4.579763   1.193058  -0.000005   0.139368  -0.000038
 111   6   2.290537  -5.200819   0.515414   0.000187   0.139368   0.001340
 112   6   3.149124  -1.074032   3.733581  -0.000112   0.046456  -0.002414
 113   6   5.812777  -4.429203  -0.649982   0.000050   0.185824   0.000267
 114   7   6.287353   3.781266  -0.297440   0.001570   0.371649   0.004225
 115   7   6.612000  -1.577028   3.284748   0.000695   0.325193   0.002137
 116   7   6.816410  -1.791497  -3.103281   0.000618   0.278737   0.002216
 117   7   8.511125   1.618070  -1.996901   0.001176   0.325193   0.003615
 118   7   8.612351   1.605056   1.857393   0.001414   0.371649   0.003804
 119   7   9.048530   0.616107   1.675041   0.001376   0.371649   0.003703
 120   7   8.974942   0.553207  -1.832616   0.001501   0.371649   0.004039
 121   7   7.688406  -1.636269  -2.735867   0.000675   0.232280   0.002905
 122   7   7.574794  -1.700772   2.774772   0.000892   0.278737   0.003201
 123   7   5.921335   3.805803   0.442957   0.000930   0.232280   0.004005
 124   7   7.074752  -2.466685  -2.456851   0.000415   0.185824   0.002235
 125   7   7.244427  -0.824845  -3.337591   0.001077   0.278737   0.003864
 126   7   8.339142   0.524923  -2.671571   0.001853   0.371649   0.004985
 127   7   9.104767   1.472859  -0.858722   0.001290   0.464561   0.002776
 128   7   9.019366   1.743027   0.687932   0.001170   0.464561   0.002519
 129   7   8.336825   0.506019   2.677048   0.002090   0.418105   0.004999
 130   7   7.397704  -0.859251   3.253068   0.000845   0.232280   0.003637
 131   7   6.219582  -0.749849   3.656178   0.000883   0.325193   0.002716
 132   7   6.291228  -0.972847  -3.588731   0.000846   0.325193   0.002602
 133   7   8.336039   2.474655  -1.238336   0.001174   0.418105   0.002808
 134   7   7.515849   3.325299  -0.582830   0.001341   0.418105   0.003208
 135   7   7.346849   3.417300   0.559476   0.001521   0.464561   0.003273
 136   7   8.241845   2.573403   1.238114   0.000892   0.325193   0.002744
 137   7   9.360675   1.017588   0.115073   0.000632   0.278737   0.002267
 138   7   8.134295  -0.653261  -2.807964   0.001247   0.278737   0.004473
 139   7   6.950073  -2.979112  -1.873795   0.000051   0.092912   0.000547
 140   7   7.141679  -2.399496   2.486601   0.000492   0.232280   0.002119
 141   7   8.282130  -0.659114   2.671425   0.001350   0.325193   0.004150
 142   7   5.249214  -0.517978   3.707079   0.000047   0.092912   0.000507
 143   7   5.464339  -0.606537  -3.712586   0.000190   0.139368   0.001364
 144   7   7.602228   0.017297  -3.269525   0.000958   0.232280   0.004126
 145   7   8.499011   2.605499  -0.021914   0.000858   0.418105   0.002053
 146   7   7.474039  -0.146965   3.334452   0.001002   0.232280   0.004314
 147   8  -1.605593  -3.910535   3.611998  -0.002660   0.372926  -0.007133
 148   8  -1.121563  -2.152282   4.027521  -0.002004   0.372926  -0.005375
 149   8  -1.587578  -4.885613   1.876961  -0.001334   0.333671  -0.003998
 150   8  -2.740471  -4.583542   2.129508  -0.001742   0.314043  -0.005546
 151   8  -2.221473  -2.439951   4.031197  -0.003175   0.490692  -0.006471
 152   8  -0.973897  -3.275510   3.855770  -0.002879   0.372926  -0.007721
 153   8  -1.024076  -4.561605   2.718739  -0.002729   0.353299  -0.007723
 154   8  -2.193598  -4.508154   2.850555  -0.001989   0.314043  -0.006335
 155   8  -2.656924  -3.683005   3.504310  -0.002969   0.372926  -0.007962
 156   9  -2.036869  -3.902323  -3.578463  -0.002346   0.333671  -0.007030
 157   9  -2.092026  -2.052342  -4.027476  -0.001964   0.372926  -0.005268
 158   9  -2.363693  -4.769414  -1.945334  -0.001336   0.314043  -0.004254
 159   9  -1.177693  -4.832252  -1.960504  -0.001592   0.314043  -0.005068
 160   9  -1.073984  -2.558450  -4.031136  -0.003244   0.490692  -0.006610
 161   9  -2.465837  -3.121779  -3.855678  -0.002842   0.372926  -0.007622
 162   9  -2.664231  -4.364238  -2.779444  -0.002589   0.353299  -0.007327
 163   9  -1.358016  -4.554294  -2.863445  -0.002610   0.372926  -0.007000
 164   9  -1.003824  -3.763235  -3.613435  -0.002723   0.333671  -0.008160
 165  10  -3.675651   3.502349   3.539102  -0.001713   0.372926  -0.004592
 166  10  -2.624473   1.711238   3.968346  -0.001318   0.353299  -0.003731
 167  10  -3.864283   1.680166   4.029602  -0.000746   0.353299  -0.002111
 168  10  -4.816648   3.486734   2.923688  -0.000915   0.333671  -0.002742
 169  10  -3.191504   4.391984   2.030899  -0.000894   0.353299  -0.002532
 170  10  -3.325932   2.537807   4.031938  -0.001188   0.294415  -0.004034
 171  10  -4.502221   2.703375   3.694430  -0.001030   0.372926  -0.002762
 172  10  -4.162491   4.156143   2.439400  -0.000981   0.412182  -0.002381
 173  10  -2.799945   3.941313   2.997110  -0.001799   0.372926  -0.004824
 174  10  -2.409207   2.929779   3.691006  -0.001941   0.392554  -0.004946
 175  11  -3.373799   3.179742  -3.781354  -0.001944   0.412182  -0.004717
 176  11  -4.426368   2.595073  -3.769431  -0.001069   0.353299  -0.003027
 177  11  -2.877570   1.565985  -4.014301  -0.000985   0.333671  -0.002953
 178  11  -3.270501   4.402919  -1.987778  -0.000866   0.372926  -0.002323
 179  11  -4.537826   4.036322  -2.280274  -0.000551   0.314043  -0.001756
 180  11  -3.820318   1.859062  -4.053624  -0.000996   0.353299  -0.002820
 181  11  -2.388183   2.527314  -3.825217  -0.001881   0.392554  -0.004792
 182  11  -2.597197   3.748243  -3.154547  -0.001647   0.333671  -0.004936
 183  11  -3.621111   4.069413  -2.896616  -0.001334   0.333671  -0.003998
 184  11  -4.654047   3.421086  -3.152652  -0.001135   0.412182  -0.002755
 185  12  -9.485766   2.650291   0.043749  -0.003535   0.608459  -0.005810
 186  12  -8.023317   3.403508   0.292743  -0.001288   0.353299  -0.003646
 187  12  -8.740027   2.273538   1.803830  -0.000696   0.333671  -0.002086
 188  12  -9.990765   1.051116   0.821397  -0.000779   0.353299  -0.002204
 189  12  -9.713759   1.317889  -1.332814  -0.000761   0.372926  -0.002041
 190  12  -8.240817   2.723576  -1.645820  -0.000757   0.353299  -0.002142
 191  12  -8.352376   3.041691   1.168370  -0.001744   0.490692  -0.003554
 192  12  -9.552658   1.870881   1.317951  -0.001711   0.490692  -0.003487
 193  12 -10.099545   1.305179  -0.252087  -0.001832   0.510320  -0.003590
 194  12  -9.237497   2.251433  -1.415985  -0.001816   0.490692  -0.003700
 195  12  -8.298408   3.258731  -0.705313  -0.001868   0.490692  -0.003808
 196  13  -7.127887  -3.003934  -3.575545  -0.002327   0.451437  -0.005155
 197  13  -6.227178  -4.035708  -2.051197  -0.000889   0.353299  -0.002517
 198  13  -5.890506  -1.396165  -4.045087  -0.001196   0.353299  -0.003385
 199  13  -7.852271  -1.443545  -3.671068  -0.000719   0.372926  -0.001928
 200  13  -8.285529  -3.038968  -2.466376  -0.000869   0.412182  -0.002109
 201  13  -6.193281  -3.611431  -3.078807  -0.002108   0.412182  -0.005115
 202  13  -5.952830  -2.617062  -3.852955  -0.002294   0.412182  -0.005565
 203  13  -6.874281  -1.551683  -4.081467  -0.001472   0.431809  -0.003410
 204  13  -8.122620  -2.343490  -3.308496  -0.001402   0.431809  -0.003247
 205  13  -7.386019  -3.808528  -2.267754  -0.001412   0.510320  -0.002766
 206  14  -7.054273  -2.942200   3.642821  -0.002322   0.451437  -0.005144
 207  14  -6.147835  -4.012698   2.131334  -0.001071   0.353299  -0.003032
 208  14  -7.791870  -3.617141   2.153083  -0.000709   0.353299  -0.002007
 209  14  -8.230428  -1.832098   3.340440  -0.000727   0.372926  -0.001949
 210  14  -6.445645  -1.080348   4.059868  -0.000775   0.372926  -0.002077
 211  14  -5.998084  -3.278118   3.418959  -0.002334   0.412182  -0.005662
 212  14  -6.931228  -3.877650   2.502172  -0.001411   0.392554  -0.003594
 213  14  -8.159120  -2.891444   2.883982  -0.001503   0.471065  -0.003191
 214  14  -7.383069  -1.674565   3.934280  -0.001596   0.471065  -0.003388
 215  14  -5.896087  -2.035031   4.020744  -0.002275   0.471065  -0.004829
 216  15   3.679484  -4.340203   3.558893  -0.003417   0.471065  -0.007254
 217  15   3.734162  -2.607607   4.046606  -0.002036   0.412182  -0.004939
 218  15   4.946662  -4.141229   2.925871  -0.001871   0.353299  -0.005297
 219  15   3.476884  -5.266886   2.058697  -0.001526   0.353299  -0.004320
 220  15   2.409372  -5.122534   1.953959  -0.001552   0.294415  -0.005273
 221  15   2.720538  -2.913727   4.029495  -0.003340   0.490692  -0.006806
 222  15   4.497757  -3.451563   3.698868  -0.002392   0.431809  -0.005540
 223  15   4.363796  -4.918228   2.433996  -0.002012   0.412182  -0.004882
 224  15   2.699758  -4.873105   2.905957  -0.002862   0.392554  -0.007292
 225  15   2.512087  -4.051701   3.637760  -0.003023   0.372926  -0.008106
 226  16   3.518475  -4.327872  -3.593580  -0.003431   0.471065  -0.007284
 227  16   4.483735  -3.210454  -3.762157  -0.001626   0.294415  -0.005523
 228  16   2.781464  -2.458511  -4.011689  -0.001863   0.333671  -0.005585
 229  16   2.749454  -5.231070  -1.923861  -0.001770   0.392554  -0.004509
 230  16   4.725465  -4.737045  -2.304573  -0.001184   0.314043  -0.003769
 231  16   3.681585  -2.892933  -4.067756  -0.002346   0.412182  -0.005691
 232  16   2.556566  -3.642925  -3.847486  -0.003247   0.412182  -0.007878
 233  16   2.495323  -4.786444  -2.928340  -0.003362   0.431809  -0.007786
 234  16   3.775541  -5.136053  -2.410247  -0.002483   0.451437  -0.005501
 235  16   4.759649  -4.104530  -3.166438  -0.002620   0.471065  -0.005561
 236  17   9.556164  -2.272493   0.043724  -0.003717   0.608459  -0.006109
 237  17   8.283996  -3.315951   0.290457  -0.001386   0.353299  -0.003922
 238  17   8.707181  -2.141871   1.784383  -0.000769   0.333671  -0.002305
 239  17   9.713994  -0.603945   0.823568  -0.000908   0.353299  -0.002571
 240  17   9.500720  -0.920194  -1.331200  -0.000875   0.372926  -0.002346
 241  17   8.355543  -2.603115  -1.647167  -0.000794   0.353299  -0.002248
 242  17   8.542009  -2.902810   1.140766  -0.001777   0.471065  -0.003772
 243  17   9.457160  -1.497972   1.318816  -0.001920   0.490692  -0.003912
 244  17   9.874445  -0.828212  -0.250074  -0.002066   0.510320  -0.004047
 245  17   9.230878  -1.932751  -1.415835  -0.001999   0.490692  -0.004074
 246  17   8.523366  -3.115465  -0.707169  -0.002025   0.490692  -0.004126
 247  18   6.046242   2.567705  -3.704060  -0.002454   0.451437  -0.005437
 248  18   4.781122   1.136196  -3.935819  -0.001248   0.274788  -0.004543
 249  18   6.509037   0.897811  -3.929687  -0.000532   0.294415  -0.001806
 250  18   7.407570   2.423785  -2.953430  -0.000827   0.353299  -0.002341
 251  18   5.998482   3.685405  -1.975122  -0.000901   0.314043  -0.002867
 252  18   5.638608   1.251673  -4.106852  -0.001411   0.392554  -0.003594
 253  18   6.987211   1.745903  -3.670795  -0.001302   0.412182  -0.003158
 254  18   6.788462   3.234141  -2.620095  -0.001589   0.471065  -0.003373
 255  18   5.451417   3.363904  -2.919924  -0.002179   0.412182  -0.005287
 256  18   4.874449   2.317014  -3.725900  -0.002278   0.392554  -0.005802
 257  19   5.920933   2.406674   3.815325  -0.002454   0.451437  -0.005436
 258  19   6.985867   1.385215   3.723523  -0.000880   0.392554  -0.002242
 259  19   5.123301   0.928728   4.020334  -0.001207   0.333671  -0.003616
 260  19   5.971046   3.682601   2.018611  -0.001079   0.372926  -0.002893
 261  19   7.167501   3.057158   2.433738  -0.001012   0.412182  -0.002456
 262  19   6.081906   1.104362   4.067041  -0.001053   0.353299  -0.002981
 263  19   4.796448   1.958446   3.840744  -0.002172   0.392554  -0.005533
 264  19   5.200732   3.135309   3.180668  -0.001878   0.333671  -0.005627
 265  19   6.230599   3.293197   2.930708  -0.001449   0.314043  -0.004614
 266  19   7.176562   2.340894   3.272390  -0.001379   0.412182  -0.003346
 267   1  -2.505657  -0.861667   3.637585  -0.000116   0.025306  -0.004578
 268   2  -2.862557  -0.520451   3.594271  -0.000070   0.025306  -0.002761
 269   8  -2.463267  -1.158545   3.687321  -0.000130   0.025306  -0.005154
 270   1  -2.505681  -0.861860  -3.637618  -0.000107   0.025305  -0.004215
 271   2  -2.862581  -0.520642  -3.594321  -0.000070   0.025305  -0.002761
 272   9  -2.463289  -1.158732  -3.687336  -0.000157   0.025305  -0.006224
 273   1  -2.310873   0.000304   3.604847  -0.000061   0.028536  -0.002123
 274   2  -2.668990   0.340616   3.646318  -0.000047   0.028536  -0.001636
 275  10  -2.681256   0.638819   3.696742  -0.000059   0.028536  -0.002061
 276   1  -2.310870   0.000141  -3.604923  -0.000059   0.028534  -0.002078
 277   2  -2.668987   0.340452  -3.646411  -0.000049   0.028534  -0.001718
 278  11  -2.681262   0.638649  -3.696850  -0.000078   0.028534  -0.002731
 279   2  -2.892983  -0.059367   3.669876   0.000005   0.096134   0.000049
 280   1  -2.297089  -0.463501   3.671569  -0.000111   0.096134  -0.001157
 281   2  -2.813316   0.024674  -3.671634   0.000005   0.096142   0.000047
 282   1  -2.376774  -0.547905  -3.669937  -0.000096   0.096142  -0.000997
 283   1  -3.711562  -4.120569   1.126245  -0.000102   0.064678  -0.001577
 284   3  -4.512536  -3.905284   1.105643   0.000023   0.064678   0.000349
 285   8  -3.579858  -4.128172   1.401799  -0.000298   0.064678  -0.004610
 286   1  -3.711577  -4.120590  -1.126177  -0.000111   0.064674  -0.001723
 287   3  -4.512551  -3.905303  -1.105564   0.000006   0.064674   0.000089
 288   9  -3.579872  -4.128202  -1.401720  -0.000312   0.064674  -0.004827
 289   3  -4.987738  -4.034470  -0.202632   0.000710   0.563942   0.001259
 290   1  -3.818965  -4.226316   0.202705  -0.000028   0.563942  -0.000050
 291   1  -0.516010  -1.073109   3.651109  -0.000278   0.028962  -0.009588
 292   4  -0.076444  -0.859863   3.610641  -0.000366   0.028962  -0.012642
 293   8  -0.612856  -1.356863   3.702171  -0.000284   0.028962  -0.009810
 294   1  -0.515780  -1.073391  -3.651076  -0.000317   0.028958  -0.010939
 295   4  -0.076217  -0.860142  -3.610595  -0.000406   0.028958  -0.014012
 296   9  -0.612646  -1.357132  -3.702123  -0.000237   0.028958  -0.008196
 297   1  -1.203855   0.415424   3.447140  -0.000515   0.102745  -0.005009
 298   4  -0.758873   0.624814   3.412390  -0.000700   0.102745  -0.006810
 299  10  -1.647580   1.013288   3.471471  -0.000311   0.102745  -0.003030
 300   1  -1.203746   0.415365  -3.447177  -0.000498   0.102745  -0.004848
 301   4  -0.758765   0.624755  -3.412412  -0.000686   0.102745  -0.006673
 302  11  -1.647492   1.013215  -3.471539  -0.000316   0.102745  -0.003080
 303   4  -0.143902   0.025852   3.599002  -0.001531   0.200805  -0.007624
 304   1  -0.671094  -0.498287   3.625528  -0.001044   0.200805  -0.005197
 305   4  -0.038172  -0.192758  -3.625512  -0.001452   0.200848  -0.007227
 306   1  -0.776457  -0.280024  -3.598996  -0.001049   0.200848  -0.005225
 307   1   0.516756  -4.517933   1.064457  -0.000421   0.067902  -0.006202
 308   6   1.358788  -4.675260   1.085007  -0.000268   0.067902  -0.003954
 309  15   1.483306  -4.673331   1.363943  -0.000437   0.067902  -0.006440
 310   1   0.516760  -4.517878  -1.064630  -0.000408   0.067904  -0.006011
 311   6   1.358793  -4.675201  -1.085179  -0.000336   0.067904  -0.004946
 312  16   1.483299  -4.673252  -1.364121  -0.000459   0.067904  -0.006753
 313   6   1.261669  -4.795152   0.193818  -0.001163   0.556001  -0.002093
 314   1   0.042707  -4.693759  -0.193997  -0.001201   0.556001  -0.002161
 315   1   0.019975  -4.521274   1.224901  -0.000435   0.091435  -0.004756
 316   8  -0.099674  -4.510431   1.507791  -0.000566   0.091435  -0.006190
 317  15   1.004969  -4.509422   1.501179  -0.000547   0.091435  -0.005981
 318   8  -1.119428  -1.508998   3.854217  -0.000388   0.071985  -0.005384
 319   8  -2.013255  -1.425338   3.847833  -0.000360   0.071985  -0.004999
 320   1  -1.528823  -1.075914   3.725239  -0.000905   0.156741  -0.005772
 321   8  -2.987015  -4.489651   1.478939  -0.000333   0.069269  -0.004813
 322   8  -1.931707  -4.804949   1.324402  -0.000688   0.153627  -0.004480
 323   8  -0.827999  -4.750611   1.450283  -0.000462   0.069269  -0.006664
 324   1  -2.674713  -4.619126   0.984587  -0.000445   0.152024  -0.002929
 325   1  -1.174975  -4.800399   0.964681  -0.000565   0.152024  -0.003718
 326   1   0.020035  -4.521267  -1.224860  -0.000398   0.091431  -0.004354
 327   9  -0.099619  -4.510436  -1.507737  -0.000545   0.091431  -0.005958
 328  16   1.005010  -4.509390  -1.501161  -0.000568   0.091431  -0.006218
 329   9  -2.013229  -1.425533  -3.847834  -0.000339   0.071995  -0.004703
 330   9  -1.119260  -1.509242  -3.854189  -0.000409   0.071995  -0.005675
 331   1  -1.528716  -1.076150  -3.725243  -0.000901   0.156756  -0.005745
 332   9  -0.827940  -4.750634  -1.450199  -0.000398   0.069270  -0.005752
 333   9  -1.931680  -4.804988  -1.324295  -0.000696   0.153630  -0.004531
 334   9  -2.987023  -4.489688  -1.478848  -0.000402   0.069270  -0.005808
 335   1  -1.174923  -4.800415  -0.964601  -0.000566   0.152023  -0.003724
 336   1  -2.674707  -4.619152  -0.984501  -0.000506   0.152023  -0.003326
 337  10  -2.445599   0.970189   3.739332  -0.000336   0.163365  -0.002057
 338   1  -1.709088   0.135017   3.640080  -0.000221   0.230387  -0.000960
 339  11  -2.307625   1.062345  -3.716211  -0.000404   0.163394  -0.002473
 340   1  -1.834647   0.050860  -3.661289  -0.000159   0.230427  -0.000690
 341   2  -4.639348   0.716967   3.641464   0.000009   0.026352   0.000335
 342   3  -5.086193   0.508108   3.598922   0.000036   0.026352   0.001370
 343  10  -4.514508   0.988097   3.691141  -0.000017   0.026352  -0.000636
 344   2  -5.756140   3.132124   2.023088   0.000026   0.026352   0.000984
 345   3  -6.188373   2.891665   2.001721   0.000071   0.026352   0.002696
 346  10  -5.531126   3.186620   2.217930  -0.000007   0.026352  -0.000254
 347   2  -5.756197   3.131989  -2.023298   0.000019   0.026351   0.000718
 348   3  -6.188430   2.891531  -2.001902   0.000040   0.026351   0.001510
 349  11  -5.531187   3.186476  -2.218143  -0.000006   0.026351  -0.000209
 350   2  -4.639504   0.716832  -3.641531   0.000025   0.026351   0.000958
 351   3  -5.086347   0.507974  -3.598962   0.000063   0.026351   0.002390
 352  11  -4.514659   0.987954  -3.691224  -0.000008   0.026351  -0.000307
 353   2  -6.269919   3.159328   1.502310   0.000063   0.025675   0.002435
 354   3  -6.733491   2.986749   1.522382   0.000017   0.025675   0.000665
 355  12  -7.001192   3.016884   1.385665  -0.000020   0.025675  -0.000781
 356   2  -6.269899   3.159086  -1.502846   0.000034   0.025675   0.001313
 357   3  -6.733470   2.986504  -1.522896   0.000005   0.025675   0.000198
 358  12  -7.001173   3.016660  -1.386189  -0.000028   0.025675  -0.001091
 359   2  -4.756844  -0.108154  -3.607039   0.000013   0.026654   0.000494
 360   3  -5.204128  -0.316104  -3.649508  -0.000009   0.026654  -0.000354
 361  13  -5.327455  -0.587595  -3.703478  -0.000043   0.026654  -0.001622
 362   2  -4.756770  -0.107844   3.607024   0.000004   0.026653   0.000159
 363   3  -5.204053  -0.315790   3.649521  -0.000021   0.026653  -0.000782
 364  14  -5.327383  -0.587271   3.703516  -0.000059   0.026653  -0.002203
 365   3  -5.222540   0.004989   3.673936   0.000106   0.086311   0.001225
 366   2  -4.622089   0.397475   3.672700   0.000110   0.086311   0.001273
 367   3  -6.567963   2.914587   1.819031   0.000150   0.065589   0.002291
 368   2  -5.939902   3.247359   1.749718   0.000146   0.065589   0.002231
 369   3  -6.584112   2.949279  -1.750117   0.000105   0.065527   0.001607
 370   2  -5.923787   3.212274  -1.819361   0.000130   0.065527   0.001977
 371   3  -5.266417   0.099399  -3.672732   0.000127   0.086343   0.001475
 372   2  -4.578450   0.302619  -3.673964   0.000132   0.086343   0.001532
 373   2  -2.368413   4.307392   0.816836   0.000632   0.080821   0.007821
 374   5  -1.453938   4.417019   0.785040   0.002359   0.080821   0.029183
 375  10  -2.380939   4.281929   1.120866   0.000304   0.080821   0.003761
 376   2  -2.368379   4.307335  -0.817127   0.000794   0.080820   0.009824
 377   5  -1.453905   4.416959  -0.785282   0.002107   0.080820   0.026065
 378  11  -2.380917   4.281852  -1.121153   0.000300   0.080820   0.003712
 379   5  -1.061634   4.727312  -0.134987   0.007167   0.384489   0.018640
 380   2  -2.358050   4.471325   0.130819   0.003548   0.427172   0.008305
 381   2  -3.856131  -0.924245   3.457182  -0.000276   0.168411  -0.001639
 382   8  -3.402892  -1.537049   3.487046  -0.000697   0.168411  -0.004136
 383  14  -4.477294  -1.353509   3.492372  -0.000388   0.168411  -0.002305
 384   8  -2.616457  -1.448563   3.744379  -0.000552   0.122046  -0.004523
 385   2  -3.347626  -0.586734   3.651820   0.000039   0.172004   0.000225
 386   2  -3.856215  -0.924492  -3.457167  -0.000280   0.168409  -0.001663
 387   9  -3.402968  -1.537282  -3.487002  -0.000658   0.168409  -0.003907
 388  13  -4.477373  -1.353769  -3.492307  -0.000429   0.168409  -0.002548
 389   9  -2.716270  -1.518494  -3.727395  -0.000589   0.122062  -0.004827
 390   2  -3.256800  -0.523445  -3.667307   0.000057   0.172027   0.000334
 391  10  -3.098425   4.386318   1.306018   0.000023   0.075626   0.000299
 392  10  -4.253593   4.189686   1.615592  -0.000305   0.171502  -0.001779
 393  10  -5.133591   3.583435   2.187410  -0.000103   0.075626  -0.001362
 394   2  -3.637388   4.348486   0.992573   0.000143   0.162514   0.000877
 395   2  -5.049947   3.791224   1.604326  -0.000173   0.162514  -0.001063
 396  10  -4.002767   1.107103   3.848813  -0.000109   0.071666  -0.001523
 397  10  -3.121833   0.932978   3.851277  -0.000136   0.071666  -0.001903
[...]
 433  12  -7.492336   2.879516  -1.557900  -0.000114   0.068861  -0.001660
 434  12  -8.193051   2.158908  -2.034603  -0.000331   0.152924  -0.002167
 435  12  -9.126329   1.199202  -1.904815  -0.000171   0.152924  -0.001121
 436  12  -9.811253   0.494955  -0.986226  -0.000281   0.152924  -0.001839
 437  12  -9.964163   0.337829   0.340732  -0.000315   0.152924  -0.002058
 438  12  -9.521732   0.792898   1.526505  -0.000208   0.152924  -0.001357
 439  12  -8.667192   1.671696   2.080007  -0.000255   0.152924  -0.001664
 440  12  -7.754447   2.610271   1.772007  -0.000380   0.152924  -0.002483
 441   3  -7.419801   2.475188  -1.991116  -0.000206   0.150902  -0.001363
 442   3  -8.445152   1.420759  -2.336960   0.000048   0.150902   0.000320
 443   3  -9.405132   0.433638  -1.715023   0.000053   0.150902   0.000352
 444   3  -9.902167  -0.077361  -0.382879  -0.000070   0.150902  -0.000463
 445   3  -9.730412   0.099390   1.107770  -0.000043   0.150902  -0.000287
 446   3  -8.960999   0.890691   2.139574   0.000065   0.150902   0.000429
 447   3  -7.912578   1.968826   2.285216  -0.000181   0.150902  -0.001201
 448   3  -7.134688   2.768708   1.772796  -0.000005   0.084129  -0.000063
 449  13  -5.846474  -3.999258  -1.520993  -0.000080   0.066630  -0.001194
 450  13  -6.913486  -3.967160  -1.388972  -0.000141   0.146811  -0.000958
 451  13  -8.065115  -3.404456  -1.621184  -0.000225   0.146811  -0.001533
 452  13  -8.647297  -2.415922  -2.238170  -0.000257   0.146811  -0.001751
 453  13  -8.435761  -1.382366  -3.002252  -0.000145   0.146811  -0.000991
 454  13  -7.511997  -0.701938  -3.619087  -0.000251   0.146811  -0.001710
 455  13  -6.231860  -0.636757  -3.851055  -0.000353   0.146811  -0.002405
 456   3  -6.178556  -4.030924  -1.036388  -0.000021   0.147139  -0.000144
 457   3  -7.614177  -3.745574  -1.030594   0.000009   0.147139   0.000061
 458   3  -8.638889  -2.828766  -1.532485  -0.000013   0.147139  -0.000091
 459   3  -8.857947  -1.633676  -2.348720   0.000029   0.147139   0.000196
 460   3  -8.186966  -0.620683  -3.164865   0.000073   0.147139   0.000494
 461   3  -6.884422  -0.180015  -3.666522  -0.000011   0.147139  -0.000075
 462   3  -5.706710  -0.306845  -3.747383  -0.000038   0.081403  -0.000473
 463  14  -5.820382  -0.709702   3.858792  -0.000139   0.066629  -0.002093
 464  14  -6.886650  -0.584348   3.793052  -0.000291   0.146809  -0.001980
 465  14  -8.045844  -0.976530   3.346674  -0.000136   0.146809  -0.000926
 466  14  -8.643007  -1.878083   2.620457  -0.000240   0.146809  -0.001636
 467  14  -8.448098  -2.941705   1.894157  -0.000244   0.146809  -0.001663
 468  14  -7.536200  -3.757663   1.447565  -0.000205   0.146809  -0.001397
 469  14  -6.258598  -4.011631   1.452716  -0.000199   0.146809  -0.001359
 470   3  -6.148476  -0.238167   3.731801  -0.000191   0.147136  -0.001300
 471   3  -7.586934  -0.311404   3.471184  -0.000035   0.147136  -0.000240
 472   3  -8.624971  -1.076024   2.778160   0.000144   0.147136   0.000976
 473   3  -8.862710  -2.237475   1.919698  -0.000006   0.147136  -0.000043
 474   3  -8.208568  -3.348339   1.226499  -0.000021   0.147136  -0.000143
 475   3  -6.914536  -3.980684   0.965600   0.000080   0.147136   0.000545
 476   3  -5.736196  -4.027743   1.103142   0.000078   0.081401   0.000963
 477   4  -0.156989   1.882470   3.165999   0.000423   0.111362   0.003797
 478   5  -0.100047   2.266522   3.073210   0.001245   0.111362   0.011177
 479  10  -1.083879   2.170635   3.195061   0.000352   0.111362   0.003158
 480   4  -0.156896   1.882478  -3.165980   0.000470   0.111364   0.004219
 481   5  -0.099957   2.266529  -3.073185   0.001283   0.111364   0.011519
 482  11  -1.083808   2.170619  -3.195086   0.000374   0.111364   0.003358
 483   4   2.499525   1.669120  -3.176887   0.000415   0.110396   0.003759
 484   5   2.507188   2.057394  -3.084745   0.001190   0.110396   0.010783
 485  18   3.454151   1.812895  -3.209113   0.000266   0.110396   0.002411
 486   4   2.499633   1.669066   3.176916   0.000429   0.110400   0.003889
 487   5   2.507294   2.057341   3.084777   0.001185   0.110400   0.010733
 488  19   3.454294   1.812809   3.209138   0.000291   0.110400   0.002635
 489   5   1.030683   2.283352   3.170775   0.002096   0.229940   0.009114
 490   4   1.339275   1.704451   3.298299   0.000824   0.245354   0.003357
 491   5   1.396650   2.253217  -3.172441   0.001929   0.229914   0.008391
 492   4   0.996309   1.732749  -3.296660   0.001065   0.245325   0.004340
 493   4   2.002665  -1.040108   3.608885  -0.000396   0.029007  -0.013667
 494   6   2.402716  -1.323280   3.649565  -0.000320   0.029007  -0.011036
 495  15   2.452106  -1.618865   3.700208  -0.000240   0.029007  -0.008275
 496   4   2.002825  -1.039775  -3.608888  -0.000364   0.029010  -0.012555
 497   6   2.402878  -1.322943  -3.649574  -0.000280   0.029010  -0.009643
 498  16   2.452245  -1.618530  -3.700239  -0.000284   0.029010  -0.009804
 499   4   2.905730   0.308654  -3.419598  -0.000730   0.103913  -0.007028
 500   6   3.311721   0.028022  -3.453169  -0.000553   0.103913  -0.005323
 501  18   3.837405   0.558813  -3.480015  -0.000398   0.103913  -0.003834
 502   4   2.905795   0.308619   3.419624  -0.000721   0.103912  -0.006940
 503   6   3.311787   0.027987   3.453192  -0.000551   0.103912  -0.005306
 504  19   3.837508   0.558746   3.480044  -0.000411   0.103912  -0.003951
 505   6   2.784237  -0.590455   3.602013  -0.001083   0.198947  -0.005445
 506   4   2.069968  -0.380077   3.627174  -0.001488   0.198947  -0.007478
 507   6   2.646182  -0.786137  -3.627160  -0.001037   0.198883  -0.005217
 508   4   2.208151  -0.184032  -3.601995  -0.001367   0.198883  -0.006873
 509   4   0.909053  -1.654074   3.456599  -0.001742   0.159324  -0.010931
 510   8   0.316938  -2.098368   3.481418  -0.001482   0.159324  -0.009303
 511  15   1.421314  -2.190533   3.480743  -0.001510   0.159324  -0.009480
 512   8  -0.390158  -1.856829   3.729721  -0.001122   0.154925  -0.007242
 513   4   0.353546  -1.038225   3.672391  -0.001524   0.218624  -0.006970
 514   4   0.908968  -1.653969  -3.456598  -0.001732   0.159323  -0.010872
 515   9   0.316862  -2.098285  -3.481413  -0.001506   0.159323  -0.009450
 516  16   1.421228  -2.190412  -3.480773  -0.001485   0.159323  -0.009321
 517   9  -0.491027  -1.733776  -3.749603  -0.001056   0.154834  -0.006822
 518   4   0.445526  -1.150457  -3.654218  -0.001476   0.218496  -0.006754
 519  10  -1.742675   1.665382   3.594890  -0.000460   0.255930  -0.001796
 520   4  -0.343528   1.336615   3.468417  -0.000150   0.362256  -0.000414
 521  11  -1.675085   1.849840  -3.557594  -0.000434   0.255950  -0.001697
 522   4  -0.405976   1.165624  -3.503049  -0.000259   0.362284  -0.000714
 523  15   2.273501  -1.968032   3.748149  -0.001045   0.153081  -0.006827
 524   4   1.444792  -1.236723   3.653590  -0.001423   0.215999  -0.006586
 525  16   2.155447  -2.071401  -3.728465  -0.001107   0.153140  -0.007227
 526   4   1.552345  -1.142141  -3.671550  -0.001329   0.216083  -0.006151
 527  18   4.026383   1.198791  -3.604832  -0.000642   0.260411  -0.002465
 528   4   2.600373   1.090338  -3.476501  -0.000141   0.368417  -0.000382
 529  19   3.986611   1.395858   3.567967  -0.000620   0.260412  -0.002379
 530   4   2.637425   0.907724   3.510714  -0.000306   0.368419  -0.000831
 531   5   4.185640   3.991455  -0.818448   0.002254   0.079318   0.028419
 532   7   5.059684   3.744118  -0.851870   0.000606   0.079318   0.007646
 533  18   5.068897   3.713672  -1.154776   0.000266   0.079318   0.003353
 534   5   4.185641   3.991365   0.818758   0.002064   0.079316   0.026023
 535   7   5.059686   3.744033   0.852179   0.000754   0.079316   0.009511
 536  19   5.068941   3.713553   1.155078   0.000262   0.079316   0.003298
 537   7   5.073937   3.905532  -0.137816   0.003617   0.444465   0.008138
 538   5   3.849844   4.352961   0.142366   0.007472   0.400386   0.018661
 539  10  -1.547434   2.681598   3.373089  -0.000007   0.252406  -0.000028
 540  10  -1.868476   3.739871   2.671436   0.000415   0.508422   0.000817
 541  10  -2.293827   4.351637   1.594336   0.000864   0.252406   0.003422
 542   5  -0.268732   3.306610   2.843882   0.007226   0.621498   0.011628
 543   5  -0.778780   4.447832   1.628371   0.009775   0.621498   0.015728
 544  11  -2.293804   4.351539  -1.594601   0.000826   0.252394   0.003273
 545  11  -1.868431   3.739764  -2.671580   0.000340   0.508395   0.000669
 546  11  -1.547368   2.681554  -3.373153   0.000003   0.252394   0.000014
 547   5  -0.778729   4.447749  -1.628527   0.009462   0.621469   0.015226
 548   5  -0.268651   3.306563  -2.843903   0.007159   0.621469   0.011520
 549  18   3.987421   2.244939  -3.386504  -0.000157   0.249637  -0.000629
 550  18   4.470736   3.242967  -2.694363   0.000117   0.502934   0.000233
 551  18   4.991105   3.788953  -1.626736   0.000744   0.249637   0.002982
 552   5   2.836573   3.057587  -2.859082   0.007086   0.613999   0.011541
 553   5   3.522267   4.112423  -1.656847   0.009633   0.613999   0.015689
 554  19   4.991179   3.788799   1.627017   0.000704   0.249623   0.002821
 555  19   4.470857   3.242780   2.694512   0.000048   0.502905   0.000096
 556  19   3.987580   2.244815   3.386560  -0.000148   0.249623  -0.000594
 557   5   3.522299   4.112290   1.657093   0.009713   0.613969   0.015820
 558   5   2.836660   3.057473   2.859176   0.007195   0.613969   0.011718
 559   6   4.425358  -1.443350   3.632440  -0.000078   0.023912  -0.003275
 560   7   4.824348  -1.152834   3.588583  -0.000035   0.023912  -0.001457
 561  15   4.332488  -1.728327   3.681559  -0.000141   0.023912  -0.005886
 562   6   5.859054  -3.440472   2.196816  -0.000071   0.023912  -0.002952
 563   7   6.238659  -3.122951   2.172371  -0.000011   0.023912  -0.000478
 564  15   5.636889  -3.545340   2.375405  -0.000103   0.023912  -0.004287
 565   6   5.858988  -3.440422  -2.196926  -0.000074   0.023915  -0.003111
 566   7   6.238594  -3.122902  -2.172487  -0.000025   0.023915  -0.001036
 567  16   5.636820  -3.545267  -2.375527  -0.000136   0.023915  -0.005684
 568   6   4.425037  -1.442982  -3.632508  -0.000081   0.023915  -0.003382
 569   7   4.824032  -1.152470  -3.588659  -0.000024   0.023915  -0.001004
 570  16   4.332187  -1.727963  -3.681643  -0.000105   0.023915  -0.004391
 571   6   6.475439  -3.499356   1.397240   0.000002   0.023666   0.000099
 572   7   6.899358  -3.243525   1.416283  -0.000007   0.023666  -0.000284
 573  17   7.169467  -3.209557   1.288724  -0.000035   0.023666  -0.001480
 574   6   6.475285  -3.499176  -1.397816  -0.000013   0.023666  -0.000537
 575   7   6.899201  -3.243342  -1.416874  -0.000015   0.023666  -0.000649
 576  17   7.169324  -3.209391  -1.289340  -0.000047   0.023666  -0.001967
 577   6   4.335724  -0.536398  -3.606200  -0.000059   0.027712  -0.002127
 578   7   4.736300  -0.247581  -3.648059  -0.000050   0.027712  -0.001790
 579  18   4.795660   0.043890  -3.700034  -0.000068   0.027712  -0.002449
 580   6   4.335976  -0.536653   3.606219  -0.000059   0.027710  -0.002116
 581   7   4.736554  -0.247839   3.648072  -0.000055   0.027710  -0.002000
 582  19   4.795935   0.043621   3.700064  -0.000090   0.027710  -0.003256
 583   7   4.842288  -0.590984   3.670140   0.000022   0.102163   0.000215
 584   6   4.337019  -1.105368   3.667287  -0.000075   0.102163  -0.000737
 585   7   6.661435  -3.125032   1.884691   0.000112   0.122804   0.000916
 586   6   6.127218  -3.599094   1.756211  -0.000005   0.122804  -0.000041
 587   7   6.704208  -3.184658  -1.756603   0.000075   0.122721   0.000615
 588   6   6.084215  -3.539235  -1.884989  -0.000038   0.122721  -0.000309
 589   7   4.913834  -0.690736  -3.667322   0.000032   0.102138   0.000317
 590   6   4.264890  -1.004983  -3.670160  -0.000082   0.102138  -0.000804
 591  15   3.844274  -1.920795   3.844502  -0.000335   0.073283  -0.004565
 592  15   2.932786  -1.852334   3.852921  -0.000420   0.073283  -0.005737
 593   6   3.416711  -1.495860   3.722670  -0.000923   0.158905  -0.005811
 594  15   2.135579  -5.003524   1.442971  -0.000425   0.075852  -0.005602
 595  15   3.322059  -5.220620   1.335668  -0.000851   0.171806  -0.004954
 596  15   4.667576  -4.805727   1.711653  -0.000953   0.171806  -0.005545
 597  15   5.338557  -4.015881   2.337996  -0.000357   0.075852  -0.004707
 598   6   2.521475  -5.107177   0.961697  -0.000620   0.163216  -0.003797
 599   6   4.155328  -5.099638   1.044663  -0.000591   0.163216  -0.003618
 600   6   5.350338  -4.234892   1.752180  -0.000757   0.163216  -0.004637
 601  16   2.932833  -1.852007  -3.852949  -0.000381   0.073260  -0.005207
 602  16   3.844052  -1.920450  -3.844559  -0.000345   0.073260  -0.004706
 603   6   3.416629  -1.495512  -3.722698  -0.000901   0.158868  -0.005671
 604  16   5.338475  -4.015798  -2.338145  -0.000358   0.075850  -0.004724
 605  16   4.667487  -4.805641  -1.711883  -0.000957   0.171799  -0.005569
 606  16   3.322008  -5.220526  -1.335925  -0.000798   0.171799  -0.004644
 607  16   2.135565  -5.003430  -1.443178  -0.000512   0.075850  -0.006748
 608   6   5.350255  -4.234842  -1.752353  -0.000775   0.163213  -0.004747
 609   6   4.155260  -5.099581  -1.044917  -0.000580   0.163213  -0.003551
 610   6   2.521458  -5.107115  -0.961922  -0.000710   0.163213  -0.004350
 611  17   7.367333  -3.345993   0.930626  -0.000342   0.186773  -0.001832
 612  17   7.376437  -3.409262  -0.414378  -0.001211   0.380770  -0.003180
 613   6   6.376108  -3.913684   0.476464  -0.000077   0.513260  -0.000151
 614   6   6.367662  -3.855866  -1.053955   0.000184   0.263049   0.000699
 615  18   4.615092   0.401614  -3.745540  -0.000412   0.161589  -0.002550
 616   6   3.765999  -0.323626  -3.644638  -0.000208   0.227842  -0.000915
 617  19   4.493684   0.510987   3.723233  -0.000491   0.161644  -0.003040
 618   6   3.876919  -0.423548   3.665013  -0.000200   0.227919  -0.000878
 619  15   5.457103  -3.434507   2.754437  -0.000714   0.188520  -0.003790
 620  15   4.817510  -2.492370   3.485657  -0.002060   0.384368  -0.005358
 621   7   6.118270  -2.400423   2.881585  -0.000011   0.517949  -0.000022
 622   7   5.306205  -1.315869   3.612042   0.000218   0.265461   0.000821
 623  16   4.514454  -2.121429  -3.698222  -0.000750   0.188541  -0.003976
 624  16   5.236447  -3.075933  -3.066190  -0.002092   0.384415  -0.005443
 625   7   5.635511  -1.727974  -3.364916  -0.000028   0.518006  -0.000055
 626   7   6.372749  -2.801572  -2.544126   0.000233   0.265492   0.000878
 627  17   7.621360  -2.981302  -1.476033  -0.000149   0.069911  -0.002130
 628  17   8.153244  -2.133156  -2.006615  -0.000403   0.156065  -0.002579
 629  17   8.878839  -0.976241  -1.918966  -0.000244   0.156065  -0.001561
 630  17   9.418882  -0.115306  -1.002578  -0.000399   0.156065  -0.002560
 631  17   9.540112   0.077785   0.346734  -0.000429   0.156065  -0.002750
 632  17   9.190167  -0.480370   1.546160  -0.000293   0.156065  -0.001875
 633  17   8.520198  -1.548687   2.077633  -0.000352   0.156065  -0.002256
 634  17   7.819585  -2.665727   1.711592  -0.000449   0.156065  -0.002879
 635   7   7.460803  -2.612957  -1.923078  -0.000279   0.152415  -0.001831
 636   7   8.247681  -1.358254  -2.334137  -0.000030   0.152415  -0.000195
 637   7   9.000250  -0.158407  -1.737119  -0.000050   0.152415  -0.000330
 638   7   9.393455   0.468335  -0.389896  -0.000181   0.152415  -0.001188
 639   7   9.257457   0.251261   1.125626  -0.000140   0.152415  -0.000922
 640   7   8.650998  -0.715866   2.154848  -0.000013   0.152415  -0.000084
 641   7   7.836027  -2.015316   2.253217  -0.000253   0.152415  -0.001657
 642   7   7.245045  -2.957523   1.681686  -0.000050   0.085412  -0.000583
 643  18   5.756791   3.707908  -1.334930  -0.000021   0.067255  -0.000312
 644  18   6.775801   3.409394  -1.575773  -0.000238   0.148675  -0.001604
 645  18   7.608239   2.594838  -2.192189  -0.000303   0.148675  -0.002041
 646  18   7.665509   1.534813  -2.972888  -0.000184   0.148675  -0.001237
 647  18   6.924914   0.649399  -3.608487  -0.000234   0.148675  -0.001575
 648  18   5.679947   0.289478  -3.847103  -0.000388   0.148675  -0.002610
 649   7   6.231628   3.621066  -0.994683   0.000043   0.148029   0.000291
 650   7   7.480554   2.993192  -1.482537  -0.000039   0.148029  -0.000263
 651   7   8.007140   1.883695  -2.309439  -0.000083   0.148029  -0.000559
 652   7   7.602705   0.732259  -3.147695   0.000078   0.148029   0.000526
 653   7   6.427522  -0.004810  -3.665111  -0.000024   0.148029  -0.000159
 654   7   5.237421  -0.150391  -3.747258  -0.000070   0.082167  -0.000855
 655  19   5.257580   0.267146   3.854474  -0.000125   0.067256  -0.001855
 656  19   6.337575   0.388457   3.787765  -0.000272   0.148678  -0.001832
 657  19   7.383523   1.044490   3.327203  -0.000185   0.148678  -0.001244
 658  19   7.743430   2.069381   2.581166  -0.000208   0.148678  -0.001396
 659  19   7.274659   3.056948   1.845320  -0.000266   0.148678  -0.001787
 660  19   6.162993   3.615804   1.411291  -0.000189   0.148678  -0.001271
 661   7   5.689281  -0.116697   3.731662  -0.000222   0.148031  -0.001497
 662   7   7.088103   0.287674   3.463474   0.000009   0.148031   0.000059
 663   7   7.920180   1.282555   2.749330   0.000060   0.148031   0.000407
 664   7   7.855748   2.473660   1.872254  -0.000029   0.148031  -0.000197
 665   7   6.920341   3.388935   1.179845  -0.000027   0.148031  -0.000182
 666   7   5.800746   3.729468   0.906170   0.000176   0.082168   0.002142
 667  14  -5.159694  -3.952694   2.011106   0.000116   0.251169   0.000460
 668  14  -5.065358  -3.423334   2.993591  -0.000815   0.502181  -0.001623
 669  14  -4.862759  -2.252814   3.668337  -0.000806   0.502181  -0.001604
 670   8  -3.596737  -4.037405   2.393990  -0.001252   0.502181  -0.002493
 671   8  -3.442227  -3.156875   3.427063  -0.001563   0.502181  -0.003113
 672   8  -3.261027  -2.103696   3.762291  -0.000444   0.251169  -0.001766
 673  15   1.614076  -2.730320   3.744378  -0.000784   0.251355  -0.003117
 674  15   1.527162  -3.769983   3.377544  -0.002297   0.502499  -0.004572
 675  15   1.455835  -4.619458   2.331131  -0.001878   0.502499  -0.003738
 676   8   0.004651  -3.004900   3.632036  -0.002118   0.502499  -0.004216
 677   8  -0.091392  -4.152275   2.927775  -0.002159   0.502499  -0.004296
 678   8  -0.133680  -4.654076   1.943180  -0.000439   0.251355  -0.001745
 679  13  -4.792313  -1.842493  -3.768308  -0.000185   0.251173  -0.000736
 680  13  -4.973480  -2.895667  -3.432981  -0.000939   0.502190  -0.001869
 681  13  -5.127935  -3.776118  -2.399803  -0.000468   0.502190  -0.000933
 682   9  -3.331612  -2.514562  -3.662084  -0.001438   0.502190  -0.002863
 683   9  -3.534163  -3.685047  -2.987217  -0.001623   0.502190  -0.003232
 684   9  -3.628453  -4.214323  -2.004660  -0.000294   0.251173  -0.001171
 685  16   1.441845  -4.785504  -1.942515  -0.000554   0.251362  -0.002205
 686  16   1.484087  -4.283691  -2.927149  -0.002213   0.502513  -0.004403
 687  16   1.580074  -3.136268  -3.631424  -0.002184   0.502513  -0.004346
 688   9  -0.119626  -4.487989  -2.331754  -0.001832   0.502513  -0.003646
 689   9  -0.048357  -3.638483  -3.378205  -0.002274   0.502513  -0.004525
 690   9   0.038514  -2.598775  -3.745035  -0.000779   0.251362  -0.003098
 =====================================================


   1 warning(s) detected.
     A line exceeding 80 characters begins with "http://cactus.nci.ni".
 There may be a problem in your input file.

              3777270  WORDS OF DYNAMIC MEMORY USED
 EXECUTION OF GAMESS TERMINATED NORMALLY Thu Nov 24 04:02:35 2016
 DDI: 263640 bytes (0.3 MB / 0 MWords) used by master data server.

 ----------------------------------------
 CPU timing information for all processes
 ========================================
 0: 907.68 + 0.392 = 907.460
 ----------------------------------------
 ddikick.x: exited gracefully.
