----- GAMESS execution script -----

          ******************************************************
          *         GAMESS VERSION =  5 DEC 2014 (R1)          *
          *             FROM IOWA STATE UNIVERSITY             *
          * M.W.SCHMIDT, K.K.BALDRIDGE, J.A.BOATZ, S.T.ELBERT, *
          *   M.S.GORDON, J.H.JENSEN, S.KOSEKI, N.MATSUNAGA,   *
          *          K.A.NGUYEN, S.J.SU, T.L.WINDUS,           *
          *       TOGETHER WITH M.DUPUIS, J.A.MONTGOMERY       *
          *         J.COMPUT.CHEM.  14, 1347-1363(1993)        *
          **************** 64 BIT LINUX VERSION ****************

 EXECUTION OF GAMESS BEGUN Thu Nov 24 02:24:12 2016

            ECHO OF THE FIRST FEW INPUT CARDS -
 INPUT CARD>! SELECT RESTRICTED HARTREE-FOCK AS DEFAULT                                     
 INPUT CARD>$contrl scftyp=rhf $end                                                         
 INPUT CARD>                                                                                
 INPUT CARD>! THEORY: HF OR DFT                                                             
 INPUT CARD> $contrl mplevl=0 $end                                                          
 INPUT CARD>                                                                                
 INPUT CARD> $system timlim=10000 mwords=20 $end                                            
 INPUT CARD> $SCF DIRSCF=.TRUE. $end                                                        
 INPUT CARD>                                                                                
 INPUT CARD>                                                                                
 INPUT CARD>! BASIS SETS                                                                    
 INPUT CARD>! 6-311G(d,p)                                                                   
 INPUT CARD> $BASIS GBASIS=N311 NGAUSS=6 NDFUNC=1 NPFUNC=1 $END                             
 INPUT CARD>                                                                                
 INPUT CARD>! One of the following                                                          
 INPUT CARD> $guess guess=HUCKEL $end                                                       
 INPUT CARD>                                                                                
 INPUT CARD> $statpt projct=.FALSE. $end                                                    
 INPUT CARD> $STATPT IFREEZ(1)=1,2,3 $END                                                   
 INPUT CARD>                                                                                
 INPUT CARD>! Optimize the geometry with COSMO effects                                      
 INPUT CARD> $statpt opttol=0.0005 nstep=50 $end                                            
 INPUT CARD> $contrl nzvar=1 $end                                                           
 INPUT CARD> $zmat dlc=.t. auto=.t. $end                                                    
 INPUT CARD> $contrl runtyp=OPTIMIZE maxit=200 $end                                         
 INPUT CARD>                                                                                
 INPUT CARD>! Run COSMO on perfect conductor                                                
 INPUT CARD> $COSGMS PRFCND=.TRUE. $end                                                     
 INPUT CARD>                                                                                
 INPUT CARD>! Specifying RSOLV                                                              
 INPUT CARD> $COSGMS COSRAD = 1.4 $end                                                      
 INPUT CARD>                                                                                
 INPUT CARD>! available memory                                                              
 INPUT CARD> $SYSTEM MWORDS=40 $END                                                         
 INPUT CARD>                                                                                
 INPUT CARD> $DATA                                                                          
 INPUT CARD>2-Propenoic acid, ethyl ester, ID: C140885                                      
 INPUT CARD>C1                                                                              
 INPUT CARD>O      8.0      3.8163000000    2.1618000000    1.0341000000                    
 INPUT CARD>C      6.0      2.9242000000    1.1343000000    0.9326000000                    
 INPUT CARD>C      6.0      1.4972000000    1.5280000000    0.9989000000                    
 INPUT CARD>O      8.0      3.3456000000    0.0000000000    0.7977000000                    
 INPUT CARD>C      6.0      5.2115000000    1.8573000000    0.9840000000                    
 INPUT CARD>C      6.0      1.0604000000    2.7786000000    1.1072000000                    
 INPUT CARD>C      6.0      5.9422000000    3.1683000000    1.2039000000                    
 INPUT CARD>H      1.0      0.7973000000    0.6828000000    0.9490000000                    
 INPUT CARD>H      1.0      5.4668000000    1.1141000000    1.7628000000                    
 INPUT CARD>H      1.0      5.4557000000    1.4148000000    0.0000000000                    
 INPUT CARD>H      1.0      1.7078000000    3.6503000000    1.1601000000                    
 INPUT CARD>H      1.0      0.0000000000    3.0129000000    1.1504000000                    
   40000000 WORDS OF MEMORY AVAILABLE

     BASIS OPTIONS
     -------------
     GBASIS=N311         IGAUSS=       6      POLAR=POPN311 
     NDFUNC=       1     NFFUNC=       0     DIFFSP=       F
     NPFUNC=       1      DIFFS=       F     BASNAM=        


     RUN TITLE
     ---------
 2-Propenoic acid, ethyl ester, ID: C140885                                      

 THE POINT GROUP OF THE MOLECULE IS C1      
 THE ORDER OF THE PRINCIPAL AXIS IS     0

 ATOM      ATOMIC                      COORDINATES (BOHR)
           CHARGE         X                   Y                   Z
 O           8.0     7.2117612869        4.0852096403        1.9541656439
 C           6.0     5.5259367333        2.1435161879        1.7623584561
 C           6.0     2.8292977488        2.8875013092        1.8876472891
 O           8.0     6.3222672645        0.0000000000        1.5074344204
 C           6.0     9.8483069850        3.5097880770        1.8594903719
 C           6.0     2.0038654374        5.2507926295        2.0923046136
 C           6.0    11.2291297642        5.9872188469        2.2750411166
 H           1.0     1.5066785300        1.2903049044        1.7933499623
 H           1.0    10.3307540297        2.1053437229        3.3312089712
 H           1.0    10.3097780712        2.6735843274        0.0000000000
 H           1.0     3.2272740418        6.8980667730        2.1922711184
 H           1.0     0.0000000000        5.6935554284        2.1739407763
 H           1.0    10.7988391568        6.8202100623        4.1258387490
 H           1.0    13.2774037623        5.6761699493        2.1886806390
 H           1.0    10.7500842264        7.4022456665        0.8352588866

          INTERNUCLEAR DISTANCES (ANGS.)




     $CONTRL OPTIONS
     ---------------
 SCFTYP=RHF          RUNTYP=OPTIMIZE     EXETYP=RUN     
 MPLEVL=       0     CITYP =NONE         CCTYP =NONE         VBTYP =NONE    
 DFTTYP=NONE         TDDFT =NONE    
 MULT  =       1     ICHARG=       0     NZVAR =       1     COORD =UNIQUE  
 PP    =NONE         RELWFN=NONE         LOCAL =NONE         NUMGRD=       F
 ISPHER=      -1     NOSYM =       0     MAXIT =     200     UNITS =ANGS    
 PLTORB=       F     MOLPLT=       F     AIMPAC=       F     FRIEND=        
 NPRINT=       7     IREST =       0     GEOM  =INPUT   
 NORMF =       0     NORMP =       0     ITOL  =      20     ICUT  =       9
 INTTYP=BEST         GRDTYP=BEST         QMTTOL= 1.0E-06

     $SYSTEM OPTIONS
     ---------------
  REPLICATED MEMORY=    40000000 WORDS (ON EVERY NODE).
 DISTRIBUTED MEMDDI=           0 MILLION WORDS IN AGGREGATE,
 MEMDDI DISTRIBUTED OVER   1 PROCESSORS IS           0 WORDS/PROCESSOR.
 TOTAL MEMORY REQUESTED ON EACH PROCESSOR=    40000000 WORDS.
 TIMLIM=       10000.00 MINUTES, OR       6.9 DAYS.
 PARALL= F  BALTYP=  DLB     KDIAG=    0  COREFL= F
 MXSEQ2=     300 MXSEQ3=     150  mem10=         0

     $COSGMS OPTIONS
     ---------------
     EPSI  =   INFTY     NSPA  =      92     COSRAD=    1.40
     DISEX =   10.00     OUTCHG=DBLCAV       COSBUG=       F
     COSWRT=       F     DCOSMO=       F

     SYMMETRY COORDINATES WILL NOT BE USED FOR 
     THE COSMO CALCULATION, EVEN IF SPECIFIED:
         -- SWITCHING TO C1 POINT GROUP --


     DEFINITION OF CAVITY
     ---------------------------
     ATOM         COORDINATES           RADIUS 
     1    7.2118    4.0852    1.9542    1.7200
     2    5.5259    2.1435    1.7624    2.0000
     3    2.8293    2.8875    1.8876    2.0000
     4    6.3223    0.0000    1.5074    1.7200
     5    9.8483    3.5098    1.8595    2.0000
     6    2.0039    5.2508    2.0923    2.0000
     7   11.2291    5.9872    2.2750    2.0000
     8    1.5067    1.2903    1.7933    1.3000
     9   10.3308    2.1053    3.3312    1.3000
    10   10.3098    2.6736    0.0000    1.3000
    11    3.2273    6.8981    2.1923    1.3000
    12    0.0000    5.6936    2.1739    1.3000
    13   10.7988    6.8202    4.1258    1.3000
    14   13.2774    5.6762    2.1887    1.3000
    15   10.7501    7.4022    0.8353    1.3000

          ----------------
          PROPERTIES INPUT
          ----------------

     MOMENTS            FIELD           POTENTIAL          DENSITY
 IEMOM =       1   IEFLD =       0   IEPOT =       0   IEDEN =       0
 WHERE =COMASS     WHERE =NUCLEI     WHERE =NUCLEI     WHERE =NUCLEI  
 OUTPUT=BOTH       OUTPUT=BOTH       OUTPUT=BOTH       OUTPUT=BOTH    
 IEMINT=       0   IEFINT=       0                     IEDINT=       0
                                                       MORB  =       0
          EXTRAPOLATION IN EFFECT
          SOSCF IN EFFECT
 ORBITAL PRINTING OPTION: NPREO=     1   181     2     1

     -------------------------------
     INTEGRAL TRANSFORMATION OPTIONS
     -------------------------------
     NWORD  =            0
     CUTOFF = 1.0E-09     MPTRAN =       0
     DIRTRF =       T     AOINTS =DUP     

          ----------------------
          INTEGRAL INPUT OPTIONS
          ----------------------
 NOPK  =       1 NORDER=       0 SCHWRZ=       T


 -----------------------------------------------
  STATISTICS ON AUTOMATIC COORDINATE GENERATION 
 -----------------------------------------------
  NUMBER OF USER SPECIFIED BONDS                             0
  NUMBER OF BONDS                                           14
  NUMBER OF ANGLES                                          22
  NUMBER OF TORSIONS                                        22
  NUMBER OF EXTRA COORD.                                     0
  NUMBER OF EXTRA COORD. FOR CONSTRAINTS                     0
  NUMBER OF CONSTRAINED COORD.                               0

  TOTAL NUMBER OF PRIMITIVES                                58
 -----------------------------------------------

   --- ENCODED Z MATRIX ---
 COORD  TYPE   I   J   K   L   M   N
    1      1    1   2
    2      1    1   5
    3      1    2   4
    4      1    2   3
    5      1    3   8
    6      1    3   6
    7      1    5   7
    8      1    5  10
    9      1    5   9
   10      1    6  12
   11      1    6  11
   12      1    7  15
   13      1    7  14
   14      1    7  13
   15      2    1   5  10
   16      2    1   2   4
   17      2    1   2   3
   18      2    1   5   7
   19      2    1   5   9
   20      2    2   1   5
   21      2    2   3   6
   22      2    2   3   8
   23      2    3   2   4
   24      2    3   6  11
   25      2    3   6  12
   26      2    5   7  15
   27      2    5   7  13
   28      2    5   7  14
   29      2    6   3   8
   30      2    7   5   9
   31      2    7   5  10
   32      2    9   5  10
   33      2   11   6  12
   34      2   13   7  14
   35      2   13   7  15
   36      2   14   7  15
   37      3    1   5   7  15
   38      3    1   2   3   6
   39      3    1   5   7  13
   40      3    1   2   3   8
   41      3    1   5   7  14
   42      3    2   1   5   7
   43      3    2   1   5   9
   44      3    2   3   6  11
   45      3    2   3   6  12
   46      3    2   1   5  10
   47      3    3   2   1   5
   48      3    4   2   3   8
   49      3    4   2   3   6
   50      3    4   2   1   5
   51      3    8   3   6  12
   52      3    8   3   6  11
   53      3    9   5   7  15
   54      3    9   5   7  14
   55      3    9   5   7  13
   56      3   10   5   7  15
   57      3   10   5   7  14
   58      3   10   5   7  13

          INDEP./SYM. INTERNAL COORDINATES
          --------------------------------
 CRD  1=  -0.1211 ( 15) -0.2566 ( 16)  0.4707 ( 17)  0.3564 ( 18) -0.1254 ( 19)
          -0.5302 ( 20)  0.3222 ( 21) -0.1760 ( 22) -0.2141 ( 23) -0.1463 ( 29)
 CRD  2=  -0.1860 (  2) -0.2014 (  4) -0.1128 (  6) -0.2019 ( 15) -0.1810 ( 17)
           0.2874 ( 18) -0.3808 ( 20) -0.3674 ( 21)  0.1603 ( 22)  0.1440 ( 23)
          -0.1404 ( 24)  0.1062 ( 26)  0.2070 ( 29) -0.1133 ( 30)  0.1236 ( 38)
           0.2089 ( 42)  0.2056 ( 43)  0.2689 ( 47)  0.1130 ( 49)  0.2788 ( 50)
 CRD  3=  -0.1420 (  2) -0.1459 (  4) -0.1198 ( 17)  0.1752 ( 18) -0.1855 ( 19)
          -0.2918 ( 20) -0.2393 ( 21)  0.1032 ( 23)  0.1154 ( 27)  0.1407 ( 29)
           0.1083 ( 30) -0.1396 ( 31) -0.1960 ( 38) -0.1244 ( 40) -0.3199 ( 42)
          -0.1879 ( 43) -0.2606 ( 46) -0.3616 ( 47) -0.1577 ( 49) -0.3970 ( 50)
          -0.1028 ( 52)
 CRD  4=  -0.4126 (  1) -0.2968 (  2) -0.1395 (  4) -0.2908 (  7)  0.1270 ( 15)
          -0.1483 ( 16) -0.4457 ( 18)  0.1122 ( 19) -0.4057 ( 20)  0.1454 ( 21)
          -0.1486 ( 22)  0.1414 ( 23)  0.1035 ( 24) -0.1008 ( 26) -0.1363 ( 27)
           0.1238 ( 30)  0.1645 ( 31)
 CRD  5=   0.1182 ( 15) -0.1381 ( 19)  0.1857 ( 26) -0.1577 ( 27) -0.1395 ( 30)
           0.1146 ( 31) -0.1863 ( 37)  0.2743 ( 38) -0.1823 ( 39)  0.3827 ( 40)
          -0.2511 ( 41)  0.3446 ( 42)  0.1224 ( 43)  0.1696 ( 44)  0.1619 ( 45)
           0.1204 ( 46) -0.5029 ( 47) -0.1597 ( 50)
 CRD  6=   0.2362 (  2) -0.1279 (  3)  0.3019 (  4)  0.1626 (  5) -0.1115 (  7)
          -0.1052 ( 11)  0.1065 ( 15) -0.3986 ( 16)  0.3029 ( 17) -0.1855 ( 18)
          -0.3271 ( 21)  0.2304 ( 22) -0.3283 ( 24)  0.3196 ( 25) -0.1109 ( 26)
          -0.1215 ( 27)  0.1453 ( 28)
 CRD  7=  -0.1642 (  4) -0.1504 (  6)  0.5628 (  7) -0.1531 ( 18) -0.1002 ( 20)
          -0.1239 ( 23)  0.4619 ( 28)  0.2370 ( 30)  0.2308 ( 31) -0.1698 ( 32)
          -0.2233 ( 34) -0.2192 ( 36)  0.1495 ( 43) -0.1473 ( 46)
 CRD  8=  -0.2564 (  3) -0.4023 (  4) -0.4710 (  6) -0.2595 (  7) -0.1096 ( 10)
           0.1845 ( 16)  0.2292 ( 17) -0.4137 ( 23) -0.1048 ( 24) -0.1168 ( 25)
          -0.1500 ( 27)  0.2216 ( 33)
 CRD  9=  -0.1044 ( 12) -0.4831 ( 26)  0.4600 ( 27)  0.1406 ( 30) -0.1587 ( 31)
          -0.1650 ( 34)  0.1850 ( 36)  0.2937 ( 38)  0.3161 ( 40)  0.1623 ( 41)
          -0.1085 ( 42)  0.1938 ( 44)  0.1034 ( 45) -0.1304 ( 47)  0.1530 ( 48)
           0.1305 ( 49)  0.1698 ( 52)
 CRD 10=  -0.1904 (  4)  0.4228 (  6)  0.1365 ( 10)  0.1485 ( 16) -0.4818 ( 22)
          -0.2416 ( 23) -0.1619 ( 24)  0.3682 ( 25)  0.4839 ( 29) -0.2063 ( 33)
 CRD 11=  -0.1168 (  3) -0.1002 (  6)  0.1755 (  7)  0.1556 (  9) -0.1661 ( 13)
          -0.1033 ( 16)  0.1244 ( 17) -0.1972 ( 18)  0.2526 ( 19)  0.3723 ( 26)
           0.2404 ( 27) -0.4519 ( 28)  0.2460 ( 31) -0.1231 ( 32) -0.2997 ( 35)
           0.1372 ( 39) -0.1331 ( 43) -0.1826 ( 46)
 CRD 12=  -0.1023 (  7) -0.1447 (  8) -0.3367 ( 15)  0.1184 ( 18)  0.2376 ( 19)
          -0.2903 ( 27)  0.2679 ( 28) -0.3340 ( 30)  0.2405 ( 31)  0.1771 ( 35)
           0.2062 ( 37)  0.1764 ( 39)  0.1113 ( 40)  0.1700 ( 41) -0.2908 ( 43)
           0.1290 ( 44) -0.2647 ( 46) -0.1127 ( 47)  0.1175 ( 48) -0.1185 ( 50)
           0.1075 ( 52)
 CRD 13=  -0.2889 (  8)  0.2900 (  9)  0.1786 ( 12) -0.1795 ( 14)  0.1088 ( 15)
          -0.1083 ( 19)  0.3120 ( 26) -0.3144 ( 27)  0.3477 ( 30) -0.3434 ( 31)
           0.1806 ( 34) -0.1813 ( 36)  0.1637 ( 38)  0.1376 ( 40)  0.1009 ( 41)
          -0.2867 ( 42)  0.1163 ( 44)  0.1351 ( 48)  0.1611 ( 49)  0.1442 ( 52)
 CRD 14=  -0.1656 (  2)  0.1916 (  3)  0.1089 (  4) -0.4567 (  5) -0.2019 (  6)
           0.3055 ( 10) -0.3432 ( 11)  0.1045 ( 16) -0.1129 ( 17)  0.2705 ( 21)
          -0.4386 ( 24)  0.3095 ( 25) -0.1985 ( 29)  0.1291 ( 33)
 CRD 15=   0.1353 ( 12)  0.1146 ( 13)  0.1592 ( 14)  0.2187 ( 38) -0.1936 ( 44)
          -0.5576 ( 45) -0.1125 ( 46)  0.2285 ( 48)  0.4339 ( 49) -0.2529 ( 50)
          -0.3383 ( 51)
 CRD 16=  -0.1415 (  1)  0.1075 (  2) -0.4410 ( 12) -0.3725 ( 13) -0.4301 ( 14)
           0.1121 ( 23)  0.1588 ( 26)  0.1653 ( 27)  0.2022 ( 28) -0.1181 ( 30)
          -0.1013 ( 31) -0.1984 ( 34) -0.1719 ( 35) -0.1922 ( 36) -0.1038 ( 43)
          -0.2167 ( 45)  0.1617 ( 49) -0.1340 ( 51)
 CRD 17=  -0.5126 ( 10) -0.5666 ( 11)  0.2315 ( 24)  0.2640 ( 25) -0.4955 ( 33)
 CRD 18=   0.3277 (  1) -0.3342 (  2)  0.1791 (  3)  0.2125 (  4)  0.2820 (  5)
          -0.1688 (  7) -0.2601 (  8) -0.2444 (  9) -0.1873 ( 12) -0.2755 ( 13)
          -0.1928 ( 14)  0.2108 ( 16) -0.1405 ( 18)  0.1376 ( 22) -0.2948 ( 23)
           0.1557 ( 30)  0.1590 ( 31) -0.1343 ( 32)
 CRD 19=   0.1992 (  1)  0.2304 (  3)  0.5356 (  8)  0.5473 (  9) -0.2047 ( 13)
           0.1760 ( 16) -0.1702 ( 20) -0.1423 ( 23)  0.2108 ( 32) -0.1282 ( 43)
           0.1180 ( 46)  0.1270 ( 55) -0.1299 ( 56)
 CRD 20=   0.5477 ( 12) -0.5567 ( 14) -0.2899 ( 34)  0.2944 ( 36) -0.2219 ( 41)
          -0.2233 ( 54) -0.2215 ( 57)
 CRD 21=   0.1243 (  8)  0.1288 (  9) -0.3155 ( 12)  0.6273 ( 13) -0.3018 ( 14)
           0.1657 ( 34) -0.3191 ( 35)  0.1581 ( 36)  0.1747 ( 37) -0.1752 ( 39)
           0.2069 ( 53) -0.1430 ( 55)  0.1385 ( 56) -0.2114 ( 58)
 CRD 22=  -0.1068 (  1) -0.2436 (  2) -0.2380 (  3)  0.4402 (  8) -0.3924 (  9)
          -0.2161 ( 19)  0.1535 ( 20) -0.1136 ( 42) -0.1577 ( 43)  0.2019 ( 44)
           0.1291 ( 45) -0.1220 ( 46)  0.1460 ( 47)  0.1007 ( 48)  0.1636 ( 49)
           0.1962 ( 51)  0.2690 ( 52)  0.1866 ( 53)  0.1668 ( 54)  0.1801 ( 55)
 CRD 23=  -0.1985 (  1) -0.4692 (  2) -0.4306 (  3)  0.1422 (  5) -0.1751 (  8)
           0.2443 (  9) -0.2068 ( 15)  0.1561 ( 17)  0.1445 ( 18)  0.2829 ( 20)
           0.1969 ( 32) -0.1163 ( 44)  0.1187 ( 46) -0.1132 ( 51) -0.1547 ( 52)
          -0.1569 ( 56) -0.1551 ( 57) -0.1671 ( 58)
 CRD 24=  -0.2708 ( 37) -0.2710 ( 39) -0.1171 ( 40) -0.2557 ( 41)  0.1908 ( 44)
           0.1781 ( 47)  0.1641 ( 49)  0.1853 ( 51)  0.2964 ( 52) -0.3006 ( 53)
          -0.2856 ( 54) -0.3008 ( 55) -0.3012 ( 56) -0.2862 ( 57) -0.3014 ( 58)
 CRD 25=  -0.2119 (  2)  0.3602 (  3)  0.2332 (  4) -0.2025 (  6) -0.4561 ( 10)
          -0.2595 ( 16)  0.1315 ( 17)  0.2075 ( 20) -0.3512 ( 22)  0.1280 ( 23)
          -0.1193 ( 24) -0.1393 ( 25)  0.3501 ( 29)  0.2586 ( 33)
 CRD 26=   0.3978 (  1) -0.1741 (  3) -0.6240 (  5)  0.3853 ( 11) -0.1265 ( 13)
          -0.1599 ( 16)  0.1120 ( 30)  0.1143 ( 31) -0.1737 ( 33)  0.1007 ( 34)
           0.1016 ( 36)
 CRD 27=  -0.2032 (  2) -0.2419 (  5) -0.1039 (  7) -0.1570 (  8) -0.1151 (  9)
           0.2647 ( 11)  0.2157 ( 12)  0.2406 ( 13)  0.2295 ( 14)  0.1584 ( 15)
          -0.1194 ( 18)  0.1571 ( 19) -0.1073 ( 20) -0.1103 ( 23)  0.2050 ( 26)
           0.2108 ( 27)  0.2204 ( 28) -0.1829 ( 30) -0.1722 ( 31)  0.1658 ( 32)
          -0.1246 ( 33) -0.2391 ( 34) -0.2130 ( 35) -0.2279 ( 36) -0.1888 ( 43)
           0.2034 ( 46)
 CRD 28=   0.2150 (  8) -0.2335 (  9)  0.1070 ( 12)  0.3737 ( 40) -0.1671 ( 42)
          -0.2660 ( 44)  0.2755 ( 45)  0.3053 ( 48)  0.1504 ( 50) -0.5643 ( 52)
          -0.1328 ( 53) -0.1299 ( 55) -0.1261 ( 56) -0.1232 ( 58)
 CRD 29=  -0.4283 (  1)  0.1069 (  2) -0.1201 (  3)  0.4017 (  4) -0.4239 ( 10)
           0.3315 ( 11)  0.3209 ( 16) -0.2558 ( 23) -0.2157 ( 24)  0.1551 ( 25)
 CRD 30=   0.3490 (  1) -0.4815 (  3)  0.1594 (  4)  0.3466 (  6) -0.1405 (  7)
          -0.2273 ( 10) -0.2805 ( 11)  0.1036 ( 16) -0.2259 ( 17) -0.1836 ( 20)
          -0.1025 ( 22)  0.1223 ( 23) -0.1405 ( 24) -0.1962 ( 25)  0.3367 ( 33)
 CRD 31=   0.2627 (  8) -0.2556 (  9)  0.1851 ( 12) -0.1746 ( 14) -0.1299 ( 15)
           0.1256 ( 19)  0.1301 ( 34) -0.1429 ( 36)  0.1118 ( 38)  0.1059 ( 40)
           0.1993 ( 41) -0.1248 ( 42)  0.1927 ( 44) -0.2984 ( 45) -0.1910 ( 47)
          -0.3248 ( 48) -0.3189 ( 49)  0.2078 ( 50) -0.2921 ( 51)  0.1989 ( 52)
          -0.1607 ( 53) -0.1600 ( 55) -0.1609 ( 56) -0.1602 ( 58)
 CRD 32=  -0.2510 (  2)  0.1506 (  3) -0.1165 (  4) -0.2113 (  5)  0.3693 (  6)
           0.4459 (  7) -0.2066 ( 11) -0.1525 ( 12) -0.1736 ( 14)  0.1479 ( 15)
           0.1660 ( 17)  0.1660 ( 19) -0.1618 ( 21)  0.1811 ( 22) -0.1119 ( 23)
          -0.1649 ( 25) -0.1031 ( 26) -0.1013 ( 27) -0.1161 ( 28) -0.1339 ( 30)
          -0.1391 ( 31)  0.1691 ( 33)  0.2066 ( 35) -0.1145 ( 43)  0.1249 ( 46)
          -0.1378 ( 53)  0.1202 ( 58)
 CRD 33=  -0.1464 (  1)  0.2126 (  2)  0.2429 (  3) -0.3542 (  4)  0.4098 (  6)
          -0.1897 (  7) -0.2413 ( 10)  0.1261 ( 12) -0.1287 ( 13)  0.1215 ( 14)
          -0.1340 ( 15)  0.1611 ( 17) -0.1352 ( 19)  0.1178 ( 20)  0.2393 ( 22)
          -0.2091 ( 24) -0.2332 ( 29)  0.1805 ( 33) -0.1709 ( 35)  0.1820 ( 53)
          -0.1848 ( 58)
 CRD 34=  -0.2762 (  1)  0.1397 (  2)  0.3320 (  4) -0.3364 (  5) -0.1821 (  7)
           0.2532 ( 10) -0.2845 ( 11)  0.1197 ( 16) -0.3297 ( 21) -0.2129 ( 23)
           0.2810 ( 24) -0.3026 ( 25)  0.2779 ( 29)
 CRD 35=   0.1778 (  2) -0.1005 (  3)  0.1235 (  4)  0.3523 (  7) -0.2061 (  8)
          -0.2200 (  9) -0.3429 ( 13) -0.1798 ( 20) -0.1137 ( 30) -0.1142 ( 31)
           0.3034 ( 32)  0.1890 ( 34) -0.1363 ( 35)  0.1704 ( 36)  0.1560 ( 37)
          -0.1564 ( 39) -0.1863 ( 43)  0.1946 ( 46)  0.2644 ( 53)  0.1217 ( 54)
          -0.1084 ( 57) -0.2781 ( 58)
 CRD 36=  -0.2902 ( 12)  0.2985 ( 14)  0.1281 ( 26) -0.1377 ( 27) -0.2128 ( 34)
           0.2267 ( 36)  0.1976 ( 40) -0.2815 ( 41) -0.2462 ( 42) -0.1942 ( 43)
           0.1676 ( 44) -0.1773 ( 46) -0.1989 ( 49)  0.2898 ( 50) -0.2586 ( 51)
           0.1185 ( 53) -0.2520 ( 54)  0.1027 ( 55)  0.1194 ( 56) -0.2511 ( 57)
           0.1036 ( 58)
 CRD 37=  -0.2820 (  2)  0.1359 (  8)  0.1563 (  9)  0.1419 ( 12) -0.2596 ( 13)
           0.1205 ( 14)  0.1120 ( 15)  0.2110 ( 18) -0.1136 ( 26)  0.2179 ( 28)
          -0.1020 ( 30) -0.2199 ( 32)  0.1048 ( 34) -0.1955 ( 35)  0.1894 ( 37)
          -0.2131 ( 39) -0.1903 ( 54) -0.4076 ( 55)  0.4074 ( 56)  0.2222 ( 57)
 CRD 38=  -0.2185 (  8)  0.2038 (  9)  0.1355 ( 12) -0.1467 ( 14)  0.1488 ( 15)
          -0.1525 ( 19) -0.1367 ( 26)  0.1452 ( 27) -0.1561 ( 30)  0.1598 ( 31)
           0.1019 ( 34) -0.1088 ( 36) -0.2534 ( 37) -0.1466 ( 38) -0.2365 ( 39)
           0.1581 ( 40) -0.2231 ( 43)  0.2900 ( 44) -0.2110 ( 46)  0.2087 ( 47)
           0.1720 ( 48) -0.1327 ( 49)  0.1958 ( 50) -0.3240 ( 51)  0.2585 ( 54)
           0.2424 ( 57)
 CRD 39=   0.1032 (  8)  0.1259 ( 37) -0.4312 ( 38)  0.1223 ( 39)  0.2325 ( 43)
           0.4166 ( 44)  0.2252 ( 46)  0.4021 ( 48) -0.3279 ( 50) -0.3692 ( 51)

 THE DETERMINANT OF THE G MATRIX IS 10**(   -20)


                     --------------------
                     INTERNAL COORDINATES
                     --------------------

                 - - ATOMS - -         COORDINATE      COORDINATE
 NO.   TYPE    I  J  K  L  M  N        (BOHR,RAD)       (ANG,DEG)
 ----------------------------------------------------------------
   1 STRETCH   1  2                     2.5785593       1.3645149
   2 STRETCH   1  5                     2.7002679       1.4289203
   3 STRETCH   2  4                     2.3008238       1.2175436
   4 STRETCH   2  3                     2.8001916       1.4817977
   5 STRETCH   3  8                     2.0758733       1.0985049
   6 STRETCH   3  6                     2.5116467       1.3291063
   7 STRETCH   5  7                     2.8665340       1.5169046
   8 STRETCH   5 10                     2.0904298       1.1062079
   9 STRETCH   5  9                     2.0907355       1.1063696
  10 STRETCH   6 12                     2.0538208       1.0868353
  11 STRETCH   6 11                     2.0543208       1.0870998
  12 STRETCH   7 15                     2.0747912       1.0979323
  13 STRETCH   7 14                     2.0735563       1.0972788
  14 STRETCH   7 13                     2.0747232       1.0978963
  15 BEND      1  5 10                  1.9091931     109.3887043
  16 BEND      1  2  4                  2.0754374     118.9138034
  17 BEND      1  2  3                  2.0110962     115.2273259
  18 BEND      1  5  7                  1.8557181     106.3248160
  19 BEND      1  5  9                  1.9217319     110.1071258
  20 BEND      2  1  5                  2.0660821     118.3777868
  21 BEND      2  3  6                  2.1774623     124.7594019
  22 BEND      2  3  8                  1.9900945     114.0240150
  23 BEND      3  2  4                  2.1966512     125.8588434
  24 BEND      3  6 11                  2.1684980     124.2457846
  25 BEND      3  6 12                  2.1255495     121.7850156
  26 BEND      5  7 15                  1.9580158     112.1860441
  27 BEND      5  7 13                  1.9567170     112.1116266
  28 BEND      5  7 14                  1.9178709     109.8859087
  29 BEND      6  3  8                  2.1156274     121.2165227
  30 BEND      7  5  9                  1.9469684     111.5530703
  31 BEND      7  5 10                  1.9480085     111.6126635
  32 BEND      9  5 10                  1.8823199     107.8489865
  33 BEND     11  6 12                  1.9891377     113.9691973
  34 BEND     13  7 14                  1.8778469     107.5927039
  35 BEND     13  7 15                  1.8726961     107.2975855
  36 BEND     14  7 15                  1.8770390     107.5464137
  37 TORSION   1  5  7 15              -1.0364182     -59.3823873
  38 TORSION   1  2  3  6               0.0353441       2.0250699
  39 TORSION   1  5  7 13               1.0722280      61.4341365
  40 TORSION   1  2  3  8              -3.1077988    -178.0637533
  41 TORSION   1  5  7 14              -3.1235995    -178.9690703
  42 TORSION   2  1  5  7              -3.0831931    -176.6539539
  43 TORSION   2  1  5  9              -0.9715467     -55.6655234
  44 TORSION   2  3  6 11              -0.0013151      -0.0753484
  45 TORSION   2  3  6 12               3.1399414     179.9053923
  46 TORSION   2  1  5 10               1.0940615      62.6851046
  47 TORSION   3  2  1  5               3.1370910     179.7420757
  48 TORSION   4  2  3  8               0.0348608       1.9973789
  49 TORSION   4  2  3  6              -3.1051816    -177.9137979
  50 TORSION   4  2  1  5              -0.0054895      -0.3145251
  51 TORSION   8  3  6 12               0.0000045       0.0002560
  52 TORSION   8  3  6 11              -3.1412520    -179.9804847
  53 TORSION   9  5  7 15              -3.1317780    -179.4376638
  54 TORSION   9  5  7 14               1.0642259      60.9756531
  55 TORSION   9  5  7 13              -1.0231319     -58.6211401
  56 TORSION  10  5  7 15               1.0443115      59.8346408
  57 TORSION  10  5  7 14              -1.0428699     -59.7520423
  58 TORSION  10  5  7 13              -3.1302277    -179.3488355

     ------------------------------------------
     THE POINT GROUP IS C1 , NAXIS= 1, ORDER= 1
     ------------------------------------------

     DIMENSIONS OF THE SYMMETRY SUBSPACES ARE
 A   =  181

 ..... DONE SETTING UP THE RUN .....
 STEP CPU TIME =     0.01 TOTAL CPU TIME =        0.0 (    0.0 MIN)
 TOTAL WALL CLOCK TIME=        0.0 SECONDS, CPU UTILIZATION IS  50.00%


          -----------------------------
          STATIONARY POINT LOCATION RUN
          -----------------------------

 OBTAINING INITIAL HESSIAN, HESS=GUESS   
 DIAGONAL GUESS HESSIAN IN INTERNAL COORDS IS
     1  0.4090     2  0.3609     3  0.5442     4  0.4032     5  0.3407
     6  0.5426     7  0.3766     8  0.3356     9  0.3355    10  0.3485
    11  0.3483    12  0.3411    13  0.3415    14  0.3411    15  0.2185
    16  0.2569    17  0.2508    18  0.2439    19  0.2185    20  0.2420
    21  0.2670    22  0.2265    23  0.2616    24  0.2367    25  0.2368
    26  0.2244    27  0.2244    28  0.2244    29  0.2360    30  0.2239
    31  0.2239    32  0.2018    33  0.2037    34  0.2026    35  0.2026
    36  0.2026    37  0.2500    38  0.2500    39  0.2500    40  0.2500
    41  0.2500    42  0.2500    43  0.2500    44  0.2500    45  0.2500
    46  0.2500    47  0.2500    48  0.2500    49  0.2500    50  0.2500
    51  0.2500    52  0.2500    53  0.2500    54  0.2500    55  0.2500
    56  0.2500    57  0.2500    58  0.2500
 TRANSFORMING HESSIAN TO SYMMETRY COORDINATES

          PARAMETERS CONTROLLING GEOMETRY SEARCH ARE
          METHOD =QA                  UPHESS =BFGS    
          NNEG   =         0          NFRZ   =         3
          NSTEP  =        50          IFOLOW =         1
          HESS   =GUESS               RESTAR =         F
          IHREP  =         0          HSSEND =         F
          NPRT   =         0          NPUN   =         0
          OPTTOL = 5.000E-04          RMIN   = 1.500E-03
          RMAX   = 1.000E-01          RLIM   = 7.000E-02
          DXMAX  = 3.000E-01          PURIFY =         F
          MOVIE  =         F          TRUPD  =         T
          TRMAX  = 5.000E-01          TRMIN  = 5.000E-02
          ITBMAT =         5          STPT   =         F
          STSTEP = 1.000E-02          PROJCT=          F
          FROZEN COORD(S)=   1   2   3


      ***** EQUILIBRIUM GEOMETRY LOCATED *****
            (SUBJECT TO   3 CONSTRAINT(S))
 COORDINATES OF ALL ATOMS ARE (ANGS)
   ATOM   CHARGE       X              Y              Z
 ------------------------------------------------------------
 O           8.0   3.8072776496   2.1449717436   1.0337977906
 C           6.0   2.9622653099   1.1475204205   0.9335408866
 C           6.0   1.5279350663   1.5324248566   0.9987945628
 O           8.0   3.2991390958   0.0091498407   0.7996903330
 C           6.0   5.2144436357   1.8652569062   0.9829021859
 C           6.0   1.0660482523   2.7646764468   1.1055333742
 C           6.0   5.9387846798   3.1736812833   1.2048544318
 H           1.0   0.8598896203   0.6921128156   0.9458709142
 H           1.0   5.4583926641   1.1400332419   1.7476847568
 H           1.0   5.4521663579   1.4360391062   0.0180320119
 H           1.0   1.7096924730   3.6237669089   1.1583204490
 H           1.0   0.0046371405   2.9411855364   1.1412411509
 H           1.0   5.6925378297   3.5857692960   2.1776427066
 H           1.0   7.0108619572   3.0096857711   1.1607315454
 H           1.0   5.6684504179   3.8949398504   0.4410886293


                     --------------------
                     INTERNAL COORDINATES
                     --------------------

                 - - ATOMS - -         COORDINATE      COORDINATE
 NO.   TYPE    I  J  K  L  M  N        (BOHR,RAD)       (ANG,DEG)
 ----------------------------------------------------------------
   1 STRETCH   1  2                     2.4776365       1.3111089
   2 STRETCH   1  5                     2.7128903       1.4355998
   3 STRETCH   2  4                     2.2576393       1.1946914
   4 STRETCH   2  3                     2.8090970       1.4865102
   5 STRETCH   3  8                     2.0310906       1.0748069
   6 STRETCH   3  6                     2.4949941       1.3202941
   7 STRETCH   5  7                     2.8571176       1.5119217
   8 STRETCH   5 10                     2.0455483       1.0824576
   9 STRETCH   5  9                     2.0443594       1.0818285
  10 STRETCH   6 12                     2.0344408       1.0765798
  11 STRETCH   6 11                     2.0309946       1.0747561
  12 STRETCH   7 15                     2.0498369       1.0847270
  13 STRETCH   7 14                     2.0511938       1.0854451
  14 STRETCH   7 13                     2.0499574       1.0847908
  15 BEND      1  5 10                  1.9008824     108.9125372
  16 BEND      1  2  4                  2.1552431     123.4863322
  17 BEND      1  2  3                  2.0059333     114.9315127
  18 BEND      1  5  7                  1.8710640     107.2040724
  19 BEND      1  5  9                  1.9034833     109.0615610
  20 BEND      2  1  5                  2.0723589     118.7374212
  21 BEND      2  3  6                  2.1929296     125.6456103
  22 BEND      2  3  8                  1.9770062     113.2741108
  23 BEND      3  2  4                  2.1220089     121.5821540
  24 BEND      3  6 11                  2.1418216     122.7173397
  25 BEND      3  6 12                  2.0950986     120.0403079
  26 BEND      5  7 15                  1.9312140     110.6504088
  27 BEND      5  7 13                  1.9301191     110.5876765
  28 BEND      5  7 14                  1.9139603     109.6618447
  29 BEND      6  3  8                  2.1132407     121.0797744
  30 BEND      7  5  9                  1.9480068     111.6125692
  31 BEND      7  5 10                  1.9485055     111.6411401
  32 BEND      9  5 10                  1.8910453     108.3489168
  33 BEND     11  6 12                  2.0462634     117.2422583
  34 BEND     13  7 14                  1.8944689     108.5450731
  35 BEND     13  7 15                  1.8989010     108.7990120
  36 BEND     14  7 15                  1.8944030     108.5412946
  37 TORSION   1  5  7 15              -1.0391131     -59.5367927
  38 TORSION   1  2  3  6               0.0369026       2.1143659
  39 TORSION   1  5  7 13               1.0662135      61.0895313
  40 TORSION   1  2  3  8              -3.1091849    -178.1431720
  41 TORSION   1  5  7 14              -3.1283442    -179.2409198
  42 TORSION   2  1  5  7              -3.0829989    -176.6428267
  43 TORSION   2  1  5  9              -0.9712705     -55.6496995
  44 TORSION   2  3  6 11              -0.0024910      -0.1427255
  45 TORSION   2  3  6 12               3.1370990     179.7425328
  46 TORSION   2  1  5 10               1.0893357      62.4143380
  47 TORSION   3  2  1  5               3.1399901     179.9081788
  48 TORSION   4  2  3  8               0.0322051       1.8452175
  49 TORSION   4  2  3  6              -3.1048926    -177.8972446
  50 TORSION   4  2  1  5              -0.0013956      -0.0799619
  51 TORSION   8  3  6 12               0.0003276       0.0187673
  52 TORSION   8  3  6 11              -3.1392625    -179.8664910
  53 TORSION   9  5  7 15              -3.1224619    -178.9038912
  54 TORSION   9  5  7 14               1.0714922      61.3919817
  55 TORSION   9  5  7 13              -1.0171354     -58.2775672
  56 TORSION  10  5  7 15               1.0413483      59.6648628
  57 TORSION  10  5  7 14              -1.0478828     -60.0392642
  58 TORSION  10  5  7 13              -3.1365105    -179.7088131

          INTERNUCLEAR DISTANCES (ANGS.)


 =====================================================
   GAMESS/COSab RESULTS
 =====================================================

   Dielectric Constant                  = INFTY
   Basic Grid Size                      =                 1082
   Number of Segments                   =                   92
   Number of Segments located on spheres=                  262
   Number of Segments of the cavity     =                  585
   Solvent Radius (rsolv)               = 1.40
   Outlying Charge Error Method         = double cavity

 =====================================================

  Total solvated Energy (a.u.)          =  -343.8193511966
  Total Energy corrected (a.u.)         =  -343.8190899295

  Outlying charge effect (a.u.)         =     0.0002612671
  Outlying charge effect (kcal/mol)     =     0.1639477103

  Dielectric Energy (a.u.)              =    -0.0133956264
  Dielectric energy corr. (a.u.)        =    -0.0131343593

  Sum of polarization charges           =     0.0207576326
  Sum of polarization charges(cor.)     =    -0.0207576326

  Total surface area of cavity (A**2)   =  144.68
  Total volume of cavity (A**3)         =  131.94

 =====================================================
 NPS=                   585
NR.  ATOM  (X, Y, Z)(a.u.)                  CHARGE(e)  AREA(A**2) SIGMA(e/A**2)
   1   1   6.626577   5.558640   4.777787   0.001177   0.103077   0.011417
   2   1   6.928835   5.818547  -0.762700   0.001199   0.103077   0.011635
   3   1   6.558284   5.363955  -0.951934   0.001411   0.137436   0.010263
   4   1   7.167395   5.201843  -1.086970   0.001216   0.137436   0.008846
   5   1   6.621199   4.523314   5.118218   0.000623   0.068718   0.009071
   6   1   6.788924   5.058688   5.017793   0.001267   0.103077   0.012288
   7   1   6.645753   6.160617  -0.459488   0.001955   0.103077   0.018963
   8   1   7.177648   4.354674   5.189877   0.001620   0.171795   0.009428
   9   2   5.556614   4.093769  -1.487922  -0.001466   0.232280  -0.006313
  10   2   4.499479   0.999809  -1.658145  -0.000332   0.185824  -0.001789
  11   2   6.217358   0.611214   5.151666  -0.000223   0.139368  -0.001602
  12   2   5.618703   3.354544   5.352599  -0.001306   0.232280  -0.005624
  13   2   5.305661   1.365464  -1.917447  -0.000702   0.232280  -0.003023
  14   2   6.421990   1.703085  -1.894896  -0.001050   0.278737  -0.003768
  15   2   6.843791   0.891548   5.096003  -0.000351   0.139368  -0.002517
  16   2   4.684233   0.256104   4.893398  -0.000164   0.139368  -0.001179
  17   2   4.790626   2.045338  -1.926051  -0.001143   0.185824  -0.006151
  18   2   5.123365   3.175941  -1.847536  -0.001160   0.232280  -0.004996
  19   2   6.214771   3.257880  -1.801947  -0.002905   0.371649  -0.007817
  20   2   6.358405   2.402078   5.458896  -0.001844   0.232280  -0.007939
  21   2   6.228842   1.353109   5.400241  -0.001805   0.278737  -0.006476
  22   2   5.078971   0.940320   5.300599  -0.001238   0.371649  -0.003330
  23   2   5.443766   2.173322   5.540438  -0.003403   0.418105  -0.008138
  24   2   5.754315   2.304485  -2.009631  -0.002045   0.325193  -0.006287
  25   3   3.950193   3.543721   5.456057   0.000319   0.092912   0.003428
  26   3   2.871917   0.413923   4.737721  -0.000130   0.232280  -0.000559
  27   3   0.426968   1.992943   4.610579   0.001349   0.278737   0.004841
  28   3   1.875697   1.890838  -1.612649   0.001203   0.418105   0.002878
  29   3   1.353416   1.033711  -1.021784   0.000501   0.371649   0.001347
  30   3  -0.487027   2.262186   0.307530  -0.000047   0.092912  -0.000503
  31   3  -0.142792   1.794807   3.859775   0.000260   0.278737   0.000932
  32   3   2.207864   0.023476   4.247954  -0.000260   0.232280  -0.001117
  33   3   2.127856   0.867792   4.984928   0.000529   0.278737   0.001899
  34   3   1.174601   1.656166   5.020158   0.000961   0.232280   0.004136
  35   3  -0.116254   2.257254  -0.315881   0.000301   0.185824   0.001618
  36   3   0.801979   2.393020  -1.224227   0.001999   0.418105   0.004780
  37   3   2.542590   0.847411  -1.269961  -0.000139   0.278737  -0.000500
  38   3   3.044295   1.403326   5.356168   0.000299   0.325193   0.000920
  39   3   3.420957   2.712710   5.624564   0.001441   0.278737   0.005168
  40   3   2.656552   2.960686   5.659292   0.001581   0.185824   0.008506
  41   3   1.482769   2.505701   5.374446   0.001523   0.278737   0.005464
  42   3   1.981621   3.177785  -1.771015   0.003575   0.464561   0.007694
  43   3   2.817645   2.195514  -1.825891   0.000782   0.371649   0.002105
  44   3   0.433521   1.774388  -0.759278   0.000510   0.232280   0.002194
  45   3   1.213835   0.900956   4.626779   0.000710   0.325193   0.002182
  46   3   2.151104   0.298559  -0.757585  -0.000179   0.139368  -0.001281
  47   3   3.346623   3.626203  -1.792213   0.001741   0.418105   0.004163
  48   3   2.301171   1.985483   5.508481   0.001697   0.371649   0.004566
  49   4   7.060789  -3.106697   1.161197   0.005104   0.377948   0.013506
  50   4   4.980808  -1.809063  -0.867328   0.004100   0.274871   0.014915
  51   4   4.116708  -2.346156   2.213973   0.005371   0.309230   0.017370
  52   4   6.793456  -1.725636   4.197162   0.004508   0.343589   0.013119
  53   4   7.890025  -0.914861  -1.125995   0.004466   0.274871   0.016249
  54   4   6.373783  -2.945979   0.182955   0.005722   0.412307   0.013877
  55   4   5.493105  -2.490682  -0.418846   0.005127   0.343589   0.014921
  56   4   5.928916  -3.218643   1.512669   0.006006   0.412307   0.014567
  57   4   4.874364  -2.912297   1.874912   0.005686   0.343589   0.016549
  58   4   7.085849  -3.000396   2.367554   0.005607   0.412307   0.013598
  59   4   7.200131  -2.448212   3.396254   0.005179   0.377948   0.013702
  60   4   8.089572  -2.651352   1.550333   0.005453   0.377948   0.014429
  61   4   8.789271  -1.969994   1.808304   0.006009   0.309230   0.019432
  62   4   7.756103  -2.578084   0.281060   0.006806   0.481025   0.014149
  63   4   7.939178  -1.879648  -0.503785   0.003936   0.274871   0.014320
  64   4   4.301024  -2.145955   0.045999   0.005861   0.343589   0.017059
  65   4   4.077076  -2.379373   1.103369   0.006160   0.309230   0.019921
  66   4   4.880100  -2.487897   3.077850   0.005386   0.343589   0.015676
  67   4   5.838778  -2.176597   3.876565   0.005720   0.412307   0.013873
  68   4   7.817897  -1.597268   3.845849   0.004353   0.274871   0.015838
  69   4   8.508524  -1.759929   3.006114   0.003278   0.206154   0.015902
  70   4   8.522908  -1.356725  -0.343441   0.003400   0.206154   0.016491
  71   4   7.106487  -1.320501  -1.319786   0.004608   0.343589   0.013412
  72   4   5.942226  -1.569563  -1.310341   0.005661   0.412307   0.013729
  73   4   4.162468  -1.370726  -0.573236   0.003923   0.240512   0.016312
  74   4   4.196527  -1.801279   3.273099   0.003604   0.206154   0.017482
  75   4   5.384030  -1.134303   4.429293   0.002257   0.206154   0.010946
  76   4   6.151980  -1.045791   4.581660   0.002938   0.240512   0.012217
  77   4   7.207439  -0.775622   4.509411   0.003628   0.309230   0.011731
  78   4   7.018082  -0.136140  -1.639514   0.003360   0.274871   0.012223
  79   4   4.903763  -0.743396  -1.355018   0.004789   0.377948   0.012670
  80   4   5.106527  -2.897567   0.619016   0.006586   0.412307   0.015973
  81   4   5.957357  -2.939773   2.831667   0.006948   0.481025   0.014445
  82   4   8.083254  -2.369529   2.715232   0.004011   0.274871   0.014592
  83   4   8.784144  -1.816890   0.674831   0.006322   0.377948   0.016728
  84   4   6.793522  -2.267208  -0.732262   0.005149   0.377948   0.013624
  85   4   4.815579  -1.654308   3.910615   0.003890   0.274871   0.014154
  86   4   6.059712  -0.454776  -1.699908   0.004701   0.377948   0.012437
  87   5  12.278125   0.752550   1.007903  -0.000333   0.371649  -0.000896
  88   5   8.876355   5.088228  -1.441753  -0.000279   0.185824  -0.001502
  89   5   8.899272   4.339009  -1.707708  -0.000212   0.092912  -0.002287
  90   5  12.983987   2.225409   3.530172  -0.000404   0.092912  -0.004345
  91   5  12.084552   0.474602   1.923679  -0.000405   0.232280  -0.001742
  92   5   9.918548   3.561130   5.636142  -0.000288   0.139368  -0.002069
  93   5   8.881242   3.744006   5.502993  -0.000300   0.139368  -0.002153
  94   5  11.270425   0.139541   0.953308   0.000059   0.278737   0.000210
  95   5  12.966274   1.380933   1.827831  -0.001132   0.418105  -0.002706
  96   5  13.268941   2.043440   2.510877  -0.000524   0.185824  -0.002822
  97   5  12.835878   1.559982   0.619988  -0.000747   0.232280  -0.003214
  98   5  13.087155   2.581192   0.142876  -0.000563   0.139368  -0.004041
  99   5   8.491116   4.360586  -1.567298  -0.000213   0.092912  -0.002295
 100   5   9.697964   4.743384  -1.716808  -0.000242   0.139368  -0.001739
 101   5  12.961514   1.583541   2.783794  -0.000472   0.139368  -0.003389
 102   5  11.134280  -0.029951   1.766293  -0.000131   0.139368  -0.000939
 103   5   8.920090   3.152547   5.500729  -0.000518   0.185824  -0.002786
 104   5  13.251409   2.149451   0.935845  -0.000964   0.232280  -0.004150
 105   6   0.696212   4.720665  -1.416908   0.001224   0.325193   0.003764
 106   6  -0.441048   4.911836   4.945114   0.000153   0.464561   0.000329
 107   6   3.663564   6.084882  -1.200949   0.000527   0.185824   0.002834
 108   6   1.134675   7.957074  -0.369112  -0.000562   0.418105  -0.001343
 109   6   0.473738   8.235841   3.774936  -0.000392   0.278737  -0.001407
 110   6   2.924065   6.248972   5.611568   0.000265   0.325193   0.000814
 111   6  -0.469229   4.344157  -0.620122   0.000824   0.278737   0.002955
 112   6  -1.120473   3.409216   1.011789  -0.000248   0.046456  -0.005344
 113   6  -1.050208   3.306895   3.191134  -0.000113   0.092912  -0.001220
 114   6  -0.676502   3.704997   4.264843   0.000180   0.325193   0.000555
 115   6   3.712076   6.968298   4.980818  -0.000070   0.371649  -0.000187
 116   6   1.381711   8.761806   3.260095  -0.000941   0.371649  -0.002532
 117   6   1.990637   8.499547   0.202974  -0.000929   0.418105  -0.002221
 118   6  -0.149775   4.859605  -0.987675   0.000410   0.185824   0.002207
 119   6  -0.489524   5.536485  -0.724488   0.000044   0.278737   0.000157
 120   6   0.371178   4.078382   5.293836   0.001993   0.464561   0.004291
 121   6   3.710261   6.788509  -0.904621   0.000278   0.371649   0.000747
 122   6   2.231215   7.543110  -0.887646  -0.000189   0.464561  -0.000407
 123   6   0.794395   8.574675   0.835471  -0.000471   0.371649  -0.001266
 124   6   0.512832   8.687543   2.279733  -0.000488   0.371649  -0.001313
 125   6   1.334360   8.044038   4.512308  -0.000768   0.603929  -0.001272
 126   6   2.361348   7.157304   5.318417  -0.000283   0.464561  -0.000610
 127   6   3.832850   5.795723   5.352843   0.000574   0.278737   0.002060
 128   6   2.984670   5.680830  -1.535061   0.001278   0.325193   0.003929
 129   6   1.848960   5.158864  -1.686107   0.002105   0.371649   0.005663
 130   6   0.697980   5.827501  -1.401882   0.000586   0.464561   0.001262
 131   6   0.879131   7.041572  -1.024257  -0.000348   0.464561  -0.000750
 132   6   0.055354   7.881835   0.249499  -0.000477   0.418105  -0.001142
 133   6  -0.390777   7.113803  -0.131020  -0.000489   0.278737  -0.001754
 134   6   0.044703   8.327592   2.969308  -0.000647   0.278737  -0.002322
 135   6  -0.068907   7.437210   4.335769  -0.000785   0.418105  -0.001878
 136   6  -0.180332   6.233279   4.995877  -0.000179   0.371649  -0.000481
 137   6   0.736525   5.337663   5.644157   0.000576   0.511017   0.001127
 138   6   1.953038   5.795000   5.824783   0.000335   0.464561   0.000722
 139   6   3.174882   5.044284   5.681556   0.001690   0.371649   0.004549
 140   6  -0.879075   3.950324   0.018466   0.000084   0.185824   0.000451
 141   6   2.541331   7.904358   4.701622  -0.000618   0.278737  -0.002217
 142   6   1.246092   8.893295   1.605866  -0.000777   0.325193  -0.002390
 143   6   3.228157   7.565409  -0.618526  -0.000230   0.325193  -0.000708
 144   6  -0.118954   6.470857  -0.770745  -0.000017   0.325193  -0.000051
 145   6   1.827890   4.527195   5.799025   0.002097   0.418105   0.005016
 146   6   2.162489   6.397346  -1.500668   0.000549   0.464561   0.001181
 147   6  -0.147924   8.228885   1.326554  -0.000635   0.232280  -0.002735
 148   6   0.915988   6.810469   5.339080  -0.000637   0.603929  -0.001055
 149   7  13.776617   8.082650   0.429330   0.001526   0.418105   0.003651
 150   7  12.719919   4.356663   5.334714   0.000234   0.232280   0.001007
 151   7  13.958483   7.596951   4.336211   0.001169   0.418105   0.002797
 152   7  11.189738   9.770166   2.498753   0.000918   0.371649   0.002469
 153   7  11.516033   5.972753  -1.491128   0.000136   0.278737   0.000489
 154   7  13.514145   4.878006  -0.512504   0.000152   0.232280   0.000655
 155   7  12.872992   5.618042  -1.102038   0.000425   0.325193   0.001307
 156   7  13.282329   6.817071  -0.784237   0.001050   0.325193   0.003229
 157   7  10.753787   9.549412   3.479945   0.001017   0.371649   0.002735
 158   7  13.258611   7.647130   5.000361   0.000732   0.278737   0.002625
 159   7  12.500527   5.199031   5.742964   0.000498   0.278737   0.001786
 160   7  13.932064   7.019830  -0.151756   0.000622   0.232280   0.002679
 161   7  13.187290   7.732120  -0.446251   0.000905   0.278737   0.003246
 162   7  11.534445   4.587662   5.769657   0.000045   0.232280   0.000194
 163   7  13.404115   4.953091   5.181159   0.000805   0.325193   0.002474
 164   7  13.770388   6.559349   5.011367   0.001031   0.278737   0.003697
 165   7  13.228337   8.686480   4.017624   0.000844   0.464561   0.001817
 166   7  12.217932   9.534418   3.161759   0.000717   0.464561   0.001544
 167   7   9.829813   9.489381   2.664269   0.001578   0.418105   0.003774
 168   7   8.911455   8.911604   2.947506   0.000686   0.232280   0.002951
 169   7  13.442214   3.922381   4.524576   0.000225   0.325193   0.000691
 170   7  14.100449   8.296744   3.122783   0.000499   0.418105   0.001194
 171   7  13.992185   8.501479   1.690690   0.000709   0.418105   0.001696
 172   7  13.163143   9.001583   1.054708   0.000969   0.464561   0.002086
 173   7  12.213353   9.617767   1.834569   0.000596   0.371649   0.001605
 174   7  13.645111   5.790999  -0.616856   0.000392   0.232280   0.001686
 175   7  12.402254   6.514087  -1.276449   0.000620   0.278737   0.002224
 176   7  12.233630   9.164313   4.074829   0.000374   0.278737   0.001342
 177   7  13.217414   6.021383   5.486937   0.000911   0.278737   0.003270
 178   7   9.177103   8.912066   3.543520   0.000430   0.185824   0.002314
 179   7  13.953317   5.601864   4.859755   0.000388   0.185824   0.002088
 180   7  13.288754   9.145896   2.596889   0.000467   0.464561   0.001004
 181   7   8.849287   8.935570   2.141576   0.000424   0.139368   0.003044
 182   8  -0.014515  -0.510755   1.588058  -0.005620   0.569203  -0.009874
 183   8   1.280248  -0.792201   3.014579  -0.003100   0.392554  -0.007898
 184   8   0.440803   0.187645  -0.050468  -0.002012   0.353299  -0.005695
 185   8  -0.797078   1.092198   1.437633  -0.002668   0.333671  -0.007996
 186   8  -0.204621   0.578945   3.255917  -0.001624   0.314043  -0.005171
 187   8   1.136468  -1.099434   1.752459  -0.004160   0.451437  -0.009215
 188   8   1.046727  -0.641581   0.408941  -0.004707   0.549575  -0.008564
 189   8  -0.373974   0.490546   0.616402  -0.003628   0.490692  -0.007395
 190   8  -0.646235   0.540092   2.323453  -0.003935   0.471065  -0.008353
 191   8   0.378104  -0.337064   3.119578  -0.003845   0.510320  -0.007535
 192   9  11.052687   0.736165   5.167971  -0.003454   0.451437  -0.007652
 193   9  10.644960   2.215578   5.736241  -0.001980   0.372926  -0.005310
 194   9  12.290249   1.432619   4.572309  -0.002516   0.392554  -0.006409
 195   9  11.355906  -0.069754   3.234468  -0.001993   0.333671  -0.005974
 196   9   9.798225   1.656765   5.652237  -0.002638   0.431809  -0.006109
 197   9  11.617915   1.830978   5.359970  -0.002398   0.392554  -0.006108
 198   9  12.129229   0.614774   3.913267  -0.002888   0.490692  -0.005885
 199   9  10.929693  -0.035865   4.230006  -0.003310   0.431809  -0.007665
 200   9   9.912966   0.620507   5.179043  -0.003062   0.372926  -0.008210
 201  10  11.027457   1.938324  -2.181602  -0.003258   0.431809  -0.007544
 202  10  11.503592   3.309014  -2.024954  -0.001709   0.294415  -0.005804
 203  10   9.606294   3.283508  -2.251735  -0.001896   0.353299  -0.005366
 204  10  11.047707   0.521307  -0.786915  -0.001902   0.353299  -0.005382
 205  10  12.419872   1.861366  -0.875832  -0.001877   0.353299  -0.005313
 206  10  10.630873   3.265091  -2.337359  -0.002637   0.431809  -0.006107
 207  10   9.709233   2.079135  -2.263696  -0.003283   0.451437  -0.007273
 208  10  10.360175   1.028911  -1.752906  -0.003237   0.412182  -0.007852
 209  10  11.731648   1.072970  -1.107128  -0.002827   0.451437  -0.006262
 210  10  12.068399   2.460391  -1.655514  -0.002948   0.451437  -0.006531
 211  11   4.326115   9.039040   2.003253  -0.005309   0.451437  -0.011760
 212  11   4.211619   8.118809   4.048489  -0.003084   0.353299  -0.008729
 213  11   3.041527   9.234170   2.741234  -0.002946   0.372926  -0.007899
 214  11   3.420614   8.952664   0.936265  -0.002724   0.392554  -0.006938
 215  11   4.435831   8.765458   3.140832  -0.004449   0.392554  -0.011335
 216  11   3.362549   8.839937   3.620562  -0.002368   0.333671  -0.007097
 217  11   3.034066   9.266710   1.807047  -0.002525   0.314043  -0.008042
 218  11   4.329212   8.426601   0.660370  -0.004168   0.412182  -0.010112
 219  12  -2.421647   5.915484   2.178345  -0.006344   0.608459  -0.010426
 220  12  -1.869574   4.673920   3.470144  -0.002959   0.412182  -0.007180
 221  12  -1.943890   4.268689   1.408416  -0.002697   0.333671  -0.008084
 222  12  -1.687133   6.086521   0.459650  -0.002398   0.353299  -0.006787
 223  12  -1.377670   7.576464   1.959420  -0.002473   0.333671  -0.007412
 224  12  -1.383627   6.811447   3.745771  -0.002190   0.333671  -0.006564
 225  12  -2.158481   4.432706   2.424581  -0.004329   0.490692  -0.008822
 226  12  -2.077989   5.215729   0.906273  -0.003960   0.490692  -0.008070
 227  12  -1.782284   6.925361   1.178010  -0.004226   0.510320  -0.008281
 228  12  -1.776244   7.116328   2.805190  -0.004238   0.490692  -0.008638
 229  12  -1.916839   5.776738   3.666389  -0.004568   0.549575  -0.008311
 230  13  10.356806   7.809606   6.307529  -0.003558   0.549575  -0.006474
 231  13   9.373232   6.406367   6.110785  -0.001778   0.333671  -0.005330
 232  13   9.010249   8.276659   4.970203  -0.001486   0.353299  -0.004205
 233  13  10.706249   9.053080   5.035982  -0.001159   0.353299  -0.003281
 234  13  12.108242   7.655730   5.968910  -0.001120   0.372926  -0.003002
 235  13  11.120012   5.895574   6.379693  -0.001187   0.353299  -0.003361
 236  13   9.137906   7.446702   5.836426  -0.002704   0.451437  -0.005989
 237  13   9.785894   8.735300   5.234513  -0.001881   0.431809  -0.004356
 238  13  11.412149   8.538061   5.696879  -0.002188   0.490692  -0.004458
 239  13  11.514071   6.938663   6.446671  -0.002157   0.471065  -0.004580
 240  13  10.214698   6.278106   6.458770  -0.001999   0.412182  -0.004849
 241  14  15.683841   5.382892   2.084134  -0.004062   0.569203  -0.007136
 242  14  14.952019   6.303725   0.534039  -0.001261   0.372926  -0.003381
 243  14  14.705779   4.342363   0.743496  -0.001366   0.353299  -0.003867
 244  14  14.823853   3.994490   3.022626  -0.001836   0.392554  -0.004678
 245  14  15.038694   5.752601   3.874671  -0.001301   0.372926  -0.003490
 246  14  15.188697   7.178092   2.415273  -0.001585   0.412182  -0.003846
 247  14  15.132901   5.231343   0.684672  -0.002419   0.471065  -0.005136
 248  14  15.143720   4.154574   1.887108  -0.002560   0.471065  -0.005435
 249  14  15.189181   4.832663   3.433858  -0.002236   0.431809  -0.005178
 250  14  15.401935   6.400209   3.137013  -0.002479   0.471065  -0.005263
 251  14  15.369268   6.672558   1.440149  -0.002541   0.490692  -0.005179
 252  15  10.332994   8.933043  -1.015330  -0.003266   0.510320  -0.006400
 253  15   9.518664   7.714063  -1.284573  -0.002306   0.412182  -0.005595
 254  15  11.546321   7.755839  -1.442927  -0.001006   0.333671  -0.003016
 255  15  11.862686   9.280468  -0.178311  -0.001146   0.353299  -0.003243
 256  15  10.008871   9.711947   0.938864  -0.001065   0.353299  -0.003014
 257  15   9.012194   9.113106   0.560884  -0.001597   0.333671  -0.004787
 258  15  10.497689   7.493312  -1.610141  -0.002030   0.471065  -0.004309
 259  15  11.654390   8.677041  -1.013902  -0.002015   0.471065  -0.004278
 260  15  10.983158   9.729120   0.241484  -0.002041   0.471065  -0.004333
 261  15   9.762213   9.422806  -0.104409  -0.001941   0.353299  -0.005494
 262  15   9.029335   8.479113  -0.563886  -0.002483   0.392554  -0.006324
 263   1   7.323523   4.197989  -1.308090   0.000126   0.051955   0.002432
 264   2   7.047163   3.873160  -1.399159  -0.000146   0.051955  -0.002818
 265   5   7.789423   4.108663  -1.379331  -0.000055   0.051955  -0.001052
 266   1   7.413146   3.471812   5.161399   0.000095   0.051955   0.001826
 267   2   7.138384   3.134030   5.185727  -0.000163   0.051955  -0.003142
 268   5   7.880544   3.370348   5.198294  -0.000063   0.051955  -0.001217
 269   1   5.670437   4.526641   4.917815   0.000634   0.103258   0.006142
 270   2   5.365521   4.220717   4.994299  -0.000199   0.103258  -0.001930
 271   6   4.725509   4.741270   4.983651   0.000185   0.103258   0.001788
 272   1   5.653772   5.119807  -0.843255   0.000394   0.103258   0.003816
 273   2   5.348243   4.835706  -0.978722  -0.000220   0.103258  -0.002132
 274   6   4.708610   5.342791  -0.858566   0.000088   0.103258   0.000855
 275   2   6.079299   4.310312  -1.291116  -0.000386   0.210204  -0.001836
 276   1   6.700478   4.576764  -1.194851   0.000876   0.196999   0.004448
 277   2   6.343958   3.431797   5.218682  -0.000677   0.224550  -0.003015
 278   1   6.532039   4.086298   5.104612   0.001089   0.210444   0.005176
 279   1   8.105598   4.740371   5.150533   0.000437   0.097568   0.004483
 280   5   8.566890   4.664571   5.265596  -0.000185   0.097568  -0.001895
 281  13   8.890757   5.322028   5.426644  -0.000285   0.097568  -0.002925
 282   1   8.088364   5.768620  -0.834193   0.000467   0.098125   0.004761
 283   5   8.549393   5.735382  -0.969015  -0.000119   0.098125  -0.001214
 284  15   8.863941   6.413347  -0.898182  -0.000307   0.098125  -0.003131
 285   5   8.215728   4.738523  -1.327718  -0.000047   0.212348  -0.000221
 286   1   7.598112   5.066153  -1.095774   0.001083   0.194144   0.005576
 287   5   8.310500   4.008226   5.306791  -0.000035   0.146819  -0.000241
 288   1   7.606796   3.965406   5.194406   0.000485   0.134213   0.003613
 289   1   5.704657   6.387088   4.145330   0.001409   0.083899   0.016789
 290   6   4.800043   6.698158   4.305214  -0.000113   0.083899  -0.001349
 291  11   4.881584   6.932116   4.135387  -0.000398   0.083899  -0.004742
 292   1   5.662572   6.664990   0.136376   0.001337   0.083899   0.015933
 293   6   4.755266   6.993833   0.039872  -0.000167   0.083899  -0.001994
 294  11   4.840676   7.202242   0.238611  -0.000374   0.083899  -0.004457
 295   6   4.656052   6.451173  -0.519123   0.000752   0.520131   0.001446
 296   1   5.929845   5.818910  -0.596673   0.004049   0.466713   0.008676
 297   6   4.626177   5.688162   4.930780   0.001107   0.590360   0.001875
 298   1   6.027109   5.643997   4.631121   0.006078   0.529776   0.011473
 299  11   5.017962   7.520498   0.373462  -0.000157   0.106867  -0.001469
 300   1   6.216103   6.800079   0.075896   0.002728   0.132587   0.020574
 301  11   4.991956   7.167400   4.128425  -0.000040   0.054816  -0.000724
 302   1   6.241695   6.485634   4.240990   0.001815   0.068011   0.026680
 303  13   8.355844   6.913077   5.115922  -0.000074   0.297907  -0.000249
 304  13   8.789480   5.952760   5.610838  -0.000517   0.297907  -0.001736
 305   1   7.431492   5.667036   4.877162   0.007140   0.733946   0.009729
 306  15   8.787699   7.016854  -0.910935  -0.000403   0.236241  -0.001707
 307  15   8.385033   7.639264  -0.337671  -0.000145   0.236241  -0.000614
 308   1   7.452207   6.435253  -0.451599   0.005721   0.583147   0.009810
 309   2   4.037564   0.436613  -1.222792   0.000032   0.039805   0.000816
 310   3   3.578899   0.581752  -1.163545  -0.000165   0.039805  -0.004136
 311   4   4.209036   0.087104  -1.157685   0.000377   0.039805   0.009461
 312   2   4.121749  -0.191843   4.334260  -0.000031   0.039805  -0.000778
 313   3   3.662010  -0.038692   4.322660  -0.000199   0.039805  -0.004999
 314   4   4.290014  -0.517410   4.187662   0.000257   0.039805   0.006456
 315   2   4.745626   3.838323   5.177629  -0.000190   0.045164  -0.004197
 316   3   4.284874   3.975084   5.241362   0.000072   0.045164   0.001600
 317   6   4.120915   4.372808   5.238855   0.000187   0.045164   0.004146
 318   2   4.585197   4.339780  -1.306148  -0.000236   0.045164  -0.005231
 319   3   4.122392   4.482958  -1.325379   0.000086   0.045164   0.001908
 320   6   3.960269   4.874946  -1.253727   0.000229   0.045164   0.005068
 321   3   4.081996   3.851341  -1.573280  -0.000154   0.208513  -0.000740
 322   3   3.569365   1.942936  -1.584452  -0.002028   0.424370  -0.004778
 323   2   4.553708   2.941350  -1.662193  -0.003525   0.424370  -0.008307
 324   2   4.050275   1.037518  -1.498168  -0.000790   0.208513  -0.003791
 325   3   3.483613   0.544115   4.781247  -0.000739   0.223106  -0.003313
 326   3   4.032853   2.499566   5.319575  -0.001816   0.456517  -0.003978
 327   2   4.363394   1.099700   5.017191  -0.003774   0.456517  -0.008268
 328   2   4.915236   3.098000   5.359998  -0.001254   0.223106  -0.005622
 329   2   7.497555   0.591084   4.721126   0.000110   0.108723   0.001016
 330   4   7.577208   0.227322   4.579454   0.000860   0.108723   0.007913
 331   9   8.427927   0.740659   4.745032  -0.000308   0.108723  -0.002833
 332   2   7.416340   1.323811  -1.524535   0.000027   0.111277   0.000241
 333   4   7.498078   0.938056  -1.466811   0.000892   0.111277   0.008017
 334  10   8.354338   1.525411  -1.555378  -0.000266   0.111277  -0.002394
 335   4   4.967224  -0.000194  -1.441017   0.001612   0.189311   0.008514
 336   4   6.582393   0.501835  -1.645687   0.001667   0.189311   0.008805
 337   2   5.611309   0.779656  -1.536455   0.001020   0.396718   0.002570
 338   4   6.669929  -0.216742   4.686296   0.001660   0.188577   0.008804
 339   4   5.053911  -0.663789   4.421196   0.001586   0.188577   0.008410
 340   2   5.699918   0.076092   4.670540   0.000946   0.395041   0.002393
 341   2   7.712048   2.202141   5.140502  -0.000594   0.060845  -0.009757
 342   5   8.450422   2.430667   5.230116  -0.000449   0.060845  -0.007374
 343   9   8.647055   2.202705   5.255511  -0.000443   0.060845  -0.007282
 344   2   7.552705   3.197298  -1.556706  -0.000465   0.058501  -0.007952
 345   5   8.286935   3.447602  -1.615715  -0.000375   0.058501  -0.006409
 346  10   8.496721   3.255474  -1.717764  -0.000531   0.058501  -0.009081
 347   5   8.089964   3.769602  -1.617269  -0.000245   0.149604  -0.001636
 348   2   6.996985   3.539652  -1.613310  -0.000424   0.149604  -0.002833
 349   5   8.182446   3.001286   5.334467  -0.000406   0.215059  -0.001886
 350   2   7.174886   2.505414   5.307737  -0.001008   0.215059  -0.004686
 351   6   4.160371   5.350685  -1.184775   0.000546   0.174211   0.003135
 352   2   4.974351   4.503250  -1.317938  -0.000367   0.174211  -0.002104
 353   6   4.188665   4.692874   5.312349   0.000437   0.110922   0.003941
 354   2   5.130214   3.992046   5.207150  -0.000059   0.110922  -0.000529
 355   9   8.802251   1.615036   5.244674  -0.002031   0.329553  -0.006163
 356   2   7.441919   1.269433   5.104952  -0.001553   0.465077  -0.003339
 357  10   8.717963   2.320423  -1.859078  -0.002514   0.390197  -0.006443
 358   2   7.285655   2.441858  -1.746978  -0.002367   0.551138  -0.004295
 359   3   2.693101  -0.617238   3.358311  -0.000196   0.060291  -0.003255
 360   4   3.368731  -1.014985   3.197683   0.000644   0.060291   0.010689
 361   8   2.452800  -0.683971   3.194017  -0.000345   0.060291  -0.005718
 362   3   2.570950  -0.297761  -0.172568  -0.000190   0.060291  -0.003159
 363   4   3.253522  -0.713663  -0.132546   0.000577   0.060291   0.009570
 364   8   2.342067  -0.394356  -0.006820  -0.000331   0.060291  -0.005484
 365   4   3.853747  -0.647042  -0.688836   0.003478   0.362183   0.009604
 366   3   3.060591   0.210237  -0.880871  -0.000385   0.399498  -0.000963
 367   4   4.089220  -0.967179   3.855206   0.002680   0.314593   0.008519
 368   3   3.043466  -0.431016   3.872835  -0.000305   0.347026  -0.000878
 369   3  -0.956102   2.857456   1.419342  -0.000111   0.007290  -0.015202
 370   6  -1.141598   3.243911   1.447171  -0.000135   0.007290  -0.018459
 371  12  -1.310562   3.478574   1.518576  -0.000107   0.007290  -0.014679
 372   3  -0.933920   2.772162   2.500082  -0.000104   0.007290  -0.014253
 373   6  -1.119153   3.157602   2.540781  -0.000128   0.007290  -0.017554
 374  12  -1.290131   3.400014   2.514006  -0.000120   0.007290  -0.016422
 375   6   3.208724   4.974469  -1.473605   0.001212   0.195950   0.006187
 376   6   1.269873   4.234893  -1.325238   0.002925   0.402871   0.007259
 377   6  -0.537181   3.422308   0.236395  -0.000815   0.402871  -0.002024
 378   3   2.674320   4.117875  -1.526215   0.003330   0.402871   0.008267
 379   3   0.440474   3.215733  -0.777546   0.001857   0.402871   0.004609
 380   3  -0.722999   2.638860   0.847778  -0.000670   0.195950  -0.003418
 381   6  -0.892879   3.043338   3.072482  -0.000767   0.196907  -0.003894
 382   6   0.346913   3.365038   4.723502   0.001463   0.405053   0.003611
 383   6   2.625245   4.151497   5.502960   0.003094   0.405053   0.007638
 384   3  -0.244921   2.571570   3.693542  -0.000728   0.405053  -0.001797
 385   3   1.639802   3.139922   5.287803   0.003368   0.405053   0.008314
 386   3   3.594754   3.857907   5.458384   0.001300   0.196907   0.006601
 387   3  -0.868383   2.434405   2.125889  -0.000116   0.007011  -0.016486
 388   8  -0.816045   2.145992   2.081677  -0.000137   0.007011  -0.019518
 389  12  -1.135640   3.102596   2.160637  -0.000145   0.007011  -0.020612
 390   3  -0.876403   2.465632   1.731289  -0.000105   0.007011  -0.014980
 391   8  -0.823244   2.174024   1.727456  -0.000140   0.007011  -0.019997
 392  12  -1.142709   3.130119   1.812849  -0.000145   0.007011  -0.020653
 393   8  -0.763806   1.684972   1.387982  -0.000651   0.073835  -0.008810
 394   8  -0.271858   1.359999   0.337976  -0.001164   0.167863  -0.006937
 395   8   0.760010   0.580853  -0.316082  -0.001129   0.167863  -0.006728
 396   8   1.690918  -0.168549  -0.167965  -0.000471   0.073835  -0.006376
 397   3  -0.575724   1.984797   0.882167  -0.001273   0.158143  -0.008050
 398   3   0.321629   1.346799  -0.315056  -0.000778   0.158143  -0.004920
 399   3   1.592678   0.347475  -0.492291  -0.000929   0.158143  -0.005872
 400   8   1.811992  -0.491980   3.439291  -0.000521   0.075057  -0.006947
 401   8   0.882258   0.225796   3.778527  -0.001053   0.171376  -0.006143
 402   8  -0.195272   1.111590   3.315585  -0.001271   0.171376  -0.007418
 403   8  -0.742712   1.608138   2.341707  -0.000655   0.075057  -0.008730
 404   3   1.731663  -0.036893   3.856450  -0.000944   0.160127  -0.005893
 405   3   0.439495   0.985736   3.930237  -0.000786   0.160127  -0.004906
 406   3  -0.527171   1.820002   2.885981  -0.001395   0.160127  -0.008712
 407  12  -1.459752   3.572011   1.662074  -0.000481   0.060739  -0.007916
 408   3  -0.989641   2.603939   1.585307  -0.000333   0.085895  -0.003874
 409  12  -1.451993   3.513047   2.328191  -0.000490   0.061036  -0.008020
 410   3  -0.968526   2.548888   2.355555  -0.000350   0.086314  -0.004057
 411   4   9.621306  -0.764581   2.081527   0.001902   0.079666   0.023875
 412   5  10.388329  -0.263179   2.155007   0.000203   0.079666   0.002549
 413   9  10.412532  -0.268962   2.457360  -0.000087   0.079666  -0.001090
 414   4   9.534765  -0.476140   0.350560   0.001543   0.077622   0.019873
 415   5  10.300672   0.031820   0.346504   0.000275   0.077622   0.003539
 416  10  10.327612   0.134065   0.062110  -0.000129   0.077622  -0.001656
 417   5  10.403877  -0.296601   1.370610   0.002166   0.494040   0.004384
 418   4   9.348285  -1.058250   0.999465   0.007534   0.444772   0.016940
 419   8   2.142664  -0.732085   0.259281  -0.000860   0.257610  -0.003340
 420   8   2.101351  -1.155491   1.548076  -0.002597   0.519578  -0.004999
 421   8   2.233535  -0.969751   2.885984  -0.000896   0.257610  -0.003479
 422   4   3.390009  -1.497652   0.567500   0.007638   0.632517   0.012075
 423   4   3.452046  -1.659906   2.360745   0.007382   0.632517   0.011670
 424   9   9.062150   0.473040   4.864896  -0.000851   0.252444  -0.003371
 425   9   9.787045  -0.219925   4.040445  -0.001418   0.508284  -0.002790
 426   9  10.392615  -0.429760   2.911443  -0.000040   0.252444  -0.000159
 427   4   8.161014  -0.587460   4.222908   0.006401   0.622453   0.010284
 428   4   9.070554  -1.204636   2.887478   0.008877   0.622453   0.014262
 429  10  10.296467   0.114704  -0.385621  -0.000041   0.230782  -0.000176
 430  10   9.675450   0.575206  -1.255540  -0.001015   0.463587  -0.002190
 431  10   8.975951   1.343267  -1.780202  -0.000605   0.230782  -0.002624
 432   4   8.958427  -0.697681  -0.421357   0.007235   0.572044   0.012647
 433   4   8.053870   0.143888  -1.376649   0.005623   0.572044   0.009830
 434   5  10.636931   3.564889   5.561354  -0.000134   0.024529  -0.005444
 435   7  10.870411   3.997875   5.591294  -0.000105   0.024529  -0.004299
 436   9  10.683832   3.267915   5.563546  -0.000204   0.024529  -0.008323
 437   5  12.885836   2.597229   3.926392  -0.000186   0.024529  -0.007597
 438   7  13.089663   3.042974   3.977891  -0.000174   0.024529  -0.007091
 439   9  12.730727   2.387176   4.075446  -0.000196   0.024529  -0.007985
 440   5  12.870503   3.343359  -0.423117  -0.000204   0.024538  -0.008313
 441   7  13.074473   3.781022  -0.324460  -0.000158   0.024538  -0.006443
 442  10  12.714033   3.194539  -0.632765  -0.000283   0.024538  -0.011528
 443   5  10.611926   4.797871  -1.626629  -0.000151   0.024538  -0.006134
 444   7  10.845698   5.216341  -1.512092  -0.000110   0.024538  -0.004467
 445  10  10.658372   4.518374  -1.728151  -0.000158   0.024538  -0.006422
 446   5  10.324570   4.249832   5.645984  -0.000105   0.026153  -0.004000
 447   7  10.559669   4.667806   5.759790  -0.000104   0.026153  -0.003989
 448  13  10.500947   4.944723   5.865419  -0.000156   0.026153  -0.005952
 449   5  13.402067   2.935811   3.325897  -0.000205   0.027367  -0.007505
 450   7  13.669411   3.340241   3.414916  -0.000148   0.027367  -0.005390
 451  14  13.903347   3.486207   3.290522  -0.000139   0.027367  -0.005088
 452   5  13.357973   3.493850   0.180104  -0.000174   0.027367  -0.006358
 453   7  13.624746   3.905510   0.228367  -0.000144   0.027367  -0.005276
 454  14  13.862677   4.000921   0.388965  -0.000190   0.027367  -0.006958
 455   5  10.218800   5.514179  -1.460750  -0.000118   0.026066  -0.004525
 456   7  10.452648   5.946972  -1.430249  -0.000107   0.026066  -0.004090
 457  15  10.393086   6.243145  -1.432252  -0.000109   0.026066  -0.004194
 458   7  10.750857   5.658046  -1.507522  -0.000122   0.086811  -0.001411
 459   5  10.319892   5.096280  -1.602720  -0.000217   0.086811  -0.002501
 460   7  10.733358   4.437923   5.742329  -0.000096   0.071232  -0.001342
 461   5  10.470690   3.785895   5.629993  -0.000139   0.071232  -0.001953
 462   7  13.441907   3.269811   3.788975  -0.000227   0.091893  -0.002473
 463   5  13.153974   2.647050   3.586563  -0.000350   0.091893  -0.003811
 464   7  13.458203   3.908199  -0.027567  -0.000185   0.077614  -0.002384
 465   5  13.075554   3.333768  -0.205779  -0.000310   0.077614  -0.003988
 466   9  10.280374   2.836167   5.647638  -0.000449   0.085793  -0.005228
 467   9   9.316511   2.377762   5.520397  -0.000583   0.085793  -0.006797
 468   5   9.640265   2.962261   5.502221  -0.001378   0.177963  -0.007742
 469   9  11.097915  -0.072290   2.628842  -0.000327   0.070721  -0.004623
 470   9  12.032790   0.530289   2.902047  -0.001134   0.158282  -0.007167
 471   9  12.600822   1.530330   3.669171  -0.001305   0.158282  -0.008243
 472   5  11.515111   0.216789   2.300720  -0.000764   0.153801  -0.004965
 473   5  12.572603   1.190776   2.887011  -0.001144   0.153801  -0.007437
 474   5  12.852208   2.128519   3.687062  -0.000477   0.086401  -0.005520
 475  10   9.176179   3.551941  -1.953078  -0.000670   0.095399  -0.007019
 476  10  10.219313   4.121103  -1.949259  -0.000529   0.095399  -0.005541
 477   5   9.537344   4.129137  -1.748227  -0.001648   0.192243  -0.008574
 478  10  12.643619   2.654977  -0.699748  -0.000517   0.072298  -0.007148
 479  10  12.393172   1.591016  -0.288152  -0.001232   0.162563  -0.007580
 480  10  11.415866   0.597164  -0.086829  -0.000945   0.162563  -0.005812
 481   5  12.755685   2.368418  -0.172031  -0.001303   0.156552  -0.008326
 482   5  12.090952   1.003694   0.271287  -0.001019   0.156552  -0.006507
 483   5  11.031462   0.272510   0.335514  -0.000272   0.088328  -0.003085
 484  13   9.703470   5.405059   5.833895  -0.001499   0.298424  -0.005022
 485   5   9.603598   4.284995   5.603920  -0.000885   0.419874  -0.002107
 486  14  14.154565   3.478273   2.871682  -0.001044   0.212458  -0.004916
 487  14  14.179638   3.676204   1.344634  -0.003158   0.437279  -0.007221
 488   5  13.506179   2.656996   2.203225  -0.002897   0.579831  -0.004996
 489   5  13.439882   3.026791   0.493157  -0.000906   0.299413  -0.003025
 490  15   9.898600   6.563630  -1.335254  -0.001320   0.280029  -0.004712
 491   5   9.298125   5.589245  -1.333385  -0.000779   0.394112  -0.001976
 492  11   4.312636   7.676513   0.144227  -0.000526   0.065650  -0.008017
 493  11   3.452489   8.311911   0.291228  -0.001150   0.145292  -0.007917
 494  11   2.604461   8.897926   1.094052  -0.001245   0.145292  -0.008572
 495  11   2.288989   9.056978   2.351935  -0.001310   0.145292  -0.009017
 496  11   2.630442   8.726363   3.568978  -0.001283   0.145292  -0.008829
 497  11   3.494208   8.036421   4.265381  -0.001100   0.145292  -0.007571
 498  11   4.356318   7.388064   4.305312  -0.000536   0.065650  -0.008168
 499   6   3.783891   7.679507  -0.102262  -0.000938   0.144260  -0.006504
 500   6   2.663028   8.488941   0.391273  -0.001058   0.144260  -0.007335
 501   6   1.974578   8.929802   1.610606  -0.001199   0.144260  -0.008311
 502   6   1.989951   8.828287   3.075035  -0.001199   0.144260  -0.008313
 503   6   2.703087   8.224417   4.207233  -0.001097   0.144260  -0.007607
 504   6   3.832843   7.356258   4.560850  -0.000959   0.144260  -0.006649
 505  12  -1.497796   3.722836   2.787041  -0.000533   0.066770  -0.007984
 506  12  -1.367749   4.321522   3.693080  -0.001149   0.148110  -0.007755
 507  12  -1.153167   5.496848   4.261536  -0.001071   0.148110  -0.007230
 508  12  -0.949270   6.776775   3.995465  -0.001169   0.148110  -0.007890
 509  12  -0.838464   7.644024   3.002398  -0.001255   0.148110  -0.008475
 510  12  -0.865529   7.748099   1.683681  -0.001345   0.148110  -0.009084
 511  12  -1.019528   7.046939   0.572268  -0.001167   0.148110  -0.007879
 512  12  -1.238223   5.823915   0.117333  -0.001150   0.148110  -0.007765
 513  12  -1.433228   4.573309   0.502737  -0.001117   0.148110  -0.007543
 514  12  -1.528147   3.839546   1.308235  -0.000515   0.066770  -0.007716
 515   6  -1.161497   3.649617   3.263846  -0.001077   0.146409  -0.007359
 516   6  -0.952280   4.698906   4.295746  -0.000877   0.146409  -0.005992
 517   6  -0.704345   6.153563   4.474899  -0.001031   0.146409  -0.007041
 518   6  -0.517894   7.425694   3.728901  -0.001131   0.146409  -0.007722
 519   6  -0.468280   8.001172   2.359244  -0.001190   0.146409  -0.008131
 520   6  -0.575555   7.647419   0.919471  -0.001083   0.146409  -0.007396
 521   6  -0.796364   6.507403  -0.008539  -0.000979   0.146409  -0.006687
 522   6  -1.041467   5.041858  -0.049734  -0.000890   0.146409  -0.006079
 523   6  -1.211808   3.843079   0.812535  -0.001070   0.146409  -0.007306
 524   9  12.512989   2.356555   4.463792  -0.001268   0.193261  -0.006563
 525   9  11.487390   2.820725   5.295105  -0.002816   0.394947  -0.007130
 526   7  12.641989   3.533187   4.796528  -0.001262   0.530109  -0.002380
 527   7  11.388860   4.051546   5.629494  -0.000208   0.272264  -0.000763
 528  10  11.008650   4.251043  -1.799047  -0.001016   0.193329  -0.005254
 529  10  12.122677   3.583381  -1.278285  -0.003045   0.395077  -0.007707
 530   7  11.862652   5.004449  -1.334404  -0.001036   0.530301  -0.001953
 531   7  13.044668   4.197905  -0.638181  -0.000404   0.272355  -0.001483
 532  11   5.371504   8.245935   3.129399  -0.000438   0.323642  -0.001353
 533  11   5.407605   8.485806   2.168432  -0.000696   0.323642  -0.002149
 534   7   7.871362   8.377720   2.745109   0.005972   1.014934   0.005884
 535  13  10.828089   5.301198   6.080333  -0.000249   0.066396  -0.003744
 536  13  11.761722   5.833888   6.091006  -0.000525   0.146359  -0.003586
 537  13  12.458016   6.898888   5.816103  -0.000365   0.146359  -0.002492
 538  13  12.394629   8.090285   5.295355  -0.000500   0.146359  -0.003416
 539  13  11.596006   8.948617   4.729589  -0.000505   0.146359  -0.003453
 540  13  10.370135   9.142866   4.336993  -0.000429   0.146359  -0.002928
 541  13   9.189775   8.598122   4.268971  -0.000328   0.146359  -0.002244
 542   7  11.367589   5.141424   5.912252  -0.000478   0.146549  -0.003259
 543   7  12.480975   6.082899   5.795256  -0.000195   0.146549  -0.001333
 544   7  12.855055   7.416542   5.324987  -0.000181   0.146549  -0.001237
 545   7  12.345563   8.628033   4.682803  -0.000306   0.146549  -0.002091
 546   7  11.148987   9.250161   4.116363  -0.000327   0.146549  -0.002235
 547   7   9.726785   9.043001   3.844115  -0.000130   0.146549  -0.000888
 548   7   8.751275   8.368642   3.882856   0.000028   0.081118   0.000346
 549  14  14.176700   4.424672   0.300580  -0.000282   0.067528  -0.004181
 550  14  14.327431   5.476624   0.053055  -0.000562   0.149295  -0.003762
 551  14  14.533870   6.721584   0.441783  -0.000548   0.149295  -0.003673
 552  14  14.694418   7.484394   1.507614  -0.000566   0.149295  -0.003791
 553  14  14.745264   7.461862   2.826916  -0.000607   0.149295  -0.004063
 554  14  14.666198   6.662945   3.875310  -0.000483   0.149295  -0.003234
 555  14  14.488645   5.405184   4.236095  -0.000590   0.149295  -0.003949
 556  14  14.283178   4.188499   3.765870  -0.000671   0.149295  -0.004497
 557   7  13.879647   4.791824  -0.055975  -0.000588   0.148626  -0.003958
 558   7  14.102645   6.258236  -0.088032  -0.000306   0.148626  -0.002062
 559   7  14.319884   7.446743   0.773001  -0.000327   0.148626  -0.002199
 560   7  14.445020   7.884953   2.184890  -0.000419   0.148626  -0.002820
 561   7  14.428315   7.398693   3.586458  -0.000364   0.148626  -0.002451
 562   7  14.276408   6.181234   4.420626  -0.000256   0.148626  -0.001722
 563   7  14.049678   4.716477   4.355843  -0.000368   0.148626  -0.002476
 564   7  13.869659   3.711519   3.716989  -0.000273   0.082501  -0.003315
 565  15   8.942292   8.992336   1.316528  -0.000152   0.070620  -0.002156
 566  15   9.930536   9.534805   1.479019  -0.000520   0.157688  -0.003298
 567  15  11.256742   9.676074   1.143008  -0.000548   0.157688  -0.003478
 568  15  12.217297   9.153035   0.309075  -0.000583   0.157688  -0.003698
 569  15  12.394334   8.193224  -0.659998  -0.000428   0.157688  -0.002716
 570  15  11.710836   7.214185  -1.342637  -0.000601   0.157688  -0.003810
 571  15  10.731649   6.659910  -1.519483  -0.000255   0.070620  -0.003605
 572   7   9.258377   9.133080   1.811703  -0.000167   0.153950  -0.001082
 573   7  10.710500   9.659762   1.795092  -0.000267   0.153950  -0.001733
 574   7  12.070798   9.432663   1.099142  -0.000386   0.153950  -0.002505
 575   7  12.747503   8.550578   0.026609  -0.000247   0.153950  -0.001606
 576   7  12.446231   7.397237  -0.955924  -0.000307   0.153950  -0.001995
 577   7  11.298043   6.474377  -1.421030  -0.000527   0.153950  -0.003426
 578  12  -1.476094   3.336287   1.975431  -0.000196   0.117573  -0.001665
 579   8  -0.962722   1.984444   1.929145  -0.000243   0.117573  -0.002066
 580  13   8.130070   7.792814   4.519553   0.001485   0.389765   0.003811
 581  11   5.335828   7.717423   3.895609   0.000634   0.389765   0.001626
 582  15   8.055543   8.172275   0.115371   0.000723   0.218397   0.003312
 583  15   8.142439   8.576829   0.747951   0.001313   0.435388   0.003015
 584  11   5.367171   8.150350   0.836678   0.000365   0.435388   0.000838
 585  11   5.461303   8.512811   1.493285   0.000130   0.218397   0.000595
 =====================================================

              2872424  WORDS OF DYNAMIC MEMORY USED
 EXECUTION OF GAMESS TERMINATED NORMALLY Thu Nov 24 02:31:58 2016
 DDI: 263640 bytes (0.3 MB / 0 MWords) used by master data server.

 ----------------------------------------
 CPU timing information for all processes
 ========================================
 0: 465.624 + 0.200 = 465.824
 ----------------------------------------
 ddikick.x: exited gracefully.
