----- GAMESS execution script -----

          ******************************************************
          *         GAMESS VERSION =  5 DEC 2014 (R1)          *
          *             FROM IOWA STATE UNIVERSITY             *
          * M.W.SCHMIDT, K.K.BALDRIDGE, J.A.BOATZ, S.T.ELBERT, *
          *   M.S.GORDON, J.H.JENSEN, S.KOSEKI, N.MATSUNAGA,   *
          *          K.A.NGUYEN, S.J.SU, T.L.WINDUS,           *
          *       TOGETHER WITH M.DUPUIS, J.A.MONTGOMERY       *
          *         J.COMPUT.CHEM.  14, 1347-1363(1993)        *
          **************** 64 BIT LINUX VERSION ****************

 EXECUTION OF GAMESS BEGUN Thu Nov 24 00:41:27 2016

            ECHO OF THE FIRST FEW INPUT CARDS -
 INPUT CARD>! SELECT RESTRICTED HARTREE-FOCK AS DEFAULT                                     
 INPUT CARD>$contrl scftyp=rhf $end                                                         
 INPUT CARD>                                                                                
 INPUT CARD>! THEORY: HF OR DFT                                                             
 INPUT CARD> $contrl mplevl=0 $end                                                          
 INPUT CARD>                                                                                
 INPUT CARD> $system timlim=10000 mwords=20 $end                                            
 INPUT CARD> $SCF DIRSCF=.TRUE. $end                                                        
 INPUT CARD>                                                                                
 INPUT CARD>                                                                                
 INPUT CARD>! BASIS SETS                                                                    
 INPUT CARD>! 6-311G(d,p)                                                                   
 INPUT CARD> $BASIS GBASIS=N311 NGAUSS=6 NDFUNC=1 NPFUNC=1 $END                             
 INPUT CARD>                                                                                
 INPUT CARD>! One of the following                                                          
 INPUT CARD> $guess guess=HUCKEL $end                                                       
 INPUT CARD>                                                                                
 INPUT CARD> $statpt projct=.FALSE. $end                                                    
 INPUT CARD> $STATPT IFREEZ(1)=1,2,3 $END                                                   
 INPUT CARD>                                                                                
 INPUT CARD>! Optimize the geometry with COSMO effects                                      
 INPUT CARD> $statpt opttol=0.0005 nstep=50 $end                                            
 INPUT CARD> $contrl nzvar=1 $end                                                           
 INPUT CARD> $zmat dlc=.t. auto=.t. $end                                                    
 INPUT CARD> $contrl runtyp=OPTIMIZE maxit=200 $end                                         
 INPUT CARD>                                                                                
 INPUT CARD>! Run COSMO on perfect conductor                                                
 INPUT CARD> $COSGMS PRFCND=.TRUE. $end                                                     
 INPUT CARD>                                                                                
 INPUT CARD>! Specifying RSOLV                                                              
 INPUT CARD> $COSGMS COSRAD = 1.4 $end                                                      
 INPUT CARD>                                                                                
 INPUT CARD>! available memory                                                              
 INPUT CARD> $SYSTEM MWORDS=40 $END                                                         
 INPUT CARD>                                                                                
 INPUT CARD> $DATA                                                                          
 INPUT CARD>Cyclohexane, ethyl-, ID: C1678917                                               
 INPUT CARD>C1                                                                              
 INPUT CARD>C      6.0      0.4516000000    4.6732000000    1.9214000000                    
 INPUT CARD>C      6.0      1.9597000000    4.6988000000    1.7991000000                    
 INPUT CARD>C      6.0      2.5612000000    3.3207000000    2.0720000000                    
 INPUT CARD>C      6.0      4.0864000000    3.3878000000    2.1238000000                    
 INPUT CARD>C      6.0      2.1229000000    2.3217000000    1.0004000000                    
 INPUT CARD>C      6.0      4.6771000000    2.0117000000    2.3918000000                    
 INPUT CARD>C      6.0      2.6993000000    0.9438000000    1.2772000000                    
 INPUT CARD>C      6.0      4.2178000000    1.0013000000    1.3517000000                    
 INPUT CARD>H      1.0      0.1302000000    4.5342000000    2.9619000000                    
 INPUT CARD>H      1.0      0.0000000000    5.6036000000    1.5574000000                    
 INPUT CARD>H      1.0      0.0304000000    3.8379000000    1.3363000000                    
 INPUT CARD>H      1.0      2.2550000000    5.0437000000    0.7878000000                    
   40000000 WORDS OF MEMORY AVAILABLE

     BASIS OPTIONS
     -------------
     GBASIS=N311         IGAUSS=       6      POLAR=POPN311 
     NDFUNC=       1     NFFUNC=       0     DIFFSP=       F
     NPFUNC=       1      DIFFS=       F     BASNAM=        


     RUN TITLE
     ---------
 Cyclohexane, ethyl-, ID: C1678917                                               

 THE POINT GROUP OF THE MOLECULE IS C1      
 THE ORDER OF THE PRINCIPAL AXIS IS     0

 ATOM      ATOMIC                      COORDINATES (BOHR)
           CHARGE         X                   Y                   Z
 C           6.0     0.8534002561        8.8310674858        3.6309195128
 C           6.0     3.7032960181        8.8794444711        3.3998060245
 C           6.0     4.8399661998        6.2752130874        3.9155122466
 C           6.0     7.7221762762        6.4020137012        4.0134000527
 C           6.0     4.0116992993        4.3873768257        1.8904818781
 C           6.0     8.8384374172        3.8015617695        4.5198466174
 C           6.0     5.1009373587        1.7835233872        2.4135580315
 C           6.0     7.9704862710        1.8921826315        2.5543426176
 H           1.0     0.2460423236        8.5683955735        5.5971794030
 H           1.0     0.0000000000       10.5892685448        2.9430592533
 H           1.0     0.0574476700        7.2525793683        2.5252408374
 H           1.0     4.2613321023        9.5312109643        1.4887261331
 H           1.0     4.5096420971       10.2802983458        4.7303620925
 H           1.0     4.1364212145        5.5988801564        5.7910652894
 H           1.0     8.4640826990        7.1656519728        2.2090896796
 H           1.0     8.3331246881        7.7456088785        5.4972128983
 H           1.0     1.9107019462        4.3389998404        1.8235855782
 H           1.0     4.6230256564        5.0523714008        0.0000000000
 H           1.0    10.9269625788        3.9128666302        4.5357203157
 H           1.0     8.2858815384        3.1518739749        6.4328162348
 H           1.0     4.3242599777        1.0281999099        4.2057741583
 H           1.0     4.5043508643        0.4438966345        0.9221862820
 H           1.0     8.7537776929        2.3974953606        0.6789785474
 H           1.0     8.7397937206        0.0000000000        3.0046643205

          INTERNUCLEAR DISTANCES (ANGS.)




     $CONTRL OPTIONS
     ---------------
 SCFTYP=RHF          RUNTYP=OPTIMIZE     EXETYP=RUN     
 MPLEVL=       0     CITYP =NONE         CCTYP =NONE         VBTYP =NONE    
 DFTTYP=NONE         TDDFT =NONE    
 MULT  =       1     ICHARG=       0     NZVAR =       1     COORD =UNIQUE  
 PP    =NONE         RELWFN=NONE         LOCAL =NONE         NUMGRD=       F
 ISPHER=      -1     NOSYM =       0     MAXIT =     200     UNITS =ANGS    
 PLTORB=       F     MOLPLT=       F     AIMPAC=       F     FRIEND=        
 NPRINT=       7     IREST =       0     GEOM  =INPUT   
 NORMF =       0     NORMP =       0     ITOL  =      20     ICUT  =       9
 INTTYP=BEST         GRDTYP=BEST         QMTTOL= 1.0E-06

     $SYSTEM OPTIONS
     ---------------
  REPLICATED MEMORY=    40000000 WORDS (ON EVERY NODE).
 DISTRIBUTED MEMDDI=           0 MILLION WORDS IN AGGREGATE,
 MEMDDI DISTRIBUTED OVER   1 PROCESSORS IS           0 WORDS/PROCESSOR.
 TOTAL MEMORY REQUESTED ON EACH PROCESSOR=    40000000 WORDS.
 TIMLIM=       10000.00 MINUTES, OR       6.9 DAYS.
 PARALL= F  BALTYP=  DLB     KDIAG=    0  COREFL= F
 MXSEQ2=     300 MXSEQ3=     150  mem10=         0

     $COSGMS OPTIONS
     ---------------
     EPSI  =   INFTY     NSPA  =      92     COSRAD=    1.40
     DISEX =   10.00     OUTCHG=DBLCAV       COSBUG=       F
     COSWRT=       F     DCOSMO=       F

     SYMMETRY COORDINATES WILL NOT BE USED FOR 
     THE COSMO CALCULATION, EVEN IF SPECIFIED:
         -- SWITCHING TO C1 POINT GROUP --


     DEFINITION OF CAVITY
     ---------------------------
     ATOM         COORDINATES           RADIUS 
     1    0.8534    8.8311    3.6309    2.0000
     2    3.7033    8.8794    3.3998    2.0000
     3    4.8400    6.2752    3.9155    2.0000
     4    7.7222    6.4020    4.0134    2.0000
     5    4.0117    4.3874    1.8905    2.0000
     6    8.8384    3.8016    4.5198    2.0000
     7    5.1009    1.7835    2.4136    2.0000
     8    7.9705    1.8922    2.5543    2.0000
     9    0.2460    8.5684    5.5972    1.3000
    10    0.0000   10.5893    2.9431    1.3000
    11    0.0574    7.2526    2.5252    1.3000
    12    4.2613    9.5312    1.4887    1.3000
    13    4.5096   10.2803    4.7304    1.3000
    14    4.1364    5.5989    5.7911    1.3000
    15    8.4641    7.1657    2.2091    1.3000
    16    8.3331    7.7456    5.4972    1.3000
    17    1.9107    4.3390    1.8236    1.3000
    18    4.6230    5.0524    0.0000    1.3000
    19   10.9270    3.9129    4.5357    1.3000
    20    8.2859    3.1519    6.4328    1.3000
    21    4.3243    1.0282    4.2058    1.3000
    22    4.5044    0.4439    0.9222    1.3000
    23    8.7538    2.3975    0.6790    1.3000
    24    8.7398    0.0000    3.0047    1.3000

          ----------------
          PROPERTIES INPUT
          ----------------

     MOMENTS            FIELD           POTENTIAL          DENSITY
 IEMOM =       1   IEFLD =       0   IEPOT =       0   IEDEN =       0
 WHERE =COMASS     WHERE =NUCLEI     WHERE =NUCLEI     WHERE =NUCLEI  
 OUTPUT=BOTH       OUTPUT=BOTH       OUTPUT=BOTH       OUTPUT=BOTH    
 IEMINT=       0   IEFINT=       0                     IEDINT=       0
                                                       MORB  =       0
          EXTRAPOLATION IN EFFECT
          SOSCF IN EFFECT
 ORBITAL PRINTING OPTION: NPREO=     1   248     2     1

     -------------------------------
     INTEGRAL TRANSFORMATION OPTIONS
     -------------------------------
     NWORD  =            0
     CUTOFF = 1.0E-09     MPTRAN =       0
     DIRTRF =       T     AOINTS =DUP     

          ----------------------
          INTEGRAL INPUT OPTIONS
          ----------------------
 NOPK  =       1 NORDER=       0 SCHWRZ=       T


 -----------------------------------------------
  STATISTICS ON AUTOMATIC COORDINATE GENERATION 
 -----------------------------------------------
  NUMBER OF USER SPECIFIED BONDS                             0
  NUMBER OF BONDS                                           24
  NUMBER OF ANGLES                                          48
  NUMBER OF TORSIONS                                        72
  NUMBER OF EXTRA COORD.                                     0
  NUMBER OF EXTRA COORD. FOR CONSTRAINTS                     0
  NUMBER OF CONSTRAINED COORD.                               0

  TOTAL NUMBER OF PRIMITIVES                               144
 -----------------------------------------------

   --- ENCODED Z MATRIX ---
 COORD  TYPE   I   J   K   L   M   N
    1      1    1   9
    2      1    1   2
    3      1    1  11
    4      1    1  10
    5      1    2   3
    6      1    2  12
    7      1    2  13
    8      1    3  14
    9      1    3   4
   10      1    3   5
   11      1    4  15
   12      1    4   6
   13      1    4  16
   14      1    5   7
   15      1    5  18
   16      1    5  17
   17      1    6   8
   18      1    6  20
   19      1    6  19
   20      1    7  22
   21      1    7  21
   22      1    7   8
   23      1    8  24
   24      1    8  23
   25      2    1   2   3
   26      2    1   2  12
   27      2    1   2  13
   28      2    2   1  11
   29      2    2   1   9
   30      2    2   3   5
   31      2    2   1  10
   32      2    2   3  14
   33      2    2   3   4
   34      2    3   5  17
   35      2    3   5   7
   36      2    3   4  15
   37      2    3   2  12
   38      2    3   4   6
   39      2    3   2  13
   40      2    3   5  18
   41      2    3   4  16
   42      2    4   6  19
   43      2    4   6  20
   44      2    4   6   8
   45      2    4   3   5
   46      2    4   3  14
   47      2    5   7   8
   48      2    5   3  14
   49      2    5   7  22
   50      2    5   7  21
   51      2    6   4  16
   52      2    6   4  15
   53      2    6   8  23
   54      2    6   8  24
   55      2    6   8   7
   56      2    7   5  18
   57      2    7   8  24
   58      2    7   8  23
   59      2    7   5  17
   60      2    8   7  21
   61      2    8   7  22
   62      2    8   6  19
   63      2    8   6  20
   64      2    9   1  10
   65      2    9   1  11
   66      2   10   1  11
   67      2   12   2  13
   68      2   15   4  16
   69      2   17   5  18
   70      2   19   6  20
   71      2   21   7  22
   72      2   23   8  24
   73      3    1   2   3   5
   74      3    1   2   3   4
   75      3    1   2   3  14
   76      3    2   3   5  17
   77      3    2   3   5  18
   78      3    2   3   5   7
   79      3    2   3   4  16
   80      3    2   3   4   6
   81      3    2   3   4  15
   82      3    3   2   1  10
   83      3    3   4   6  19
   84      3    3   4   6  20
   85      3    3   4   6   8
   86      3    3   5   7   8
   87      3    3   5   7  21
   88      3    3   5   7  22
   89      3    3   2   1   9
   90      3    3   2   1  11
   91      3    4   3   5  18
   92      3    4   3   5   7
   93      3    4   6   8  23
   94      3    4   3   5  17
   95      3    4   6   8  24
   96      3    4   6   8   7
   97      3    4   3   2  13
   98      3    4   3   2  12
   99      3    5   3   4   6
  100      3    5   3   4  15
  101      3    5   7   8  23
  102      3    5   7   8  24
  103      3    5   7   8   6
  104      3    5   3   2  13
  105      3    5   3   2  12
  106      3    5   3   4  16
  107      3    6   8   7  21
  108      3    6   8   7  22
  109      3    6   4   3  14
  110      3    7   8   6  19
  111      3    7   8   6  20
  112      3    7   5   3  14
  113      3    8   7   5  17
  114      3    8   7   5  18
  115      3    8   6   4  16
  116      3    8   6   4  15
  117      3    9   1   2  12
  118      3    9   1   2  13
  119      3   10   1   2  13
  120      3   10   1   2  12
  121      3   11   1   2  13
  122      3   11   1   2  12
  123      3   12   2   3  14
  124      3   13   2   3  14
  125      3   14   3   5  18
  126      3   14   3   4  15
  127      3   14   3   5  17
  128      3   14   3   4  16
  129      3   15   4   6  20
  130      3   15   4   6  19
  131      3   16   4   6  20
  132      3   16   4   6  19
  133      3   17   5   7  21
  134      3   17   5   7  22
  135      3   18   5   7  21
  136      3   18   5   7  22
  137      3   19   6   8  24
  138      3   19   6   8  23
  139      3   20   6   8  24
  140      3   20   6   8  23
  141      3   21   7   8  24
  142      3   21   7   8  23
  143      3   22   7   8  24
  144      3   22   7   8  23

          INDEP./SYM. INTERNAL COORDINATES
          --------------------------------
 CRD  1=  -0.1715 (  5) -0.1115 ( 10) -0.1198 ( 14) -0.6061 ( 25)  0.1649 ( 26)
           0.1891 ( 27) -0.2872 ( 30)  0.1068 ( 31)  0.2719 ( 33)  0.1796 ( 37)
           0.2087 ( 39) -0.1030 ( 67)  0.1576 ( 76)  0.1379 ( 77)  0.2136 ( 78)
 CRD  2=   0.1400 (  2)  0.1172 (  5)  0.1658 (  9) -0.2518 ( 10)  0.1114 ( 12)
           0.2646 ( 25) -0.1607 ( 26)  0.1588 ( 29) -0.3097 ( 30)  0.1166 ( 32)
           0.2086 ( 33)  0.1223 ( 35) -0.1436 ( 37)  0.1097 ( 43) -0.1485 ( 44)
          -0.1363 ( 52) -0.1424 ( 73) -0.2284 ( 74)  0.2115 ( 79)  0.3270 ( 80)
           0.1958 ( 81)  0.1461 ( 82)  0.1198 ( 89) -0.1038 ( 98)
 CRD  3=   0.2856 (  2)  0.3589 (  5)  0.2935 (  9)  0.1123 ( 10)  0.2023 ( 12)
           0.1113 ( 25) -0.1660 ( 27)  0.1551 ( 28) -0.1544 ( 32)  0.2999 ( 33)
          -0.1686 ( 45)  0.1528 ( 47)  0.1157 ( 48)  0.1678 ( 73)  0.1500 ( 74)
           0.1288 ( 75)  0.1550 ( 76)  0.1530 ( 77)  0.1982 ( 78)  0.1120 ( 85)
          -0.1021 ( 91) -0.1001 ( 94)
 CRD  4=  -0.1647 (  5) -0.1770 (  9) -0.1064 ( 14)  0.1985 ( 26) -0.1990 ( 27)
           0.1851 ( 28) -0.2315 ( 29) -0.1510 ( 30) -0.2036 ( 37)  0.1181 ( 39)
          -0.1045 ( 40) -0.1125 ( 44) -0.1190 ( 46)  0.1305 ( 48)  0.3076 ( 73)
           0.2755 ( 74)  0.1842 ( 75) -0.1182 ( 78)  0.1534 ( 86)  0.1148 ( 87)
           0.1188 ( 88)  0.1234 ( 89)  0.1314 ( 90)  0.1464 ( 97)  0.1225 ( 98)
           0.1784 (104)  0.1545 (105)
 CRD  5=  -0.1240 (  2)  0.3602 (  5) -0.1270 (  9)  0.1901 ( 10)  0.1280 ( 12)
           0.2078 ( 14) -0.2652 ( 25) -0.1770 ( 28)  0.1581 ( 30)  0.1605 ( 31)
           0.2443 ( 35)  0.1075 ( 37)  0.1952 ( 38)  0.1820 ( 39)  0.1113 ( 43)
          -0.1748 ( 45) -0.2012 ( 47)  0.1465 ( 50) -0.1297 ( 52) -0.1679 ( 56)
          -0.1068 ( 78) -0.1018 ( 92)  0.1678 ( 99)
 CRD  6=   0.1015 (  2) -0.1098 (  5)  0.1806 (  9) -0.1681 ( 12) -0.1449 ( 14)
          -0.1154 ( 32)  0.1155 ( 34) -0.1529 ( 36)  0.1315 ( 38) -0.1154 ( 40)
           0.1346 ( 41) -0.2482 ( 44) -0.1327 ( 45)  0.1033 ( 46) -0.2026 ( 47)
          -0.1732 ( 51) -0.1492 ( 53) -0.1263 ( 54)  0.3795 ( 55) -0.1747 ( 58)
          -0.1095 ( 59)  0.1546 ( 60)  0.1550 ( 63)  0.1247 ( 72) -0.1008 ( 80)
          -0.1179 ( 83) -0.1395 ( 84)  0.1259 ( 87)  0.1076 ( 91)  0.1093 ( 92)
          -0.1264 ( 99) -0.1160 (100)
 CRD  7=  -0.2608 ( 10) -0.1216 ( 13)  0.1253 ( 14) -0.2618 ( 17)  0.3092 ( 22)
          -0.1684 ( 29) -0.1818 ( 35)  0.2926 ( 38) -0.1836 ( 44)  0.1240 ( 47)
          -0.1380 ( 49) -0.1484 ( 51) -0.1675 ( 54)  0.1980 ( 57)  0.2196 ( 59)
           0.1134 ( 68) -0.1033 ( 78) -0.1534 ( 92)  0.1372 (101)  0.1616 (103)
          -0.1235 (112)
 CRD  8=   0.1267 (  5)  0.3767 (  9)  0.3863 ( 10)  0.1375 ( 13)  0.1600 ( 16)
           0.2679 ( 17)  0.1007 ( 19)  0.3273 ( 22)  0.1313 ( 34) -0.1442 ( 35)
           0.1171 ( 40)  0.1166 ( 41)  0.2038 ( 45)  0.1311 ( 61)  0.1362 ( 62)
          -0.1030 ( 85)  0.1003 ( 86)  0.1460 (114) -0.1481 (116) -0.1042 (129)
           0.1086 (135)
 CRD  9=  -0.4210 (  2)  0.1696 ( 10)  0.1856 ( 14)  0.1041 ( 16) -0.1268 ( 17)
          -0.1346 ( 27) -0.2416 ( 28)  0.1480 ( 29) -0.2641 ( 31)  0.1081 ( 34)
          -0.1208 ( 35)  0.1940 ( 39)  0.1314 ( 42)  0.1204 ( 47) -0.1099 ( 50)
           0.1199 ( 56) -0.1067 ( 61) -0.1307 ( 62)  0.2287 ( 66)  0.1721 ( 82)
           0.1532 ( 89)  0.1219 ( 90)  0.1140 ( 93)  0.1246 ( 96) -0.1028 ( 99)
           0.1049 (105)
 CRD 10=  -0.2884 (  2) -0.1396 ( 10)  0.2185 ( 12) -0.1605 ( 14)  0.1171 ( 17)
          -0.2210 ( 26) -0.1700 ( 31)  0.1148 ( 35)  0.2541 ( 37) -0.1639 ( 39)
           0.1014 ( 42) -0.1641 ( 44) -0.1433 ( 49) -0.1648 ( 53)  0.1449 ( 54)
          -0.1520 ( 57)  0.1434 ( 58) -0.1359 ( 60)  0.1183 ( 61)  0.1373 ( 63)
           0.1234 ( 64) -0.1120 ( 79) -0.1250 ( 80) -0.1743 ( 82)  0.1204 ( 85)
           0.1400 ( 86) -0.1637 ( 89) -0.1897 ( 90)
 CRD 11=   0.1179 (  2) -0.1325 (  5)  0.2563 ( 12)  0.2517 ( 14)  0.4383 ( 17)
           0.1214 ( 19)  0.1191 ( 20)  0.3928 ( 22)  0.1959 ( 23) -0.1118 ( 34)
          -0.1179 ( 36) -0.1088 ( 40)  0.1211 ( 60)  0.1029 ( 92)  0.1249 ( 94)
           0.1409 ( 96) -0.1390 (103) -0.1055 (106)  0.1011 (110)
 CRD 12=  -0.2984 (  2)  0.1651 ( 12)  0.1028 ( 13) -0.1373 ( 22) -0.1530 ( 27)
           0.2981 ( 28) -0.3529 ( 29) -0.2012 ( 31)  0.1788 ( 53) -0.1979 ( 58)
           0.1107 ( 60) -0.1243 ( 63)  0.2414 ( 64)  0.1081 ( 78) -0.1044 ( 83)
          -0.1769 ( 85) -0.1586 ( 86) -0.1050 (104)
 CRD 13=  -0.1078 (  2) -0.3977 ( 12)  0.3528 ( 14) -0.1107 ( 19)  0.1201 ( 20)
          -0.1146 ( 26)  0.1780 ( 28) -0.2586 ( 31)  0.1120 ( 33) -0.1068 ( 34)
           0.1462 ( 36)  0.1271 ( 37) -0.1131 ( 40) -0.2185 ( 42)  0.1320 ( 44)
          -0.1779 ( 47)  0.1638 ( 49) -0.1468 ( 52)  0.1232 ( 64)  0.1337 ( 76)
          -0.1211 ( 95) -0.1110 ( 96)
 CRD 14=   0.1047 (  1) -0.1894 ( 12) -0.3489 ( 14) -0.1023 ( 16)  0.1525 ( 17)
           0.1724 ( 22)  0.3061 ( 29) -0.2767 ( 31) -0.1127 ( 32)  0.1209 ( 38)
           0.1617 ( 40) -0.1238 ( 41) -0.1396 ( 49) -0.1012 ( 50) -0.1486 ( 52)
           0.1021 ( 53) -0.1335 ( 55) -0.1757 ( 56)  0.1072 ( 57)  0.1080 ( 60)
           0.1143 ( 62) -0.1014 ( 65)  0.1521 ( 66)  0.1434 ( 77)  0.1170 ( 83)
          -0.1090 ( 86) -0.1406 ( 88)  0.1036 (135)
 CRD 15=  -0.1491 (  2)  0.1346 (  4)  0.1998 (  5) -0.1307 ( 10) -0.3342 ( 12)
          -0.1525 ( 14)  0.2074 ( 17)  0.1116 ( 25) -0.2090 ( 28) -0.2907 ( 29)
           0.3517 ( 31) -0.2092 ( 43) -0.1140 ( 50) -0.1559 ( 51)  0.1120 ( 54)
           0.1778 ( 63)  0.2336 ( 65) -0.1064 (109) -0.1029 (140)
 CRD 16=  -0.2065 ( 14) -0.3255 ( 17) -0.1056 ( 18)  0.3741 ( 22) -0.1348 ( 29)
           0.1114 ( 31)  0.1163 ( 35) -0.1148 ( 38)  0.1434 ( 44) -0.1174 ( 47)
          -0.1479 ( 50) -0.1594 ( 53) -0.1117 ( 54)  0.1409 ( 57)  0.1639 ( 58)
          -0.1667 ( 59)  0.2080 ( 60)  0.1383 ( 61) -0.1393 ( 62) -0.1312 ( 63)
           0.1004 ( 87)  0.1086 ( 92) -0.1054 ( 95) -0.1387 (102)  0.1031 (112)
          -0.1170 (137)  0.1183 (140)  0.1500 (142) -0.1434 (143)
 CRD 17=   0.1082 (  3)  0.1370 (  7)  0.1445 (  9) -0.1154 ( 25)  0.1478 ( 26)
           0.3227 ( 28) -0.1568 ( 29) -0.1046 ( 31) -0.1074 ( 34) -0.1003 ( 37)
           0.1541 ( 39)  0.1600 ( 40)  0.1124 ( 41)  0.1106 ( 42) -0.2117 ( 43)
           0.1493 ( 46) -0.1433 ( 53)  0.1237 ( 54) -0.1890 ( 56)  0.1894 ( 58)
          -0.1006 ( 60) -0.1884 ( 62)  0.1796 ( 63)  0.1250 ( 64) -0.1045 ( 66)
          -0.1178 ( 74)  0.1063 ( 93) -0.1306 ( 97) -0.1586 ( 98) -0.1328 (112)
           0.1402 (115)  0.1052 (116)
 CRD 18=   0.1403 (  2)  0.4002 (  5)  0.1683 (  6)  0.1575 (  7) -0.3269 (  9)
          -0.1063 ( 11) -0.1133 ( 25)  0.2442 ( 28) -0.1826 ( 31)  0.1971 ( 32)
           0.1215 ( 34) -0.1906 ( 36)  0.1336 ( 37)  0.1067 ( 45) -0.1423 ( 46)
          -0.1125 ( 51)  0.1865 ( 52)  0.1256 ( 56) -0.1001 ( 59) -0.1596 ( 65)
          -0.1052 ( 67) -0.1058 ( 76)  0.1137 ( 81) -0.1273 (109)  0.1569 (112)
 CRD 19=  -0.1035 (  3) -0.1248 (  7) -0.1631 (  8) -0.1785 ( 10)  0.1552 ( 15)
          -0.1693 ( 16) -0.2119 ( 27) -0.1997 ( 28) -0.1988 ( 34) -0.1356 ( 36)
           0.1120 ( 39)  0.1303 ( 40)  0.1072 ( 41) -0.1208 ( 47) -0.1019 ( 48)
          -0.1129 ( 49)  0.2189 ( 50)  0.1819 ( 52) -0.1122 ( 53) -0.1469 ( 60)
           0.2303 ( 61)  0.1147 ( 74)  0.1551 ( 75)  0.1383 ( 76)  0.1520 ( 78)
          -0.1565 ( 87) -0.1721 ( 88)  0.1057 ( 92) -0.1022 (104) -0.1001 (109)
           0.1509 (113)  0.1056 (114)
 CRD 20=   0.1314 (  5)  0.1095 (  6)  0.2078 (  9) -0.3028 ( 10)  0.2235 ( 11)
          -0.1257 ( 13) -0.1917 ( 15)  0.1088 ( 19) -0.1167 ( 25)  0.2050 ( 26)
          -0.1280 ( 27)  0.1088 ( 30) -0.1303 ( 33)  0.1323 ( 36) -0.1026 ( 37)
           0.2127 ( 39) -0.1841 ( 40)  0.1119 ( 46) -0.1757 ( 48)  0.1045 ( 54)
           0.1072 ( 56) -0.1126 ( 57)  0.1703 ( 62) -0.1032 ( 63)  0.1192 ( 75)
           0.1188 ( 83) -0.1077 (105) -0.1541 (109) -0.1325 (114) -0.1426 (116)
          -0.1101 (126)
 CRD 21=   0.1240 (  1)  0.3286 (  6) -0.2490 (  7)  0.1515 (  9) -0.1233 ( 10)
          -0.1818 ( 11)  0.2081 ( 13) -0.1674 ( 15)  0.1174 ( 24) -0.1164 ( 28)
           0.1853 ( 29)  0.1341 ( 37)  0.1506 ( 41) -0.1250 ( 43) -0.1294 ( 61)
          -0.1199 ( 62)  0.1185 ( 66)  0.1493 ( 73)  0.1459 ( 74)  0.1743 ( 75)
           0.1088 ( 79)  0.1138 ( 80) -0.1423 ( 82) -0.1310 ( 83) -0.1152 ( 84)
          -0.1254 ( 89) -0.1167 ( 90)  0.1027 ( 99)  0.1018 (123)  0.1210 (124)
 CRD 22=   0.1203 (  5)  0.2140 ( 19)  0.2342 ( 20) -0.1183 ( 21) -0.3346 ( 23)
           0.1930 ( 24) -0.1602 ( 34) -0.1753 ( 41)  0.2149 ( 42) -0.1026 ( 43)
           0.2217 ( 49) -0.1195 ( 50)  0.1393 ( 51) -0.1263 ( 54)  0.1292 ( 59)
           0.1196 ( 93)  0.1356 ( 95) -0.1418 (101) -0.1613 (102)  0.1682 (107)
           0.2129 (108) -0.2047 (110) -0.1561 (111)  0.1423 (113) -0.1331 (115)
          -0.1025 (132)  0.1026 (134)
 CRD 23=   0.1800 ( 11) -0.2132 ( 15)  0.3520 ( 18) -0.1986 ( 19)  0.1662 ( 20)
          -0.3450 ( 21) -0.1141 ( 34)  0.1476 ( 41)  0.1672 ( 53) -0.2150 ( 54)
           0.2284 ( 57) -0.1707 ( 58) -0.1590 ( 93) -0.1910 ( 95) -0.1483 (101)
          -0.1765 (102)  0.1377 (113)  0.1607 (115)
 CRD 24=   0.2276 (  8) -0.3462 ( 18)  0.1243 ( 19)  0.1068 ( 20) -0.3442 ( 21)
           0.1713 ( 23) -0.4672 ( 24) -0.1036 ( 34) -0.1037 ( 56)  0.1193 ( 59)
          -0.1180 ( 60)  0.1031 ( 62) -0.1368 ( 63)  0.1502 ( 96) -0.1511 (103)
          -0.1030 (107) -0.1394 (108)  0.1428 (110)  0.1060 (111)  0.1267 (113)
           0.1079 (114) -0.1234 (115) -0.1114 (116)
 CRD 25=  -0.1118 (  7) -0.4485 (  8) -0.3595 ( 11)  0.1452 ( 13) -0.1423 ( 18)
           0.1372 ( 26) -0.1260 ( 27) -0.1005 ( 37) -0.1132 ( 40) -0.1501 ( 52)
           0.1066 ( 56) -0.1354 ( 59) -0.1071 ( 62) -0.1242 ( 81) -0.1233 ( 83)
          -0.1010 ( 84) -0.1589 ( 91) -0.1674 ( 94) -0.1327 (104) -0.1448 (105)
          -0.1131 (123) -0.1010 (124) -0.1055 (125) -0.1141 (127)
 CRD 26=   0.2617 (  6) -0.1167 (  7)  0.5601 (  8)  0.3044 ( 15) -0.1108 ( 16)
          -0.1091 ( 19)  0.1061 ( 21)  0.1084 ( 36)  0.1359 ( 51) -0.1037 ( 52)
           0.1136 ( 56) -0.1145 ( 77) -0.1575 (100) -0.1644 (106) -0.1046 (126)
          -0.1116 (128)
 CRD 27=   0.5003 (  1)  0.1755 (  2)  0.5010 (  3)  0.4829 (  4) -0.1700 ( 28)
          -0.1783 ( 29) -0.1958 ( 31)  0.2051 ( 64)  0.1808 ( 65)  0.1938 ( 66)
 CRD 28=   0.1156 (  5) -0.1285 (  9)  0.1219 ( 13)  0.3023 ( 16) -0.2576 ( 19)
          -0.2023 ( 20)  0.1820 ( 23) -0.1517 ( 27)  0.1323 ( 51)  0.1419 ( 59)
           0.1231 ( 60) -0.1148 ( 61)  0.1368 ( 76)  0.1281 ( 77) -0.1063 ( 79)
           0.1393 ( 87)  0.1328 ( 88)  0.1249 ( 91)  0.1335 ( 94) -0.1075 ( 97)
          -0.1065 (100) -0.1480 (104) -0.1002 (105) -0.1450 (106) -0.1048 (123)
          -0.1526 (124)  0.1460 (125)  0.1547 (127) -0.1197 (128)  0.1367 (133)
           0.1302 (134)  0.1382 (135)  0.1318 (136)  0.1044 (142)
 CRD 29=  -0.2033 (  6)  0.2856 (  7) -0.1503 (  8) -0.1233 ( 10)  0.1805 ( 13)
          -0.2036 ( 20)  0.1057 ( 21)  0.1114 ( 23) -0.1324 ( 26)  0.1098 ( 27)
          -0.1047 ( 43) -0.1096 ( 58) -0.1006 ( 62)  0.1171 ( 63) -0.1048 ( 84)
           0.1001 ( 89)  0.1076 ( 90)  0.1025 ( 94)  0.1373 ( 97)  0.1614 ( 98)
           0.1143 (104)  0.1384 (105)  0.1014 (122)  0.1933 (123)  0.1692 (124)
          -0.1116 (126) -0.1043 (128) -0.1377 (129) -0.1271 (130) -0.1362 (131)
          -0.1255 (132) -0.1266 (137) -0.1358 (138) -0.1341 (139) -0.1434 (140)
 CRD 30=  -0.1535 (  3)  0.1677 (  4) -0.3048 (  7)  0.1804 ( 11) -0.3439 ( 13)
          -0.2169 ( 15)  0.3198 ( 16) -0.1493 ( 18)  0.1352 ( 19) -0.1069 ( 20)
           0.1421 ( 21)  0.1102 ( 77)  0.1247 ( 81)  0.1036 (100) -0.1073 (118)
           0.1131 (125)  0.1330 (126) -0.1151 (137) -0.1273 (138) -0.1212 (139)
          -0.1335 (140) -0.1291 (141) -0.1405 (142) -0.1235 (143) -0.1349 (144)
 CRD 31=  -0.4554 (  1) -0.1166 (  3)  0.5898 (  4) -0.1060 (  6) -0.3135 ( 65)
           0.2464 ( 66) -0.1297 ( 89)  0.2015 ( 90) -0.1191 (117) -0.1317 (118)
           0.1994 (121)  0.2121 (122)
 CRD 32=   0.4277 (  1) -0.6014 (  3)  0.1577 (  4)  0.3147 ( 64) -0.2277 ( 66)
           0.2249 ( 82) -0.1130 ( 89) -0.1249 (117) -0.1239 (118)  0.2139 (119)
           0.2130 (120)
 CRD 33=  -0.2353 ( 11) -0.2001 ( 13)  0.2396 ( 15)  0.1903 ( 16)  0.3478 ( 18)
           0.3808 ( 19) -0.4031 ( 20) -0.3764 ( 21)  0.1415 ( 70) -0.1525 ( 71)
          -0.1088 (130)  0.1037 (133) -0.1105 (136)
 CRD 34=  -0.1209 ( 16) -0.2811 ( 18) -0.1979 ( 19) -0.1679 ( 20) -0.2603 ( 21)
           0.4590 ( 23)  0.5471 ( 24)  0.2002 ( 72)  0.1038 ( 95) -0.1143 (138)
           0.1445 (139) -0.1361 (141)  0.1142 (144)
 CRD 35=   0.3214 ( 11)  0.3296 ( 13)  0.3235 ( 15)  0.3613 ( 16) -0.2834 ( 18)
          -0.1839 ( 19) -0.1743 ( 20) -0.2633 ( 21) -0.2644 ( 23)  0.1363 ( 68)
           0.1437 ( 69)  0.1446 (130) -0.1445 (136)
 CRD 36=  -0.1181 (  3)  0.4473 (  6)  0.4513 (  7) -0.1756 ( 11) -0.2767 ( 13)
           0.1851 ( 15)  0.2636 ( 16) -0.1297 ( 18) -0.1300 ( 19)  0.1750 ( 20)
           0.1418 ( 21)  0.1885 ( 67) -0.1112 (117)  0.1205 (121)
 CRD 37=  -0.3756 (  6) -0.3004 (  7) -0.3106 ( 11) -0.2540 ( 13)  0.2968 ( 15)
           0.2206 ( 16) -0.2629 ( 19)  0.2081 ( 20) -0.1566 ( 67) -0.1268 ( 68)
           0.1159 ( 69)  0.1016 (104)  0.1227 (117)  0.1346 (124) -0.1006 (128)
 CRD 38=   0.1967 ( 11)  0.2591 ( 13)  0.2093 ( 15)  0.2573 ( 16)  0.1850 ( 18)
           0.3336 ( 19)  0.3425 ( 20)  0.1796 ( 21)  0.3640 ( 23)  0.2354 ( 24)
           0.1050 ( 68)  0.1091 ( 69)  0.1150 ( 70)  0.1164 ( 71)  0.1338 ( 72)
           0.1086 (129) -0.1109 (135)  0.1002 (137) -0.1222 (140)  0.1262 (142)
 CRD 39=   0.1040 (  6) -0.1124 (  7) -0.1050 (  8)  0.2971 ( 11) -0.2222 ( 13)
           0.2664 ( 15) -0.2255 ( 16)  0.2638 ( 23) -0.2385 ( 24)  0.1079 ( 42)
           0.1103 ( 49) -0.1063 ( 76)  0.1144 ( 79) -0.1343 ( 94)  0.1381 (106)
           0.1059 (128) -0.1446 (129) -0.1206 (130) -0.1439 (131) -0.1199 (132)
           0.1399 (133)  0.1154 (134)  0.1531 (135)  0.1286 (136) -0.1293 (137)
          -0.1383 (138) -0.1062 (140)  0.1089 (142)  0.1341 (143)  0.1434 (144)
 CRD 40=  -0.1621 (  6)  0.1400 (  7) -0.1652 ( 11)  0.1522 ( 13)  0.1886 ( 15)
          -0.1699 ( 16) -0.2341 ( 18)  0.2197 ( 19) -0.2125 ( 20)  0.2240 ( 21)
           0.1142 ( 83)  0.1008 ( 87)  0.1251 ( 88)  0.1336 (113)  0.1292 (115)
          -0.1265 (117) -0.1323 (118) -0.1246 (119) -0.1187 (120) -0.1295 (121)
          -0.1236 (122)  0.1278 (129)  0.1503 (130)  0.1652 (131)  0.1877 (132)
           0.1739 (133)  0.1982 (134)  0.1361 (135)  0.1604 (136) -0.1186 (137)
          -0.1090 (139)
 CRD 41=  -0.3096 (  6)  0.3138 (  7)  0.1168 (  8)  0.1299 ( 20) -0.1324 ( 21)
          -0.1705 ( 82) -0.1677 ( 89) -0.1640 ( 90) -0.2613 (117) -0.2540 (118)
          -0.2567 (119) -0.2640 (120) -0.2502 (121) -0.2575 (122) -0.1005 (136)
 CRD 42=   0.1020 ( 13) -0.1549 ( 18)  0.1633 ( 19)  0.1448 ( 20) -0.1355 ( 21)
           0.1898 ( 23) -0.1831 ( 24)  0.1024 ( 83) -0.1186 ( 93) -0.1672 ( 95)
          -0.1130 ( 96)  0.1139 (101)  0.1577 (102)  0.1092 (103)  0.1189 (107)
           0.1666 (108) -0.1702 (110) -0.1225 (111) -0.1227 (113)  0.1387 (115)
           0.1117 (116)  0.1166 (129)  0.1387 (130)  0.1436 (131)  0.1657 (132)
          -0.1235 (133) -0.1432 (134) -0.1117 (136) -0.2244 (137) -0.1759 (138)
          -0.1767 (139) -0.1282 (140)  0.1674 (141)  0.1236 (142)  0.2152 (143)
           0.1713 (144)
 CRD 43=  -0.2247 (  1)  0.1753 (  2) -0.1758 (  3) -0.3196 (  4)  0.1389 (  5)
           0.1881 ( 26)  0.1889 ( 27) -0.2097 ( 28) -0.2207 ( 29) -0.2506 ( 31)
          -0.1654 ( 37) -0.1630 ( 39)  0.2907 ( 64)  0.1781 ( 65)  0.2561 ( 66)
           0.1221 ( 97) -0.1369 ( 98)  0.1449 (104) -0.1141 (105)  0.1384 (112)
          -0.1125 (117) -0.1805 (123)  0.1639 (125)  0.1379 (127)
 CRD 44=   0.1105 (  5)  0.1260 (  6) -0.3891 (  8)  0.2471 ( 11) -0.1095 ( 13)
           0.2681 ( 15) -0.1363 ( 16) -0.2100 ( 18)  0.1080 ( 19)  0.1077 ( 20)
          -0.2215 ( 21) -0.1376 ( 23)  0.2118 ( 24)  0.1258 ( 51)  0.1322 ( 59)
          -0.1284 ( 68) -0.1194 ( 69)  0.1064 ( 71)  0.1791 ( 94) -0.1705 (106)
          -0.1011 (108)  0.1025 (110) -0.1109 (113)  0.1030 (115) -0.1198 (121)
 CRD 45=   0.1770 (  2) -0.1210 (  3)  0.1194 (  5) -0.1266 ( 19) -0.1461 ( 20)
          -0.1007 ( 28) -0.1812 ( 32) -0.1350 ( 34) -0.1069 ( 36) -0.1160 ( 40)
          -0.1172 ( 41)  0.1187 ( 51)  0.1502 ( 52)  0.1606 ( 56)  0.1261 ( 59)
           0.1158 ( 65)  0.1063 ( 66)  0.1178 ( 72) -0.1077 ( 77)  0.1061 ( 81)
          -0.1291 ( 91)  0.1225 (100)  0.1314 (107)  0.1671 (109) -0.1185 (111)
          -0.1541 (112)  0.1065 (113) -0.2695 (125)  0.2730 (126)  0.1079 (128)
          -0.1036 (136) -0.1565 (140)  0.1752 (142)
 CRD 46=  -0.1132 (  9)  0.1110 ( 10)  0.1731 ( 17)  0.2240 ( 19) -0.2226 ( 20)
          -0.1713 ( 22)  0.1019 ( 36) -0.1901 ( 53) -0.2032 ( 54)  0.2027 ( 57)
           0.1922 ( 58) -0.1136 ( 60)  0.1113 ( 63) -0.1437 ( 70)  0.1381 ( 71)
          -0.1716 ( 84) -0.1714 ( 87)  0.1170 ( 93) -0.1136 ( 95)  0.1124 (101)
          -0.1160 (102)  0.1039 (107)  0.1093 (111) -0.2403 (129) -0.1074 (131)
          -0.1081 (133) -0.2400 (135)  0.1505 (138)  0.2228 (140)  0.2137 (142)
           0.1514 (144)
 CRD 47=  -0.1152 (  8) -0.2708 ( 12) -0.1144 ( 13) -0.2701 ( 14) -0.1143 ( 16)
           0.1691 ( 17)  0.1662 ( 22)  0.2763 ( 23) -0.1475 ( 24)  0.1608 ( 42)
           0.1366 ( 43)  0.1551 ( 49)  0.1324 ( 50) -0.1501 ( 60) -0.1066 ( 61)
          -0.1120 ( 62) -0.1521 ( 63) -0.1235 ( 72)  0.1008 ( 84)  0.1540 ( 93)
          -0.1546 (101)  0.1069 (108) -0.1093 (110)  0.1919 (129) -0.1968 (135)
           0.2062 (140) -0.2041 (142)
 CRD 48=  -0.1355 (  9)  0.1247 ( 10) -0.1358 ( 13)  0.1247 ( 16)  0.1400 ( 17)
          -0.1330 ( 22) -0.1583 ( 34)  0.1729 ( 41)  0.1607 ( 42)  0.1539 ( 43)
          -0.1683 ( 49) -0.1457 ( 50) -0.1424 ( 51) -0.1365 ( 52)  0.1174 ( 54)
           0.1411 ( 56) -0.1038 ( 57)  0.1455 ( 59)  0.1218 ( 60)  0.1932 ( 61)
          -0.2111 ( 62) -0.1265 ( 63) -0.1564 ( 77) -0.1461 ( 81) -0.1440 ( 83)
          -0.1117 ( 88) -0.1294 ( 91) -0.1239 (100)  0.1022 (107) -0.1060 (108)
           0.1103 (111)  0.1093 (115) -0.1262 (125) -0.1169 (126) -0.1284 (130)
           0.1493 (131)  0.1432 (133) -0.1077 (136) -0.1162 (138)  0.1633 (139)
           0.1777 (141) -0.1308 (144)
 CRD 49=   0.3862 (  2) -0.2548 (  3) -0.1936 (  5)  0.1127 (  8) -0.1584 (  9)
           0.1117 ( 16)  0.1019 ( 17) -0.1102 ( 18)  0.1010 ( 19) -0.1193 ( 22)
          -0.1118 ( 26) -0.1188 ( 27) -0.1137 ( 29) -0.1127 ( 31)  0.1089 ( 34)
           0.1503 ( 37)  0.1020 ( 40) -0.1276 ( 59)  0.2155 ( 65)  0.1315 ( 66)
           0.1375 ( 75)  0.1173 (114)  0.2081 (117) -0.1309 (119) -0.1047 (121)
           0.1552 (123) -0.1132 (125) -0.1669 (127)  0.1406 (135)  0.1520 (136)
 CRD 50=  -0.1290 (  1)  0.1673 (  3)  0.1723 (  6) -0.2423 (  7) -0.1239 (  8)
           0.1279 ( 10) -0.1123 ( 13)  0.1158 ( 16)  0.1426 ( 17)  0.1261 ( 21)
          -0.1682 ( 22) -0.1056 ( 24)  0.1247 ( 46) -0.1086 ( 48)  0.1131 ( 64)
          -0.1086 ( 66)  0.1287 ( 75) -0.1191 ( 88) -0.1259 (102)  0.1183 (104)
           0.1297 (105) -0.1102 (109) -0.2128 (117) -0.1255 (118) -0.1001 (121)
          -0.1874 (122)  0.2561 (123)  0.2446 (124) -0.1632 (126) -0.1550 (128)
           0.1137 (129)  0.1429 (130) -0.1213 (134)
 CRD 51=  -0.2653 (  1)  0.1362 (  2)  0.1928 (  4) -0.2074 (  5)  0.2314 (  6)
           0.1259 ( 12)  0.1335 ( 13) -0.1476 ( 17)  0.1264 ( 18)  0.1707 ( 36)
           0.2035 ( 39) -0.1181 ( 51)  0.2007 ( 65) -0.1425 ( 66) -0.1362 ( 67)
           0.1314 ( 82)  0.1282 ( 83)  0.1141 ( 89) -0.1114 ( 90)  0.1143 ( 95)
          -0.1207 (116)  0.1241 (117) -0.1057 (118)  0.1414 (120) -0.3311 (121)
          -0.1014 (122)  0.1015 (128) -0.1476 (129)  0.1303 (132)
 CRD 52=  -0.1231 (  1)  0.2298 (  2)  0.1880 (  3) -0.1705 (  4) -0.2009 (  7)
           0.1471 (  8) -0.1653 (  9)  0.1223 ( 10) -0.1344 ( 14) -0.1064 ( 17)
          -0.1313 ( 21)  0.1355 ( 22)  0.1281 ( 24) -0.1277 ( 40) -0.1002 ( 48)
           0.1153 ( 56)  0.2084 ( 64)  0.1941 ( 67)  0.1558 ( 82)  0.1581 ( 88)
           0.1666 ( 98)  0.1396 (102) -0.1413 (104)  0.1141 (106) -0.2265 (117)
           0.1544 (119)  0.2059 (123)  0.1736 (134)
 CRD 53=  -0.1001 (  3) -0.1364 (  5)  0.2583 ( 10)  0.2464 ( 12) -0.1747 ( 13)
          -0.1004 ( 18) -0.1126 ( 19) -0.1509 ( 20)  0.2453 ( 22) -0.1256 ( 23)
           0.1105 ( 32) -0.1226 ( 43) -0.1045 ( 52) -0.1424 ( 58) -0.1370 ( 60)
           0.1437 ( 69)  0.1645 ( 70)  0.1102 ( 72) -0.1047 ( 87)  0.1495 (110)
           0.1342 (113)  0.1004 (125) -0.2130 (126) -0.1261 (128)  0.1249 (129)
           0.1032 (131) -0.1923 (135)  0.1784 (137) -0.2162 (140)  0.1191 (144)
 CRD 54=   0.1013 (  1) -0.1075 (  4)  0.1252 (  5) -0.2295 (  9)  0.1643 ( 11)
          -0.2052 ( 14)  0.1399 ( 16) -0.2264 ( 17)  0.1173 ( 19)  0.1711 ( 21)
           0.1224 ( 23)  0.1501 ( 53)  0.1606 ( 63) -0.1631 ( 68) -0.1884 ( 71)
          -0.1042 ( 84) -0.1202 ( 88) -0.1128 (106)  0.1924 (108)  0.1888 (115)
          -0.1596 (125) -0.1030 (127) -0.1722 (129)  0.1712 (132)  0.1117 (135)
           0.1575 (137)  0.1007 (138)  0.1101 (139) -0.1768 (142)  0.1404 (143)
 CRD 55=   0.1916 (  1)  0.1258 (  2) -0.1400 (  4) -0.1031 (  8)  0.2083 ( 15)
           0.2063 ( 18) -0.1320 ( 24) -0.1031 ( 29) -0.1163 ( 52)  0.1746 ( 66)
          -0.1290 ( 69) -0.1050 ( 70)  0.1048 ( 72)  0.1628 ( 79)  0.1102 ( 80)
          -0.1561 ( 82)  0.1628 ( 83)  0.1697 ( 94)  0.1141 ( 95) -0.1464 ( 97)
          -0.1167 (102)  0.1021 (106) -0.1466 (110) -0.1691 (113) -0.1172 (119)
          -0.1164 (120)  0.1363 (121)  0.1371 (122)  0.1079 (127)  0.1461 (130)
           0.1387 (132) -0.1330 (133) -0.1158 (138) -0.1826 (143)
 CRD 56=   0.2020 (  2)  0.1165 (  3) -0.1997 (  4) -0.1256 ( 10)  0.1132 ( 11)
          -0.1395 ( 12)  0.2530 ( 14) -0.1423 ( 16)  0.1275 ( 17) -0.1034 ( 20)
          -0.1126 ( 26) -0.1377 ( 27) -0.1003 ( 28)  0.1088 ( 39) -0.1096 ( 50)
          -0.1494 ( 56)  0.1303 ( 64) -0.1061 ( 65) -0.1362 ( 68)  0.1298 ( 69)
           0.1073 ( 72) -0.1586 ( 76) -0.1131 ( 78) -0.1282 ( 89)  0.1029 ( 90)
           0.1285 ( 91)  0.1136 ( 98)  0.1154 (105) -0.1318 (106)  0.1078 (115)
          -0.1689 (118)  0.1359 (122) -0.1865 (124)  0.1390 (125)  0.1055 (126)
          -0.1141 (130)  0.1220 (131) -0.1111 (136)  0.1088 (139)  0.1107 (142)
 CRD 57=   0.1304 (  3)  0.1039 (  5) -0.1031 (  9) -0.2223 ( 10)  0.1789 ( 12)
          -0.1298 ( 14)  0.1291 ( 16)  0.2278 ( 17) -0.1472 ( 19)  0.1066 ( 22)
          -0.1295 ( 23) -0.1005 ( 32)  0.1235 ( 41)  0.1200 ( 49) -0.1130 ( 51)
          -0.1139 ( 61) -0.1422 ( 69)  0.1533 ( 70)  0.1461 ( 72) -0.1185 ( 81)
          -0.1005 ( 83) -0.1056 (100) -0.1139 (102)  0.1044 (109) -0.1097 (113)
           0.1560 (120) -0.1202 (125)  0.1773 (128)  0.1514 (131) -0.1349 (133)
           0.1496 (136) -0.1422 (140) -0.1520 (141)  0.1786 (144)
 CRD 58=  -0.1034 (  3)  0.1550 (  4)  0.2156 (  5) -0.2113 (  9) -0.1646 ( 12)
           0.1242 ( 13) -0.1291 ( 20)  0.2310 ( 22) -0.1135 ( 31) -0.1023 ( 39)
           0.1055 ( 65) -0.1474 ( 68)  0.1546 ( 71)  0.1033 ( 72)  0.1071 ( 88)
           0.1256 ( 89)  0.1017 (115)  0.2313 (118) -0.1434 (120) -0.2032 (122)
          -0.1147 (127) -0.1490 (133)  0.1351 (136) -0.1619 (138)  0.1604 (139)
 CRD 59=   0.1275 (  1) -0.1474 (  2) -0.1332 (  4)  0.2056 (  6) -0.1144 ( 15)
           0.1272 ( 22)  0.1035 ( 24)  0.1759 ( 25)  0.1485 ( 31)  0.1059 ( 54)
          -0.1100 ( 59) -0.1226 ( 65) -0.2168 ( 67)  0.1060 ( 71)  0.1361 ( 78)
          -0.1368 ( 87)  0.1546 ( 90)  0.1265 ( 92)  0.1186 ( 97) -0.1299 ( 98)
           0.1514 (104) -0.2620 (118) -0.2086 (119)  0.2290 (122)  0.2101 (124)
          -0.1375 (127)  0.1183 (134)  0.1151 (136) -0.1161 (138)  0.1349 (141)
 CRD 60=  -0.1319 (  1)  0.1374 (  3)  0.1657 (  7) -0.1809 ( 13)  0.1004 ( 14)
          -0.1973 ( 17)  0.1324 ( 19)  0.1195 ( 26) -0.1024 ( 27) -0.1080 ( 28)
           0.1152 ( 29)  0.1146 ( 44)  0.1195 ( 51) -0.1052 ( 57)  0.1145 ( 63)
          -0.1054 ( 66) -0.1286 ( 70)  0.1673 ( 74)  0.1548 ( 75)  0.1264 ( 80)
          -0.2248 ( 84) -0.1515 ( 89) -0.1498 ( 90)  0.1098 ( 99) -0.1302 (105)
           0.1329 (109)  0.1868 (116)  0.1814 (119)  0.2340 (120)  0.2298 (130)
          -0.1468 (131)  0.1296 (139) -0.1214 (144)
 CRD 61=  -0.1706 (  5)  0.1234 ( 16) -0.1539 ( 20)  0.1738 ( 23)  0.1547 ( 35)
           0.1167 ( 38) -0.1232 ( 44) -0.1660 ( 47)  0.1328 ( 55) -0.1026 ( 68)
          -0.1365 ( 69)  0.1049 ( 70)  0.1493 ( 71) -0.1123 ( 72) -0.1060 ( 77)
          -0.1463 ( 87) -0.1784 ( 91)  0.1517 ( 93)  0.1561 (100) -0.1944 (101)
           0.2177 (107) -0.1046 (109) -0.1850 (111)  0.1353 (112)  0.1583 (114)
           0.1599 (127) -0.1508 (128) -0.1053 (130)  0.1224 (131) -0.1932 (133)
           0.1676 (136)  0.1843 (138) -0.1081 (139)  0.1594 (141) -0.2087 (144)
 CRD 62=   0.2206 (  5) -0.1308 (  9)  0.2132 ( 12)  0.2105 ( 14) -0.1316 ( 19)
          -0.1495 ( 22)  0.1401 ( 23) -0.1019 ( 32) -0.1018 ( 35)  0.1081 ( 45)
           0.1540 ( 55)  0.1145 ( 62)  0.1004 ( 69) -0.1509 ( 72)  0.1170 ( 77)
           0.2088 ( 91)  0.1837 ( 93) -0.1834 (100) -0.1205 (101)  0.1234 (107)
           0.1137 (109) -0.1660 (111) -0.1462 (112) -0.2069 (127)  0.1836 (128)
           0.1676 (138) -0.2070 (139)  0.1427 (141) -0.1460 (144)
 CRD 63=   0.1598 (  9) -0.1739 ( 10) -0.1591 ( 11)  0.1125 ( 15) -0.1067 ( 18)
           0.1220 ( 19) -0.1522 ( 20)  0.1453 ( 21) -0.1008 ( 33)  0.1087 ( 35)
          -0.1350 ( 38) -0.1100 ( 42)  0.1314 ( 49) -0.1020 ( 50) -0.1106 ( 58)
          -0.1077 ( 60)  0.1316 ( 68) -0.1076 ( 69) -0.1046 ( 75)  0.1247 ( 85)
           0.1342 ( 86) -0.1536 ( 93)  0.1088 ( 94) -0.1029 ( 95) -0.1706 (101)
          -0.1410 (103)  0.1039 (111)  0.1957 (114)  0.1434 (116)  0.1526 (128)
          -0.2062 (131) -0.1858 (132) -0.2142 (133) -0.1904 (134)  0.1442 (141)
           0.1483 (143)
 CRD 64=  -0.1413 (  9)  0.1017 ( 10)  0.1253 ( 15) -0.1544 ( 16) -0.1579 ( 18)
          -0.1068 ( 24)  0.1118 ( 25)  0.1061 ( 33)  0.1025 ( 34) -0.1201 ( 40)
          -0.1454 ( 48)  0.1037 ( 59) -0.1358 ( 73)  0.1046 ( 75)  0.1817 ( 76)
           0.1993 ( 77)  0.1553 ( 85)  0.1104 ( 86)  0.1840 ( 87) -0.1310 ( 92)
          -0.1432 ( 96) -0.1111 ( 98) -0.2118 (105) -0.1417 (109) -0.1832 (112)
          -0.1123 (114)  0.1831 (124) -0.1555 (130) -0.1621 (132) -0.1053 (134)
          -0.1475 (136)  0.1740 (137)  0.1186 (138)
 CRD 65=  -0.1230 (  6)  0.1261 (  7)  0.1128 ( 10)  0.1491 ( 21)  0.1551 ( 24)
          -0.1053 ( 39) -0.1024 ( 63)  0.1115 ( 73)  0.1956 ( 75)  0.1260 ( 79)
           0.1770 ( 81)  0.1076 ( 84)  0.1393 ( 86) -0.1547 ( 89) -0.1709 ( 90)
           0.1747 ( 96) -0.1611 ( 97) -0.1690 ( 98) -0.1923 (103) -0.1043 (107)
           0.1061 (111) -0.1455 (116)  0.1342 (119)  0.1391 (120) -0.1410 (134)
          -0.1095 (136) -0.1693 (137) -0.1093 (139)  0.1014 (141)  0.2032 (143)
           0.1230 (144)
 CRD 66=  -0.1002 (  6) -0.1747 (  8)  0.1098 ( 10) -0.1284 ( 11) -0.1183 ( 15)
           0.1020 ( 32)  0.1022 ( 36)  0.1030 ( 37) -0.1111 ( 45)  0.1879 ( 73)
          -0.1806 ( 76) -0.1205 ( 77)  0.2077 ( 79)  0.1532 ( 81)  0.1252 ( 84)
           0.1925 ( 85) -0.1733 ( 86) -0.1061 ( 87) -0.1100 ( 89) -0.1311 ( 90)
           0.1950 ( 92) -0.1405 ( 96) -0.2059 ( 97) -0.1443 ( 98) -0.2058 ( 99)
           0.1374 (103) -0.1304 (109)  0.1024 (112) -0.1443 (132)  0.1368 (134)
           0.1080 (137) -0.1052 (143)

 THE DETERMINANT OF THE G MATRIX IS 10**(   -17)


                     --------------------
                     INTERNAL COORDINATES
                     --------------------

                 - - ATOMS - -         COORDINATE      COORDINATE
 NO.   TYPE    I  J  K  L  M  N        (BOHR,RAD)       (ANG,DEG)
 ----------------------------------------------------------------
   1 STRETCH   1  9                     2.0746224       1.0978430
   2 STRETCH   1  2                     2.8596608       1.5132674
   3 STRETCH   1 11                     2.0851116       1.1033936
   4 STRETCH   1 10                     2.0718867       1.0963953
   5 STRETCH   2  3                     2.8879046       1.5282134
   6 STRETCH   2 12                     2.0948580       1.1085512
   7 STRETCH   2 13                     2.0935532       1.1078607
   8 STRETCH   3 14                     2.1142613       1.1188190
   9 STRETCH   3  4                     2.8866582       1.5275538
  10 STRETCH   3  5                     2.8897577       1.5291941
  11 STRETCH   4 15                     2.0950190       1.1086364
  12 STRETCH   4  6                     2.8748700       1.5213158
  13 STRETCH   4 16                     2.0928943       1.1075120
  14 STRETCH   5  7                     2.8705576       1.5190338
  15 STRETCH   5 18                     2.0951991       1.1087317
  16 STRETCH   5 17                     2.1026187       1.1126580
  17 STRETCH   6  8                     2.8744171       1.5210762
  18 STRETCH   6 20                     2.0944844       1.1083535
  19 STRETCH   6 19                     2.0915492       1.1068003
  20 STRETCH   7 22                     2.0915795       1.1068163
  21 STRETCH   7 21                     2.0942254       1.1082164
  22 STRETCH   7  8                     2.8750545       1.5214134
  23 STRETCH   8 24                     2.0916450       1.1068509
  24 STRETCH   8 23                     2.0942485       1.1082287
  25 BEND      1  2  3                  1.9418154     111.2578293
  26 BEND      1  2 12                  1.9224661     110.1491941
  27 BEND      1  2 13                  1.9217538     110.1083792
  28 BEND      2  1 11                  1.9287717     110.5104786
  29 BEND      2  1  9                  1.9503385     111.7461644
  30 BEND      2  3  5                  1.9296091     110.5584593
  31 BEND      2  1 10                  1.9490535     111.6725409
  32 BEND      2  3 14                  1.8922093     108.4156065
  33 BEND      2  3  4                  1.9384579     111.0654565
  34 BEND      3  5 17                  1.9004618     108.8884406
  35 BEND      3  5  7                  1.9349257     110.8630755
  36 BEND      3  4 15                  1.9181273     109.9005984
  37 BEND      3  2 12                  1.9162527     109.7931933
  38 BEND      3  4  6                  1.9325600     110.7275309
  39 BEND      3  2 13                  1.9159178     109.7740027
  40 BEND      3  5 18                  1.9191135     109.9571022
  41 BEND      3  4 16                  1.9216582     110.1029052
  42 BEND      4  6 19                  1.9186929     109.9330057
  43 BEND      4  6 20                  1.9166955     109.8185655
  44 BEND      4  6  8                  1.9424491     111.2941346
  45 BEND      4  3  5                  1.9162669     109.7940081
  46 BEND      4  3 14                  1.8925373     108.4344015
  47 BEND      5  7  8                  1.9319628     110.6933133
  48 BEND      5  3 14                  1.8936625     108.4988705
  49 BEND      5  7 22                  1.9207090     110.0485220
  50 BEND      5  7 21                  1.9202418     110.0217486
  51 BEND      6  4 16                  1.9203289     110.0267387
  52 BEND      6  4 15                  1.9218903     110.1162056
  53 BEND      6  8 23                  1.9167649     109.8225383
  54 BEND      6  8 24                  1.9205259     110.0380306
  55 BEND      6  8  7                  1.9390298     111.0982234
  56 BEND      7  5 18                  1.9194185     109.9745763
  57 BEND      7  8 24                  1.9213828     110.0871255
  58 BEND      7  8 23                  1.9161968     109.7899876
  59 BEND      7  5 17                  1.9434479     111.3513652
  60 BEND      8  7 21                  1.9197142     109.9915223
  61 BEND      8  7 22                  1.9217658     110.1090724
  62 BEND      8  6 19                  1.9199048     110.0024429
  63 BEND      8  6 20                  1.9164620     109.8051831
  64 BEND      9  1 10                  1.8770765     107.5485616
  65 BEND      9  1 11                  1.8702234     107.1559060
  66 BEND     10  1 11                  1.8850753     108.0068598
  67 BEND     12  2 13                  1.8431620     105.6054031
  68 BEND     15  4 16                  1.8475344     105.8559210
  69 BEND     17  5 18                  1.8443402     105.6729110
  70 BEND     19  6 20                  1.8473156     105.8433868
  71 BEND     21  7 22                  1.8477451     105.8679981
  72 BEND     23  8 24                  1.8478317     105.8729583
  73 TORSION   1  2  3  5               1.1362332      65.1013648
  74 TORSION   1  2  3  4              -3.0151553    -172.7556752
  75 TORSION   1  2  3 14              -0.9375359     -53.7168525
  76 TORSION   2  3  5 17              -0.9821128     -56.2709198
  77 TORSION   2  3  5 18               1.0309672      59.0700678
  78 TORSION   2  3  5  7              -3.1259751    -179.1051827
  79 TORSION   2  3  4 16               1.0168878      58.2633799
  80 TORSION   2  3  4  6              -3.1387671    -179.8381050
  81 TORSION   2  3  4 15              -1.0116444     -57.9629567
  82 TORSION   3  2  1 10              -2.9659563    -169.9367795
  83 TORSION   3  4  6 19               3.1157577     178.5197651
  84 TORSION   3  4  6 20              -1.1417191     -65.4156830
  85 TORSION   3  4  6  8               0.9841577      56.3880834
  86 TORSION   3  5  7  8              -1.0018767     -57.4033078
  87 TORSION   3  5  7 21               1.1235315      64.3736118
  88 TORSION   3  5  7 22              -3.1301805    -179.3461340
  89 TORSION   3  2  1  9               1.2137789      69.5444097
  90 TORSION   3  2  1 11              -0.8671422     -49.6835906
  91 TORSION   4  3  5 18              -1.1137976     -63.8158992
  92 TORSION   4  3  5  7               1.0124454      58.0088504
  93 TORSION   4  6  8 23               1.1551422      66.1847755
  94 TORSION   4  3  5 17              -3.1268776    -179.1568867
  95 TORSION   4  6  8 24              -3.1006062    -177.6516480
  96 TORSION   4  6  8  7              -0.9681782     -55.4725234
  97 TORSION   4  3  2 13              -0.8835459     -50.6234513
  98 TORSION   4  3  2 12               1.1352899      65.0473185
  99 TORSION   5  3  4  6              -0.9992342     -57.2519025
 100 TORSION   5  3  4 15               1.1278884      64.6232458
 101 TORSION   5  7  8 23              -1.1497556     -65.8761407
 102 TORSION   5  7  8 24               3.1058270     177.9507778
 103 TORSION   5  7  8  6               0.9738966      55.8001640
 104 TORSION   5  3  2 13              -3.0153427    -172.7664112
 105 TORSION   5  3  2 12              -0.9965069     -57.0956414
 106 TORSION   5  3  4 16              -3.1267646    -179.1504177
 107 TORSION   6  8  7 21              -1.1518216     -65.9945153
 108 TORSION   6  8  7 22               3.1015804     177.7074669
 109 TORSION   6  4  3 14               1.0669957      61.1343526
 110 TORSION   7  8  6 19              -3.0990765    -177.5640050
 111 TORSION   7  8  6 20               1.1578343      66.3390164
 112 TORSION   7  5  3 14              -1.0530886     -60.3375311
 113 TORSION   8  7  5 17              -3.1206477    -178.7999399
 114 TORSION   8  7  5 18               1.1241877      64.4112109
 115 TORSION   8  6  4 16               3.1124676     178.3312570
 116 TORSION   8  6  4 15              -1.1407559     -65.3604990
 117 TORSION   9  1  2 12              -2.9402666    -168.4648687
 118 TORSION   9  1  2 13              -0.9144467     -52.3939358
 119 TORSION  10  1  2 13               1.1890034      68.1248751
 120 TORSION  10  1  2 12              -0.8368166     -47.9460578
 121 TORSION  11  1  2 13              -2.9953679    -171.6219360
 122 TORSION  11  1  2 12               1.2619975      72.3071311
 123 TORSION  12  2  3 14              -3.0702760    -175.9138587
 124 TORSION  13  2  3 14               1.1940735      68.4153715
 125 TORSION  14  3  5 18               3.1038537     177.8377193
 126 TORSION  14  3  4 15              -3.0890670    -176.9904991
 127 TORSION  14  3  5 17               1.0907737      62.4967317
 128 TORSION  14  3  4 16              -1.0605347     -60.7641625
 129 TORSION  15  4  6 20               3.0165526     172.8357345
 130 TORSION  15  4  6 19               0.9908441      56.7711827
 131 TORSION  16  4  6 20               0.9865908      56.5274905
 132 TORSION  16  4  6 19              -1.0391177     -59.5370613
 133 TORSION  17  5  7 21              -0.9952395     -57.0230204
 134 TORSION  17  5  7 22               1.0342338      59.2572339
 135 TORSION  18  5  7 21              -3.0335894    -173.8118695
 136 TORSION  18  5  7 22              -1.0041161     -57.5316153
 137 TORSION  19  6  8 24               1.0516808      60.2568704
 138 TORSION  19  6  8 23              -0.9757561     -55.9067061
 139 TORSION  20  6  8 24              -0.9745937     -55.8401082
 140 TORSION  20  6  8 23              -3.0020306    -172.0036847
 141 TORSION  21  7  8 24               0.9801088      56.1560985
 142 TORSION  21  7  8 23               3.0077116     172.3291800
 143 TORSION  22  7  8 24              -1.0496745     -60.1419193
 144 TORSION  22  7  8 23               0.9779283      56.0311622

     ------------------------------------------
     THE POINT GROUP IS C1 , NAXIS= 1, ORDER= 1
     ------------------------------------------

     DIMENSIONS OF THE SYMMETRY SUBSPACES ARE
 A   =  248

 ..... DONE SETTING UP THE RUN .....
 STEP CPU TIME =     0.02 TOTAL CPU TIME =        0.0 (    0.0 MIN)
 TOTAL WALL CLOCK TIME=        0.0 SECONDS, CPU UTILIZATION IS  66.67%


          -----------------------------
          STATIONARY POINT LOCATION RUN
          -----------------------------

 OBTAINING INITIAL HESSIAN, HESS=GUESS   
 DIAGONAL GUESS HESSIAN IN INTERNAL COORDS IS
     1  0.3411     2  0.3793     3  0.3375     4  0.3421     5  0.3684
     6  0.3341     7  0.3345     8  0.3275     9  0.3689    10  0.3677
    11  0.3340    12  0.3734    13  0.3348    14  0.3751    15  0.3340
    16  0.3314    17  0.3736    18  0.3342    19  0.3352    20  0.3352
    21  0.3343    22  0.3733    23  0.3352    24  0.3343    25  0.2498
    26  0.2240    27  0.2240    28  0.2243    29  0.2246    30  0.2487
    31  0.2247    32  0.2225    33  0.2488    34  0.2228    35  0.2493
    36  0.2231    37  0.2231    38  0.2493    39  0.2231    40  0.2230
    41  0.2232    42  0.2236    43  0.2235    44  0.2497    45  0.2487
    46  0.2225    47  0.2499    48  0.2224    49  0.2237    50  0.2236
    51  0.2236    52  0.2235    53  0.2235    54  0.2236    55  0.2497
    56  0.2236    57  0.2236    58  0.2235    59  0.2234    60  0.2235
    61  0.2236    62  0.2236    63  0.2235    64  0.2027    65  0.2023
    66  0.2024    67  0.2016    68  0.2016    69  0.2013    70  0.2016
    71  0.2017    72  0.2016    73  0.2500    74  0.2500    75  0.2500
    76  0.2500    77  0.2500    78  0.2500    79  0.2500    80  0.2500
    81  0.2500    82  0.2500    83  0.2500    84  0.2500    85  0.2500
    86  0.2500    87  0.2500    88  0.2500    89  0.2500    90  0.2500
    91  0.2500    92  0.2500    93  0.2500    94  0.2500    95  0.2500
    96  0.2500    97  0.2500    98  0.2500    99  0.2500   100  0.2500
   101  0.2500   102  0.2500   103  0.2500   104  0.2500   105  0.2500
   106  0.2500   107  0.2500   108  0.2500   109  0.2500   110  0.2500
   111  0.2500   112  0.2500   113  0.2500   114  0.2500   115  0.2500
   116  0.2500   117  0.2500   118  0.2500   119  0.2500   120  0.2500
   121  0.2500   122  0.2500   123  0.2500   124  0.2500   125  0.2500
   126  0.2500   127  0.2500   128  0.2500   129  0.2500   130  0.2500
   131  0.2500   132  0.2500   133  0.2500   134  0.2500   135  0.2500
   136  0.2500   137  0.2500   138  0.2500   139  0.2500   140  0.2500
   141  0.2500   142  0.2500   143  0.2500   144  0.2500
 TRANSFORMING HESSIAN TO SYMMETRY COORDINATES

          PARAMETERS CONTROLLING GEOMETRY SEARCH ARE
          METHOD =QA                  UPHESS =BFGS    
          NNEG   =         0          NFRZ   =         3
          NSTEP  =        50          IFOLOW =         1
          HESS   =GUESS               RESTAR =         F
          IHREP  =         0          HSSEND =         F
          NPRT   =         0          NPUN   =         0
          OPTTOL = 5.000E-04          RMIN   = 1.500E-03
          RMAX   = 1.000E-01          RLIM   = 7.000E-02
          DXMAX  = 3.000E-01          PURIFY =         F
          MOVIE  =         F          TRUPD  =         T
          TRMAX  = 5.000E-01          TRMIN  = 5.000E-02
          ITBMAT =         5          STPT   =         F
          STSTEP = 1.000E-02          PROJCT=          F
          FROZEN COORD(S)=   1   2   3


      ***** EQUILIBRIUM GEOMETRY LOCATED *****
            (SUBJECT TO   3 CONSTRAINT(S))
 COORDINATES OF ALL ATOMS ARE (ANGS)
   ATOM   CHARGE       X              Y              Z
 ------------------------------------------------------------
 C           6.0   0.4146628919   4.6635429352   1.8731839953
 C           6.0   1.9438048220   4.7217702852   1.8284760931
 C           6.0   2.5814728049   3.3499316263   2.0723084672
 C           6.0   4.1156197364   3.3903587231   2.1208161873
 C           6.0   2.1171936516   2.3277566102   1.0284151207
 C           6.0   4.7066479688   1.9973614891   2.3769839907
 C           6.0   2.6889826836   0.9387467085   1.2892511320
 C           6.0   4.2148785375   0.9731113615   1.3490664955
 H           1.0   0.0723992806   4.2398477651   2.8143083824
 H           1.0  -0.0290747292   5.6468285647   1.7585385817
 H           1.0   0.0252824355   4.0413668406   1.0748948649
 H           1.0   2.2652400292   5.1078073172   0.8609942255
 H           1.0   2.3016674951   5.4269222762   2.5765105170
 H           1.0   2.2398217429   3.0063492230   3.0511566916
 H           1.0   4.5017126505   3.7771684890   1.1770508014
 H           1.0   4.4462820420   4.0771468523   2.8979824475
 H           1.0   1.0362301508   2.2682511747   1.0137358403
 H           1.0   2.4263814541   2.6752824492   0.0411725589
 H           1.0   5.7929787798   2.0426524025   2.3655322798
 H           1.0   4.4188330694   1.6675670209   3.3752562500
 H           1.0   2.2943685258   0.5695497509   2.2357782502
 H           1.0   2.3497202310   0.2518151030   0.5180801610
 H           1.0   4.5995354709   1.2419017772   0.3653671268
 H           1.0   4.6053409210  -0.0141803465   1.5818258639


                     --------------------
                     INTERNAL COORDINATES
                     --------------------

                 - - ATOMS - -         COORDINATE      COORDINATE
 NO.   TYPE    I  J  K  L  M  N        (BOHR,RAD)       (ANG,DEG)
 ----------------------------------------------------------------
   1 STRETCH   1  9                     2.0548345       1.0873716
   2 STRETCH   1  2                     2.8929873       1.5309031
   3 STRETCH   1 11                     2.0492732       1.0844288
   4 STRETCH   1 10                     2.0500673       1.0848490
   5 STRETCH   2  3                     2.8956720       1.5323237
   6 STRETCH   2 12                     2.0600322       1.0901222
   7 STRETCH   2 13                     2.0569913       1.0885130
   8 STRETCH   3 14                     2.0639737       1.0922079
   9 STRETCH   3  4                     2.9015720       1.5354459
  10 STRETCH   3  5                     2.8969630       1.5330069
  11 STRETCH   4 15                     2.0609129       1.0905882
  12 STRETCH   4  6                     2.9002077       1.5347240
  13 STRETCH   4 16                     2.0571149       1.0885784
  14 STRETCH   5  7                     2.8810276       1.5245742
  15 STRETCH   5 18                     2.0623303       1.0913383
  16 STRETCH   5 17                     2.0460056       1.0826996
  17 STRETCH   6  8                     2.8953784       1.5321684
  18 STRETCH   6 20                     2.0598441       1.0900226
  19 STRETCH   6 19                     2.0547649       1.0873348
  20 STRETCH   7 22                     2.0542275       1.0870505
  21 STRETCH   7 21                     2.0596629       1.0899267
  22 STRETCH   7  8                     2.8864703       1.5274544
  23 STRETCH   8 24                     2.0539702       1.0869143
  24 STRETCH   8 23                     2.0596051       1.0898962
  25 BEND      1  2  3                  1.9573164     112.1459681
  26 BEND      1  2 12                  1.9112444     109.5062402
  27 BEND      1  2 13                  1.9102320     109.4482327
  28 BEND      2  1 11                  1.9379668     111.0373177
  29 BEND      2  1  9                  1.9331716     110.7625754
  30 BEND      2  3  5                  1.9418060     111.2572892
  31 BEND      2  1 10                  1.9508832     111.7773714
  32 BEND      2  3 14                  1.8692751     107.1015738
  33 BEND      2  3  4                  1.9793122     113.4062369
  34 BEND      3  5 17                  1.9264979     110.3802009
  35 BEND      3  5  7                  1.9577851     112.1728233
  36 BEND      3  4 15                  1.9131688     109.6164955
  37 BEND      3  2 12                  1.9129889     109.6061881
  38 BEND      3  4  6                  1.9456684     111.4785876
  39 BEND      3  2 13                  1.9111276     109.4995484
  40 BEND      3  5 18                  1.8942712     108.5337450
  41 BEND      3  4 16                  1.9205482     110.0393038
  42 BEND      4  6 19                  1.9232309     110.1930158
  43 BEND      4  6 20                  1.9026514     109.0138945
  44 BEND      4  6  8                  1.9510737     111.7882878
  45 BEND      4  3  5                  1.9194865     109.9784769
  46 BEND      4  3 14                  1.8676496     107.0084409
  47 BEND      5  7  8                  1.9399948     111.1535122
  48 BEND      5  3 14                  1.8815563     107.8052342
  49 BEND      5  7 22                  1.9148536     109.7130286
  50 BEND      5  7 21                  1.8980092     108.7479193
  51 BEND      6  4 16                  1.9139932     109.6637300
  52 BEND      6  4 15                  1.9071362     109.2708541
  53 BEND      6  8 23                  1.9043241     109.1097323
  54 BEND      6  8 24                  1.9265035     110.3805203
  55 BEND      6  8  7                  1.9411526     111.2198521
  56 BEND      7  5 18                  1.9162655     109.7939254
  57 BEND      7  8 24                  1.9249780     110.2931130
  58 BEND      7  8 23                  1.8994549     108.8307518
  59 BEND      7  5 17                  1.9035992     109.0681975
  60 BEND      8  7 21                  1.9127191     109.5907318
  61 BEND      8  7 22                  1.9323992     110.7183161
  62 BEND      8  6 19                  1.9192512     109.9649923
  63 BEND      8  6 20                  1.9043601     109.1117965
  64 BEND      9  1 10                  1.8921901     108.4145067
  65 BEND      9  1 11                  1.8760691     107.4908403
  66 BEND     10  1 11                  1.8706287     107.1791322
  67 BEND     12  2 13                  1.8582916     106.4722663
  68 BEND     15  4 16                  1.8613766     106.6490222
  69 BEND     17  5 18                  1.8630313     106.7438288
  70 BEND     19  6 20                  1.8608973     106.6215595
  71 BEND     21  7 22                  1.8640090     106.7998477
  72 BEND     23  8 24                  1.8655567     106.8885259
  73 TORSION   1  2  3  5               1.0296515      58.9946831
  74 TORSION   1  2  3  4              -3.0788094    -176.4027835
  75 TORSION   1  2  3 14              -1.0224945     -58.5846186
  76 TORSION   2  3  5 17              -0.9688459     -55.5107793
  77 TORSION   2  3  5 18               1.0672484      61.1488295
  78 TORSION   2  3  5  7              -3.0955820    -177.3637843
  79 TORSION   2  3  4 16               1.0067164      57.6806006
  80 TORSION   2  3  4  6               3.1342694     179.5804070
  81 TORSION   2  3  4 15              -1.0350622     -59.3046941
  82 TORSION   3  2  1 10               3.0826312     176.6217575
  83 TORSION   3  4  6 19               3.1000664     177.6207204
  84 TORSION   3  4  6 20              -1.1465524     -65.6926138
  85 TORSION   3  4  6  8               0.9602404      55.0177223
  86 TORSION   3  5  7  8              -0.9809295     -56.2031180
  87 TORSION   3  5  7 21               1.1262180      64.5275364
  88 TORSION   3  5  7 22              -3.1240582    -178.9953511
  89 TORSION   3  2  1  9               0.9705308      55.6073205
  90 TORSION   3  2  1 11              -1.1125785     -63.7460536
  91 TORSION   4  3  5 18              -1.1407773     -65.3617267
  92 TORSION   4  3  5  7               0.9795776      56.1256595
  93 TORSION   4  6  8 23               1.1478838      65.7688988
  94 TORSION   4  3  5 17               3.1063137     177.9786645
  95 TORSION   4  6  8 24              -3.0902202    -177.0565733
  96 TORSION   4  6  8  7              -0.9476305     -54.2952298
  97 TORSION   4  3  2 13              -0.9547487     -54.7030733
  98 TORSION   4  3  2 12               1.0777285      61.7492919
  99 TORSION   5  3  4  6              -0.9621748     -55.1285551
 100 TORSION   5  3  4 15               1.1516790      65.9863438
 101 TORSION   5  7  8 23              -1.1467091     -65.7015939
 102 TORSION   5  7  8 24               3.0951546     177.3392981
 103 TORSION   5  7  8  6               0.9516872      54.5276586
 104 TORSION   5  3  2 13              -3.1294732    -179.3056067
 105 TORSION   5  3  2 12              -1.0969960     -62.8532415
 106 TORSION   5  3  4 16              -3.0897278    -177.0283615
 107 TORSION   6  8  7 21              -1.1467725     -65.7052252
 108 TORSION   6  8  7 22               3.0846748     176.7388444
 109 TORSION   6  4  3 14               1.0770105      61.7081552
 110 TORSION   7  8  6 19              -3.0897253    -177.0282187
 111 TORSION   7  8  6 20               1.1581671      66.3580880
 112 TORSION   7  5  3 14              -1.0508962     -60.2119184
 113 TORSION   8  7  5 17              -3.1206899    -178.8023577
 114 TORSION   8  7  5 18               1.1267664      64.5589595
 115 TORSION   8  6  4 16               3.0915795     177.1344593
 116 TORSION   8  6  4 15              -1.1571276     -66.2985254
 117 TORSION   9  1  2 12               3.0981747     177.5123366
 118 TORSION   9  1  2 13              -1.1540423     -66.1217533
 119 TORSION  10  1  2 13               0.9580581      54.8926837
 120 TORSION  10  1  2 12              -1.0729102     -61.4732264
 121 TORSION  11  1  2 13               3.0460337     174.5248726
 122 TORSION  11  1  2 12               1.0150654      58.1589625
 123 TORSION  12  2  3 14               3.1340434     179.5674568
 124 TORSION  13  2  3 14               1.1015662      63.1150916
 125 TORSION  14  3  5 18               3.1119342     178.3006953
 126 TORSION  14  3  4 15              -3.0923211    -177.1769459
 127 TORSION  14  3  5 17               1.0758399      61.6410866
 128 TORSION  14  3  4 16              -1.0505425     -60.1916512
 129 TORSION  15  4  6 20               3.0192649     172.9911384
 130 TORSION  15  4  6 19               0.9826984      56.3044726
 131 TORSION  16  4  6 20               0.9847867      56.4241231
 132 TORSION  16  4  6 19              -1.0517798     -60.2625427
 133 TORSION  17  5  7 21              -1.0135424     -58.0717034
 134 TORSION  17  5  7 22               1.0193667      58.4054091
 135 TORSION  18  5  7 21              -3.0492715    -174.7103862
 136 TORSION  18  5  7 22              -1.0163624     -58.2332737
 137 TORSION  19  6  8 24               1.0508704      60.2104378
 138 TORSION  19  6  8 23              -0.9942109     -56.9640900
 139 TORSION  20  6  8 24              -0.9844225     -56.4032555
 140 TORSION  20  6  8 23              -3.0295038    -173.5777833
 141 TORSION  21  7  8 24               0.9966950      57.1064143
 142 TORSION  21  7  8 23               3.0380165     174.0655223
 143 TORSION  22  7  8 24              -1.0550431     -60.4495160
 144 TORSION  22  7  8 23               0.9862784      56.5095919

          INTERNUCLEAR DISTANCES (ANGS.)


 =====================================================
   GAMESS/COSab RESULTS
 =====================================================

   Dielectric Constant                  = INFTY
   Basic Grid Size                      =                 1082
   Number of Segments                   =                   92
   Number of Segments located on spheres=                  257
   Number of Segments of the cavity     =                  748
   Solvent Radius (rsolv)               = 1.40
   Outlying Charge Error Method         = double cavity

 =====================================================

  Total solvated Energy (a.u.)          =  -312.3502556510
  Total Energy corrected (a.u.)         =  -312.3501550556

  Outlying charge effect (a.u.)         =     0.0001005954
  Outlying charge effect (kcal/mol)     =     0.0631246120

  Dielectric Energy (a.u.)              =    -0.0011592165
  Dielectric energy corr. (a.u.)        =    -0.0010586211

  Sum of polarization charges           =     0.0310988073
  Sum of polarization charges(cor.)     =    -0.0310988073

  Total surface area of cavity (A**2)   =  166.00
  Total volume of cavity (A**3)         =  169.21

 =====================================================
 NPS=                   748
NR.  ATOM  (X, Y, Z)(a.u.)                  CHARGE(e)  AREA(A**2) SIGMA(e/A**2)
   1   1  -2.076355   9.773110   1.263239   0.002277   0.418105   0.005445
   2   1   0.955268  10.828893   6.732006   0.000945   0.278737   0.003389
   3   1  -2.316264  10.233084   5.170101   0.001960   0.418105   0.004688
   4   1  -2.349000   6.701790   3.418857   0.001355   0.325193   0.004167
   5   1   1.095309   9.162968  -0.210470   0.000624   0.232280   0.002687
   6   1   0.846822  11.312598   0.705835   0.000759   0.232280   0.003269
   7   1   0.666420  10.363517   0.095113   0.001038   0.325193   0.003192
   8   1  -0.592132  10.046627   0.242932   0.001582   0.325193   0.004865
   9   1  -2.132920   6.556388   4.368460   0.001512   0.325193   0.004649
  10   1  -2.068347   9.628590   5.881831   0.001233   0.278737   0.004423
  11   1   0.202595  10.285324   6.971762   0.000865   0.232280   0.003723
  12   1  -1.201798  10.483139   0.791625   0.001032   0.232280   0.004442
  13   1  -1.356603   9.603394   0.526700   0.000907   0.185824   0.004883
  14   1   1.294249   9.886652   7.127325   0.000672   0.232280   0.002893
  15   1  -0.000381  11.189168   6.372207   0.001285   0.278737   0.004609
  16   1  -1.449618  10.655667   5.968963   0.001563   0.278737   0.005606
  17   1  -2.774686   9.019757   4.796774   0.001552   0.464561   0.003341
  18   1  -2.805999   7.700453   3.941860   0.001474   0.464561   0.003173
  19   1  -1.633629   5.912517   3.711620   0.000940   0.185824   0.005056
  20   1   0.815864  11.651333   6.034994   0.001092   0.325193   0.003359
  21   1  -2.803772   9.952855   3.879333   0.001304   0.418105   0.003120
  22   1  -2.715223   9.734825   2.447849   0.001523   0.418105   0.003642
  23   1  -2.588379   8.760951   1.833546   0.001681   0.464561   0.003618
  24   1  -2.708470   7.648470   2.683071   0.001012   0.325193   0.003111
  25   1   0.035112  10.917015   0.490804   0.000814   0.232280   0.003504
  26   1   0.331240   9.516526  -0.145908   0.000879   0.232280   0.003786
  27   1  -2.635322   7.927168   4.885465   0.000846   0.278737   0.003037
  28   1  -0.769388  10.496232   6.546217   0.001443   0.278737   0.005178
  29   1  -1.206251   5.730906   4.448962   0.000813   0.185824   0.004375
  30   1   1.213942  12.103119   5.348925   0.000405   0.139368   0.002907
  31   1  -0.736739  11.334931   5.908704   0.000794   0.185824   0.004272
  32   1  -2.990231   8.802003   3.334132   0.001219   0.464561   0.002625
  33   2   3.178238  12.606403   2.769319   0.000666   0.232280   0.002868
  34   2   6.428398  11.502099   3.253057   0.001527   0.325193   0.004694
  35   2   3.354651   8.978738   7.220898   0.000200   0.092912   0.002153
  36   2   3.155199   9.568362   7.143020   0.000084   0.046456   0.001800
  37   2   6.252528  11.472693   2.392348   0.001426   0.278737   0.005115
  38   2   3.384777  12.329763   1.844747   0.001156   0.371649   0.003112
  39   2   4.166493  12.639384   2.977512   0.001663   0.371649   0.004475
  40   2   5.521799  12.190708   3.021470   0.001645   0.278737   0.005901
  41   2   3.385423  12.672216   3.834264   0.000823   0.278737   0.002954
  42   2   3.747704   9.031299   7.232476   0.000115   0.046456   0.002469
  43   2   4.824766  12.386979   2.476514   0.001395   0.278737   0.005006
  44   3   5.168275   7.665094   7.440141   0.000199   0.092912   0.002141
  45   4  10.664808   8.845502   4.011820   0.001840   0.371649   0.004950
  46   4   7.245340   6.435697   7.749476   0.000207   0.092912   0.002232
  47   4  10.476925   8.898957   3.121128   0.001387   0.278737   0.004975
  48   4   8.411925   9.829085   2.534706   0.000139   0.046456   0.002998
  49   4   8.792843  10.033942   3.695834   0.001262   0.232280   0.005433
  50   4   9.682901   9.652486   3.662651   0.001925   0.325193   0.005919
  51   4  11.238446   7.842566   3.513780   0.001526   0.418105   0.003651
  52   4  11.187642   7.834251   4.793213   0.001131   0.325193   0.003478
  53   4   7.638290   6.477960   7.783994   0.000111   0.046456   0.002386
  54   4  11.208445   7.177857   2.622989   0.000504   0.185824   0.002713
  55   4   9.085778   9.779482   2.913369   0.000656   0.139368   0.004709
  56   5   2.227302   3.936260  -1.361811   0.001829   0.371649   0.004922
  57   5   1.431751   4.320970  -0.827422   0.001400   0.278737   0.005023
  58   5   1.372795   3.122484   4.340961   0.000249   0.139368   0.001788
  59   5   2.033752   5.143219  -1.196705   0.001546   0.278737   0.005546
  60   5   1.940174   3.008108  -0.903238   0.001377   0.371649   0.003706
  61   5   3.133139   3.133276  -1.510499   0.001060   0.278737   0.003803
  62   5   1.441229   2.523630  -0.109836   0.000493   0.185824   0.002656
  63   6  10.782222   5.248302   7.415495   0.001189   0.325193   0.003656
  64   6  10.862979   1.802618   7.045328   0.001597   0.325193   0.004910
  65   6  11.587414   2.324572   6.711998   0.001354   0.278737   0.004856
  66   6  11.507582   5.228680   6.802726   0.000898   0.278737   0.003221
  67   6  11.503989   4.404978   1.831734   0.000332   0.139368   0.002384
  68   6  10.778157   4.279537   7.729151   0.001368   0.278737   0.004909
  69   6  11.047060   2.944765   7.485399   0.001885   0.325193   0.005796
  70   6  11.137823   1.244206   6.179607   0.001236   0.325193   0.003800
  71   6  11.325622   1.038966   5.435173   0.000374   0.139368   0.002681
  72   6   9.789088   4.956213   7.968485   0.000925   0.278737   0.003319
  73   6  10.072562   0.866178   6.598439   0.001177   0.325193   0.003619
  74   6  11.692478   1.301227   5.072737   0.000468   0.185824   0.002519
  75   6  11.357386   3.877996   7.356568   0.001406   0.278737   0.005043
  76   6  11.484932   4.940467   1.999200   0.000124   0.046456   0.002659
  77   7   1.518718   0.535314   2.675055   0.001123   0.325193   0.003452
  78   7   4.036738  -1.846505   2.727957   0.001625   0.325193   0.004997
  79   7   5.607929   1.702700  -1.305595   0.000217   0.092912   0.002332
  80   7   3.661283  -1.546426   3.550962   0.001417   0.278737   0.005082
  81   7   1.689403   0.588264   3.607836   0.000859   0.278737   0.003082
  82   7   1.959506  -0.356145   2.456171   0.001340   0.278737   0.004807
  83   7   2.920151  -1.312402   2.731983   0.001881   0.325193   0.005784
  84   7   4.888361  -1.883655   3.368422   0.001216   0.325193   0.003738
  85   7   5.512536  -1.741560   3.755231   0.000498   0.185824   0.002683
  86   7   1.687162   0.384871   1.523351   0.000863   0.278737   0.003095
  87   7   5.250844  -2.001339   2.384939   0.001276   0.325193   0.003922
  88   7   5.806609  -1.861215   1.698857   0.000232   0.092912   0.002492
  89   7   5.724092   1.325992  -1.261047   0.000121   0.046456   0.002595
  90   7   5.392990  -1.435421   4.407887   0.000550   0.185824   0.002959
  91   7   2.276244  -0.665001   3.119379   0.001392   0.278737   0.004994
  92   8  11.626680   1.295814   1.787090   0.000913   0.278737   0.003276
  93   8   9.164645  -0.881947   0.216581   0.001608   0.325193   0.004945
  94   8   7.545889  -0.414189   5.554734   0.000228   0.092912   0.002454
  95   8   9.503182  -0.141263  -0.278525   0.001394   0.278737   0.005001
  96   8  11.373693   1.732817   0.920416   0.000954   0.278737   0.003422
  97   8  11.255847   0.412929   1.357374   0.001742   0.371649   0.004688
  98   8  10.255269  -0.385897   0.527261   0.001902   0.325193   0.005848
  99   8   8.201086  -0.516112  -0.397209   0.001554   0.418105   0.003716
 100   8  11.442793   0.360214   2.500809   0.000968   0.278737   0.003471
 101   8   7.996436  -1.362802   0.541319   0.001161   0.325193   0.003571
 102   8   7.445778  -0.700995   5.299573   0.000125   0.046456   0.002688
 103   8   7.745195   0.353471  -0.918971   0.000521   0.185824   0.002802
 104   8  10.858136   0.399278   0.589473   0.001436   0.278737   0.005151
 105   9  -0.898716   7.252764   7.412572  -0.002215   0.451437  -0.004907
 106   9  -0.508367   5.776301   6.105529  -0.001007   0.314043  -0.003207
 107   9  -1.845548   6.722786   5.983745  -0.000654   0.353299  -0.001850
 108   9  -1.584224   8.672581   6.942147  -0.000640   0.372926  -0.001715
 109   9   0.352719   8.823810   7.626888  -0.000568   0.353299  -0.001608
 110   9  -0.146386   6.514219   7.244685  -0.002034   0.372926  -0.005454
 111   9  -1.169417   6.216441   6.369105  -0.001199   0.372926  -0.003216
 112   9  -1.912879   7.614667   6.612821  -0.001427   0.471065  -0.003029
 113   9  -0.751515   8.602245   7.531362  -0.001371   0.451437  -0.003038
 114   9   0.449922   7.783379   7.744116  -0.002094   0.471065  -0.004445
 115  10  -1.122136  12.873695   3.113098  -0.003354   0.608459  -0.005512
 116  10   0.522184  13.058571   3.286658  -0.001147   0.353299  -0.003246
 117  10  -0.511524  12.480278   4.920950  -0.000548   0.333671  -0.001641
 118  10  -2.155750  11.690107   4.086691  -0.000691   0.353299  -0.001956
 119  10  -1.869451  11.553103   1.921561  -0.000704   0.372926  -0.001888
 120  10   0.007038  12.261344   1.451803  -0.000627   0.353299  -0.001775
 121  10   0.111308  12.961135   4.196384  -0.001531   0.490692  -0.003120
 122  10  -1.430555  12.346978   4.478013  -0.001551   0.490692  -0.003160
 123  10  -2.197728  11.824497   2.987180  -0.001730   0.510320  -0.003389
 124  10  -1.085539  12.225184   1.723982  -0.001711   0.490692  -0.003486
 125  10   0.181104  12.897279   2.311774  -0.001757   0.490692  -0.003581
 126  11  -1.037728   6.768444   0.005854  -0.002252   0.412182  -0.005463
 127  11  -0.485809   8.199336  -0.299884  -0.000393   0.274788  -0.001430
 128  11  -1.991350   7.639613   0.661200  -0.000699   0.333671  -0.002093
 129  11  -1.874244   6.115063   1.874885  -0.000654   0.294415  -0.002223
[...]
 489   5   1.370241   2.513239   4.006424   0.000035   0.012114   0.002876
 490   7   1.738123   1.248104   0.627588   0.000110   0.028919   0.003788
 491   5   1.487454   1.898365   0.475079   0.000093   0.028919   0.003222
 492   5   1.601527   4.383115   5.131980   0.000389   0.240418   0.001618
 493   9   0.946276   5.297192   5.642001   0.000385   0.240418   0.001603
 494  14   1.813508   4.705937   5.779891   0.000063   0.240418   0.000262
 495   5   0.965599   4.148619   4.370057   0.000011   0.110992   0.000099
 496   9   0.387955   5.112529   4.864045   0.000367   0.110992   0.003307
 497  17   0.727666   4.183030   4.181075  -0.000239   0.110992  -0.002151
 498   9   0.127750   5.356204   5.562020   0.000124   0.151192   0.000820
 499   5   1.142224   4.030120   4.849039   0.000611   0.221671   0.002754
 500   5   0.893909   5.116972  -0.253036   0.000050   0.070926   0.000698
 501  11   0.263779   5.810508   0.013113  -0.000301   0.070926  -0.004240
 502  17   0.649120   5.060284  -0.083368  -0.000182   0.070926  -0.002566
 503   5   2.337046   6.588399  -0.693797   0.000156   0.030657   0.005077
 504  11   1.597761   7.098219  -0.324747   0.000074   0.030657   0.002422
 505  18   2.600264   6.549993  -0.841393   0.000056   0.030657   0.001821
 506  11   0.824089   7.224383  -0.379188  -0.000473   0.240295  -0.001970
 507  11   0.167020   6.418022  -0.223279  -0.000892   0.240295  -0.003711
 508   5   1.530334   5.910018  -0.652856   0.002088   0.670010   0.003117
 509   5   2.174417   3.282243   5.146736   0.000237   0.163893   0.001446
 510  14   2.439385   3.662619   5.735408   0.000088   0.163893   0.000539
 511  21   2.462574   2.633709   5.391015   0.000086   0.163893   0.000526
 512  14   2.170295   4.239099   5.989403  -0.000075   0.060831  -0.001227
 513   5   1.832450   3.653329   5.107518   0.000207   0.085842   0.002411
 514  17   0.799664   3.204759   3.779708  -0.000152   0.080907  -0.001876
 515   5   1.124769   3.265045   4.106606  -0.000065   0.098846  -0.000655
 516  17   0.789579   4.376165  -0.227795  -0.000084   0.085255  -0.000984
 517  17   0.854463   3.090952   0.204904  -0.000508   0.200647  -0.002533
 518   5   1.154030   3.831038  -0.343914  -0.000059   0.177300  -0.000333
 519   5   1.220414   2.471436   0.279989   0.000062   0.104158   0.000595
 520  18   4.267349   3.562193  -1.841428  -0.000030   0.075663  -0.000393
 521  18   3.359100   4.350999  -1.848204  -0.000126   0.170881  -0.000737
 522  18   2.920290   5.690436  -1.514128  -0.000130   0.170881  -0.000760
 523   5   3.669378   3.540508  -1.661843  -0.000053   0.163284  -0.000324
 524   5   2.692989   4.832397  -1.512866   0.000240   0.163284   0.001471
 525   5   2.559504   6.090723  -1.111720   0.000281   0.092439   0.003035
 526  21   2.150813   1.893061   5.082809  -0.000252   0.206568  -0.001219
 527   5   1.636278   2.711475   4.503060   0.000605   0.291111   0.002077
 528  22   2.246274   0.890054  -0.110133  -0.000157   0.212998  -0.000737
 529  22   3.423651   1.247023  -1.025770  -0.000995   0.438065  -0.002272
 530   5   2.297694   2.075758  -0.493347   0.001116   0.581478   0.001918
 531   5   3.739098   2.459226  -1.396477   0.000885   0.300064   0.002950
 532   6  11.642423   3.609879   1.891295   0.000042   0.027331   0.001553
 533   8  11.448027   3.269546   1.581524   0.000069   0.027331   0.002539
 534  19  11.858707   3.627982   2.103279   0.000020   0.027331   0.000740
 535   6  11.760824   1.329718   4.106703   0.000050   0.027331   0.001834
 536   8  11.564866   1.019451   3.767721   0.000115   0.027331   0.004217
 537  19  11.966487   1.552363   4.119954   0.000014   0.027331   0.000513
 538   6   8.730448   0.496554   6.382437   0.000045   0.028588   0.001567
 539   8   8.566378   0.194625   6.019768   0.000070   0.028588   0.002458
 540  20   8.612670   0.631020   6.629226   0.000013   0.028588   0.000457
 541   6  11.329578   3.506432   1.474149   0.000069   0.028581   0.002421
 542   8  11.204971   3.179649   1.117364   0.000047   0.028581   0.001644
 543  23  11.089235   3.192234   0.835822   0.000016   0.028581   0.000562
 544   6  11.317875   0.745778   4.223921   0.000110   0.026761   0.004128
 545   8  11.193810   0.389583   3.896367   0.000062   0.026761   0.002332
 546  24  11.080891   0.108255   3.892633   0.000022   0.026761   0.000825
 547   6   8.843645   0.179351   5.972075   0.000069   0.026761   0.002566
 548   8   8.686295  -0.184464   5.668039   0.000054   0.026761   0.002036
 549  24   8.798542  -0.414245   5.505215   0.000031   0.026761   0.001151
 550   8  11.324310   3.163160   1.246802   0.000049   0.014970   0.003256
 551   6  11.562695   3.628851   1.736122   0.000047   0.014970   0.003146
 552   8  11.402891   0.626773   3.736576   0.000233   0.067583   0.003443
 553   6  11.596614   1.063570   4.276055   0.000194   0.067583   0.002872
 554   8   8.607189  -0.100799   5.799104   0.000053   0.014652   0.003604
 555   6   8.820467   0.380867   6.284516   0.000047   0.014652   0.003206
 556   6  10.644207   4.885824   1.249258   0.000256   0.166252   0.001540
 557  15  10.345455   5.541840   1.018517   0.000046   0.166252   0.000275
 558  23  10.387093   4.468860   0.674822   0.000113   0.166252   0.000678
 559  15  10.767921   6.430079   1.479894  -0.000195   0.217556  -0.000899
 560   6  11.109765   5.380383   1.754531   0.000708   0.306420   0.002310
 561  16   8.900276   6.797529   7.736107  -0.000092   0.214271  -0.000431
 562  16  10.175904   7.151671   6.959886  -0.000984   0.440576  -0.002233
 563   6   9.697491   5.852467   7.538271   0.001232   0.584968   0.002107
 564   6  11.046487   6.277331   6.516401   0.000863   0.301779   0.002859
 565  19  12.095565   4.098576   2.318109  -0.000065   0.076727  -0.000850
 566  19  12.060747   5.008421   2.613217  -0.000048   0.076727  -0.000625
 567   6  11.737366   4.611053   2.248011  -0.000187   0.164536  -0.001135
 568  19  12.068842   5.613052   5.772773  -0.000046   0.071145  -0.000651
 569  19  12.115126   4.662706   6.405432  -0.000187   0.158841  -0.001176
 570  19  12.173028   3.285007   6.450126  -0.000087   0.158841  -0.000546
 571  19  12.210410   2.179722   5.625291  -0.000187   0.158841  -0.001177
 572  19  12.216680   1.760590   4.562348  -0.000058   0.071145  -0.000811
 573   6  11.745958   5.415865   6.246568  -0.000038   0.155141  -0.000247
 574   6  11.812032   3.972154   6.805487   0.000233   0.155141   0.001501
 575   6  11.868723   2.494859   6.341328   0.000172   0.155141   0.001109
 576   6  11.891290   1.628722   5.056666  -0.000035   0.155141  -0.000228
 577  20   8.880837   0.849564   7.052363  -0.000035   0.070155  -0.000501
 578  20   9.683874   1.496736   7.497696  -0.000123   0.155876  -0.000791
 579  20  10.060137   2.699284   8.003457  -0.000050   0.155876  -0.000320
 580  20   9.588525   3.942503   8.278195  -0.000176   0.155876  -0.001129
 581  20   8.731924   4.669283   8.271320  -0.000046   0.070155  -0.000660
 582   6   9.448000   0.965421   6.885315  -0.000064   0.153709  -0.000417
 583   6  10.304343   2.069412   7.496934   0.000228   0.153709   0.001483
 584   6  10.247737   3.521407   7.960297   0.000247   0.153709   0.001610
 585   6   9.301945   4.711841   8.080881  -0.000006   0.153709  -0.000042
 586  23  10.767775   3.695290   0.479675  -0.000166   0.213260  -0.000779
 587   6  11.251307   4.069596   1.435097   0.000683   0.300424   0.002275
 588  24  10.873951  -0.188895   4.196401  -0.000076   0.207332  -0.000368
 589  24   9.729519  -0.487084   5.096553  -0.000800   0.425240  -0.001881
 590   6  10.772711   0.563289   5.185591   0.001137   0.567000   0.002006
 591   6   9.374371   0.276137   6.090174   0.000846   0.291991   0.002897
 592   7   6.013270  -0.878206   4.974305   0.000053   0.027949   0.001897
 593   8   6.509306  -0.834275   4.966747   0.000098   0.027949   0.003499
 594  21   5.783037  -0.799895   5.157799   0.000024   0.027949   0.000848
 595   7   6.179446  -1.567695   1.034018   0.000052   0.026282   0.001988
 596   8   6.673566  -1.515925   1.068068   0.000075   0.026282   0.002866
 597  22   5.958119  -1.564602   0.826793   0.000032   0.026282   0.001233
 598   7   6.208419   0.728764  -1.024344   0.000063   0.026282   0.002386
 599   8   6.702154   0.750056  -0.962977   0.000108   0.026282   0.004124
 600  22   5.984489   0.525552  -1.046653   0.000028   0.026282   0.001063
 601   7   6.652797   1.024770  -1.038114   0.000099   0.028855   0.003437
 602   8   7.150426   1.024225  -1.058896   0.000047   0.028855   0.001626
 603  23   7.365736   1.212942  -1.163088   0.000021   0.028855   0.000715
 604   7   6.479750  -1.057083   4.704203   0.000114   0.026834   0.004250
 605   8   6.975019  -1.078200   4.751876   0.000059   0.026834   0.002193
 606  24   7.208751  -1.244713   4.654119   0.000025   0.026834   0.000948
 607   7   6.613272  -1.717702   1.677966   0.000074   0.026834   0.002749
 608   8   7.110325  -1.747641   1.685222   0.000047   0.026834   0.001743
 609  24   7.331915  -1.854082   1.862653   0.000024   0.026834   0.000884
 610   8   6.848777  -0.979630   4.902880   0.000099   0.025818   0.003826
 611   7   6.136993  -1.015779   4.851315   0.000102   0.025818   0.003941
 612   8   7.001769  -1.689982   1.408602   0.000214   0.077870   0.002745
 613   7   6.291432  -1.676868   1.291833   0.000210   0.077870   0.002695
 614   8   7.040467   0.865136  -1.046412   0.000066   0.015902   0.004166
 615   7   6.327081   0.867545  -1.079265   0.000071   0.015902   0.004455
 616  17   0.868930   2.187110   1.166304  -0.000204   0.215891  -0.000946
 617  17   0.777238   2.393171   2.710729  -0.001231   0.444810  -0.002767
 618   7   1.387382   1.303408   1.875574   0.001019   0.588770   0.001730
 619   7   1.397424   1.675418   3.610515   0.000810   0.304224   0.002662
 620   7   6.078917   2.483031  -1.214797   0.000248   0.165717   0.001494
 621  18   5.903176   3.197290  -1.390555   0.000129   0.165717   0.000778
 622  23   6.822019   2.591085  -1.254103   0.000020   0.165717   0.000118
 623  18   5.145952   3.391260  -1.694590  -0.000133   0.188983  -0.000706
 624   7   5.160330   2.295491  -1.408353   0.000662   0.266282   0.002486
 625  21   1.907147   1.133776   4.586656  -0.000058   0.070510  -0.000823
 626  21   2.153466   0.076497   4.276958  -0.000152   0.156846  -0.000967
 627  21   3.049979  -0.951217   4.249863  -0.000037   0.156846  -0.000238
 628  21   4.311595  -1.287581   4.644640  -0.000186   0.156846  -0.001187
 629  21   5.271863  -0.992943   5.159905  -0.000040   0.070510  -0.000568
 630   7   1.855547   0.839868   4.061628  -0.000028   0.154318  -0.000184
 631   7   2.477865  -0.532810   3.785666   0.000261   0.154318   0.001690
 632   7   3.759824  -1.343091   4.004074   0.000222   0.154318   0.001442
 633   7   5.157654  -1.247278   4.624210   0.000007   0.154318   0.000048
 634  22   5.446904  -1.760173   0.863766  -0.000036   0.071534  -0.000500
 635  22   4.445243  -1.882180   1.413116  -0.000173   0.159936  -0.001084
 636  22   3.142337  -1.443498   1.595549  -0.000092   0.159936  -0.000575
 637  22   2.249941  -0.486648   1.135815  -0.000178   0.159936  -0.001116
 638  22   2.047833   0.400584   0.434411  -0.000059   0.071534  -0.000826
 639   7   5.298735  -1.814932   1.450758  -0.000046   0.155779  -0.000297
 640   7   3.845482  -1.716423   2.002351   0.000231   0.155779   0.001480
 641   7   2.538457  -0.885560   1.837254   0.000213   0.155779   0.001364
 642   7   1.954891   0.310717   1.028380  -0.000048   0.155779  -0.000309
 643  22   4.680210   1.128130  -1.371748  -0.000053   0.076160  -0.000691
 644  22   5.461429   0.601144  -1.246013  -0.000047   0.076160  -0.000622
 645   7   5.286698   1.202958  -1.232191  -0.000147   0.163565  -0.000897
 646  23   7.405940   1.681153  -1.324761  -0.000198   0.216542  -0.000913
 647   7   6.278643   1.658822  -1.240458   0.000656   0.305097   0.002151
 648  24   7.289090  -1.578275   4.325375  -0.000078   0.208085  -0.000377
 649  24   7.316564  -1.966202   2.881925  -0.000876   0.427023  -0.002052
 650   7   6.179247  -1.594323   3.760225   0.001117   0.568871   0.001964
 651   7   6.285919  -1.892551   2.090181   0.000797   0.293087   0.002719
 652  19  12.216852   1.825206   3.812870  -0.000138   0.211119  -0.000656
 653  19  12.216761   2.868326   2.715419  -0.000918   0.433644  -0.002117
 654   8  11.720137   1.461141   2.726313   0.001127   0.576779   0.001954
 655   8  11.604956   2.730697   1.569284   0.000888   0.297347   0.002988
 656   8   6.983993   0.242220   5.911911   0.000250   0.166157   0.001503
 657  20   7.131229   0.728482   6.470428   0.000100   0.166157   0.000602
 658  21   6.232393   0.264008   5.988250   0.000051   0.166157   0.000309
 659  20   7.942521   0.747341   6.839874  -0.000241   0.219512  -0.001098
 660   8   8.012743   0.025396   5.966430   0.000735   0.309205   0.002376
 661  21   5.708355  -0.530378   5.539281  -0.000155   0.204548  -0.000758
 662   8   6.836840  -0.436233   5.476142   0.000647   0.288168   0.002247
 663  22   5.927620   0.067429  -0.976679  -0.000041   0.204388  -0.000203
 664  22   5.952948  -1.068080  -0.047902  -0.000726   0.418835  -0.001733
 665   8   7.050177  -0.197201  -0.511081   0.001230   0.559322   0.002199
 666   8   6.998906  -1.397880   0.646190   0.000833   0.287855   0.002893
 667  23  11.093980   2.801249   0.453247  -0.000035   0.070285  -0.000496
 668  23  10.940759   1.742283   0.103971  -0.000134   0.156240  -0.000857
 669  23  10.130133   0.811345  -0.467388  -0.000021   0.156240  -0.000135
 670  23   8.887841   0.649779  -0.997312  -0.000185   0.156240  -0.001184
 671  23   7.890011   1.096189  -1.265514  -0.000045   0.070285  -0.000646
 672   8  11.187894   2.267864   0.718384   0.000003   0.153923   0.000017
 673   8  10.684426   0.938441   0.158248   0.000271   0.153923   0.001759
 674   8   9.465379   0.289699  -0.495707   0.000223   0.153923   0.001451
 675   8   8.044658   0.595126  -0.967797   0.000000   0.153923   0.000001
 676  24   7.856125  -1.958012   1.732574  -0.000048   0.071693  -0.000676
 677  24   8.863573  -1.672505   1.253521  -0.000177   0.160386  -0.001107
 678  24  10.133730  -1.132065   1.415127  -0.000102   0.160386  -0.000636
 679  24  10.957141  -0.577167   2.387532  -0.000150   0.160386  -0.000932
 680  24  11.094891  -0.263515   3.486897  -0.000047   0.071693  -0.000649
 681   8   8.005915  -1.647679   1.231031  -0.000083   0.156038  -0.000532
 682   8   9.449133  -1.155417   0.897940   0.000215   0.156038   0.001378
 683   8  10.695941  -0.503096   1.573291   0.000229   0.156038   0.001467
 684   8  11.193012   0.019785   2.957367  -0.000025   0.156038  -0.000160
 685  24   8.514984  -0.859806   5.285663  -0.000052   0.077774  -0.000674
 686  24   7.737537  -1.265283   4.869964  -0.000054   0.077774  -0.000695
 687   8   7.895121  -0.753733   5.208876  -0.000168   0.166192  -0.001014
 688  14   2.892221   6.974621   7.687641   0.000203   0.239066   0.000849
 689  14   2.361714   6.020735   7.574515  -0.000148   0.478033  -0.000309
 690  14   1.895475   5.048549   6.777966   0.000140   0.478033   0.000293
 691   9   1.384986   7.350266   7.529810  -0.000274   0.478033  -0.000574
 692   9   0.787026   6.221501   7.123182  -0.000499   0.478033  -0.001043
 693   9   0.494450   5.550448   6.305735   0.000057   0.239066   0.000238
 694  17   0.393420   4.082901   4.166562   0.000291   0.110517   0.002632
 695   9  -0.239768   5.290600   5.231093   0.000331   0.110517   0.002997
 696  17  -0.632253   4.326732   2.122405  -0.000695   0.213840  -0.003249
 697  17  -0.388047   4.505479   0.976847  -0.001860   0.428172  -0.004343
 698  17   0.247426   4.899498   0.057709  -0.000254   0.213840  -0.001188
 699  11  -1.165067   5.432107   1.712813  -0.001525   0.428172  -0.003562
 700  11  -0.616641   5.789192   0.425601  -0.002097   0.428172  -0.004899
 701  18   2.690089   6.688717  -1.109125   0.000235   0.061012   0.003858
 702  11   1.235235   7.550026  -0.468693   0.000236   0.061012   0.003872
 703  12   5.993397   8.356971  -0.107029   0.000115   0.327574   0.000350
 704  15   6.945844   7.788872   0.031173   0.000133   0.327574   0.000405
 705  18   6.062536   7.321279  -0.457172   0.000054   0.327574   0.000166
 706  15   7.594231   8.408464   0.043637   0.000068   0.306684   0.000222
 707  15   8.020026   9.326541   0.895853   0.000056   0.613517   0.000092
 708  12   6.426874   9.586009   0.149938  -0.000243   0.613517  -0.000396
 709  12   6.794754  10.430004   1.100083   0.000542   0.306684   0.001767
 710  18   3.640930   7.186801  -1.235412   0.000369   0.302572   0.001220
 711  18   4.966149   7.270620  -1.223630  -0.000373   0.605403  -0.000616
 712  12   4.054193   8.696441  -0.777168  -0.000041   0.605403  -0.000067
 713  12   5.374043   8.736499  -0.636598   0.000060   0.302572   0.000198
 714  16   8.145514  10.369035   5.302555   0.000416   0.254351   0.001634
 715  16   7.820331  10.105595   6.365811  -0.000167   0.508596  -0.000329
 716  16   7.141162   9.226360   7.205029  -0.000077   0.508596  -0.000151
 717  13   6.745489  11.105030   5.525843   0.000088   0.508596   0.000173
 718  13   6.220068  10.547055   6.688259  -0.000224   0.508596  -0.000441
 719  13   5.617022   9.703015   7.167415   0.000220   0.254351   0.000866
 720  14   4.795246   3.304643   7.028302   0.000157   0.326788   0.000480
 721  20   5.726247   2.737586   7.159893   0.000197   0.326788   0.000603
 722  21   4.819834   2.269096   6.674548   0.000198   0.326788   0.000605
 723  20   6.913230   4.456791   8.231261   0.000239   0.268177   0.000893
 724  20   6.323974   3.445644   8.016181  -0.000203   0.536279  -0.000378
 725  14   5.369287   4.872609   7.986180   0.000015   0.536279   0.000028
 726  14   4.803961   3.875290   7.667337   0.000127   0.268177   0.000475
 727  21   3.998744   1.976756   6.728448   0.000115   0.271935   0.000423
 728  21   2.941133   2.140550   6.168187  -0.000096   0.543832  -0.000177
 729  14   3.544198   3.496123   7.032802  -0.000086   0.543832  -0.000157
 730  14   2.544483   3.691069   6.383319   0.000330   0.271935   0.001213
 731  15   8.102082   5.854358  -0.199727   0.000244   0.337565   0.000723
 732  18   7.218620   5.385182  -0.687796   0.000162   0.337565   0.000479
 733  23   8.143550   4.771590  -0.545005   0.000204   0.337565   0.000603
 734  18   6.379974   6.754614  -0.990799   0.000052   0.252919   0.000208
 735  18   6.814628   6.026386  -1.078507   0.000081   0.252919   0.000319
 736  15   7.839710   7.046823  -0.327017  -0.000135   0.505646  -0.000266
 737  23   8.963124   4.616853  -0.747289   0.000141   0.261430   0.000538
 738  23   9.954971   4.485922  -0.218794   0.000087   0.522616   0.000166
 739  15   9.297272   6.106873  -0.080111   0.000005   0.522616   0.000009
 740  15  10.238823   5.948799   0.527099   0.000258   0.261430   0.000988
 741  23   7.326351   2.853430  -1.573800   0.000236   0.267747   0.000883
 742  23   7.935883   3.828061  -1.350440  -0.000116   0.535334  -0.000217
 743  18   6.255665   4.093692  -1.715236   0.000033   0.535334   0.000062
 744  18   6.841216   5.054705  -1.391341   0.000116   0.267747   0.000433
 745  21   5.726648   0.252089   6.385938   0.000256   0.257003   0.000997
 746  21   5.091133   1.094001   6.759518  -0.000037   0.513771  -0.000073
 747  20   6.761143   1.221283   7.241055   0.000077   0.513771   0.000150
 748  20   6.145471   2.108700   7.533792   0.000140   0.257003   0.000544
 =====================================================

              5551409  WORDS OF DYNAMIC MEMORY USED
 EXECUTION OF GAMESS TERMINATED NORMALLY Thu Nov 24 01:40:25 2016
 DDI: 263640 bytes (0.3 MB / 0 MWords) used by master data server.

 ----------------------------------------
 CPU timing information for all processes
 ========================================
 0: 3535.632 + 1.36 = 3536.668
 ----------------------------------------
 ddikick.x: exited gracefully.
