----- GAMESS execution script -----

          ******************************************************
          *         GAMESS VERSION =  5 DEC 2014 (R1)          *
          *             FROM IOWA STATE UNIVERSITY             *
          * M.W.SCHMIDT, K.K.BALDRIDGE, J.A.BOATZ, S.T.ELBERT, *
          *   M.S.GORDON, J.H.JENSEN, S.KOSEKI, N.MATSUNAGA,   *
          *          K.A.NGUYEN, S.J.SU, T.L.WINDUS,           *
          *       TOGETHER WITH M.DUPUIS, J.A.MONTGOMERY       *
          *         J.COMPUT.CHEM.  14, 1347-1363(1993)        *
          **************** 64 BIT LINUX VERSION ****************

 EXECUTION OF GAMESS BEGUN Thu Nov 24 02:45:25 2016

            ECHO OF THE FIRST FEW INPUT CARDS -
 INPUT CARD>! SELECT RESTRICTED HARTREE-FOCK AS DEFAULT                                     
 INPUT CARD>$contrl scftyp=rhf $end                                                         
 INPUT CARD>                                                                                
 INPUT CARD>! THEORY: HF OR DFT                                                             
 INPUT CARD> $contrl mplevl=0 $end                                                          
 INPUT CARD>                                                                                
 INPUT CARD> $system timlim=10000 mwords=20 $end                                            
 INPUT CARD> $SCF DIRSCF=.TRUE. $end                                                        
 INPUT CARD>                                                                                
 INPUT CARD>                                                                                
 INPUT CARD>! BASIS SETS                                                                    
 INPUT CARD>! 6-311G(d,p)                                                                   
 INPUT CARD> $BASIS GBASIS=N311 NGAUSS=6 NDFUNC=1 NPFUNC=1 $END                             
 INPUT CARD>                                                                                
 INPUT CARD>! One of the following                                                          
 INPUT CARD> $guess guess=HUCKEL $end                                                       
 INPUT CARD>                                                                                
 INPUT CARD> $statpt projct=.FALSE. $end                                                    
 INPUT CARD> $STATPT IFREEZ(1)=1,2,3 $END                                                   
 INPUT CARD>                                                                                
 INPUT CARD>! Optimize the geometry with COSMO effects                                      
 INPUT CARD> $statpt opttol=0.0005 nstep=50 $end                                            
 INPUT CARD> $contrl nzvar=1 $end                                                           
 INPUT CARD> $zmat dlc=.t. auto=.t. $end                                                    
 INPUT CARD> $contrl runtyp=OPTIMIZE maxit=200 $end                                         
 INPUT CARD>                                                                                
 INPUT CARD>! Run COSMO on perfect conductor                                                
 INPUT CARD> $COSGMS PRFCND=.TRUE. $end                                                     
 INPUT CARD>                                                                                
 INPUT CARD>! Specifying RSOLV                                                              
 INPUT CARD> $COSGMS COSRAD = 1.4 $end                                                      
 INPUT CARD>                                                                                
 INPUT CARD>! available memory                                                              
 INPUT CARD> $SYSTEM MWORDS=40 $END                                                         
 INPUT CARD>                                                                                
 INPUT CARD> $DATA                                                                          
 INPUT CARD>3-Heptanone, ID: C106354                                                        
 INPUT CARD>C1                                                                              
 INPUT CARD>C      6.0      4.0365000000    1.5161000000    1.0236000000                    
 INPUT CARD>C      6.0      2.7638000000    1.8559000000    1.7741000000                    
 INPUT CARD>C      6.0      1.9777000000    0.6398000000    2.2253000000                    
 INPUT CARD>O      8.0      2.3956000000    2.9951000000    1.9813000000                    
 INPUT CARD>C      6.0      5.0242000000    2.6604000000    0.8641000000                    
 INPUT CARD>C      6.0      0.6714000000    0.9577000000    2.9130000000                    
 INPUT CARD>C      6.0      5.8729000000    2.8669000000    2.1107000000                    
 INPUT CARD>C      6.0      6.7455000000    1.6669000000    2.4065000000                    
 INPUT CARD>H      1.0      4.5501000000    0.6706000000    1.5390000000                    
 INPUT CARD>H      1.0      3.7354000000    1.1326000000    0.0289000000                    
 INPUT CARD>H      1.0      1.7981000000    0.0000000000    1.3382000000                    
 INPUT CARD>H      1.0      2.6248000000    0.0414000000    2.8978000000                    
   40000000 WORDS OF MEMORY AVAILABLE

     BASIS OPTIONS
     -------------
     GBASIS=N311         IGAUSS=       6      POLAR=POPN311 
     NDFUNC=       1     NFFUNC=       0     DIFFSP=       F
     NPFUNC=       1      DIFFS=       F     BASNAM=        


     RUN TITLE
     ---------
 3-Heptanone, ID: C106354                                                        

 THE POINT GROUP OF THE MOLECULE IS C1      
 THE ORDER OF THE PRINCIPAL AXIS IS     0

 ATOM      ATOMIC                      COORDINATES (BOHR)
           CHARGE         X                   Y                   Z
 C           6.0     7.6278789494        2.8650135700        1.9343235210
 C           6.0     5.2228246849        3.5071424606        3.3525628748
 C           6.0     3.7373110859        1.2090466869        4.2052072405
 O           8.0     4.5270275762        5.6599183058        3.7441140995
 C           6.0     9.4943613075        5.0274270177        1.6329122260
 C           6.0     1.2687620282        1.8097905784        5.5047718022
 C           6.0    11.0981717533        5.4176554342        3.9886446423
 C           6.0    12.7471466502        3.1499842489        4.5476255895
 H           1.0     8.5984422167        1.2672502474        2.9082882951
 H           1.0     7.0588824545        2.1403036537        0.0546130810
 H           1.0     3.3979162985        0.0000000000        2.5288313168
 H           1.0     4.9601527726        0.0782346559        5.4760479672
 H           1.0     8.4890270820        6.8013128024        1.1584020305
 H           1.0    10.7436591580        4.6279389439        0.0000000000
 H           1.0     1.5607246933        2.9243509660        7.2302806016
 H           1.0     0.2741992408        0.0719985601        6.0458003525
 H           1.0     0.0000000000        2.8992176104        4.2770168280
 H           1.0    12.2879432352        7.1221882751        3.7460038255
 H           1.0     9.8590784231        5.8256472749        5.6266591284
 H           1.0    11.6046183180        1.4063340801        4.5977033281
 H           1.0    14.2079048387        2.8840998025        3.0993395925
 H           1.0    13.7059936163        3.3321538341        6.3755575374

          INTERNUCLEAR DISTANCES (ANGS.)




     $CONTRL OPTIONS
     ---------------
 SCFTYP=RHF          RUNTYP=OPTIMIZE     EXETYP=RUN     
 MPLEVL=       0     CITYP =NONE         CCTYP =NONE         VBTYP =NONE    
 DFTTYP=NONE         TDDFT =NONE    
 MULT  =       1     ICHARG=       0     NZVAR =       1     COORD =UNIQUE  
 PP    =NONE         RELWFN=NONE         LOCAL =NONE         NUMGRD=       F
 ISPHER=      -1     NOSYM =       0     MAXIT =     200     UNITS =ANGS    
 PLTORB=       F     MOLPLT=       F     AIMPAC=       F     FRIEND=        
 NPRINT=       7     IREST =       0     GEOM  =INPUT   
 NORMF =       0     NORMP =       0     ITOL  =      20     ICUT  =       9
 INTTYP=BEST         GRDTYP=BEST         QMTTOL= 1.0E-06

     $SYSTEM OPTIONS
     ---------------
  REPLICATED MEMORY=    40000000 WORDS (ON EVERY NODE).
 DISTRIBUTED MEMDDI=           0 MILLION WORDS IN AGGREGATE,
 MEMDDI DISTRIBUTED OVER   1 PROCESSORS IS           0 WORDS/PROCESSOR.
 TOTAL MEMORY REQUESTED ON EACH PROCESSOR=    40000000 WORDS.
 TIMLIM=       10000.00 MINUTES, OR       6.9 DAYS.
 PARALL= F  BALTYP=  DLB     KDIAG=    0  COREFL= F
 MXSEQ2=     300 MXSEQ3=     150  mem10=         0

     $COSGMS OPTIONS
     ---------------
     EPSI  =   INFTY     NSPA  =      92     COSRAD=    1.40
     DISEX =   10.00     OUTCHG=DBLCAV       COSBUG=       F
     COSWRT=       F     DCOSMO=       F

     SYMMETRY COORDINATES WILL NOT BE USED FOR 
     THE COSMO CALCULATION, EVEN IF SPECIFIED:
         -- SWITCHING TO C1 POINT GROUP --


     DEFINITION OF CAVITY
     ---------------------------
     ATOM         COORDINATES           RADIUS 
     1    7.6279    2.8650    1.9343    2.0000
     2    5.2228    3.5071    3.3526    2.0000
     3    3.7373    1.2090    4.2052    2.0000
     4    4.5270    5.6599    3.7441    1.7200
     5    9.4944    5.0274    1.6329    2.0000
     6    1.2688    1.8098    5.5048    2.0000
     7   11.0982    5.4177    3.9886    2.0000
     8   12.7471    3.1500    4.5476    2.0000
     9    8.5984    1.2673    2.9083    1.3000
    10    7.0589    2.1403    0.0546    1.3000
    11    3.3979    0.0000    2.5288    1.3000
    12    4.9602    0.0782    5.4760    1.3000
    13    8.4890    6.8013    1.1584    1.3000
    14   10.7437    4.6279    0.0000    1.3000
    15    1.5607    2.9244    7.2303    1.3000
    16    0.2742    0.0720    6.0458    1.3000
    17    0.0000    2.8992    4.2770    1.3000
    18   12.2879    7.1222    3.7460    1.3000
    19    9.8591    5.8256    5.6267    1.3000
    20   11.6046    1.4063    4.5977    1.3000
    21   14.2079    2.8841    3.0993    1.3000
    22   13.7060    3.3322    6.3756    1.3000

          ----------------
          PROPERTIES INPUT
          ----------------

     MOMENTS            FIELD           POTENTIAL          DENSITY
 IEMOM =       1   IEFLD =       0   IEPOT =       0   IEDEN =       0
 WHERE =COMASS     WHERE =NUCLEI     WHERE =NUCLEI     WHERE =NUCLEI  
 OUTPUT=BOTH       OUTPUT=BOTH       OUTPUT=BOTH       OUTPUT=BOTH    
 IEMINT=       0   IEFINT=       0                     IEDINT=       0
                                                       MORB  =       0
          EXTRAPOLATION IN EFFECT
          SOSCF IN EFFECT
 ORBITAL PRINTING OPTION: NPREO=     1   236     2     1

     -------------------------------
     INTEGRAL TRANSFORMATION OPTIONS
     -------------------------------
     NWORD  =            0
     CUTOFF = 1.0E-09     MPTRAN =       0
     DIRTRF =       T     AOINTS =DUP     

          ----------------------
          INTEGRAL INPUT OPTIONS
          ----------------------
 NOPK  =       1 NORDER=       0 SCHWRZ=       T


 -----------------------------------------------
  STATISTICS ON AUTOMATIC COORDINATE GENERATION 
 -----------------------------------------------
  NUMBER OF USER SPECIFIED BONDS                             0
  NUMBER OF BONDS                                           21
  NUMBER OF ANGLES                                          39
  NUMBER OF TORSIONS                                        48
  NUMBER OF EXTRA COORD.                                     0
  NUMBER OF EXTRA COORD. FOR CONSTRAINTS                     0
  NUMBER OF CONSTRAINED COORD.                               0

  TOTAL NUMBER OF PRIMITIVES                               108
 -----------------------------------------------

   --- ENCODED Z MATRIX ---
 COORD  TYPE   I   J   K   L   M   N
    1      1    1   5
    2      1    1   9
    3      1    1   2
    4      1    1  10
    5      1    2   4
    6      1    2   3
    7      1    3  12
    8      1    3  11
    9      1    3   6
   10      1    5  13
   11      1    5   7
   12      1    5  14
   13      1    6  16
   14      1    6  15
   15      1    6  17
   16      1    7   8
   17      1    7  19
   18      1    7  18
   19      1    8  22
   20      1    8  21
   21      1    8  20
   22      2    1   2   4
   23      2    1   2   3
   24      2    1   5  13
   25      2    1   5  14
   26      2    1   5   7
   27      2    2   3  11
   28      2    2   3  12
   29      2    2   1  10
   30      2    2   1   9
   31      2    2   1   5
   32      2    2   3   6
   33      2    3   2   4
   34      2    3   6  15
   35      2    3   6  17
   36      2    3   6  16
   37      2    5   1  10
   38      2    5   7  19
   39      2    5   7   8
   40      2    5   7  18
   41      2    5   1   9
   42      2    6   3  12
   43      2    6   3  11
   44      2    7   8  20
   45      2    7   5  14
   46      2    7   5  13
   47      2    7   8  21
   48      2    7   8  22
   49      2    8   7  19
   50      2    8   7  18
   51      2    9   1  10
   52      2   11   3  12
   53      2   13   5  14
   54      2   15   6  17
   55      2   15   6  16
   56      2   16   6  17
   57      2   18   7  19
   58      2   20   8  21
   59      2   20   8  22
   60      2   21   8  22
   61      3    1   5   7   8
   62      3    1   2   3   6
   63      3    1   2   3  12
   64      3    1   5   7  18
   65      3    1   5   7  19
   66      3    1   2   3  11
   67      3    2   1   5  14
   68      3    2   1   5  13
   69      3    2   3   6  17
   70      3    2   3   6  15
   71      3    2   3   6  16
   72      3    2   1   5   7
   73      3    3   2   1  10
   74      3    3   2   1   9
   75      3    3   2   1   5
   76      3    4   2   1  10
   77      3    4   2   3  12
   78      3    4   2   3  11
   79      3    4   2   1   5
   80      3    4   2   3   6
   81      3    4   2   1   9
   82      3    5   7   8  20
   83      3    5   7   8  21
   84      3    5   7   8  22
   85      3    7   5   1  10
   86      3    7   5   1   9
   87      3    8   7   5  14
   88      3    8   7   5  13
   89      3    9   1   5  14
   90      3    9   1   5  13
   91      3   10   1   5  14
   92      3   10   1   5  13
   93      3   11   3   6  16
   94      3   11   3   6  17
   95      3   11   3   6  15
   96      3   12   3   6  16
   97      3   12   3   6  17
   98      3   12   3   6  15
   99      3   13   5   7  19
  100      3   13   5   7  18
  101      3   14   5   7  19
  102      3   14   5   7  18
  103      3   18   7   8  22
  104      3   18   7   8  21
  105      3   18   7   8  20
  106      3   19   7   8  22
  107      3   19   7   8  21
  108      3   19   7   8  20

          INDEP./SYM. INTERNAL COORDINATES
          --------------------------------
 CRD  1=   0.1496 (  1)  0.1137 (  3)  0.1007 ( 11) -0.1182 ( 22)  0.2592 ( 23)
          -0.2586 ( 24) -0.1085 ( 25)  0.5943 ( 26) -0.1422 ( 33)  0.1852 ( 39)
           0.1044 ( 41) -0.2219 ( 45) -0.1367 ( 46) -0.1160 ( 50)  0.1509 ( 61)
           0.1635 ( 67)  0.1305 ( 72) -0.2172 ( 75) -0.1281 ( 79)  0.1342 ( 88)
 CRD  2=  -0.2057 ( 22)  0.3831 ( 23)  0.1178 ( 25) -0.2105 ( 26)  0.1226 ( 27)
           0.1163 ( 28)  0.1995 ( 29)  0.1753 ( 30) -0.5561 ( 31) -0.3456 ( 32)
          -0.1767 ( 33)  0.1639 ( 37)  0.1302 ( 41)  0.1118 ( 43)
 CRD  3=   0.1182 ( 11) -0.1431 ( 23)  0.1426 ( 29) -0.1849 ( 38)  0.5551 ( 39)
          -0.1804 ( 40)  0.1286 ( 45) -0.1586 ( 46) -0.1153 ( 48) -0.1929 ( 49)
          -0.1246 ( 50) -0.2183 ( 62) -0.1481 ( 63) -0.1273 ( 66) -0.1241 ( 67)
          -0.1506 ( 68) -0.2812 ( 72) -0.1233 ( 80) -0.1702 ( 85) -0.1538 ( 86)
 CRD  4=   0.2605 (  3)  0.1704 (  6)  0.2189 (  9) -0.1290 ( 22)  0.1699 ( 25)
          -0.1515 ( 26) -0.1278 ( 27) -0.2121 ( 28)  0.1294 ( 30) -0.1867 ( 31)
           0.5224 ( 32)  0.1215 ( 34)  0.1195 ( 35)  0.1074 ( 37) -0.1081 ( 38)
           0.1326 ( 39) -0.1392 ( 42) -0.1706 ( 43)  0.1070 ( 44)  0.1070 ( 46)
          -0.1309 ( 50)  0.1774 ( 61)  0.1227 ( 64)  0.1148 ( 65)  0.1261 ( 75)
 CRD  5=  -0.2759 (  1) -0.2902 (  3) -0.3434 (  6) -0.1750 (  9)  0.1477 ( 22)
          -0.4126 ( 23) -0.1661 ( 24)  0.1137 ( 26)  0.1039 ( 30) -0.3196 ( 31)
           0.2641 ( 33) -0.1044 ( 36)  0.1298 ( 37)  0.1474 ( 41)  0.1456 ( 61)
           0.1116 ( 62)  0.1034 ( 67)  0.1025 ( 72)
 CRD  6=  -0.1842 ( 11) -0.2493 ( 16) -0.1166 ( 22)  0.1364 ( 26) -0.1879 ( 27)
           0.2082 ( 29) -0.2094 ( 31)  0.2770 ( 32)  0.1303 ( 35)  0.1226 ( 38)
          -0.3677 ( 39)  0.1992 ( 41) -0.1713 ( 42) -0.1464 ( 44)  0.1044 ( 49)
           0.1506 ( 50) -0.1355 ( 62) -0.1097 ( 63) -0.1033 ( 70) -0.1202 ( 72)
          -0.1167 ( 74) -0.1921 ( 75) -0.1074 ( 77) -0.1967 ( 79) -0.1332 ( 80)
          -0.1213 ( 81)
 CRD  7=   0.1418 (  1)  0.2839 ( 11)  0.2455 ( 26) -0.2379 ( 34)  0.1996 ( 35)
           0.1424 ( 37)  0.1594 ( 38) -0.1865 ( 39) -0.1576 ( 45)  0.1404 ( 48)
          -0.3247 ( 62) -0.1441 ( 63) -0.1433 ( 66)  0.1381 ( 69)  0.1430 ( 70)
           0.2226 ( 71)  0.1648 ( 73)  0.2001 ( 74)  0.3059 ( 75)  0.1392 ( 79)
          -0.1586 ( 80)  0.1068 ( 86)
 CRD  8=   0.1440 (  1)  0.1644 (  3) -0.1086 ( 11)  0.2672 ( 22) -0.1345 ( 23)
           0.1801 ( 25) -0.1354 ( 26)  0.1210 ( 28) -0.1763 ( 30)  0.1706 ( 31)
          -0.1346 ( 32) -0.1328 ( 33) -0.1564 ( 34) -0.1936 ( 38)  0.1792 ( 40)
           0.1568 ( 43)  0.1708 ( 44)  0.1043 ( 46) -0.1904 ( 47)  0.2385 ( 49)
          -0.1922 ( 50)  0.2755 ( 61) -0.1375 ( 62)  0.1355 ( 64)  0.1296 ( 65)
          -0.1401 ( 80)  0.1458 ( 82)  0.1316 ( 83)  0.1664 ( 87)  0.1723 ( 88)
 CRD  9=   0.3931 (  1) -0.1430 (  9)  0.1016 ( 11) -0.4193 ( 16)  0.1327 ( 27)
          -0.1096 ( 30)  0.1170 ( 33)  0.1302 ( 34) -0.2259 ( 35)  0.1370 ( 37)
           0.1819 ( 40)  0.1311 ( 41) -0.1616 ( 43) -0.1255 ( 44) -0.1507 ( 46)
          -0.1296 ( 47) -0.1619 ( 50)  0.1357 ( 58)  0.1226 ( 59)  0.1091 ( 60)
           0.1115 ( 62) -0.1279 ( 72)  0.1447 ( 74)  0.1457 ( 80)  0.1086 ( 81)
           0.1019 ( 83) -0.1409 ( 85)
 CRD 10=   0.2208 (  1) -0.1261 (  3)  0.1122 (  6) -0.1904 (  9)  0.1047 ( 10)
           0.3534 ( 11)  0.4065 ( 16)  0.1152 ( 18) -0.1376 ( 22)  0.1384 ( 28)
           0.1467 ( 33)  0.1067 ( 41) -0.1032 ( 42) -0.1718 ( 44)  0.1787 ( 47)
           0.3285 ( 48) -0.2321 ( 60) -0.1009 ( 71) -0.1311 ( 73) -0.1126 ( 75)
           0.1060 ( 82)  0.1239 ( 84)
 CRD 11=  -0.2318 (  6)  0.5097 (  9)  0.2286 ( 11)  0.2358 ( 22) -0.1190 ( 23)
          -0.1151 ( 27) -0.1370 ( 28) -0.1168 ( 33)  0.2089 ( 34)  0.2591 ( 36)
           0.2324 ( 42)  0.1468 ( 43) -0.1988 ( 44)  0.1572 ( 48) -0.1230 ( 54)
          -0.2129 ( 55) -0.1252 ( 56) -0.1132 ( 63) -0.1050 ( 77)  0.1031 ( 78)
 CRD 12=   0.2962 (  3) -0.3293 (  6) -0.2616 (  9) -0.1113 ( 13)  0.3094 ( 22)
          -0.3881 ( 33)  0.1482 ( 34) -0.4345 ( 36) -0.2202 ( 44)  0.1686 ( 47)
           0.1381 ( 55)  0.1690 ( 56)
 CRD 13=   0.1631 (  1) -0.1516 ( 16)  0.1070 ( 20)  0.1243 ( 25) -0.1693 ( 29)
          -0.2430 ( 34)  0.2251 ( 35)  0.1494 ( 37)  0.1310 ( 43) -0.2366 ( 44)
           0.4535 ( 47) -0.3502 ( 48) -0.1118 ( 49) -0.1231 ( 56)  0.2438 ( 59)
           0.1249 ( 68)  0.1601 ( 72) -0.1015 ( 73)  0.1067 ( 84)
 CRD 14=  -0.1959 (  1)  0.4461 ( 11) -0.2890 ( 16) -0.1376 ( 25) -0.1050 ( 26)
          -0.1398 ( 27)  0.1478 ( 28)  0.1476 ( 30)  0.1106 ( 35)  0.1038 ( 38)
           0.1324 ( 40) -0.1726 ( 41) -0.1284 ( 42)  0.1074 ( 43)  0.1826 ( 45)
           0.1257 ( 46) -0.2828 ( 47) -0.1259 ( 49) -0.1692 ( 50)  0.1372 ( 58)
           0.1346 ( 60) -0.1266 ( 64)  0.1433 ( 67) -0.1012 ( 69) -0.1110 ( 70)
          -0.1312 ( 74) -0.1029 ( 90) -0.1284 (100)  0.1413 (101)
 CRD 15=   0.3350 (  1) -0.2072 (  3) -0.1809 (  5) -0.1713 (  6)  0.1647 (  9)
          -0.1128 ( 13)  0.1048 ( 16)  0.2085 ( 24) -0.1745 ( 29)  0.1996 ( 34)
           0.2614 ( 35) -0.3088 ( 36)  0.2069 ( 37)  0.1274 ( 43)  0.2627 ( 44)
          -0.1493 ( 46) -0.1446 ( 47) -0.2188 ( 54) -0.1172 ( 59) -0.1036 ( 65)
          -0.1289 ( 73)
 CRD 16=   0.1364 (  1)  0.1177 (  3)  0.1029 (  4)  0.1067 ( 11) -0.1479 ( 15)
           0.1491 ( 25) -0.1672 ( 27)  0.1546 ( 28)  0.2286 ( 34) -0.4189 ( 35)
           0.1272 ( 36)  0.2260 ( 38) -0.1417 ( 42)  0.1115 ( 43)  0.2043 ( 44)
          -0.1612 ( 45)  0.1082 ( 46) -0.2533 ( 48) -0.1412 ( 49) -0.1632 ( 55)
           0.1410 ( 56) -0.1123 ( 58) -0.1102 ( 62) -0.1256 ( 69) -0.1086 ( 70)
          -0.1413 ( 71) -0.1054 ( 80) -0.1304 ( 82) -0.1158 ( 84)  0.1015 ( 85)
 CRD 17=   0.1141 (  1)  0.1600 (  3) -0.1020 (  9) -0.1873 ( 11) -0.1005 ( 18)
           0.1131 ( 19)  0.1166 ( 24) -0.1637 ( 27) -0.1230 ( 29)  0.1702 ( 30)
          -0.2269 ( 34)  0.2126 ( 36)  0.1932 ( 37)  0.1420 ( 39) -0.2150 ( 40)
          -0.1174 ( 41) -0.1345 ( 42) -0.2248 ( 44) -0.1400 ( 46) -0.2032 ( 47)
           0.3456 ( 48)  0.1491 ( 54)  0.1964 ( 58)  0.1203 ( 68)  0.1126 ( 79)
 CRD 18=   0.1817 (  1)  0.1506 (  2)  0.1403 (  3) -0.1290 (  6) -0.1442 (  8)
           0.1604 ( 11) -0.1454 ( 14)  0.1040 ( 16)  0.1419 ( 18)  0.1089 ( 21)
           0.1136 ( 22) -0.1751 ( 28) -0.1102 ( 31)  0.1274 ( 32) -0.1125 ( 33)
          -0.3683 ( 34)  0.2169 ( 36) -0.1084 ( 39)  0.1106 ( 41) -0.1610 ( 43)
           0.3175 ( 44)  0.1216 ( 45) -0.1675 ( 48)  0.1543 ( 54) -0.1366 ( 56)
          -0.1345 ( 58) -0.1002 ( 61)  0.1385 ( 62) -0.1182 ( 75)  0.1148 ( 80)
 CRD 19=  -0.1074 (  6) -0.1152 ( 10) -0.1620 ( 12)  0.1188 ( 24) -0.2788 ( 25)
           0.1654 ( 26) -0.1472 ( 27)  0.2028 ( 30) -0.1774 ( 35)  0.1002 ( 36)
           0.1125 ( 37) -0.1990 ( 38) -0.1136 ( 39)  0.2132 ( 40) -0.2112 ( 41)
          -0.1292 ( 42)  0.1030 ( 43)  0.1341 ( 45) -0.2485 ( 46)  0.1551 ( 47)
          -0.1327 ( 48)  0.2684 ( 49) -0.1023 ( 50)  0.1055 ( 53) -0.1208 ( 58)
          -0.1477 ( 65)  0.1149 ( 75)  0.1267 ( 79)  0.1294 ( 82)  0.1291 ( 83)
           0.1179 ( 84) -0.1191 ( 86)  0.1280 ( 87)
 CRD 20=   0.1495 (  3)  0.2099 (  4)  0.2362 (  5)  0.1832 (  6)  0.2497 (  7)
          -0.1234 ( 23) -0.1101 ( 27)  0.2588 ( 28)  0.1810 ( 29) -0.1160 ( 32)
           0.1972 ( 35) -0.1054 ( 37)  0.1376 ( 41) -0.1449 ( 42)  0.1803 ( 43)
           0.1397 ( 62)  0.2114 ( 63)  0.2102 ( 66) -0.1114 ( 72)  0.1521 ( 73)
           0.1547 ( 74)  0.1702 ( 76)  0.1935 ( 77)  0.1923 ( 78)  0.1180 ( 79)
           0.1218 ( 80)  0.1728 ( 81)
 CRD 21=   0.2305 (  3)  0.4490 (  5)  0.2667 (  6)  0.1572 (  8) -0.1036 ( 10)
          -0.2103 ( 23)  0.2097 ( 27) -0.1184 ( 29)  0.2623 ( 30) -0.1045 ( 31)
          -0.1696 ( 32)  0.1205 ( 33) -0.1088 ( 36)  0.2218 ( 37) -0.2058 ( 41)
           0.1568 ( 42) -0.1054 ( 43) -0.1488 ( 73) -0.1621 ( 74) -0.1317 ( 76)
          -0.1134 ( 77) -0.1171 ( 78) -0.1451 ( 81) -0.1205 ( 86)
 CRD 22=  -0.1009 (  1) -0.3684 (  2) -0.1173 (  3) -0.2292 (  5)  0.1228 (  7)
          -0.1968 (  8) -0.3003 ( 10)  0.2458 ( 12)  0.2593 ( 17)  0.1030 ( 25)
          -0.1347 ( 29)  0.1198 ( 31)  0.1381 ( 37)  0.1007 ( 38) -0.1674 ( 41)
          -0.1136 ( 43)  0.1646 ( 61)  0.1683 ( 64)  0.1193 ( 65) -0.1129 ( 67)
          -0.1841 ( 72) -0.1685 ( 85)
 CRD 23=   0.1217 (  2)  0.2309 ( 10)  0.4189 ( 17) -0.4211 ( 18)  0.1561 ( 20)
          -0.1437 ( 21)  0.2456 ( 24) -0.1032 ( 26) -0.1240 ( 44)  0.1152 ( 45)
           0.1426 ( 47)  0.1076 ( 49) -0.1525 ( 50)  0.1075 ( 59) -0.1038 ( 60)
          -0.1175 ( 64) -0.1720 ( 82) -0.1745 ( 83) -0.2163 ( 84)  0.1996 ( 87)
           0.2747 ( 88)
 CRD 24=  -0.1184 (  2)  0.2765 (  4)  0.2653 (  7) -0.2671 (  8)  0.2048 ( 10)
          -0.3663 ( 12) -0.1296 ( 17)  0.1021 ( 29) -0.1099 ( 38)  0.1065 ( 40)
           0.1581 ( 42) -0.1496 ( 43) -0.2016 ( 45)  0.1025 ( 46) -0.1674 ( 50)
          -0.1218 ( 63) -0.1749 ( 64) -0.1270 ( 65) -0.1176 ( 66) -0.1760 ( 67)
          -0.1230 ( 68) -0.1281 ( 69) -0.1281 ( 70) -0.1530 ( 71) -0.1182 ( 77)
          -0.1139 ( 78)  0.1776 ( 85)  0.1243 ( 86)
 CRD 25=  -0.1627 (  9) -0.4743 ( 13) -0.5018 ( 14) -0.5032 ( 15)  0.1795 ( 34)
           0.1786 ( 35)  0.2005 ( 36) -0.1904 ( 54) -0.2042 ( 55) -0.2034 ( 56)
 CRD 26=  -0.1756 ( 16) -0.4847 ( 19) -0.5028 ( 20) -0.5007 ( 21)  0.1720 ( 44)
           0.1790 ( 47)  0.1953 ( 48) -0.1830 ( 58) -0.1952 ( 59) -0.2050 ( 60)
 CRD 27=   0.1102 (  2) -0.2077 (  4)  0.2927 (  7) -0.2930 (  8) -0.1130 ( 17)
           0.1104 ( 18)  0.1068 ( 24) -0.1190 ( 25)  0.1098 ( 42)  0.1403 ( 45)
          -0.1256 ( 46) -0.1209 ( 49)  0.1224 ( 50) -0.1935 ( 63) -0.1863 ( 66)
           0.1551 ( 67)  0.1451 ( 68) -0.1375 ( 69) -0.1369 ( 70) -0.1417 ( 71)
           0.1384 ( 73)  0.1318 ( 74)  0.1365 ( 76) -0.1920 ( 77) -0.1848 ( 78)
           0.1300 ( 81)  0.1460 ( 89)  0.1360 ( 90)  0.1390 ( 91)  0.1290 ( 92)
           0.1442 ( 99)  0.1453 (100)  0.1522 (101)  0.1533 (102)
 CRD 28=  -0.3030 (  2)  0.3655 (  4) -0.1534 (  7)  0.1984 (  8) -0.2896 ( 12)
          -0.1347 ( 17)  0.1309 ( 24) -0.1123 ( 25)  0.1328 ( 38) -0.1020 ( 40)
          -0.1251 ( 49)  0.1298 ( 50) -0.1451 ( 73) -0.1431 ( 74) -0.1300 ( 76)
          -0.1280 ( 81)  0.1063 ( 87)  0.1238 ( 88)  0.1189 ( 89)  0.1045 ( 91)
           0.1987 ( 99)  0.2085 (100)  0.1812 (101)  0.1910 (102)  0.1216 (103)
           0.1273 (105)  0.1457 (106)  0.1113 (107)  0.1514 (108)
 CRD 29=  -0.4059 (  7) -0.3934 (  8)  0.4813 ( 13) -0.2108 ( 14) -0.2367 ( 15)
          -0.1021 ( 36) -0.1776 ( 52) -0.2675 ( 54)  0.1376 ( 55)  0.1233 ( 56)
          -0.1290 ( 69)  0.1370 ( 70) -0.1881 ( 94)  0.1927 ( 98)
 CRD 30=  -0.1223 ( 17) -0.1512 ( 18)  0.6098 ( 19) -0.4181 ( 20) -0.1633 ( 21)
          -0.3213 ( 58)  0.2243 ( 59)  0.1837 ( 82) -0.1540 ( 83) -0.1663 (104)
           0.1715 (105) -0.1456 (107)  0.1921 (108)
 CRD 31=   0.5362 ( 14) -0.5136 ( 15) -0.1568 ( 20)  0.1730 ( 21)  0.2729 ( 55)
          -0.2842 ( 56) -0.2215 ( 71) -0.2099 ( 93) -0.2092 ( 96)
 CRD 32=   0.1647 ( 14) -0.1553 ( 15)  0.1406 ( 19)  0.4337 ( 20) -0.5779 ( 21)
          -0.2355 ( 59)  0.3060 ( 60) -0.1305 ( 83)  0.1985 ( 84)  0.1789 (103)
          -0.1500 (104)  0.1829 (106) -0.1461 (107)
 CRD 33=  -0.5254 (  2) -0.5221 (  4)  0.1538 (  7)  0.1607 (  8)  0.1214 ( 10)
           0.2392 ( 13) -0.1385 ( 15)  0.1029 ( 37) -0.2523 ( 51) -0.1040 ( 54)
          -0.1282 ( 73)  0.1144 ( 74) -0.1246 ( 76)  0.1180 ( 81)  0.1050 ( 85)
          -0.1106 ( 89)
 CRD 34=  -0.2759 (  2) -0.2250 (  4) -0.4282 (  7) -0.4077 (  8) -0.3745 ( 13)
           0.1916 ( 14)  0.2023 ( 15) -0.1161 ( 51) -0.1983 ( 52)  0.1662 ( 54)
           0.1045 ( 66)  0.1058 ( 69)  0.1043 ( 78) -0.1787 ( 95)  0.1843 ( 97)
 CRD 35=  -0.1236 (  4) -0.3433 ( 10) -0.4592 ( 12)  0.4802 ( 17)  0.3864 ( 18)
           0.1196 ( 19) -0.1032 ( 20) -0.1627 ( 53)  0.1739 ( 57) -0.1035 ( 64)
           0.1452 ( 99) -0.1615 (102)  0.1081 (105)
 CRD 36=   0.5031 ( 10)  0.3463 ( 12)  0.3048 ( 17)  0.4699 ( 18) -0.1177 ( 21)
           0.1838 ( 53)  0.1651 ( 57) -0.1028 ( 67)  0.1017 ( 92)  0.1894 (101)
           0.1079 (103)  0.1137 (105)
 CRD 37=   0.2344 (  2) -0.2057 (  4)  0.1362 (  7) -0.1622 (  8)  0.2862 ( 10)
          -0.2674 ( 12)  0.1394 ( 17) -0.1753 ( 18) -0.1142 ( 29) -0.1312 ( 67)
          -0.1232 ( 68)  0.1074 ( 82)  0.1040 ( 83) -0.1508 ( 85) -0.1254 ( 86)
          -0.2042 ( 89) -0.1962 ( 90) -0.2297 ( 91) -0.2217 ( 92)  0.1012 ( 96)
           0.1109 ( 97)  0.1063 ( 98)  0.1572 (103)  0.1717 (104)  0.1751 (105)
           0.1680 (106)  0.1825 (107)  0.1859 (108)
 CRD 38=   0.2790 (  7) -0.2693 (  8) -0.1107 ( 17)  0.1155 ( 18) -0.1097 ( 27)
           0.1901 ( 69)  0.1923 ( 70)  0.1887 ( 71) -0.1218 ( 81)  0.2960 ( 93)
           0.2974 ( 94)  0.2996 ( 95)  0.2874 ( 96)  0.2888 ( 97)  0.2910 ( 98)
 CRD 39=  -0.1214 (  1)  0.1231 (  2) -0.1052 (  3)  0.1242 (  6)  0.1832 ( 10)
          -0.1863 ( 12) -0.2625 ( 17)  0.2643 ( 18)  0.1552 ( 22) -0.1045 ( 29)
          -0.1553 ( 33)  0.1391 ( 64)  0.1017 ( 65) -0.1475 ( 82) -0.1564 ( 83)
          -0.1804 ( 84) -0.1493 ( 85)  0.1181 ( 87)  0.1363 ( 88) -0.1441 ( 91)
          -0.1590 ( 92)  0.1464 ( 99)  0.1839 (100)  0.1282 (101)  0.1656 (102)
          -0.2245 (103) -0.2006 (104) -0.1917 (105) -0.2078 (106) -0.1838 (107)
          -0.1749 (108)
 CRD 40=  -0.1397 (  1) -0.2815 (  3)  0.2440 (  6)  0.1180 (  9)  0.1424 ( 13)
           0.1199 ( 17) -0.1195 ( 18)  0.3481 ( 22)  0.1219 ( 27)  0.1314 ( 28)
          -0.1090 ( 30) -0.3453 ( 33)  0.1603 ( 37)  0.1526 ( 41) -0.1676 ( 42)
          -0.1739 ( 43) -0.1033 ( 66) -0.1184 ( 78)  0.1322 ( 86) -0.1278 ( 88)
           0.1608 ( 89)  0.1588 ( 90)  0.1107 ( 96)  0.1293 ( 97) -0.1279 ( 99)
          -0.1496 (100)
 CRD 41=  -0.1359 (  3) -0.1103 (  4)  0.1621 (  5) -0.1467 (  6) -0.1425 ( 10)
           0.1071 ( 12)  0.1296 ( 13)  0.1136 ( 15) -0.1140 ( 16)  0.2583 ( 19)
           0.1952 ( 20)  0.1105 ( 21)  0.1199 ( 24)  0.1029 ( 34)  0.1018 ( 35)
           0.1088 ( 36)  0.1569 ( 38)  0.1489 ( 40)  0.1531 ( 44) -0.1150 ( 45)
          -0.1042 ( 46)  0.1771 ( 47)  0.1983 ( 48) -0.1455 ( 49) -0.1817 ( 50)
          -0.1104 ( 55) -0.1287 ( 56) -0.1318 ( 58) -0.1839 ( 59) -0.2477 ( 60)
          -0.1271 ( 64) -0.1395 ( 67)  0.1126 ( 77) -0.1258 ( 89)  0.1648 ( 99)
          -0.1187 (102)  0.1528 (107)  0.1002 (108)
 CRD 42=   0.1409 (  2)  0.1507 (  3) -0.5673 (  5)  0.3070 (  6) -0.1230 ( 13)
          -0.1330 ( 14) -0.1214 ( 15)  0.1492 ( 19)  0.1069 ( 20)  0.1274 ( 22)
          -0.1202 ( 23) -0.1219 ( 34) -0.1196 ( 35) -0.1122 ( 36)  0.1029 ( 47)
           0.1169 ( 48) -0.1170 ( 51) -0.1483 ( 52)  0.1258 ( 54)  0.1310 ( 55)
           0.1218 ( 56) -0.1185 ( 59) -0.1368 ( 60)  0.1096 (101)
 CRD 43=   0.1308 (  3) -0.4834 (  5) -0.1943 (  9)  0.2084 ( 13)  0.1424 ( 14)
           0.1570 ( 15)  0.1097 ( 16) -0.1139 ( 19) -0.1018 ( 21) -0.2067 ( 23)
           0.1584 ( 27)  0.1659 ( 28)  0.1294 ( 29)  0.1262 ( 30) -0.1105 ( 32)
           0.1777 ( 33)  0.1536 ( 34)  0.1555 ( 35)  0.1803 ( 36) -0.1444 ( 54)
          -0.1839 ( 55) -0.1957 ( 56)  0.1195 ( 59)  0.1155 ( 85)
 CRD 44=   0.1013 (  1) -0.1063 (  2)  0.2444 (  3)  0.1869 (  4) -0.1809 (  9)
          -0.1741 ( 11)  0.1345 ( 14) -0.2101 ( 16) -0.1833 ( 18)  0.1921 ( 21)
          -0.1280 ( 22) -0.1760 ( 24) -0.1532 ( 25) -0.1369 ( 29)  0.1299 ( 33)
           0.1007 ( 35)  0.1289 ( 44)  0.1792 ( 45)  0.1437 ( 46)  0.1053 ( 48)
          -0.1204 ( 54) -0.1168 ( 55) -0.1399 ( 58) -0.1591 ( 59)  0.1282 ( 67)
           0.1357 ( 74)  0.1563 ( 81) -0.1296 ( 88) -0.1118 ( 90) -0.1315 ( 92)
           0.1681 (101)  0.1041 (102) -0.1681 (107) -0.1432 (108)
 CRD 45=   0.1587 (  1) -0.2339 (  3)  0.1040 (  4)  0.1814 (  9)  0.1893 ( 12)
          -0.1504 ( 15) -0.2106 ( 16) -0.1964 ( 17) -0.1027 ( 19)  0.2176 ( 20)
           0.1811 ( 30) -0.1023 ( 38) -0.1700 ( 40)  0.1359 ( 46) -0.1690 ( 53)
           0.1158 ( 54)  0.1299 ( 57) -0.1881 ( 58)  0.1108 ( 67) -0.1122 ( 68)
          -0.2512 ( 90)  0.1135 ( 91) -0.1095 ( 92) -0.1467 ( 95)  0.1246 (103)
           0.1210 (104)  0.2750 (105) -0.1141 (106) -0.1177 (107)
 CRD 46=  -0.1223 (  2) -0.2533 (  7)  0.2955 (  8)  0.1274 ( 10)  0.1073 ( 11)
          -0.2338 ( 14)  0.1520 ( 15) -0.1855 ( 16)  0.1082 ( 25)  0.1288 ( 28)
          -0.1053 ( 37)  0.1423 ( 55) -0.1476 ( 56) -0.1018 ( 63) -0.1647 ( 71)
           0.1299 ( 73)  0.2704 ( 76) -0.2412 ( 77) -0.2390 ( 78)  0.1531 ( 79)
           0.1415 ( 81)  0.1853 ( 94)  0.1352 ( 95)  0.2539 ( 97)  0.2039 ( 98)
          -0.1224 (101)
 CRD 47=   0.1722 (  4) -0.1673 (  7) -0.2017 ( 10) -0.1751 ( 11)  0.1986 ( 12)
           0.1244 ( 15)  0.2587 ( 16) -0.1700 ( 17) -0.1998 ( 21) -0.1332 ( 25)
           0.1033 ( 41)  0.1426 ( 46) -0.1790 ( 51)  0.1603 ( 59) -0.1466 ( 64)
          -0.1360 ( 68)  0.1638 ( 74) -0.1154 ( 77) -0.1440 ( 78)  0.2273 ( 81)
          -0.1263 ( 84)  0.1462 ( 87) -0.1483 ( 89) -0.2206 ( 90)  0.1079 ( 94)
           0.1668 ( 95)  0.1449 (101)  0.1064 (104)  0.1092 (107)
 CRD 48=   0.2156 (  1) -0.2670 (  6)  0.2635 (  9) -0.2121 ( 11)  0.1246 ( 13)
          -0.1316 ( 14) -0.1706 ( 15)  0.2158 ( 16)  0.1512 ( 17) -0.1195 ( 18)
          -0.2162 ( 20)  0.1510 ( 27)  0.1309 ( 28)  0.1309 ( 40) -0.1091 ( 49)
           0.2046 ( 54)  0.1587 ( 58)  0.1013 ( 65) -0.2061 ( 95)  0.1180 ( 96)
           0.1886 ( 97)  0.1663 (101)  0.1032 (102) -0.2278 (105) -0.1124 (108)
 CRD 49=  -0.1374 (  1) -0.2383 (  2)  0.2032 (  4)  0.1008 (  7)  0.1858 ( 10)
          -0.1591 ( 11)  0.1422 ( 14) -0.1287 ( 15)  0.2073 ( 18)  0.1648 ( 19)
          -0.1861 ( 21)  0.1093 ( 25) -0.1001 ( 29)  0.1209 ( 38) -0.1417 ( 53)
          -0.1164 ( 55) -0.1640 ( 57)  0.1164 ( 58) -0.1463 ( 60)  0.1434 ( 67)
           0.1610 ( 71) -0.1189 ( 75)  0.1491 ( 76) -0.1101 ( 77) -0.1299 ( 80)
           0.1394 ( 81)  0.1125 ( 83) -0.1430 ( 85) -0.1142 ( 87) -0.1169 ( 92)
          -0.2220 (101) -0.1259 (102) -0.1205 (103)  0.2725 (107)  0.1058 (108)
 CRD 50=  -0.2252 (  1)  0.1016 (  2)  0.3069 (  3) -0.3424 (  6)  0.1217 (  9)
           0.1833 ( 13) -0.1363 ( 14) -0.1119 ( 15) -0.1015 ( 17)  0.1556 ( 20)
          -0.2033 ( 22)  0.1109 ( 28) -0.1263 ( 29) -0.2114 ( 30)  0.1186 ( 33)
           0.1595 ( 37)  0.1159 ( 41)  0.1781 ( 54)  0.1014 ( 59)  0.1086 ( 69)
          -0.1140 ( 70) -0.1299 ( 73) -0.1616 ( 76) -0.1221 ( 84)  0.1299 ( 90)
          -0.1854 ( 95)  0.1926 ( 97) -0.1038 ( 99)  0.1289 (105)  0.1102 (108)
 CRD 51=   0.1004 (  3) -0.1685 (  7) -0.1864 (  8)  0.4441 (  9) -0.2681 ( 13)
          -0.1179 ( 23)  0.1367 ( 27)  0.1132 ( 28) -0.1057 ( 32)  0.1868 ( 33)
          -0.1145 ( 34) -0.1726 ( 42) -0.1854 ( 43)  0.2533 ( 52)  0.1316 ( 55)
           0.1751 ( 56)  0.2195 ( 63) -0.2002 ( 66) -0.1212 ( 69)  0.1170 ( 70)
           0.1935 ( 77) -0.2263 ( 78)  0.1558 ( 95) -0.1804 ( 97)
 CRD 52=  -0.2216 (  1)  0.1300 (  4)  0.1698 ( 11)  0.1362 ( 14) -0.1551 ( 15)
           0.1364 ( 16) -0.2178 ( 19)  0.2180 ( 21)  0.1570 ( 24)  0.1302 ( 41)
          -0.1074 ( 44) -0.1369 ( 45) -0.1232 ( 46) -0.1249 ( 55) -0.1296 ( 58)
           0.1966 ( 60) -0.1008 ( 67)  0.1539 ( 71) -0.1316 ( 75) -0.1445 ( 77)
          -0.1141 ( 78)  0.1940 ( 81)  0.1055 ( 82) -0.1371 ( 83)  0.1482 ( 84)
          -0.1813 ( 89) -0.1602 ( 91)  0.1342 ( 93)  0.1372 ( 96)  0.1786 ( 99)
           0.1132 (103) -0.1720 (104) -0.1992 (107)
 CRD 53=  -0.1896 (  1)  0.2008 (  2) -0.1630 (  3)  0.1229 (  4)  0.1360 ( 11)
          -0.2610 ( 16)  0.2048 ( 19) -0.1498 ( 20)  0.1197 ( 23)  0.1200 ( 31)
          -0.1353 ( 38) -0.1128 ( 45)  0.1181 ( 47)  0.1655 ( 49)  0.1150 ( 50)
          -0.2376 ( 51) -0.1018 ( 57) -0.1700 ( 59)  0.1423 ( 64) -0.1574 ( 73)
           0.1105 ( 74) -0.1392 ( 76)  0.1287 ( 81) -0.1251 ( 82)  0.2152 ( 85)
           0.1008 ( 88) -0.1396 ( 89) -0.1210 ( 90)  0.1077 ( 91)  0.1263 ( 92)
           0.2102 (100)  0.1519 (102) -0.1284 (105) -0.1677 (108)
 CRD 54=  -0.2196 (  1)  0.1212 (  3)  0.1166 ( 10) -0.1165 ( 11)  0.1835 ( 12)
          -0.1523 ( 14)  0.1507 ( 15) -0.1794 ( 20)  0.1440 ( 21) -0.1210 ( 29)
          -0.1232 ( 50) -0.2285 ( 53)  0.1170 ( 55) -0.1089 ( 56) -0.1156 ( 59)
           0.1265 ( 60) -0.1428 ( 62) -0.1008 ( 64)  0.1284 ( 67) -0.1205 ( 71)
          -0.1133 ( 76)  0.1154 ( 77)  0.1679 ( 84)  0.2124 ( 88)  0.1240 ( 89)
          -0.1929 ( 92) -0.1768 ( 93) -0.1705 ( 96)  0.1843 ( 99) -0.1877 (102)
           0.1894 (103)  0.1826 (106)
 CRD 55=   0.1482 (  3) -0.1432 (  4)  0.1667 ( 11)  0.1237 ( 14) -0.1634 ( 17)
           0.1918 ( 19) -0.1350 ( 20) -0.1162 ( 31) -0.1352 ( 39)  0.1023 ( 47)
          -0.1676 ( 48)  0.1056 ( 49)  0.1483 ( 51)  0.1824 ( 57)  0.1497 ( 58)
           0.1083 ( 62) -0.1621 ( 64) -0.1237 ( 69)  0.1048 ( 76) -0.1758 ( 82)
           0.1176 ( 83)  0.1414 ( 86) -0.1331 ( 91) -0.1498 ( 92)  0.1669 ( 96)
           0.2048 (103)  0.3072 (104) -0.2823 (108)
 CRD 56=  -0.2508 (  6)  0.1828 (  7)  0.1501 (  8) -0.2331 ( 13)  0.1499 ( 15)
           0.2313 ( 32) -0.1155 ( 35)  0.2118 ( 36) -0.2436 ( 52) -0.1843 ( 54)
           0.1015 ( 55) -0.1118 ( 63)  0.1055 ( 66) -0.1629 ( 69)  0.2060 ( 70)
           0.1179 ( 78) -0.2275 ( 93) -0.3754 ( 94)  0.1596 ( 96)  0.3806 ( 98)
 CRD 57=  -0.1119 (  2)  0.1409 (  4)  0.1217 (  7) -0.1343 (  8)  0.2640 ( 11)
          -0.1343 ( 14)  0.1246 ( 15) -0.1577 ( 18) -0.1265 ( 21)  0.1122 ( 34)
          -0.1036 ( 35) -0.1104 ( 37) -0.1028 ( 42)  0.1085 ( 43)  0.1091 ( 44)
          -0.1050 ( 46)  0.1059 ( 53)  0.1286 ( 57) -0.1609 ( 62)  0.2140 ( 68)
           0.1692 ( 69)  0.1541 ( 70) -0.1638 ( 75) -0.1646 ( 79) -0.1600 ( 80)
           0.1501 ( 83) -0.1887 ( 89) -0.1598 ( 91) -0.1886 ( 93) -0.2027 ( 96)
           0.1677 (104) -0.2252 (106) -0.1585 (108)
 CRD 58=  -0.1584 (  1)  0.1328 (  2)  0.2176 ( 10)  0.1336 ( 16) -0.1925 ( 18)
          -0.1107 ( 21)  0.1224 ( 25)  0.1588 ( 26)  0.1124 ( 31) -0.1490 ( 39)
           0.1286 ( 40) -0.1237 ( 46) -0.1163 ( 49) -0.1060 ( 51) -0.1471 ( 53)
           0.1290 ( 57)  0.2785 ( 65) -0.1526 ( 72)  0.1122 ( 75)  0.1035 ( 80)
           0.1204 ( 82)  0.1732 ( 83) -0.1496 ( 86) -0.2753 ( 87)  0.2465 ( 91)
           0.1026 ( 92)  0.2141 ( 99) -0.2235 (102) -0.2071 (106)
 CRD 59=   0.1063 (  3)  0.2128 ( 12)  0.2142 ( 17)  0.1092 ( 20)  0.1331 ( 24)
          -0.1107 ( 31) -0.1610 ( 38) -0.1602 ( 45) -0.1136 ( 47)  0.1345 ( 50)
          -0.3003 ( 61) -0.1342 ( 65) -0.1120 ( 68)  0.1688 ( 72)  0.2413 ( 82)
           0.1839 ( 83)  0.2409 ( 86) -0.1420 ( 87) -0.1225 ( 91) -0.2025 ( 92)
           0.1683 ( 99)  0.3037 (100)  0.1595 (102) -0.2166 (103) -0.1413 (106)
 CRD 60=   0.1085 (  2) -0.1326 (  4)  0.1238 (  7) -0.1171 (  8)  0.1181 ( 27)
          -0.1232 ( 28)  0.1308 ( 29) -0.1080 ( 30)  0.2421 ( 63)  0.2498 ( 66)
          -0.1069 ( 67) -0.2168 ( 68)  0.1943 ( 69)  0.1948 ( 70) -0.1656 ( 72)
          -0.2286 ( 73) -0.2621 ( 74)  0.1678 ( 76) -0.1530 ( 77) -0.1452 ( 78)
           0.3477 ( 79) -0.3432 ( 80)  0.1343 ( 81)  0.1194 ( 89)  0.1046 ( 91)
          -0.1220 ( 93) -0.1169 ( 96)

 THE DETERMINANT OF THE G MATRIX IS 10**(   -23)


                     --------------------
                     INTERNAL COORDINATES
                     --------------------

                 - - ATOMS - -         COORDINATE      COORDINATE
 NO.   TYPE    I  J  K  L  M  N        (BOHR,RAD)       (ANG,DEG)
 ----------------------------------------------------------------
   1 STRETCH   1  5                     2.8723922       1.5200046
   2 STRETCH   1  9                     2.1079488       1.1154785
   3 STRETCH   1  2                     2.8649639       1.5160737
   4 STRETCH   1 10                     2.0933879       1.1077732
   5 STRETCH   2  4                     2.2960596       1.2150225
   6 STRETCH   2  3                     2.8661817       1.5167181
   7 STRETCH   3 12                     2.0950212       1.1086376
   8 STRETCH   3 11                     2.0945689       1.1083982
   9 STRETCH   3  6                     2.8536811       1.5101031
  10 STRETCH   5 13                     2.0934487       1.1078054
  11 STRETCH   5  7                     2.8764494       1.5221516
  12 STRETCH   5 14                     2.0944541       1.1083375
  13 STRETCH   6 16                     2.0740752       1.0975534
  14 STRETCH   6 15                     2.0748175       1.0979462
  15 STRETCH   6 17                     2.0746061       1.0978344
  16 STRETCH   7  8                     2.8590052       1.5129205
  17 STRETCH   7 19                     2.0940155       1.1081054
  18 STRETCH   7 18                     2.0928122       1.1074686
  19 STRETCH   8 22                     2.0721748       1.0965478
  20 STRETCH   8 21                     2.0741363       1.0975857
  21 STRETCH   8 20                     2.0852325       1.1034576
  22 BEND      1  2  4                  2.1519110     123.2954182
  23 BEND      1  2  3                  1.9852007     113.7436244
  24 BEND      1  5 13                  1.9279834     110.4653108
  25 BEND      1  5 14                  1.9026662     109.0147433
  26 BEND      1  5  7                  1.9589712     112.2407820
  27 BEND      2  3 11                  1.8846353     107.9816460
  28 BEND      2  3 12                  1.8867393     108.1022016
  29 BEND      2  1 10                  1.8691199     107.0926821
  30 BEND      2  1  9                  1.9046412     109.1279006
  31 BEND      2  1  5                  2.0138518     115.3852073
  32 BEND      2  3  6                  1.9987670     114.5209159
  33 BEND      3  2  4                  2.1459556     122.9541997
  34 BEND      3  6 15                  1.9499018     111.7211412
  35 BEND      3  6 17                  1.9498823     111.7200270
  36 BEND      3  6 16                  1.9360798     110.9292018
  37 BEND      5  1 10                  1.9209244     110.0608595
  38 BEND      5  7 19                  1.9146662     109.7022944
  39 BEND      5  7  8                  1.9542258     111.9688894
  40 BEND      5  7 18                  1.9097710     109.4218166
  41 BEND      5  1  9                  1.8964379     108.6578894
  42 BEND      6  3 12                  1.9201574     110.0169151
  43 BEND      6  3 11                  1.9239137     110.2321376
  44 BEND      7  8 20                  1.9304141     110.6045810
  45 BEND      7  5 14                  1.9090073     109.3780593
  46 BEND      7  5 13                  1.9160514     109.7816565
  47 BEND      7  8 21                  1.9512652     111.7992615
  48 BEND      7  8 22                  1.9494021     111.6925125
  49 BEND      8  7 19                  1.9207866     110.0529648
  50 BEND      8  7 18                  1.9185496     109.9247958
  51 BEND      9  1 10                  1.8521204     106.1186837
  52 BEND     11  3 12                  1.8426332     105.5751050
  53 BEND     13  5 14                  1.8455928     105.7446780
  54 BEND     15  6 17                  1.8714421     107.2257324
  55 BEND     15  6 16                  1.8761471     107.4953128
  56 BEND     16  6 17                  1.8766386     107.5234693
  57 BEND     18  7 19                  1.8425329     105.5693572
  58 BEND     20  8 21                  1.8707318     107.1850380
  59 BEND     20  8 22                  1.8816380     107.8099165
  60 BEND     21  8 22                  1.8768963     107.5382381
  61 TORSION   1  5  7  8               1.1064119      63.3927316
  62 TORSION   1  2  3  6              -3.0898910    -177.0377154
  63 TORSION   1  2  3 12               1.0461813      59.9417716
  64 TORSION   1  5  7 18              -3.0451675    -174.4752447
  65 TORSION   1  5  7 19              -1.0314772     -59.0992906
  66 TORSION   1  2  3 11              -0.9395033     -53.8295730
  67 TORSION   2  1  5 14              -2.7507704    -157.6075332
  68 TORSION   2  1  5 13              -0.7299846     -41.8250384
  69 TORSION   2  3  6 17               1.0319565      59.1267531
  70 TORSION   2  3  6 15              -1.0645491     -60.9941692
  71 TORSION   2  3  6 16               3.1256015     179.0837740
  72 TORSION   2  1  5  7               1.4146745      81.0548759
  73 TORSION   3  2  1 10               1.2574696      72.0477037
  74 TORSION   3  2  1  9              -0.7402585     -42.4136871
  75 TORSION   3  2  1  5              -2.8807504    -165.0548387
  76 TORSION   4  2  1 10              -1.8680389    -107.0307474
  77 TORSION   4  2  3 12              -2.1114331    -120.9762029
  78 TORSION   4  2  3 11               2.1860677     125.2524525
  79 TORSION   4  2  1  5               0.2769263      15.8667103
  80 TORSION   4  2  3  6               0.0356799       2.0443101
  81 TORSION   4  2  1  9               2.4174182     138.5078619
  82 TORSION   5  7  8 20              -0.9126917     -52.2933849
  83 TORSION   5  7  8 21               1.1705740      67.0689503
  84 TORSION   5  7  8 22              -3.0085028    -172.3745140
  85 TORSION   7  5  1 10              -2.7513027    -157.6380307
  86 TORSION   7  5  1  9              -0.7301794     -41.8362004
  87 TORSION   8  7  5 14              -1.0076879     -57.7362653
  88 TORSION   8  7  5 13              -3.0254005    -173.3426781
  89 TORSION   9  1  5 14               1.3875610      79.5013905
  90 TORSION   9  1  5 13              -2.8748385    -164.7161147
  91 TORSION  10  1  5 14              -0.6335622     -36.3004399
  92 TORSION  10  1  5 13               1.3872236      79.4820550
  93 TORSION  11  3  6 16               0.9964931      57.0948466
  94 TORSION  11  3  6 17              -1.0971519     -62.8621743
  95 TORSION  11  3  6 15               3.0895278     177.0169034
  96 TORSION  12  3  6 16              -1.0285941     -58.9341003
  97 TORSION  12  3  6 17              -3.1222391    -178.8911212
  98 TORSION  12  3  6 15               1.0644406      60.9879565
  99 TORSION  13  5  7 19               1.1198957      64.1652997
 100 TORSION  13  5  7 18              -0.8937945     -51.2106543
 101 TORSION  14  5  7 19               3.1376083     179.7717125
 102 TORSION  14  5  7 18               1.1239180      64.3957585
 103 TORSION  18  7  8 22               1.1481017      65.7813824
 104 TORSION  18  7  8 21              -0.9560068     -54.7751533
 105 TORSION  18  7  8 20              -3.0392725    -174.1374885
 106 TORSION  19  7  8 22              -0.8741017     -50.0823360
 107 TORSION  19  7  8 21              -2.9782101    -170.6388717
 108 TORSION  19  7  8 20               1.2217094      69.9987931

     ------------------------------------------
     THE POINT GROUP IS C1 , NAXIS= 1, ORDER= 1
     ------------------------------------------

     DIMENSIONS OF THE SYMMETRY SUBSPACES ARE
 A   =  236

 ..... DONE SETTING UP THE RUN .....
 STEP CPU TIME =     0.02 TOTAL CPU TIME =        0.0 (    0.0 MIN)
 TOTAL WALL CLOCK TIME=        0.0 SECONDS, CPU UTILIZATION IS  66.67%


          -----------------------------
          STATIONARY POINT LOCATION RUN
          -----------------------------

 OBTAINING INITIAL HESSIAN, HESS=GUESS   
 DIAGONAL GUESS HESSIAN IN INTERNAL COORDS IS
     1  0.3744     2  0.3296     3  0.3772     4  0.3346     5  0.5469
     6  0.3768     7  0.3340     8  0.3342     9  0.3816    10  0.3346
    11  0.3728    12  0.3342    13  0.3413    14  0.3411    15  0.3411
    16  0.3796    17  0.3344    18  0.3348    19  0.3420    20  0.3413
    21  0.3374    22  0.2592    23  0.2504    24  0.2236    25  0.2236
    26  0.2497    27  0.2238    28  0.2238    29  0.2238    30  0.2234
    31  0.2502    32  0.2508    33  0.2592    34  0.2248    35  0.2248
    36  0.2248    37  0.2236    38  0.2235    39  0.2502    40  0.2235
    41  0.2232    42  0.2242    43  0.2242    44  0.2243    45  0.2235
    46  0.2235    47  0.2246    48  0.2247    49  0.2240    50  0.2241
    51  0.2012    52  0.2016    53  0.2016    54  0.2026    55  0.2026
    56  0.2026    57  0.2016    58  0.2023    59  0.2024    60  0.2027
    61  0.2500    62  0.2500    63  0.2500    64  0.2500    65  0.2500
    66  0.2500    67  0.2500    68  0.2500    69  0.2500    70  0.2500
    71  0.2500    72  0.2500    73  0.2500    74  0.2500    75  0.2500
    76  0.2500    77  0.2500    78  0.2500    79  0.2500    80  0.2500
    81  0.2500    82  0.2500    83  0.2500    84  0.2500    85  0.2500
    86  0.2500    87  0.2500    88  0.2500    89  0.2500    90  0.2500
    91  0.2500    92  0.2500    93  0.2500    94  0.2500    95  0.2500
    96  0.2500    97  0.2500    98  0.2500    99  0.2500   100  0.2500
   101  0.2500   102  0.2500   103  0.2500   104  0.2500   105  0.2500
   106  0.2500   107  0.2500   108  0.2500
 TRANSFORMING HESSIAN TO SYMMETRY COORDINATES

          PARAMETERS CONTROLLING GEOMETRY SEARCH ARE
          METHOD =QA                  UPHESS =BFGS    
          NNEG   =         0          NFRZ   =         3
          NSTEP  =        50          IFOLOW =         1
          HESS   =GUESS               RESTAR =         F
          IHREP  =         0          HSSEND =         F
          NPRT   =         0          NPUN   =         0
          OPTTOL = 5.000E-04          RMIN   = 1.500E-03
          RMAX   = 1.000E-01          RLIM   = 7.000E-02
          DXMAX  = 3.000E-01          PURIFY =         F
          MOVIE  =         F          TRUPD  =         T
          TRMAX  = 5.000E-01          TRMIN  = 5.000E-02
          ITBMAT =         5          STPT   =         F
          STSTEP = 1.000E-02          PROJCT=          F
          FROZEN COORD(S)=   1   2   3


      ***** EQUILIBRIUM GEOMETRY LOCATED *****
            (SUBJECT TO   3 CONSTRAINT(S))
 COORDINATES OF ALL ATOMS ARE (ANGS)
   ATOM   CHARGE       X              Y              Z
 ------------------------------------------------------------
 C           6.0   3.9796212640   1.5557122438   0.9055216395
 C           6.0   2.7723562226   1.8519374841   1.7732408789
 C           6.0   2.0293934839   0.6484465326   2.3093489176
 O           8.0   2.4134829344   2.9707273856   1.9969774267
 C           6.0   5.0270703799   2.6689920256   0.8487005204
 C           6.0   0.6536143600   0.9585807981   2.8849303987
 C           6.0   5.8538441268   2.8433016163   2.1287280609
 C           6.0   6.7581506300   1.6525170897   2.4541975794
 H           1.0   4.4120909542   0.6072096616   1.2044370684
 H           1.0   3.5687304571   1.3884844839  -0.0900410293
 H           1.0   1.9631024524  -0.0887357565   1.5134442597
 H           1.0   2.6758664222   0.2067250565   3.0668126991
 H           1.0   4.5272015888   3.6030487519   0.6146523429
 H           1.0   5.7021064357   2.4592456236   0.0221512640
 H           1.0   0.7178444792   1.6863502482   3.6858503949
 H           1.0   0.2030403038   0.0543063147   3.2812720482
 H           1.0  -0.0061470648   1.3573861296   2.1205409128
 H           1.0   6.4758487942   3.7275312170   2.0092389957
 H           1.0   5.1953434364   3.0462959608   2.9704042701
 H           1.0   6.1890629218   0.7462505914   2.6385145333
 H           1.0   7.4437159046   1.4527732106   1.6339602956
 H           1.0   7.3509998620   1.8498569655   3.3426569897


                     --------------------
                     INTERNAL COORDINATES
                     --------------------

                 - - ATOMS - -         COORDINATE      COORDINATE
 NO.   TYPE    I  J  K  L  M  N        (BOHR,RAD)       (ANG,DEG)
 ----------------------------------------------------------------
   1 STRETCH   1  5                     2.8905829       1.5296307
   2 STRETCH   1  9                     2.0493184       1.0844527
   3 STRETCH   1  2                     2.8647741       1.5159733
   4 STRETCH   1 10                     2.0596638       1.0899272
   5 STRETCH   2  4                     2.2602094       1.1960514
   6 STRETCH   2  3                     2.8582978       1.5125462
   7 STRETCH   3 12                     2.0586711       1.0894019
   8 STRETCH   3 11                     2.0538952       1.0868746
   9 STRETCH   3  6                     2.8784972       1.5232352
  10 STRETCH   5 13                     2.0502520       1.0849467
  11 STRETCH   5  7                     2.8983796       1.5337566
  12 STRETCH   5 14                     2.0552461       1.0875895
  13 STRETCH   6 16                     2.0508673       1.0852723
  14 STRETCH   6 15                     2.0486292       1.0840880
  15 STRETCH   6 17                     2.0515690       1.0856436
  16 STRETCH   7  8                     2.8917553       1.5302511
  17 STRETCH   7 19                     2.0555917       1.0877724
  18 STRETCH   7 18                     2.0554012       1.0876716
  19 STRETCH   8 22                     2.0525707       1.0861737
  20 STRETCH   8 21                     2.0551033       1.0875139
  21 STRETCH   8 20                     2.0520306       1.0858879
  22 BEND      1  2  4                  2.1279817     121.9243699
  23 BEND      1  2  3                  2.0248070     116.0128927
  24 BEND      1  5 13                  1.8955825     108.6088748
  25 BEND      1  5 14                  1.8890293     108.2334064
  26 BEND      1  5  7                  2.0051681     114.8876688
  27 BEND      2  3 11                  1.8860720     108.0639667
  28 BEND      2  3 12                  1.8520685     106.1157062
  29 BEND      2  1 10                  1.8261507     104.6307298
  30 BEND      2  1  9                  1.9078609     109.3123780
  31 BEND      2  1  5                  2.0090667     115.1110413
  32 BEND      2  3  6                  1.9993774     114.5558886
  33 BEND      3  2  4                  2.1300900     122.0451689
  34 BEND      3  6 15                  1.9415703     111.2437821
  35 BEND      3  6 17                  1.9365196     110.9543977
  36 BEND      3  6 16                  1.9212586     110.0800107
  37 BEND      5  1 10                  1.9133452     109.6266067
  38 BEND      5  7 19                  1.9183972     109.9160621
  39 BEND      5  7  8                  1.9906445     114.0555268
  40 BEND      5  7 18                  1.8849103     107.9974056
  41 BEND      5  1  9                  1.9538206     111.9456770
  42 BEND      6  3 12                  1.9345629     110.8422918
  43 BEND      6  3 11                  1.9387587     111.0826882
  44 BEND      7  8 20                  1.9561005     112.0763032
  45 BEND      7  5 14                  1.8982179     108.7598723
  46 BEND      7  5 13                  1.9076837     109.3022231
  47 BEND      7  8 21                  1.9337558     110.7960475
  48 BEND      7  8 22                  1.9338665     110.8023871
  49 BEND      8  7 19                  1.9159998     109.7787022
  50 BEND      8  7 18                  1.8944482     108.5438876
  51 BEND      9  1 10                  1.8420265     105.5403452
  52 BEND     11  3 12                  1.8445432     105.6845400
  53 BEND     13  5 14                  1.8629861     106.7412423
  54 BEND     15  6 17                  1.8855459     108.0338218
  55 BEND     15  6 16                  1.8903564     108.3094413
  56 BEND     16  6 17                  1.8869444     108.1139481
  57 BEND     18  7 19                  1.8540526     106.2293885
  58 BEND     20  8 21                  1.8808496     107.7647444
  59 BEND     20  8 22                  1.8742705     107.3877865
  60 BEND     21  8 22                  1.8820269     107.8321964
  61 TORSION   1  5  7  8               1.1463471      65.6808529
  62 TORSION   1  2  3  6              -2.8969709    -165.9842085
  63 TORSION   1  2  3 12               1.2459411      71.3871671
  64 TORSION   1  5  7 18              -3.0294438    -173.5743415
  65 TORSION   1  5  7 19              -1.0138673     -58.0903160
  66 TORSION   1  2  3 11              -0.7257303     -41.5812860
  67 TORSION   2  1  5 14              -2.8958500    -165.9199831
  68 TORSION   2  1  5 13              -0.8795306     -50.3933923
  69 TORSION   2  3  6 17               1.0911686      62.5193544
  70 TORSION   2  3  6 15              -1.0084823     -57.7817769
  71 TORSION   2  3  6 16              -3.1040053    -177.8464038
  72 TORSION   2  1  5  7               1.2625338      72.3378576
  73 TORSION   3  2  1 10               1.4621570      83.7754251
  74 TORSION   3  2  1  9              -0.5037263     -28.8613915
  75 TORSION   3  2  1  5              -2.7200068    -155.8449089
  76 TORSION   4  2  1 10              -1.6533308     -94.7288785
  77 TORSION   4  2  3 12              -1.9217908    -110.1105004
  78 TORSION   4  2  3 11               2.3897231     136.9210465
  79 TORSION   4  2  1  5               0.4476907      25.6507876
  80 TORSION   4  2  3  6               0.2184825      12.5181240
  81 TORSION   4  2  1  9               2.6639712     152.6343050
  82 TORSION   5  7  8 20              -1.0932765     -62.6401298
  83 TORSION   5  7  8 21               1.0083226      57.7726284
  84 TORSION   5  7  8 22               3.0966083     177.4225854
  85 TORSION   7  5  1 10              -2.9681508    -170.0625134
  86 TORSION   7  5  1  9              -0.9301979     -53.2964119
  87 TORSION   8  7  5 14              -0.9734577     -55.7750169
  88 TORSION   8  7  5 13              -3.0012867    -171.9610590
  89 TORSION   9  1  5 14               1.1946036      68.4457473
  90 TORSION   9  1  5 13              -3.0722623    -176.0276618
  91 TORSION  10  1  5 14              -0.8433493     -48.3203541
  92 TORSION  10  1  5 13               1.1729701      67.2062367
  93 TORSION  11  3  6 16               1.0361453      59.3667527
  94 TORSION  11  3  6 17              -1.0518661     -60.2674891
  95 TORSION  11  3  6 15               3.1316684     179.4313796
  96 TORSION  12  3  6 16              -1.0090378     -57.8136053
  97 TORSION  12  3  6 17              -3.0970492    -177.4478471
  98 TORSION  12  3  6 15               1.0864853      62.2510217
  99 TORSION  13  5  7 19               1.1216842      64.2677721
 100 TORSION  13  5  7 18              -0.8938923     -51.2162534
 101 TORSION  14  5  7 19              -3.1336721    -179.5461858
 102 TORSION  14  5  7 18               1.1339367      64.9697886
 103 TORSION  18  7  8 22               0.9945401      56.9829515
 104 TORSION  18  7  8 21              -1.0937456     -62.6670056
 105 TORSION  18  7  8 20               3.0878406     176.9202362
 106 TORSION  19  7  8 22              -1.0250704     -58.7322053
 107 TORSION  19  7  8 21              -3.1133561    -178.3821624
 108 TORSION  19  7  8 20               1.0682302      61.2050794

          INTERNUCLEAR DISTANCES (ANGS.)


 =====================================================
   GAMESS/COSab RESULTS
 =====================================================

   Dielectric Constant                  = INFTY
   Basic Grid Size                      =                 1082
   Number of Segments                   =                   92
   Number of Segments located on spheres=                  286
   Number of Segments of the cavity     =                  742
   Solvent Radius (rsolv)               = 1.40
   Outlying Charge Error Method         = double cavity

 =====================================================

  Total solvated Energy (a.u.)          =  -348.1981553892
  Total Energy corrected (a.u.)         =  -348.1978276814

  Outlying charge effect (a.u.)         =     0.0003277078
  Outlying charge effect (kcal/mol)     =     0.2056399235

  Dielectric Energy (a.u.)              =    -0.0122652738
  Dielectric energy corr. (a.u.)        =    -0.0119375660

  Sum of polarization charges           =     0.0269525304
  Sum of polarization charges(cor.)     =    -0.0269525304

  Total surface area of cavity (A**2)   =  173.76
  Total volume of cavity (A**3)         =  172.09

 =====================================================
 NPS=                   742
NR.  ATOM  (X, Y, Z)(a.u.)                  CHARGE(e)  AREA(A**2) SIGMA(e/A**2)
   1   1   8.557975   0.497563  -0.980078   0.000572   0.325193   0.001759
   2   1   5.697899   5.274800  -0.636334  -0.000182   0.092912  -0.001958
   3   1   5.270939   4.816978  -0.676419  -0.000157   0.046456  -0.003385
   4   1   8.528208  -0.175860  -0.175842   0.000616   0.278737   0.002211
   5   1   6.707166  -0.244616  -0.154833   0.000151   0.139368   0.001086
   6   1   7.553637  -0.029280  -0.627055   0.000734   0.278737   0.002632
   7   1   9.356350   0.754657  -0.766404   0.000432   0.325193   0.001327
   8   1  10.092328   1.065770  -0.327747   0.000004   0.139368   0.000029
   9   1   9.042301   1.621289  -1.487170   0.000135   0.232280   0.000582
  10   1   5.957045   5.163047  -0.915156  -0.000046   0.046456  -0.000980
  11   1   9.908716   0.532134   0.042934  -0.000062   0.232280  -0.000265
  12   1   7.285316  -0.512684   0.191669   0.000340   0.185824   0.001828
  13   2   5.547809   4.351091   7.020258   0.000017   0.092912   0.000183
  14   2   3.024498   4.676219   0.523226  -0.000208   0.185824  -0.001122
  15   2   3.708703   5.002336   0.238961  -0.000205   0.139368  -0.001470
  16   2   6.052579   3.919930   7.017773  -0.000590   0.139368  -0.004234
  17   2   3.132699   4.080783   0.267098  -0.001153   0.232280  -0.004963
  18   2   2.483436   3.815995   0.783626  -0.001003   0.185824  -0.005400
  19   2   2.979818   3.024728   0.358472  -0.002071   0.278737  -0.007431
  20   2   4.187194   5.014853   0.052130  -0.000147   0.092912  -0.001584
  21   3   4.476822  -2.403533   5.202682   0.000603   0.325193   0.001855
  22   3   5.018528   2.556621   7.697401  -0.000167   0.092912  -0.001799
  23   3   5.591603   2.396336   7.498914  -0.000178   0.046456  -0.003839
  24   3   4.602035  -2.469951   4.162927   0.000582   0.278737   0.002089
  25   3   1.775353   0.952323   1.206893  -0.000139   0.185824  -0.000746
  26   3   2.078108   1.653669   1.045279  -0.000215   0.092912  -0.002312
  27   3   5.595430  -2.109228   4.619999   0.000705   0.325193   0.002169
  28   3   3.560848  -2.516943   4.815857   0.000456   0.325193   0.001401
  29   3   2.742675  -2.353168   4.898001   0.000102   0.139368   0.000732
  30   3   3.768198  -2.016276   6.306071   0.000068   0.185824   0.000364
  31   3   3.461356  -1.371276   7.084711  -0.000119   0.046456  -0.002556
  32   3   4.893148   2.214746   7.854845  -0.000059   0.046456  -0.001276
  33   3   2.670362  -2.361501   4.114656  -0.000107   0.185824  -0.000578
  34   3   5.764209  -1.962647   3.732475   0.000265   0.185824   0.001423
  35   3   2.278687   1.156767   0.920574  -0.000147   0.046456  -0.003166
  36   3   3.327132  -2.251273   5.756606   0.000061   0.232280   0.000263
  37   4   3.506221   8.619415   4.421148   0.005300   0.377948   0.014024
  38   4   4.172121   6.685179   6.817734   0.004022   0.240512   0.016721
  39   4   2.486255   6.988758   1.683173   0.004266   0.343589   0.012417
  40   4   3.691229   8.201861   5.537475   0.005826   0.412307   0.014130
  41   4   3.718576   7.388243   6.363508   0.005275   0.343589   0.015352
  42   4   2.616251   8.050655   4.693185   0.005110   0.343589   0.014871
  43   4   1.989574   7.364788   4.715894   0.006032   0.309230   0.019508
  44   4   2.933874   8.399522   3.376499   0.005649   0.412307   0.013701
  45   4   2.764294   7.903787   2.326890   0.004934   0.377948   0.013055
  46   4   4.199387   8.830336   3.476588   0.005613   0.377948   0.014852
  47   4   4.816310   8.656150   2.658473   0.005294   0.309230   0.017121
  48   4   4.698275   8.716851   4.731454   0.006330   0.446666   0.014173
  49   4   5.731035   8.396552   4.978678   0.005887   0.343589   0.017133
  50   4   1.657349   7.071512   3.674760   0.003635   0.206154   0.017632
  51   4   1.819846   6.861359   2.550846   0.005243   0.377948   0.013872
  52   4   3.390104   7.547774   1.438356   0.003587   0.274871   0.013050
  53   4   4.276153   7.869644   1.451025   0.004643   0.274871   0.016893
  54   4   5.555556   7.745315   6.016969   0.002472   0.171795   0.014388
  55   4   5.028355   7.140618   6.604837   0.004910   0.343589   0.014291
  56   4   2.203070   6.022684   1.574079   0.003431   0.274871   0.012482
  57   4   3.173193   6.439084   0.952729   0.004027   0.343589   0.011721
  58   4   5.079693   5.986628   6.960668   0.004255   0.309230   0.013760
  59   4   2.714199   7.473880   5.695986   0.006093   0.309230   0.019704
  60   4   2.102806   7.709115   3.409392   0.004872   0.343589   0.014181
  61   4   3.841993   8.425522   2.310020   0.005703   0.377948   0.015090
  62   4   5.509410   8.722513   3.806687   0.007416   0.377948   0.019622
  63   4   4.785112   8.067665   5.893461   0.004575   0.343589   0.013315
  64   4   4.032741   6.940286   0.853754   0.003413   0.240512   0.014190
  65   5  11.468986   7.858311   0.027643   0.000629   0.232280   0.002707
  66   5   9.338604   6.136787  -2.010517   0.001574   0.371649   0.004235
  67   5   9.047637   7.032373  -1.578151   0.001268   0.278737   0.004549
  68   5  10.733228   8.415891   0.424397   0.000823   0.325193   0.002532
  69   5  11.168378   7.529696  -0.702644   0.001202   0.278737   0.004313
  70   5  10.175751   7.040933  -1.532790   0.001672   0.325193   0.005142
  71   5   8.416217   5.856868  -1.924480   0.000855   0.325193   0.002629
  72   5  12.159197   7.081704  -0.144961   0.000618   0.278737   0.002218
  73   5   8.918424   4.818985  -2.123893   0.000314   0.232280   0.001351
  74   5   7.657204   6.227623  -1.476352   0.000537   0.278737   0.001928
  75   5  10.420110   7.743075  -0.876204   0.001244   0.278737   0.004463
  76   6  -0.507160   5.156098   5.202811   0.000921   0.232280   0.003966
  77   6  -1.980451   2.299195   7.376869   0.000710   0.371649   0.001910
  78   6   0.942009   0.644311   9.034467   0.001590   0.371649   0.004277
  79   6  -0.361502  -0.111291   2.616589   0.001061   0.418105   0.002537
  80   6  -1.295786   0.192641   3.158686   0.000649   0.185824   0.003494
  81   6   0.040985  -1.041657   3.279638   0.000448   0.232280   0.001928
  82   6  -0.538842  -1.023820   3.691500   0.000648   0.232280   0.002791
  83   6   3.418167   2.395303   8.481218  -0.000010   0.092912  -0.000105
  84   6   1.025556   1.568821   9.217545   0.001116   0.278737   0.004003
  85   6  -1.323262   3.019991   7.957347   0.001021   0.418105   0.002442
  86   6  -0.241545   5.268251   5.844372   0.000757   0.185824   0.004074
  87   6  -2.156180   0.581506   4.324652   0.001668   0.371649   0.004489
  88   6  -1.966350  -0.033601   4.657781   0.000909   0.232280   0.003913
  89   6  -1.243406   4.635527   5.858649   0.001964   0.464561   0.004227
  90   6  -1.890219   3.491908   6.752620   0.000987   0.418105   0.002361
  91   6  -1.401281   1.747331   8.158989   0.001253   0.371649   0.003371
  92   6  -0.083932   1.198252   8.940017   0.001286   0.278737   0.004613
  93   6   2.317180   1.000738   8.981056   0.001337   0.464561   0.002879
  94   6   3.248036   1.649637   8.646465   0.000102   0.092912   0.001098
  95   6  -2.536088   1.812128   5.202851   0.001116   0.371649   0.003004
  96   6  -2.422850   2.292266   6.271493   0.000956   0.464561   0.002058
  97   6  -2.142556   1.267015   7.057601   0.000720   0.325193   0.002214
  98   6   1.774474  -0.017307   8.715001   0.000747   0.278737   0.002680
  99   6   2.369020  -0.800617   7.936811   0.000073   0.139368   0.000523
 100   6   0.127015   0.538630   2.069977   0.000176   0.185824   0.000949
 101   6  -1.266499  -0.423894   3.711272   0.001523   0.371649   0.004097
 102   6   0.415289  -1.598191   4.042337   0.000173   0.139368   0.001240
 103   6   2.745181   1.823209   8.916392   0.000258   0.139368   0.001851
 104   6  -0.568149   1.945350   8.770513   0.001102   0.278737   0.003954
 105   6  -1.304002   4.254755   6.818175   0.000800   0.278737   0.002870
 106   6  -2.415336   0.899217   5.806600   0.001349   0.418105   0.003227
 107   6  -2.169383   3.439588   5.657944   0.000819   0.371649   0.002204
 108   6  -0.918328   1.004024   8.450850   0.000538   0.185824   0.002893
 109   6   2.553128  -0.066171   8.455338   0.000326   0.232280   0.001405
 110   7   9.666513   8.883365   4.141521   0.000559   0.232280   0.002408
 111   7  11.490962   7.749599   6.930013   0.001432   0.325193   0.004403
 112   7  11.882762   8.305060   6.261951   0.001281   0.278737   0.004596
 113   7  10.384353   9.089134   3.897961   0.000781   0.278737   0.002803
 114   7  14.026758   6.268838   1.856374   0.000201   0.139368   0.001443
 115   7   9.868289   8.748714   5.232595   0.001399   0.325193   0.004303
 116   7  10.763463   8.442713   6.207249   0.001667   0.325193   0.005125
 117   7  12.611461   7.326480   6.863142   0.001329   0.418105   0.003178
 118   7   9.198825   8.561731   4.825544   0.000546   0.185824   0.002936
 119   7  11.769289   6.619953   7.519775   0.000941   0.325193   0.002893
 120   7  13.506515   7.253433   6.207560   0.000336   0.185824   0.001809
 121   7  10.650639   8.877551   5.376735   0.001104   0.232280   0.004752
 122   7  13.649389   6.488451   1.503501   0.000076   0.046456   0.001640
 123   8  16.500616   2.560595   4.879568   0.002250   0.418105   0.005382
 124   8  10.820467   2.670449   7.843217   0.000702   0.278737   0.002518
 125   8  14.189306  -0.184046   3.481249   0.001385   0.325193   0.004260
 126   8  14.124224   0.664602   7.169650   0.001478   0.371649   0.003977
 127   8  15.490896   5.716784   5.035158   0.000689   0.232280   0.002968
 128   8  15.511948   5.217512   3.093786   0.000653   0.232280   0.002813
 129   8  15.836493   5.289712   4.199849   0.000687   0.232280   0.002960
 130   8  16.327713   4.400811   4.605344   0.001225   0.278737   0.004396
 131   8  13.180367   0.279318   7.093643   0.001294   0.325193   0.003979
 132   8  13.254700  -0.500084   3.675986   0.001140   0.278737   0.004091
 133   8  10.817968   1.887775   7.628500   0.000641   0.278737   0.002299
 134   8  16.497640   3.574406   4.198695   0.001046   0.232280   0.004502
 135   8  16.456207   3.775348   5.165033   0.001223   0.278737   0.004388
 136   8  12.821870   0.416413   2.000133   0.001097   0.232280   0.004723
 137   8  13.455052  -0.054346   2.708491   0.001322   0.278737   0.004744
 138   8  14.259010  -0.351111   4.684007   0.001439   0.464561   0.003097
 139   8  14.436293   0.100586   6.179655   0.001328   0.464561   0.002858
 140   8  13.021457   1.169177   7.863433   0.001825   0.371649   0.004911
 141   8  11.964984   2.172745   8.205952   0.001774   0.418105   0.004244
 142   8  11.691652   3.428385   8.246897   0.001107   0.371649   0.002979
 143   8  15.218933   0.298539   4.075963   0.001221   0.418105   0.002921
 144   8  16.079968   1.297043   4.681054   0.001482   0.418105   0.003545
 145   8  16.102774   1.731316   5.754727   0.001642   0.464561   0.003534
 146   8  15.226767   1.002919   6.576784   0.000928   0.325193   0.002854
 147   8  16.052658   4.726683   3.666776   0.000793   0.232280   0.003413
 148   8  15.936209   5.083691   5.286539   0.000902   0.278737   0.003235
 149   8  13.748675  -0.380918   5.663654   0.000753   0.278737   0.002700
 150   8  12.562160  -0.134696   2.732690   0.000584   0.139368   0.004188
 151   8  11.915291   1.231688   7.796193   0.001379   0.325193   0.004240
 152   8  11.972208   4.425241   8.094615   0.000110   0.092912   0.001179
 153   8  15.337294   0.441029   5.349603   0.001135   0.464561   0.002444
 154   9   9.358589  -1.077784   2.073541  -0.002492   0.314043  -0.007936
 155   9   8.917090  -0.881733   1.018409  -0.000879   0.274788  -0.003201
 156   9   9.854644  -0.512231   1.286512  -0.001880   0.333671  -0.005635
 157   9   8.186323  -1.215554   1.621597  -0.002175   0.372926  -0.005832
 158   9   8.626885  -1.217241   2.875706  -0.003160   0.372926  -0.008475
 159  10   5.901197   2.267013  -2.449978  -0.004230   0.549575  -0.007698
 160  10   6.771826   3.663458  -2.395818  -0.001554   0.294415  -0.005279
 161  10   5.283406   3.984530  -1.602126  -0.001186   0.255160  -0.004648
 162  10   4.793409   1.971179  -1.513507  -0.002486   0.333671  -0.007450
 163  10   6.406706   0.623064  -1.555160  -0.001656   0.353299  -0.004687
 164  10   7.756385   1.750494  -2.231056  -0.001467   0.314043  -0.004670
 165  10   5.893114   3.755358  -2.177873  -0.002653   0.412182  -0.006436
 166  10   4.872521   2.957306  -1.726352  -0.002479   0.392554  -0.006314
 167  10   5.455201   1.179497  -1.682810  -0.002876   0.392554  -0.007327
 168  10   6.902355   1.211135  -2.173717  -0.002573   0.451437  -0.005700
 169  10   7.264084   2.694531  -2.570068  -0.003337   0.510320  -0.006540
 170  11   3.366252  -2.049677   1.318810  -0.003253   0.451437  -0.007207
 171  11   2.207351  -0.459971   0.938398  -0.001643   0.353299  -0.004651
 172  11   2.382401  -2.184477   2.406228  -0.001892   0.353299  -0.005355
 173  11   4.581999  -2.443779   2.553944  -0.001683   0.392554  -0.004286
 174  11   3.053905  -0.632701   0.538628  -0.003162   0.431809  -0.007322
 175  11   2.200404  -1.543802   1.494941  -0.002595   0.471065  -0.005508
 176  11   3.384011  -2.589562   2.607869  -0.002229   0.471065  -0.004731
 177  11   4.738981  -2.021896   1.619977  -0.002780   0.392554  -0.007082
 178  11   4.068807  -1.430955   0.783868  -0.002751   0.372926  -0.007378
 179  12   6.368117  -0.623512   7.608338  -0.003752   0.451437  -0.008311
 180  12   5.138625  -0.081042   8.204978  -0.001555   0.274788  -0.005658
 181  12   6.084273   1.352212   7.809021  -0.001718   0.235532  -0.007292
 182  12   6.426029  -1.648830   5.814604  -0.001645   0.314043  -0.005239
 183  12   4.828233  -1.635780   7.165279  -0.001570   0.333671  -0.004706
 184  12   5.560255   0.697514   8.180251  -0.001873   0.333671  -0.005614
 185  12   6.523351   0.410637   7.766096  -0.002831   0.314043  -0.009014
 186  12   6.716601  -1.197500   6.665725  -0.002981   0.333671  -0.008935
 187  12   5.725001  -1.806287   6.668261  -0.002157   0.431809  -0.004995
 188  12   5.097328  -0.984122   7.830978  -0.002412   0.431809  -0.005586
 189  13   7.953986   9.019724   0.275304  -0.001829   0.372926  -0.004905
 190  13   8.171663   9.063154   2.059172  -0.001171   0.274788  -0.004261
 191  13   6.946138   7.472124  -0.572282  -0.000845   0.255160  -0.003311
 192  13   8.569431   8.316401  -0.778063  -0.000576   0.294415  -0.001955
 193  13   9.445296   9.029137   0.602239  -0.000730   0.294415  -0.002481
 194  13   7.508923   9.031179   1.198508  -0.001574   0.294415  -0.005345
 195  13   7.067108   8.413542   0.045510  -0.001891   0.353299  -0.005351
 196  13   7.701869   7.960601  -0.833543  -0.000857   0.333671  -0.002567
 197  13   8.949799   8.834756  -0.170693  -0.000897   0.333671  -0.002687
 198  13   8.771740   9.252891   1.281927  -0.001374   0.353299  -0.003890
 199  14  12.018797   4.479631  -2.070240  -0.002043   0.412182  -0.004956
 200  14  11.530296   2.715247  -1.274363  -0.001286   0.372926  -0.003448
 201  14  12.918927   5.538306  -0.762219  -0.001212   0.333671  -0.003633
 202  14  11.491870   5.850805  -1.976388  -0.000765   0.353299  -0.002166
 203  14  10.390667   4.265172  -2.354184  -0.000922   0.314043  -0.002935
 204  14  12.291893   3.356784  -1.396879  -0.001995   0.392554  -0.005082
 205  14  12.835948   4.475149  -1.284660  -0.002231   0.412182  -0.005412
 206  14  12.312155   5.859377  -1.442849  -0.001010   0.372926  -0.002710
 207  14  10.949921   5.135856  -2.359374  -0.001006   0.392554  -0.002562
 208  14  11.109509   3.552436  -2.131789  -0.001637   0.431809  -0.003791
 209  15   1.350176   4.625964   8.956160  -0.002494   0.431809  -0.005775
 210  15   0.405008   5.421295   7.334738  -0.000992   0.314043  -0.003159
 211  15   2.915695   3.509187   8.836110  -0.001259   0.333671  -0.003773
 212  15   1.011734   3.061166   9.394335  -0.000856   0.372926  -0.002295
 213  15  -0.363352   4.113804   8.454443  -0.000781   0.333671  -0.002341
 214  15   1.314351   5.365689   8.099066  -0.002281   0.392554  -0.005810
 215  15   2.551830   4.545803   8.626369  -0.002358   0.412182  -0.005720
 216  15   2.011240   3.441165   9.319336  -0.001539   0.412182  -0.003733
 217  15   0.390652   3.817233   9.134278  -0.001755   0.431809  -0.004064
 218  15   0.067500   4.918292   8.137971  -0.001520   0.412182  -0.003688
 219  16  -0.710975  -1.914734   7.076514  -0.003825   0.608459  -0.006287
 220  16   0.672800  -2.336355   6.254630  -0.001415   0.353299  -0.004004
 221  16  -0.894964  -1.711505   5.147577  -0.000845   0.333671  -0.002534
 222  16  -1.934154  -0.654682   6.499260  -0.000976   0.353299  -0.002764
 223  16  -0.737441  -0.438619   8.318524  -0.000946   0.372926  -0.002536
 224  16   1.076186  -1.374228   8.037670  -0.000929   0.353299  -0.002628
 225  16  -0.075128  -2.233393   5.594390  -0.001963   0.490692  -0.004000
 226  16  -1.517426  -1.426968   5.915797  -0.001977   0.490692  -0.004029
 227  16  -1.515643  -0.720498   7.523597  -0.002133   0.510320  -0.004179
 228  16  -0.017802  -1.201349   8.243623  -0.002089   0.490692  -0.004258
 229  16   0.799709  -2.075088   7.258813  -0.001995   0.490692  -0.004065
 230  17  -1.727527   3.332572   2.425564  -0.003079   0.529948  -0.005811
 231  17  -1.925726   1.639986   2.776190  -0.000907   0.372926  -0.002432
 232  17  -0.447124   2.019657   1.651841  -0.001461   0.392554  -0.003722
 233  17  -1.066662   4.734483   3.542830  -0.001456   0.431809  -0.003372
 234  17  -2.384242   3.201582   3.981836  -0.001039   0.372926  -0.002785
 235  17  -1.395597   1.987733   2.061387  -0.001691   0.431809  -0.003917
 236  17  -0.482539   3.250596   1.695669  -0.002408   0.451437  -0.005335
 237  17  -0.810017   4.227176   2.383949  -0.002475   0.451437  -0.005484
 238  17  -1.909105   4.102401   3.740209  -0.001620   0.451437  -0.003589
 239  17  -2.367309   2.437811   3.321944  -0.001449   0.412182  -0.003516
 240  18  13.599248   9.076991   3.577826  -0.002753   0.549575  -0.005009
 241  18  13.102241   8.602208   2.105898  -0.000968   0.333671  -0.002900
 242  18  14.357811   7.488885   2.638542  -0.000816   0.353299  -0.002309
 243  18  14.244801   7.960957   4.876442  -0.001018   0.372926  -0.002731
 244  18  12.604663   9.049643   5.167250  -0.000529   0.372926  -0.001418
 245  18  11.674724   9.408574   3.440275  -0.000732   0.353299  -0.002071
 246  18  13.825330   8.132829   2.270919  -0.001308   0.412182  -0.003174
 247  18  14.470046   8.067015   3.728530  -0.001739   0.471065  -0.003692
 248  18  13.594713   8.678652   5.030308  -0.001245   0.431809  -0.002884
 249  18  12.372691   9.454603   4.250719  -0.001327   0.451437  -0.002940
 250  18  12.522492   9.239877   2.732885  -0.001540   0.451437  -0.003412
 251  19   8.692344   6.592899   7.630467  -0.002467   0.431809  -0.005712
 252  19   9.155476   4.622845   7.689520  -0.000920   0.215905  -0.004259
 253  19   9.500904   7.714528   7.062875  -0.000393   0.255160  -0.001541
 254  19  10.311801   6.293366   7.959090  -0.000552   0.274788  -0.002008
 255  19   8.638215   5.447296   7.745853  -0.001657   0.314043  -0.005276
 256  19   8.733697   7.679451   6.691540  -0.001072   0.314043  -0.003414
 257  19   9.815234   7.114694   7.660396  -0.000940   0.392554  -0.002395
 258  19   9.711086   5.558314   8.059543  -0.001265   0.431809  -0.002930
 259  20  10.887231  -0.794680   5.707228  -0.002424   0.333671  -0.007266
 260  20  10.864817   0.451767   7.089944  -0.000821   0.255160  -0.003219
 261  20  12.067447  -0.617136   6.322757  -0.000813   0.372926  -0.002180
 262  20  11.869287  -0.862791   4.070436  -0.000720   0.294415  -0.002444
 263  20  11.183186  -0.266840   6.706546  -0.001600   0.392554  -0.004076
 264  20  12.216505  -0.976894   5.242026  -0.000911   0.372926  -0.002443
 265  20  11.214602  -0.995175   4.852528  -0.001622   0.274788  -0.005903
 266  21  15.792114   2.076945   1.471897  -0.002596   0.510320  -0.005088
 267  21  16.470298   3.156774   2.791043  -0.000640   0.353299  -0.001812
 268  21  15.405837   4.207388   1.637225  -0.001006   0.333671  -0.003015
 269  21  14.276452   0.872189   1.512186  -0.000611   0.353299  -0.001729
 270  21  15.882105   1.121009   2.770661  -0.000870   0.412182  -0.002111
 271  21  16.092714   3.567033   1.967566  -0.001333   0.412182  -0.003235
 272  21  15.270894   3.092490   0.974852  -0.002525   0.471065  -0.005361
 273  21  14.467774   1.750281   0.877752  -0.002130   0.451437  -0.004718
 274  21  15.215541   0.918592   1.913856  -0.001360   0.431809  -0.003151
 275  21  16.406789   2.123794   2.672707  -0.001375   0.451437  -0.003046
 276  22  15.293972   3.897028   8.293265  -0.003489   0.608459  -0.005734
 277  22  14.497253   5.296243   7.874307  -0.001228   0.353299  -0.003475
 278  22  16.002002   4.703062   6.666933  -0.000665   0.333671  -0.001994
[...]
 483   4   6.322441   8.563279   3.473383   0.004790   0.315715   0.015172
 484  15   3.380513   4.534087   7.977954   0.000012   0.237314   0.000050
 485  15   2.537656   5.337175   7.742461  -0.000019   0.476777  -0.000041
 486  15   1.414337   5.759540   6.935848   0.000872   0.476777   0.001828
 487   4   4.095392   5.676746   7.156258   0.006774   0.588601   0.011508
 488   4   2.882454   6.544569   6.598433   0.008992   0.588601   0.015277
 489   4   1.916583   6.699506   5.746521   0.004733   0.296247   0.015976
 490  17  -0.078373   5.176589   3.511522   0.000570   0.256769   0.002222
 491  17   0.222455   4.645739   2.471138  -0.000035   0.515321  -0.000068
 492   4   1.249360   6.065128   2.938556   0.007370   0.643037   0.011461
 493   4   1.632433   5.407929   1.858988   0.002544   0.323517   0.007865
 494  19   8.115592   7.777160   5.960790   0.000325   0.255796   0.001272
 495  19   7.844586   6.976024   6.797471  -0.000569   0.513179  -0.001108
 496  19   7.716818   5.882211   7.247520  -0.000327   0.255796  -0.001277
 497   4   6.404703   7.636284   5.880196   0.006940   0.641945   0.010812
 498   4   6.130677   6.334134   6.764397   0.005725   0.641945   0.008919
 499   5  12.890607   6.248551   0.421476  -0.000023   0.028838  -0.000783
 500   7  13.127178   6.290038   0.860174   0.000002   0.028838   0.000077
 501  14  12.892708   6.052713   0.189531  -0.000054   0.028838  -0.001886
 502   5  12.854414   6.870053   0.888817   0.000041   0.029711   0.001370
 503   7  13.154071   6.943350   1.282523   0.000008   0.029711   0.000285
 504  18  13.223597   7.183223   1.455240  -0.000023   0.029711  -0.000777
 505   7  13.255486   6.605727   1.131202   0.000102   0.074270   0.001371
 506   5  12.835437   6.605801   0.543558   0.000102   0.074270   0.001374
 507   5   9.096510   3.960997  -2.016132  -0.000061   0.041413  -0.001471
 508  10   8.502825   3.500806  -2.040244  -0.000165   0.041413  -0.003992
 509  14   9.398936   3.946957  -2.038414  -0.000109   0.041413  -0.002643
 510  10   6.600661   4.576314  -1.728171  -0.000757   0.171312  -0.004421
 511  10   7.520919   3.827172  -2.135901  -0.002056   0.348254  -0.005904
 512   5   7.660983   5.152036  -1.745928  -0.000187   0.472240  -0.000396
 513   5   8.696949   4.241732  -2.113576   0.000095   0.241420   0.000394
 514   5  10.493318   8.708901   1.590094   0.000006   0.035628   0.000157
 515  13  10.207977   8.775147   1.516479  -0.000071   0.035628  -0.002002
 516  18  11.018155   8.784808   2.111648   0.000011   0.035628   0.000304
 517  13   9.898268   8.847736   0.934466  -0.000159   0.074750  -0.002126
 518  13   9.669070   8.447389  -0.173725  -0.000303   0.169125  -0.001793
 519  13   8.746297   7.738735  -1.031046  -0.000277   0.169125  -0.001639
 520  13   7.465621   7.074120  -0.948254  -0.000488   0.169125  -0.002885
 521   5  10.221105   8.526717   0.512126  -0.000224   0.160961  -0.001391
 522   5   9.598489   7.857611  -0.828406   0.000115   0.160961   0.000717
 523   5   8.279015   7.035267  -1.292211  -0.000129   0.160961  -0.000802
 524   5   7.118528   6.502376  -0.940428  -0.000090   0.091324  -0.000988
 525  14   9.841507   4.419634  -2.214891  -0.000159   0.074214  -0.002141
 526  14  10.285655   5.518193  -2.130944  -0.000295   0.167285  -0.001763
 527  14  11.272982   6.369861  -1.540733  -0.000288   0.167285  -0.001724
 528  14  12.371250   6.298678  -0.625722  -0.000482   0.167285  -0.002880
 529   5   9.593402   4.978016  -2.117133  -0.000216   0.160392  -0.001346
 530   5  10.428289   6.307136  -1.772584   0.000073   0.160392   0.000456
 531   5  11.675180   6.773755  -0.872673  -0.000074   0.160392  -0.000462
 532   5  12.613315   6.437371  -0.021139  -0.000112   0.090668  -0.001238
 533  18  13.095480   7.618761   1.530585  -0.000226   0.193073  -0.001172
 534  18  12.102139   8.543250   1.927403  -0.001216   0.395021  -0.003077
 535   5  12.126071   7.657754   0.790248   0.000522   0.529317   0.000987
 536   5  10.969703   8.621649   1.354643   0.000456   0.272165   0.001676
 537  11   1.813053  -1.783801   2.907401  -0.000876   0.200966  -0.004361
 538  11   1.588658  -0.761077   1.912151  -0.002458   0.411403  -0.005974
 539   6   0.782452  -1.116576   3.084610  -0.000349   0.550392  -0.000633
 540   6   0.647326   0.119823   2.011422   0.000131   0.283043   0.000463
 541  12   4.633272   0.964011   8.181877  -0.000959   0.204513  -0.004688
 542  12   4.157848  -0.389944   7.870963  -0.002715   0.419118  -0.006477
 543   6   3.417433   0.784040   8.372175  -0.000385   0.559642  -0.000689
 544   6   2.903038  -0.721808   7.866674   0.000112   0.288034   0.000388
 545  15   0.342515   5.398665   6.644103  -0.000049   0.071552  -0.000689
 546  15  -0.407888   4.780549   7.265933  -0.000338   0.160313  -0.002109
 547  15  -0.612429   3.769298   8.201220  -0.000442   0.160313  -0.002757
 548  15   0.095624   2.854120   8.976034  -0.000265   0.160313  -0.001654
 549  15   1.399415   2.444558   9.243643  -0.000378   0.160313  -0.002359
 550  15   2.715494   2.723893   8.884293  -0.000484   0.160313  -0.003021
 551   6  -0.168209   5.099568   6.505603   0.000019   0.155476   0.000119
 552   6  -0.901168   4.106890   7.466384  -0.000186   0.155476  -0.001198
 553   6  -0.601159   2.959062   8.485317  -0.000150   0.155476  -0.000965
 554   6   0.597562   2.169739   9.106427   0.000009   0.155476   0.000058
 555   6   2.158565   2.092146   9.051764  -0.000182   0.155476  -0.001168
 556   6   3.251927   2.529524   8.566665  -0.000089   0.087417  -0.001023
 557  16   1.719068  -1.337565   7.677134  -0.000168   0.068033  -0.002475
 558  16   1.088972  -0.731634   8.343287  -0.000415   0.150655  -0.002755
 559  16  -0.044471  -0.071507   8.560873  -0.000272   0.150655  -0.001804
 560  16  -1.203628   0.260488   8.000573  -0.000404   0.150655  -0.002684
 561  16  -1.920694   0.130367   6.888508  -0.000437   0.150655  -0.002903
 562  16  -1.906280  -0.409358   5.673481  -0.000308   0.150655  -0.002044
 563  16  -1.166203  -1.140867   4.845844  -0.000316   0.150655  -0.002100
 564  16   0.000861  -1.768942   4.739610  -0.000471   0.150655  -0.003127
 565   6   1.834285  -0.852499   7.999571  -0.000298   0.149501  -0.001990
 566   6   0.777555  -0.033784   8.666193  -0.000111   0.149501  -0.000745
 567   6  -0.580634   0.553972   8.463161  -0.000104   0.149501  -0.000693
 568   6  -1.692152   0.673566   7.472413  -0.000160   0.149501  -0.001069
 569   6  -2.108420   0.276734   6.093790  -0.000132   0.149501  -0.000885
 570   6  -1.661442  -0.476374   4.883668  -0.000016   0.149501  -0.000107
 571   6  -0.531607  -1.281823   4.330420  -0.000181   0.149501  -0.001209
 572   6   0.569345  -1.775633   4.455361  -0.000114   0.083117  -0.001366
 573  17  -0.106702   1.443287   1.822524  -0.000145   0.067149  -0.002158
 574  17  -0.966633   1.077219   2.373779  -0.000334   0.148270  -0.002253
 575  17  -1.900972   1.264207   3.277805  -0.000270   0.148270  -0.001819
 576  17  -2.375818   2.132974   4.140929  -0.000299   0.148270  -0.002017
 577  17  -2.204661   3.342287   4.624131  -0.000361   0.148270  -0.002438
 578  17  -1.454728   4.417151   4.537620  -0.000231   0.148270  -0.001557
 579  17  -0.618474   4.945239   4.091333  -0.000062   0.067149  -0.000929
 580   6  -0.199004   0.938271   2.113830  -0.000285   0.147971  -0.001928
 581   6  -1.359228   0.712725   2.997597  -0.000013   0.147971  -0.000089
 582   6  -2.192895   1.337304   4.043033   0.000062   0.147971   0.000416
 583   6  -2.372555   2.566685   4.839512  -0.000141   0.147971  -0.000953
 584   6  -1.827643   3.917993   5.074193  -0.000128   0.147971  -0.000866
 585   6  -0.772189   4.860459   4.654897   0.000107   0.147971   0.000720
 586   7  14.399781   6.221777   2.445372   0.000002   0.029053   0.000074
 587   8  14.662912   5.817719   2.573801   0.000066   0.029053   0.002256
 588  18  14.385098   6.509997   2.539723  -0.000021   0.029053  -0.000740
 589   7  14.089862   6.883086   5.725898   0.000008   0.029053   0.000276
 590   8  14.356975   6.470532   5.812181   0.000069   0.029053   0.002392
 591  18  14.102874   7.112211   5.527100  -0.000019   0.029053  -0.000666
 592   7  11.314277   5.348293   7.801427   0.000013   0.027582   0.000472
 593   8  11.609687   4.951367   7.865714   0.000037   0.027582   0.001349
 594  19  11.020782   5.419542   7.832422  -0.000014   0.027582  -0.000512
 595   7  14.397675   5.528437   2.030081   0.000013   0.026238   0.000491
 596   8  14.722310   5.158168   2.110224  -0.000003   0.026238  -0.000128
 597  21  14.829585   4.907660   1.976762  -0.000039   0.026238  -0.001494
 598   7  14.177549   6.467309   6.076225   0.000067   0.026123   0.002583
 599   8  14.499758   6.107315   6.200704   0.000025   0.026123   0.000954
 600  22  14.586887   5.943615   6.440060  -0.000010   0.026123  -0.000395
 601   7  11.994767   5.279869   7.796503   0.000039   0.026123   0.001483
 602   8  12.287485   4.903832   7.944224   0.000011   0.026123   0.000435
 603  22  12.573422   4.848286   8.026897  -0.000018   0.026123  -0.000673
 604   8  14.522913   6.235688   6.042568   0.000069   0.021115   0.003282
 605   7  14.088128   6.789031   5.912447   0.000056   0.021115   0.002639
 606   8  12.038841   4.875945   7.969558   0.000095   0.054802   0.001726
 607   7  11.563215   5.394381   7.825199   0.000105   0.054802   0.001917
 608   8  14.771614   5.400065   2.294388   0.000152   0.081032   0.001872
 609   7  14.383446   6.003975   2.219747   0.000111   0.081032   0.001374
 610   7  10.520128   8.905478   2.734486   0.000048   0.039054   0.001237
 611  13  10.001013   8.859623   2.195408   0.000016   0.039054   0.000411
 612  18  10.816464   8.956647   2.775401  -0.000054   0.039054  -0.001390
 613  13   8.492333   8.747654   2.729486  -0.000334   0.189755  -0.001762
 614  13   9.331903   8.980710   2.110799  -0.000414   0.189755  -0.002182
 615   7   9.575758   8.795397   3.294803   0.000563   0.520818   0.001080
 616   7  13.696752   5.356320   1.207689  -0.000030   0.167714  -0.000177
 617  14  13.379501   5.144840   0.557929  -0.000275   0.167714  -0.001638
 618  21  14.114164   4.719114   1.239425  -0.000159   0.167714  -0.000945
 619  14  13.032392   5.752985   0.059592  -0.000284   0.131309  -0.002162
 620   7  13.508335   5.976167   1.050448   0.000222   0.185163   0.001198
 621  18  13.991601   7.039640   2.161659  -0.000340   0.126988  -0.002680
 622   7  13.736717   6.759337   1.819490  -0.000200   0.155143  -0.001287
 623  18  11.155634   9.189051   3.304995  -0.000126   0.075099  -0.001673
 624  18  11.401007   9.175289   4.480455  -0.000204   0.169759  -0.001200
 625  18  12.281914   8.696419   5.522309  -0.000228   0.169759  -0.001345
 626  18  13.467780   7.881688   5.666215  -0.000366   0.169759  -0.002156
 627   7  10.821019   9.080458   3.818471  -0.000156   0.161885  -0.000962
 628   7  11.437949   8.846918   5.301681   0.000178   0.161885   0.001097
 629   7  12.675364   8.072416   6.011616  -0.000052   0.161885  -0.000322
 630   7  13.742183   7.301354   5.858975   0.000015   0.091750   0.000168
 631  19  10.792483   5.929972   7.857645  -0.000093   0.074133  -0.001255
 632  19  10.629595   7.036983   7.463217  -0.000278   0.167037  -0.001662
 633  19   9.853263   7.914566   6.644186  -0.000246   0.167037  -0.001474
 634  19   8.936551   8.027960   5.899633  -0.000104   0.074133  -0.001399
 635   7  11.165058   6.357892   7.611541  -0.000226   0.160279  -0.001411
 636   7  10.667249   7.706130   6.896905   0.000058   0.160279   0.000361
 637   7   9.527827   8.208655   5.884260   0.000002   0.160279   0.000016
 638  21  14.743133   4.667191   1.607368  -0.000218   0.124341  -0.001751
 639   7  14.187338   5.650615   1.703659   0.000274   0.175240   0.001561
 640  22  14.436660   5.862914   6.871479  -0.000256   0.203151  -0.001258
 641  22  13.388761   5.351623   7.745435  -0.001214   0.416082  -0.002918
 642   7  13.366270   6.493573   6.815874   0.000691   0.556140   0.001243
 643   7  12.167716   5.788020   7.716656   0.000585   0.286098   0.002044
 644   8  11.663542  -0.183306   2.946567  -0.000057   0.084129  -0.000682
 645   9  10.699909  -0.292768   2.582681  -0.000485   0.084129  -0.005763
 646  20  11.472380  -0.315069   3.145257  -0.000250   0.084129  -0.002967
 647   9  10.484140  -0.042657   1.599762  -0.001631   0.367934  -0.004432
 648   8  11.864735   0.075762   2.284425   0.001085   0.523960   0.002071
 649   8   9.362683   2.834358   6.797314  -0.000290   0.449339  -0.000645
 650  12   7.779857   2.226486   6.588556  -0.003369   0.449339  -0.007498
 651  19   8.902685   3.457298   6.814236  -0.001151   0.449339  -0.002562
 652   8   9.846192   1.508016   6.826013  -0.000350   0.147877  -0.002369
 653  12   8.237650   1.021977   6.613752  -0.000717   0.147877  -0.004849
 654  20   9.771849   1.224247   6.732713  -0.000624   0.147877  -0.004218
 655  12   7.234679   1.091874   7.290918  -0.001379   0.299789  -0.004601
 656   8   9.637105   2.093667   7.276460   0.000610   0.480264   0.001271
 657   8  12.631700   1.672240   1.077871   0.000039   0.088799   0.000434
 658  14  12.182590   2.232176   0.380741   0.000045   0.088799   0.000507
 659  21  12.921510   1.739738   1.003963  -0.000140   0.088799  -0.001571
 660  14  11.823545   2.261804  -0.109930  -0.000004   0.015156  -0.000259
 661   8  12.464940   1.505190   0.984052   0.000097   0.021534   0.004489
 662  18  14.305182   7.243696   5.190185  -0.000161   0.166825  -0.000966
 663  18  14.660639   7.042437   4.026140  -0.000827   0.338993  -0.002440
 664  18  14.528085   6.768062   2.830731  -0.000169   0.166825  -0.001014
 665   8  14.942733   6.235863   5.101313   0.000744   0.460236   0.001617
 666   8  15.102220   5.895548   3.413126   0.000709   0.460236   0.001541
 667  19   9.482188   4.100292   7.459871  -0.000380   0.168220  -0.002256
 668  19  10.330445   4.910841   7.839436  -0.000698   0.341724  -0.002044
 669   8  10.525040   3.550708   7.705675   0.000604   0.464050   0.001301
 670   8  11.491585   4.512126   8.036002   0.000501   0.237065   0.002115
 671  20  12.048954  -0.527224   3.522461  -0.000091   0.072836  -0.001253
 672  20  12.671225  -0.720263   4.494607  -0.000366   0.163652  -0.002239
 673  20  12.796748  -0.516252   5.885260  -0.000416   0.163652  -0.002542
 674  20  12.131034   0.119328   6.954912  -0.000230   0.163652  -0.001407
 675  20  10.980097   0.894318   7.211869  -0.000445   0.163652  -0.002720
 676   8  12.642863  -0.470382   3.663778  -0.000005   0.157864  -0.000035
 677   8  13.230449  -0.540402   5.133701  -0.000136   0.157864  -0.000860
 678   8  12.908069  -0.039344   6.601980  -0.000060   0.157864  -0.000380
 679   8  11.823915   0.802467   7.393684   0.000039   0.157864   0.000246
 680   8  10.727660   1.484438   7.362113  -0.000094   0.088985  -0.001051
 681  21  15.276271   4.630386   2.075929  -0.000096   0.067576  -0.001424
 682  21  15.977285   4.174483   2.772864  -0.000248   0.149230  -0.001661
 683  21  16.424311   3.108936   3.405969  -0.000201   0.149230  -0.001347
 684  21  16.234618   1.814517   3.562627  -0.000213   0.149230  -0.001426
 685  21  15.483032   0.801819   3.181045  -0.000280   0.149230  -0.001877
 686  21  14.466020   0.470307   2.411739  -0.000179   0.149230  -0.001201
 687  21  13.584750   0.950747   1.558168  -0.000290   0.149230  -0.001940
 688   8  15.442686   4.784464   2.622895  -0.000178   0.148912  -0.001195
 689   8  16.244139   3.907582   3.506292   0.000047   0.148912   0.000316
 690   8  16.396409   2.511136   3.973613   0.000050   0.148912   0.000333
 691   8  15.839432   1.145961   3.840521  -0.000028   0.148912  -0.000191
 692   8  14.792911   0.350561   3.159514  -0.000013   0.148912  -0.000091
 693   8  13.669654   0.438685   2.199220   0.000082   0.148912   0.000548
 694   8  12.972642   1.080505   1.460356   0.000100   0.082559   0.001209
 695  22  12.778394   4.428618   8.298040  -0.000105   0.068960  -0.001522
 696  22  12.864199   3.335912   8.483486  -0.000312   0.153050  -0.002041
 697  22  13.528454   2.182493   8.296427  -0.000185   0.153050  -0.001209
 698  22  14.608960   1.659817   7.691515  -0.000285   0.153050  -0.001864
 699  22  15.659721   1.983629   6.918437  -0.000316   0.153050  -0.002064
 700  22  16.247018   3.020268   6.296294  -0.000207   0.153050  -0.001353
 701  22  16.128435   4.341847   6.081886  -0.000254   0.153050  -0.001657
 702  22  15.352919   5.402860   6.363712  -0.000354   0.153050  -0.002312
 703   8  12.385359   3.981134   8.250243  -0.000163   0.151221  -0.001075
 704   8  12.763822   2.521147   8.321981   0.000071   0.151221   0.000470
 705   8  13.798695   1.527002   7.852238   0.000047   0.151221   0.000310
 706   8  15.062817   1.409049   7.034909  -0.000100   0.151221  -0.000662
 707   8  16.034401   2.215976   6.207359  -0.000111   0.151221  -0.000736
 708   8  16.312410   3.614710   5.711174   0.000093   0.151221   0.000618
 709   8  15.782091   5.027900   5.751162  -0.000155   0.151221  -0.001025
 710   8  14.940702   5.834969   6.133348   0.000038   0.084250   0.000451
 711  11   5.738548  -1.626311   1.945553  -0.000893   0.356794  -0.002503
 712   9   7.250686  -1.259177   1.949720  -0.000899   0.356794  -0.002521
 713   9   8.586641  -0.483043   4.284957  -0.002796   0.333670  -0.008381
 714  12   7.798203  -0.514977   5.042293  -0.001799   0.333670  -0.005390
 715  20   9.344358  -0.306455   4.858951  -0.001813   0.333670  -0.005434
 716  12   7.073228  -1.232310   5.029621  -0.000341   0.172943  -0.001973
 717   9   8.176595  -0.946147   3.972506  -0.000462   0.172943  -0.002669
 718  20  10.225989  -0.755010   4.657142  -0.001070   0.237639  -0.004502
 719  20  10.965425  -0.721681   3.737678  -0.001599   0.475521  -0.003363
 720   9   9.450982  -0.856850   3.450719  -0.003072   0.475521  -0.006460
 721   9  10.180951  -0.721316   2.533077  -0.001091   0.237639  -0.004592
 722  11   3.434721   0.478230   0.243215  -0.000617   0.256427  -0.002408
 723  11   4.180585  -0.325920   0.249250  -0.002111   0.512544  -0.004119
 724  10   4.678745   1.054097  -0.747773  -0.001945   0.512544  -0.003796
 725  10   5.461418   0.289843  -0.668126  -0.000366   0.256427  -0.001426
 726  14   9.737887   3.495734  -2.108481   0.000035   0.261590   0.000134
 727  10   8.394040   2.994130  -2.211383  -0.000329   0.261590  -0.001257
 728  19   8.466194   3.899810   7.321592   0.000128   0.199797   0.000641
 729  12   6.850974   1.966270   7.373722  -0.000385   0.199797  -0.001926
 730  20   9.765846   0.768333   6.959141   0.000040   0.298094   0.000134
 731  20   9.831722  -0.103478   6.401287  -0.001160   0.594444  -0.001951
 732  20   9.804558  -0.633792   5.510432  -0.000376   0.298094  -0.001263
 733  12   7.526822   0.073270   7.046720  -0.001926   0.594444  -0.003241
 734  12   7.551043  -0.804025   6.140277  -0.001537   0.594444  -0.002586
 735  18  11.141764   9.086555   2.479939   0.000241   0.192928   0.001248
 736  13   9.908063   9.032281   1.738482   0.000223   0.192928   0.001153
 737  21  13.268110   1.797017   0.704176   0.000282   0.253530   0.001111
 738  21  13.981165   2.639759   0.459930  -0.000523   0.506916  -0.001031
 739  21  14.439077   3.905782   0.755687  -0.000468   0.506916  -0.000923
 740  14  12.503358   2.708582  -0.381674  -0.000370   0.506916  -0.000731
 741  14  13.240585   3.871111  -0.452352  -0.000705   0.506916  -0.001391
 742  14  13.449007   4.900834  -0.034566  -0.000082   0.253530  -0.000325
 =====================================================

              4977682  WORDS OF DYNAMIC MEMORY USED
 EXECUTION OF GAMESS TERMINATED NORMALLY Thu Nov 24 03:47:24 2016
 DDI: 263640 bytes (0.3 MB / 0 MWords) used by master data server.

 ----------------------------------------
 CPU timing information for all processes
 ========================================
 0: 3715.844 + 1.244 = 3717.88
 ----------------------------------------
 ddikick.x: exited gracefully.
