----- GAMESS execution script -----

          ******************************************************
          *         GAMESS VERSION =  5 DEC 2014 (R1)          *
          *             FROM IOWA STATE UNIVERSITY             *
          * M.W.SCHMIDT, K.K.BALDRIDGE, J.A.BOATZ, S.T.ELBERT, *
          *   M.S.GORDON, J.H.JENSEN, S.KOSEKI, N.MATSUNAGA,   *
          *          K.A.NGUYEN, S.J.SU, T.L.WINDUS,           *
          *       TOGETHER WITH M.DUPUIS, J.A.MONTGOMERY       *
          *         J.COMPUT.CHEM.  14, 1347-1363(1993)        *
          **************** 64 BIT LINUX VERSION ****************

 EXECUTION OF GAMESS BEGUN Thu Nov 24 03:23:53 2016

            ECHO OF THE FIRST FEW INPUT CARDS -
 INPUT CARD>! SELECT RESTRICTED HARTREE-FOCK AS DEFAULT                                     
 INPUT CARD>$contrl scftyp=rhf $end                                                         
 INPUT CARD>                                                                                
 INPUT CARD>! THEORY: HF OR DFT                                                             
 INPUT CARD> $contrl mplevl=0 $end                                                          
 INPUT CARD>                                                                                
 INPUT CARD> $system timlim=10000 mwords=20 $end                                            
 INPUT CARD> $SCF DIRSCF=.TRUE. $end                                                        
 INPUT CARD>                                                                                
 INPUT CARD>                                                                                
 INPUT CARD>! BASIS SETS                                                                    
 INPUT CARD>! 6-311G(d,p)                                                                   
 INPUT CARD> $BASIS GBASIS=N311 NGAUSS=6 NDFUNC=1 NPFUNC=1 $END                             
 INPUT CARD>                                                                                
 INPUT CARD>! One of the following                                                          
 INPUT CARD> $guess guess=HUCKEL $end                                                       
 INPUT CARD>                                                                                
 INPUT CARD> $statpt projct=.FALSE. $end                                                    
 INPUT CARD> $STATPT IFREEZ(1)=1,2,3 $END                                                   
 INPUT CARD>                                                                                
 INPUT CARD>! Optimize the geometry with COSMO effects                                      
 INPUT CARD> $statpt opttol=0.0005 nstep=50 $end                                            
 INPUT CARD> $contrl nzvar=1 $end                                                           
 INPUT CARD> $zmat dlc=.t. auto=.t. $end                                                    
 INPUT CARD> $contrl runtyp=OPTIMIZE maxit=200 $end                                         
 INPUT CARD>                                                                                
 INPUT CARD>! Run COSMO on perfect conductor                                                
 INPUT CARD> $COSGMS PRFCND=.TRUE. $end                                                     
 INPUT CARD>                                                                                
 INPUT CARD>! Specifying RSOLV                                                              
 INPUT CARD> $COSGMS COSRAD = 1.4 $end                                                      
 INPUT CARD>                                                                                
 INPUT CARD>! available memory                                                              
 INPUT CARD> $SYSTEM MWORDS=40 $END                                                         
 INPUT CARD>                                                                                
 INPUT CARD> $DATA                                                                          
 INPUT CARD>http://cactus.nci.nih.gov/chemical/structure/ETHYL%20ISOPROPYL%20ETHER/file?form
 INPUT CARD>C1                                                                              
 INPUT CARD>C      6.0      0.9787000000    0.0057000000    0.3199000000                    
 INPUT CARD>C      6.0      1.4966000000   -1.3370000000   -0.1997000000                    
 INPUT CARD>C      6.0      1.9702000000    1.1114000000   -0.0476000000                    
 INPUT CARD>O      8.0     -0.2907000000    0.2881000000   -0.2724000000                    
 INPUT CARD>C      6.0     -1.4036000000   -0.2090000000    0.4735000000                    
 INPUT CARD>C      6.0     -2.7033000000    0.1490000000   -0.2500000000                    
 INPUT CARD>H      1.0      0.8717000000   -0.0410000000    1.4036000000                    
 INPUT CARD>H      1.0      2.4648000000   -1.5524000000    0.2521000000                    
 INPUT CARD>H      1.0      0.7902000000   -2.1248000000    0.0621000000                    
 INPUT CARD>H      1.0      1.6036000000   -1.2904000000   -1.2834000000                    
 INPUT CARD>H      1.0      2.0773000000    1.1581000000   -1.1313000000                    
 INPUT CARD>H      1.0      1.6013000000    2.0680000000    0.3226000000                    
   40000000 WORDS OF MEMORY AVAILABLE

     BASIS OPTIONS
     -------------
     GBASIS=N311         IGAUSS=       6      POLAR=POPN311 
     NDFUNC=       1     NFFUNC=       0     DIFFSP=       F
     NPFUNC=       1      DIFFS=       F     BASNAM=        


     RUN TITLE
     ---------
 http://cactus.nci.nih.gov/chemical/structure/ETHYL%20ISOPROPYL%20ETHER/file?form

 THE POINT GROUP OF THE MOLECULE IS C1      
 THE ORDER OF THE PRINCIPAL AXIS IS     0

 ATOM      ATOMIC                      COORDINATES (BOHR)
           CHARGE         X                   Y                   Z
 C           6.0     1.8494748242        0.0107714381        0.6045233435
 C           6.0     2.8281639132       -2.5265636456       -0.3773782797
 C           6.0     3.7231381410        2.1002414628       -0.0899509570
 O           8.0    -0.5493433446        0.5444300571       -0.5147613591
 C           6.0    -2.6524193964       -0.3949527314        0.8947852552
 C           6.0    -5.1084962626        0.2815691722       -0.4724314969
 H           1.0     1.6472741435       -0.0774787655        2.6524193964
 H           1.0     4.6577966145       -2.9336106233        0.4763999215
 H           1.0     1.4932614755       -4.0152897787        0.1173519838
 H           1.0     3.0303645939       -2.4385024146       -2.4252743326
 H           1.0     3.9255277943        2.1884916664       -2.1378470099
 H           1.0     3.0260182241        3.9079533426        0.6096256036
 H           1.0     5.5529598149        1.6931944850        0.7638272442
 H           1.0    -2.5040759063       -2.4422818665        1.0671282653
 H           1.0    -2.6552539853        0.4535342371        2.7716611062
 H           1.0    -5.1058506462       -0.5671067689       -2.3493073479
 H           1.0    -6.7126846536       -0.4350149224        0.6028225901
 H           1.0    -5.2568397526        2.3287093347       -0.6447745070

          INTERNUCLEAR DISTANCES (ANGS.)




     $CONTRL OPTIONS
     ---------------
 SCFTYP=RHF          RUNTYP=OPTIMIZE     EXETYP=RUN     
 MPLEVL=       0     CITYP =NONE         CCTYP =NONE         VBTYP =NONE    
 DFTTYP=NONE         TDDFT =NONE    
 MULT  =       1     ICHARG=       0     NZVAR =       1     COORD =UNIQUE  
 PP    =NONE         RELWFN=NONE         LOCAL =NONE         NUMGRD=       F
 ISPHER=      -1     NOSYM =       0     MAXIT =     200     UNITS =ANGS    
 PLTORB=       F     MOLPLT=       F     AIMPAC=       F     FRIEND=        
 NPRINT=       7     IREST =       0     GEOM  =INPUT   
 NORMF =       0     NORMP =       0     ITOL  =      20     ICUT  =       9
 INTTYP=BEST         GRDTYP=BEST         QMTTOL= 1.0E-06

     $SYSTEM OPTIONS
     ---------------
  REPLICATED MEMORY=    40000000 WORDS (ON EVERY NODE).
 DISTRIBUTED MEMDDI=           0 MILLION WORDS IN AGGREGATE,
 MEMDDI DISTRIBUTED OVER   1 PROCESSORS IS           0 WORDS/PROCESSOR.
 TOTAL MEMORY REQUESTED ON EACH PROCESSOR=    40000000 WORDS.
 TIMLIM=       10000.00 MINUTES, OR       6.9 DAYS.
 PARALL= F  BALTYP=  DLB     KDIAG=    0  COREFL= F
 MXSEQ2=     300 MXSEQ3=     150  mem10=         0

     $COSGMS OPTIONS
     ---------------
     EPSI  =   INFTY     NSPA  =      92     COSRAD=    1.40
     DISEX =   10.00     OUTCHG=DBLCAV       COSBUG=       F
     COSWRT=       F     DCOSMO=       F

     SYMMETRY COORDINATES WILL NOT BE USED FOR 
     THE COSMO CALCULATION, EVEN IF SPECIFIED:
         -- SWITCHING TO C1 POINT GROUP --


     DEFINITION OF CAVITY
     ---------------------------
     ATOM         COORDINATES           RADIUS 
     1    1.8495    0.0108    0.6045    2.0000
     2    2.8282   -2.5266   -0.3774    2.0000
     3    3.7231    2.1002   -0.0900    2.0000
     4   -0.5493    0.5444   -0.5148    1.7200
     5   -2.6524   -0.3950    0.8948    2.0000
     6   -5.1085    0.2816   -0.4724    2.0000
     7    1.6473   -0.0775    2.6524    1.3000
     8    4.6578   -2.9336    0.4764    1.3000
     9    1.4933   -4.0153    0.1174    1.3000
    10    3.0304   -2.4385   -2.4253    1.3000
    11    3.9255    2.1885   -2.1378    1.3000
    12    3.0260    3.9080    0.6096    1.3000
    13    5.5530    1.6932    0.7638    1.3000
    14   -2.5041   -2.4423    1.0671    1.3000
    15   -2.6553    0.4535    2.7717    1.3000
    16   -5.1059   -0.5671   -2.3493    1.3000
    17   -6.7127   -0.4350    0.6028    1.3000
    18   -5.2568    2.3287   -0.6448    1.3000

          ----------------
          PROPERTIES INPUT
          ----------------

     MOMENTS            FIELD           POTENTIAL          DENSITY
 IEMOM =       1   IEFLD =       0   IEPOT =       0   IEDEN =       0
 WHERE =COMASS     WHERE =NUCLEI     WHERE =NUCLEI     WHERE =NUCLEI  
 OUTPUT=BOTH       OUTPUT=BOTH       OUTPUT=BOTH       OUTPUT=BOTH    
 IEMINT=       0   IEFINT=       0                     IEDINT=       0
                                                       MORB  =       0
          EXTRAPOLATION IN EFFECT
          SOSCF IN EFFECT
 ORBITAL PRINTING OPTION: NPREO=     1   186     2     1

     -------------------------------
     INTEGRAL TRANSFORMATION OPTIONS
     -------------------------------
     NWORD  =            0
     CUTOFF = 1.0E-09     MPTRAN =       0
     DIRTRF =       T     AOINTS =DUP     

          ----------------------
          INTEGRAL INPUT OPTIONS
          ----------------------
 NOPK  =       1 NORDER=       0 SCHWRZ=       T


 -----------------------------------------------
  STATISTICS ON AUTOMATIC COORDINATE GENERATION 
 -----------------------------------------------
  NUMBER OF USER SPECIFIED BONDS                             0
  NUMBER OF BONDS                                           17
  NUMBER OF ANGLES                                          31
  NUMBER OF TORSIONS                                        33
  NUMBER OF EXTRA COORD.                                     0
  NUMBER OF EXTRA COORD. FOR CONSTRAINTS                     0
  NUMBER OF CONSTRAINED COORD.                               0

  TOTAL NUMBER OF PRIMITIVES                                81
 -----------------------------------------------

   --- ENCODED Z MATRIX ---
 COORD  TYPE   I   J   K   L   M   N
    1      1    1   4
    2      1    1   7
    3      1    1   3
    4      1    1   2
    5      1    2  10
    6      1    2   9
    7      1    2   8
    8      1    3  13
    9      1    3  12
   10      1    3  11
   11      1    4   5
   12      1    5  15
   13      1    5  14
   14      1    5   6
   15      1    6  16
   16      1    6  18
   17      1    6  17
   18      2    1   3  13
   19      2    1   3  11
   20      2    1   2   9
   21      2    1   4   5
   22      2    1   3  12
   23      2    1   2  10
   24      2    1   2   8
   25      2    2   1   7
   26      2    2   1   3
   27      2    2   1   4
   28      2    3   1   7
   29      2    3   1   4
   30      2    4   5   6
   31      2    4   5  14
   32      2    4   5  15
   33      2    4   1   7
   34      2    5   6  17
   35      2    5   6  16
   36      2    5   6  18
   37      2    6   5  14
   38      2    6   5  15
   39      2    8   2  10
   40      2    8   2   9
   41      2    9   2  10
   42      2   11   3  12
   43      2   11   3  13
   44      2   12   3  13
   45      2   14   5  15
   46      2   16   6  17
   47      2   16   6  18
   48      2   17   6  18
   49      3    1   4   5   6
   50      3    1   4   5  14
   51      3    1   4   5  15
   52      3    2   1   3  11
   53      3    2   1   3  13
   54      3    2   1   4   5
   55      3    2   1   3  12
   56      3    3   1   2   8
   57      3    3   1   4   5
   58      3    3   1   2  10
   59      3    3   1   2   9
   60      3    4   1   2   9
   61      3    4   1   3  13
   62      3    4   5   6  17
   63      3    4   5   6  18
   64      3    4   5   6  16
   65      3    4   1   2   8
   66      3    4   1   2  10
   67      3    4   1   3  11
   68      3    4   1   3  12
   69      3    5   4   1   7
   70      3    7   1   2   8
   71      3    7   1   2  10
   72      3    7   1   3  11
   73      3    7   1   3  12
   74      3    7   1   2   9
   75      3    7   1   3  13
   76      3   14   5   6  18
   77      3   14   5   6  16
   78      3   14   5   6  17
   79      3   15   5   6  18
   80      3   15   5   6  16
   81      3   15   5   6  17

          INDEP./SYM. INTERNAL COORDINATES
          --------------------------------
 CRD  1=   0.7064 ( 21)  0.1971 ( 27) -0.2674 ( 29) -0.4020 ( 30)  0.1452 ( 31)
           0.1525 ( 32)  0.1187 ( 37) -0.1203 ( 49) -0.1322 ( 50) -0.1387 ( 60)
          -0.1376 ( 65) -0.1177 ( 66)
 CRD  2=   0.2259 (  1)  0.1379 ( 11)  0.1379 ( 14)  0.1032 ( 20) -0.1134 ( 24)
          -0.2839 ( 26)  0.4100 ( 27)  0.1201 ( 28)  0.3772 ( 30) -0.1312 ( 31)
          -0.1364 ( 33)  0.1547 ( 35) -0.2202 ( 38) -0.3136 ( 49) -0.1411 ( 50)
          -0.2148 ( 51)  0.1143 ( 52)  0.1282 ( 53)  0.1097 ( 54)  0.1216 ( 55)
          -0.1461 ( 61) -0.1599 ( 67) -0.1526 ( 68)
 CRD  3=  -0.2730 (  1) -0.2770 ( 11) -0.1570 ( 14) -0.3933 ( 21) -0.1096 ( 22)
          -0.1693 ( 25)  0.3596 ( 26) -0.3093 ( 29) -0.1069 ( 30) -0.1160 ( 36)
           0.1675 ( 37) -0.2781 ( 49) -0.1654 ( 50) -0.1935 ( 51) -0.2462 ( 54)
           0.1157 ( 56) -0.1118 ( 61) -0.1128 ( 68) -0.1116 ( 69)
 CRD  4=  -0.1686 (  3)  0.1837 (  4) -0.1072 ( 11)  0.1368 ( 20) -0.1467 ( 21)
          -0.1706 ( 22)  0.1220 ( 27) -0.1434 ( 29)  0.1106 ( 31) -0.1515 ( 32)
           0.1452 ( 49)  0.1793 ( 50)  0.1570 ( 51)  0.4431 ( 54)  0.4991 ( 57)
          -0.1177 ( 61)  0.1271 ( 62)  0.1380 ( 63)  0.1400 ( 64)  0.3249 ( 69)
 CRD  5=  -0.2490 (  1) -0.2563 (  3) -0.2371 (  4) -0.1385 ( 11) -0.1959 ( 14)
          -0.1587 ( 18) -0.1334 ( 19) -0.2402 ( 21) -0.1264 ( 23) -0.1553 ( 24)
           0.1445 ( 25) -0.4464 ( 26)  0.1473 ( 27)  0.1495 ( 28)  0.1459 ( 29)
          -0.3193 ( 30) -0.1408 ( 33) -0.1030 ( 36)  0.1104 ( 37)  0.1776 ( 54)
          -0.1896 ( 57)
 CRD  6=  -0.3746 (  3) -0.2590 ( 11) -0.3280 ( 19) -0.1280 ( 23) -0.2112 ( 29)
           0.2546 ( 30) -0.1943 ( 31)  0.1375 ( 33) -0.1511 ( 34)  0.2680 ( 36)
          -0.1054 ( 37)  0.1520 ( 42)  0.1076 ( 43)  0.2093 ( 49)  0.1172 ( 50)
          -0.1478 ( 57)  0.1051 ( 59) -0.1327 ( 60)  0.1193 ( 61) -0.1521 ( 62)
          -0.1258 ( 63) -0.1537 ( 65) -0.1449 ( 66)  0.1044 ( 67)
 CRD  7=  -0.1439 (  3) -0.4445 (  4) -0.1933 ( 20)  0.1042 ( 21) -0.1691 ( 22)
          -0.2643 ( 23) -0.1597 ( 27) -0.1704 ( 32)  0.3521 ( 35) -0.2303 ( 36)
           0.1036 ( 39)  0.1880 ( 41) -0.1073 ( 46) -0.2080 ( 49)  0.2422 ( 62)
           0.1652 ( 63)  0.1803 ( 64)
 CRD  8=   0.2731 (  3)  0.2334 (  4) -0.1099 ( 14)  0.2865 ( 18) -0.3032 ( 19)
           0.2733 ( 20)  0.2598 ( 22) -0.3581 ( 23)  0.2925 ( 24)  0.1048 ( 25)
           0.1101 ( 35) -0.1241 ( 36) -0.2020 ( 40) -0.2018 ( 44) -0.1228 ( 52)
          -0.1801 ( 55)  0.1071 ( 58)  0.1705 ( 59)
 CRD  9=   0.5917 ( 14) -0.1446 ( 21) -0.1219 ( 30) -0.1156 ( 31)  0.4645 ( 34)
           0.2585 ( 37)  0.2249 ( 38) -0.1575 ( 45) -0.2260 ( 46) -0.2220 ( 48)
           0.1592 ( 50) -0.1586 ( 51)
 CRD 10=   0.3296 (  3) -0.3280 (  4)  0.4587 ( 18)  0.1125 ( 20) -0.1168 ( 22)
          -0.4046 ( 24) -0.1481 ( 25)  0.1628 ( 28) -0.1340 ( 35)  0.1166 ( 36)
           0.1343 ( 38)  0.1892 ( 39)  0.1210 ( 40) -0.1911 ( 43) -0.1368 ( 44)
           0.1055 ( 52)  0.1002 ( 56)  0.1238 ( 58)  0.1587 ( 69)
 CRD 11=  -0.1263 (  3) -0.1179 (  6)  0.2618 ( 11)  0.2901 ( 18) -0.1164 ( 19)
          -0.3870 ( 20) -0.2947 ( 22)  0.3542 ( 24) -0.1300 ( 33)  0.2044 ( 34)
          -0.3009 ( 35) -0.1458 ( 39)  0.1418 ( 41)  0.1593 ( 42)  0.1284 ( 47)
           0.1157 ( 60) -0.1057 ( 61)  0.1029 ( 65) -0.1293 ( 68)
 CRD 12=   0.1172 (  5) -0.1181 ( 10) -0.4637 ( 19) -0.3012 ( 20)  0.3352 ( 22)
           0.4795 ( 23) -0.1244 ( 24)  0.1646 ( 35) -0.1911 ( 36) -0.1427 ( 39)
           0.1577 ( 40)  0.1547 ( 43) -0.1550 ( 44)  0.1021 ( 61)  0.1160 ( 69)
 CRD 13=  -0.2479 ( 18) -0.2015 ( 20)  0.3457 ( 22)  0.2041 ( 24)  0.2273 ( 31)
          -0.2249 ( 32) -0.2309 ( 35)  0.3367 ( 36) -0.2166 ( 37)  0.2426 ( 38)
           0.1324 ( 41) -0.1491 ( 42)  0.1144 ( 46) -0.1017 ( 48) -0.2202 ( 50)
          -0.2366 ( 51)  0.1102 ( 62)  0.1473 ( 63)  0.1560 ( 64)
 CRD 14=   0.1012 (  1) -0.1351 ( 12) -0.1352 ( 13) -0.1883 ( 14) -0.1125 ( 16)
           0.1759 ( 17) -0.1386 ( 18)  0.1181 ( 20)  0.1157 ( 22) -0.1159 ( 23)
           0.2255 ( 30) -0.1445 ( 32)  0.1101 ( 33)  0.4878 ( 34) -0.3015 ( 35)
          -0.3855 ( 36) -0.1376 ( 37)  0.1403 ( 45)  0.3038 ( 47)
 CRD 15=   0.1684 (  3) -0.1187 (  4)  0.1263 (  7) -0.1191 (  8)  0.1286 ( 10)
          -0.1528 ( 18)  0.2389 ( 19) -0.2285 ( 20) -0.1199 ( 23)  0.2179 ( 24)
          -0.2282 ( 25)  0.1563 ( 27)  0.2778 ( 28) -0.1311 ( 29) -0.1094 ( 31)
           0.1103 ( 32)  0.1799 ( 35) -0.1490 ( 36)  0.1059 ( 37)  0.1739 ( 41)
          -0.1748 ( 42)  0.1547 ( 49)  0.2088 ( 50)  0.1949 ( 51)  0.1320 ( 52)
           0.1459 ( 53)  0.1250 ( 55)  0.1720 ( 56)  0.1508 ( 58)  0.1511 ( 59)
           0.2273 ( 69)
 CRD 16=   0.1282 (  4)  0.2241 ( 12) -0.2003 ( 13)  0.1668 ( 15) -0.1548 ( 16)
          -0.1612 ( 22)  0.2079 ( 31) -0.1855 ( 32)  0.2755 ( 35) -0.2517 ( 36)
          -0.3944 ( 37)  0.4250 ( 38) -0.1425 ( 46)  0.1552 ( 48)  0.1991 ( 49)
          -0.1790 ( 50) -0.1855 ( 51) -0.1194 ( 57) -0.1192 ( 69)
 CRD 17=  -0.5508 (  2) -0.1529 (  3) -0.1015 (  5)  0.1154 (  6)  0.1281 (  9)
           0.3427 ( 11)  0.2029 ( 12) -0.2371 ( 19)  0.1561 ( 20) -0.2390 ( 23)
          -0.1213 ( 25)  0.1878 ( 26)  0.1179 ( 32)  0.1550 ( 39)  0.1752 ( 43)
          -0.1128 ( 54)  0.1169 ( 57)  0.1201 ( 65)  0.1096 ( 66)
 CRD 18=   0.1472 (  1) -0.2912 (  2)  0.1613 (  7) -0.1763 (  9) -0.3406 ( 10)
          -0.2204 ( 11) -0.2158 ( 13)  0.1197 ( 15)  0.2024 ( 18) -0.1537 ( 20)
           0.1476 ( 22)  0.1077 ( 38)  0.1350 ( 41) -0.1107 ( 43) -0.2070 ( 44)
          -0.2299 ( 56) -0.2220 ( 58) -0.2382 ( 59) -0.1364 ( 60) -0.1122 ( 61)
          -0.1281 ( 65) -0.1203 ( 66) -0.1084 ( 67) -0.1264 ( 70) -0.1186 ( 71)
          -0.1347 ( 74)
 CRD 19=  -0.2131 (  1)  0.1571 (  2)  0.3777 (  5)  0.2399 (  6)  0.1079 (  7)
          -0.1323 (  8)  0.1181 ( 11)  0.1867 ( 12) -0.1298 ( 13) -0.1151 ( 15)
          -0.1612 ( 16) -0.1280 ( 20)  0.1227 ( 22) -0.2239 ( 24)  0.1157 ( 30)
          -0.1257 ( 37)  0.1446 ( 39)  0.2042 ( 40) -0.1028 ( 42) -0.2097 ( 52)
          -0.2227 ( 53) -0.2321 ( 55) -0.1625 ( 61) -0.1494 ( 67) -0.1718 ( 68)
          -0.1145 ( 73) -0.1052 ( 75)
 CRD 20=  -0.1045 (  2) -0.2074 (  5) -0.1890 (  6) -0.1641 (  7) -0.1719 (  8)
          -0.1983 (  9) -0.2157 ( 10) -0.1354 ( 14) -0.4209 ( 15) -0.4198 ( 16)
          -0.4064 ( 17)  0.1648 ( 34)  0.1462 ( 35)  0.1472 ( 36) -0.1565 ( 46)
          -0.1445 ( 47) -0.1572 ( 48)
 CRD 21=   0.1364 (  1)  0.1729 (  3)  0.1063 (  4)  0.1619 (  5)  0.2028 (  6)
           0.2702 (  7)  0.4164 (  8)  0.3260 (  9)  0.2903 ( 10) -0.1668 ( 11)
          -0.1076 ( 12) -0.1180 ( 14) -0.2248 ( 15) -0.2207 ( 16) -0.2593 ( 17)
          -0.1156 ( 19) -0.1076 ( 20) -0.1354 ( 22)  0.1036 ( 41)  0.1402 ( 42)
          -0.1067 ( 59)
 CRD 22=  -0.1605 (  3)  0.2177 (  4)  0.2569 (  5)  0.3223 (  6)  0.3987 (  7)
          -0.2651 (  8) -0.2542 (  9) -0.2019 ( 10) -0.1299 ( 12)  0.1887 ( 13)
           0.1265 ( 52)  0.1377 ( 53)  0.1293 ( 55)  0.1568 ( 61)  0.1456 ( 67)
           0.1484 ( 68) -0.1144 ( 69)  0.1215 ( 70)  0.1170 ( 71)  0.1370 ( 72)
           0.1398 ( 73)  0.1086 ( 74)  0.1482 ( 75)
 CRD 23=  -0.5689 ( 12) -0.5994 ( 13)  0.1083 ( 37)  0.1117 ( 38) -0.2809 ( 45)
           0.1357 ( 50) -0.1596 ( 51) -0.1318 ( 77) -0.1049 ( 78)  0.1297 ( 79)
           0.1044 ( 81)
 CRD 24=  -0.2154 (  5)  0.4744 (  6) -0.2350 (  7)  0.1890 (  8) -0.3963 (  9)
           0.1854 ( 10) -0.2237 ( 15)  0.1289 ( 16)  0.1002 ( 17) -0.2425 ( 39)
           0.1130 ( 40)  0.1229 ( 41)  0.2008 ( 43)  0.1180 ( 48)  0.1083 ( 52)
          -0.1029 ( 53) -0.1233 ( 56)  0.1312 ( 58) -0.1078 ( 61) -0.1272 ( 65)
           0.1273 ( 66)  0.1034 ( 67) -0.1174 ( 70)  0.1371 ( 71)  0.1151 ( 72)
 CRD 25=   0.1360 (  5) -0.2769 (  6)  0.1389 (  7)  0.2380 (  8) -0.4694 (  9)
           0.2210 ( 10)  0.2372 ( 15) -0.3363 ( 17)  0.1500 ( 39) -0.1278 ( 42)
           0.2493 ( 43) -0.1186 ( 44)  0.1666 ( 47) -0.1230 ( 48)  0.1291 ( 52)
          -0.1314 ( 53) -0.1352 ( 61) -0.1022 ( 63)  0.1253 ( 67)  0.1308 ( 72)
          -0.1297 ( 75) -0.1142 ( 76)
 CRD 26=  -0.1405 (  5)  0.2134 (  6)  0.4867 ( 15) -0.5467 ( 16) -0.1112 ( 39)
           0.2904 ( 46) -0.2596 ( 48)  0.2076 ( 62) -0.1069 ( 77)  0.1990 ( 78)
          -0.1115 ( 80)  0.1944 ( 81)
 CRD 27=  -0.1115 (  5)  0.2532 (  6) -0.1545 (  7) -0.2860 (  8)  0.1929 (  9)
           0.2264 ( 15)  0.2844 ( 16) -0.5122 ( 17) -0.1310 ( 39)  0.1437 ( 42)
          -0.1471 ( 46)  0.2641 ( 47) -0.1166 ( 48) -0.1377 ( 63)  0.1443 ( 64)
          -0.1570 ( 76)  0.1250 ( 77) -0.1140 ( 79)  0.1680 ( 80)
 CRD 28=  -0.3696 (  5)  0.4316 (  7) -0.3214 (  8)  0.3823 ( 10)  0.2024 ( 40)
          -0.2323 ( 41)  0.1775 ( 42) -0.2090 ( 44) -0.1110 ( 53)  0.1059 ( 55)
          -0.1245 ( 58)  0.1233 ( 59)  0.1338 ( 60) -0.1026 ( 61) -0.1141 ( 66)
           0.1144 ( 68) -0.1177 ( 71)  0.1197 ( 73)  0.1301 ( 74)
 CRD 29=  -0.4044 (  5)  0.3176 (  7)  0.3328 (  8) -0.3990 ( 10) -0.1192 ( 17)
           0.2296 ( 40) -0.1887 ( 41) -0.1974 ( 42)  0.2267 ( 44) -0.1909 ( 55)
           0.1917 ( 59)  0.1577 ( 60) -0.1567 ( 68) -0.1528 ( 73)  0.1562 ( 74)
 CRD 30=   0.6167 (  1)  0.4059 (  2)  0.2222 ( 12) -0.2331 ( 21) -0.1978 ( 30)
           0.1677 ( 33)  0.1273 ( 37) -0.1083 ( 45)  0.1042 ( 70)  0.1211 ( 71)
          -0.1511 ( 72) -0.1417 ( 73)  0.1147 ( 74) -0.1426 ( 75)
 CRD 31=   0.1393 (  1) -0.3646 ( 12)  0.3920 ( 13)  0.1619 ( 31) -0.1134 ( 32)
           0.1234 ( 50)  0.1014 ( 51) -0.1276 ( 62) -0.1296 ( 63) -0.1350 ( 64)
          -0.1313 ( 72) -0.1285 ( 73) -0.1234 ( 75) -0.2750 ( 76) -0.2805 ( 77)
          -0.2730 ( 78) -0.2502 ( 79) -0.2556 ( 80) -0.2481 ( 81)
 CRD 32=   0.1694 (  1) -0.1746 (  2) -0.3791 ( 11)  0.1077 ( 12)  0.1733 ( 21)
           0.1389 ( 25) -0.1592 ( 28)  0.1074 ( 29) -0.1389 ( 31) -0.1233 ( 32)
           0.1020 ( 56)  0.1085 ( 57)  0.1179 ( 58)  0.1302 ( 59)  0.2183 ( 60)
          -0.1222 ( 62) -0.1195 ( 63) -0.1429 ( 64)  0.1901 ( 65)  0.2060 ( 66)
           0.2177 ( 70)  0.2336 ( 71)  0.2458 ( 74) -0.2123 ( 79) -0.2356 ( 80)
          -0.2149 ( 81)
 CRD 33=   0.1415 (  1) -0.3508 (  2)  0.1119 (  5) -0.1804 ( 11) -0.1634 ( 12)
           0.1882 ( 13) -0.1118 ( 25)  0.1215 ( 28) -0.1061 ( 41)  0.1113 ( 49)
           0.1080 ( 50) -0.1260 ( 52) -0.1382 ( 54) -0.1463 ( 55) -0.1638 ( 57)
          -0.1093 ( 61)  0.1535 ( 62)  0.1782 ( 63)  0.1625 ( 64) -0.1461 ( 67)
          -0.1664 ( 68) -0.2137 ( 72) -0.2340 ( 73) -0.1768 ( 75)  0.2258 ( 76)
           0.2101 ( 77)  0.2010 ( 78)  0.1202 ( 79)  0.1045 ( 80)
 CRD 34=   0.1396 (  1) -0.2508 ( 11) -0.1288 ( 12) -0.1286 ( 13) -0.1670 ( 14)
           0.2388 ( 15)  0.2392 ( 16)  0.2621 ( 17) -0.1146 ( 21) -0.1324 ( 30)
           0.1646 ( 31)  0.1624 ( 32)  0.2571 ( 34)  0.2463 ( 35)  0.2462 ( 36)
          -0.1838 ( 37) -0.1833 ( 38)  0.1726 ( 45) -0.2559 ( 46) -0.2374 ( 47)
          -0.2563 ( 48) -0.2069 ( 50)  0.2047 ( 51)
 CRD 35=   0.2447 (  3) -0.1713 (  4)  0.2046 (  6)  0.1198 (  7) -0.1710 (  8)
          -0.2353 (  9) -0.1951 ( 10)  0.1507 ( 12) -0.1762 ( 13) -0.2014 ( 18)
          -0.2102 ( 19)  0.1668 ( 20) -0.2180 ( 22)  0.1325 ( 23)  0.1416 ( 24)
          -0.1154 ( 25)  0.1189 ( 28)  0.1171 ( 29) -0.1827 ( 40) -0.1640 ( 41)
           0.2342 ( 42)  0.1807 ( 43)  0.2147 ( 44) -0.1272 ( 49)  0.1122 ( 65)
           0.2187 ( 69) -0.1162 ( 71) -0.1081 ( 79) -0.1150 ( 80)
 CRD 36=  -0.2705 (  3) -0.3504 (  4)  0.2289 (  5)  0.1671 (  6)  0.2136 (  7)
           0.1704 (  8)  0.1183 (  9)  0.1819 ( 10)  0.1012 ( 12)  0.1720 ( 18)
           0.1756 ( 19)  0.2092 ( 20)  0.1575 ( 22)  0.2236 ( 23)  0.2214 ( 24)
           0.1379 ( 33) -0.2476 ( 39) -0.1969 ( 40) -0.2097 ( 41) -0.1574 ( 42)
          -0.1996 ( 43) -0.1481 ( 44)
 CRD 37=  -0.2519 (  1)  0.3584 (  2) -0.1135 (  4) -0.1848 (  5)  0.2008 (  7)
           0.1798 (  8) -0.2135 ( 10) -0.1829 ( 12)  0.1644 ( 14) -0.1198 ( 16)
           0.1105 ( 21) -0.1969 ( 40)  0.1069 ( 41)  0.1199 ( 42) -0.1903 ( 44)
           0.1190 ( 48)  0.1597 ( 55) -0.1539 ( 59) -0.2138 ( 61)  0.2087 ( 65)
           0.1743 ( 66) -0.1609 ( 67)  0.1803 ( 70)  0.1459 ( 71) -0.1232 ( 72)
          -0.1761 ( 75)  0.1083 ( 76)
 CRD 38=  -0.2047 (  4)  0.1039 (  9)  0.2899 ( 11)  0.1416 ( 13) -0.4947 ( 14)
           0.2583 ( 15) -0.2590 ( 31) -0.1378 ( 32)  0.1206 ( 34)  0.1043 ( 35)
           0.1137 ( 36)  0.1451 ( 37)  0.1847 ( 38)  0.1005 ( 43) -0.1259 ( 46)
          -0.2277 ( 47)  0.1125 ( 50) -0.1580 ( 51) -0.1048 ( 62)  0.1394 ( 72)
           0.2307 ( 76) -0.1057 ( 81)
 CRD 39=   0.1089 (  1)  0.3101 (  3) -0.2791 (  4)  0.1991 (  5) -0.1055 (  6)
          -0.1684 (  8) -0.1502 ( 11) -0.1386 ( 12)  0.1895 ( 13)  0.1747 ( 14)
          -0.2330 ( 16) -0.1051 ( 21)  0.1244 ( 25)  0.2096 ( 32) -0.1863 ( 39)
           0.1717 ( 43) -0.1191 ( 46)  0.1291 ( 47)  0.1055 ( 48) -0.1717 ( 62)
          -0.1699 ( 65) -0.1007 ( 69)  0.1089 ( 71)  0.1765 ( 72) -0.1069 ( 78)
           0.1257 ( 79)  0.2406 ( 80)
 CRD 40=  -0.2191 (  1)  0.1828 (  3)  0.1103 (  4) -0.1973 (  6)  0.1513 (  7)
           0.1160 (  8) -0.1652 (  9)  0.1858 ( 12)  0.1253 ( 13) -0.2898 ( 14)
           0.2223 ( 17)  0.1650 ( 33) -0.1197 ( 39)  0.1530 ( 41)  0.1481 ( 42)
          -0.2339 ( 45) -0.1508 ( 48)  0.1718 ( 50) -0.1469 ( 51) -0.1036 ( 52)
           0.1273 ( 58)  0.2584 ( 71) -0.2149 ( 72) -0.2006 ( 76)  0.1551 ( 80)
 CRD 41=  -0.1175 (  1)  0.1923 (  3) -0.2439 (  6)  0.1259 (  7) -0.1324 (  9)
           0.2151 ( 11) -0.1186 ( 12) -0.1509 ( 13)  0.1575 ( 14)  0.1242 ( 16)
          -0.2757 ( 17) -0.1437 ( 21)  0.1647 ( 33) -0.1758 ( 39)  0.1139 ( 41)
           0.2057 ( 45)  0.1433 ( 46) -0.1701 ( 47)  0.1103 ( 48) -0.1050 ( 50)
           0.1162 ( 51) -0.1211 ( 56)  0.1347 ( 58)  0.1341 ( 63) -0.1402 ( 64)
          -0.2037 ( 65)  0.2319 ( 71) -0.1254 ( 72)  0.2148 ( 76)  0.1004 ( 78)
          -0.2411 ( 80)
 CRD 42=  -0.1545 (  7)  0.1853 (  8) -0.2720 (  9)  0.1008 ( 10)  0.2418 ( 15)
          -0.2320 ( 16)  0.1102 ( 22) -0.1033 ( 41)  0.1357 ( 42) -0.2217 ( 43)
          -0.1808 ( 46)  0.1883 ( 48) -0.1412 ( 49) -0.1351 ( 50) -0.1340 ( 51)
          -0.1543 ( 52)  0.1742 ( 53)  0.1115 ( 54)  0.1327 ( 57)  0.1943 ( 61)
          -0.2364 ( 62) -0.1038 ( 66) -0.1342 ( 67)  0.1575 ( 69) -0.1806 ( 72)
           0.1479 ( 75)  0.1100 ( 76) -0.1738 ( 78)  0.1107 ( 79) -0.1731 ( 81)
 CRD 43=   0.2503 (  5) -0.2434 (  7)  0.2373 (  8) -0.2884 ( 10) -0.1096 ( 18)
           0.1236 ( 19) -0.1077 ( 23)  0.1135 ( 24)  0.1913 ( 40) -0.1927 ( 41)
           0.1881 ( 42) -0.2206 ( 44)  0.2786 ( 55)  0.2731 ( 59)  0.2180 ( 60)
          -0.1261 ( 61)  0.2237 ( 68)  0.2334 ( 73)  0.2278 ( 74) -0.1165 ( 75)
 CRD 44=  -0.2217 (  3)  0.2030 (  4)  0.1057 (  5) -0.2062 (  6)  0.1717 (  9)
          -0.1199 ( 13)  0.1208 ( 15) -0.1834 ( 16)  0.1115 ( 20) -0.1008 ( 23)
          -0.1675 ( 25) -0.1159 ( 27)  0.1616 ( 28)  0.1151 ( 29)  0.1228 ( 36)
           0.1136 ( 37) -0.1258 ( 39)  0.1164 ( 40) -0.1424 ( 46) -0.1710 ( 49)
           0.1076 ( 52) -0.1049 ( 53) -0.1132 ( 54) -0.1402 ( 56)  0.1213 ( 58)
           0.1062 ( 60)  0.1697 ( 64)  0.2026 ( 66)  0.1678 ( 67)  0.1701 ( 69)
          -0.2468 ( 70) -0.1998 ( 75)  0.1037 ( 77) -0.1457 ( 78) -0.2256 ( 81)
 CRD 45=   0.2515 ( 11) -0.1895 ( 12) -0.1849 ( 15)  0.2478 ( 17) -0.2025 ( 30)
          -0.1244 ( 31) -0.2033 ( 34)  0.1401 ( 35)  0.1299 ( 38)  0.2219 ( 45)
           0.1972 ( 47) -0.1394 ( 48) -0.2412 ( 63)  0.1199 ( 64)  0.1161 ( 75)
           0.3679 ( 77)  0.2682 ( 78) -0.3729 ( 79) -0.1115 ( 81)
 CRD 46=  -0.1238 (  1) -0.1404 (  2)  0.2174 (  3) -0.1083 (  5)  0.1692 (  6)
           0.1444 ( 11) -0.1652 ( 13) -0.1225 ( 16) -0.1599 ( 20) -0.1123 ( 21)
          -0.1137 ( 22) -0.2016 ( 26) -0.1055 ( 32)  0.1801 ( 33)  0.1080 ( 36)
           0.1115 ( 37)  0.1400 ( 39)  0.1072 ( 43)  0.1181 ( 51) -0.1093 ( 53)
           0.1551 ( 56) -0.1611 ( 57) -0.1042 ( 58) -0.1533 ( 60)  0.1830 ( 64)
          -0.2603 ( 66)  0.1359 ( 67) -0.1438 ( 69)  0.2973 ( 70)  0.1450 ( 74)
          -0.1851 ( 75) -0.1189 ( 79) -0.2073 ( 81)
 CRD 47=   0.2057 (  1) -0.1907 (  4)  0.1143 (  7)  0.1367 (  8)  0.1467 ( 12)
          -0.1439 ( 13) -0.1322 ( 18)  0.1594 ( 25)  0.1172 ( 26) -0.1522 ( 29)
           0.1250 ( 31) -0.1086 ( 32) -0.1584 ( 33) -0.1010 ( 38)  0.1051 ( 42)
           0.2031 ( 50)  0.2103 ( 51) -0.2193 ( 52) -0.1390 ( 54)  0.1164 ( 56)
           0.1805 ( 58)  0.1752 ( 63)  0.1719 ( 64) -0.2035 ( 67) -0.2399 ( 69)
           0.2752 ( 73) -0.1799 ( 74)  0.2029 ( 75) -0.1477 ( 78) -0.1404 ( 81)
 CRD 48=  -0.1489 (  1)  0.2175 (  2) -0.1030 (  4)  0.1441 (  5) -0.1129 (  7)
          -0.1003 (  8)  0.1344 ( 10)  0.1095 ( 12) -0.1427 ( 19) -0.1203 ( 23)
           0.1238 ( 24)  0.1869 ( 27) -0.1776 ( 28)  0.1060 ( 44)  0.1958 ( 50)
           0.1757 ( 51)  0.1905 ( 52)  0.2553 ( 53) -0.2138 ( 54) -0.2370 ( 56)
          -0.2122 ( 58)  0.2064 ( 60)  0.1296 ( 63)  0.1195 ( 64) -0.1145 ( 67)
          -0.2631 ( 68) -0.1921 ( 69) -0.1452 ( 73)  0.2114 ( 74)

 THE DETERMINANT OF THE G MATRIX IS 10**(   -17)


                     --------------------
                     INTERNAL COORDINATES
                     --------------------

                 - - ATOMS - -         COORDINATE      COORDINATE
 NO.   TYPE    I  J  K  L  M  N        (BOHR,RAD)       (ANG,DEG)
 ----------------------------------------------------------------
   1 STRETCH   1  4                     2.7003552       1.4289666
   2 STRETCH   1  7                     2.0597455       1.0899704
   3 STRETCH   1  3                     2.8911579       1.5299350
   4 STRETCH   1  2                     2.8913721       1.5300483
   5 STRETCH   2 10                     2.0597374       1.0899662
   6 STRETCH   2  9                     2.0598612       1.0900317
   7 STRETCH   2  8                     2.0596554       1.0899228
   8 STRETCH   3 13                     2.0598232       1.0900116
   9 STRETCH   3 12                     2.0599043       1.0900545
  10 STRETCH   3 11                     2.0597640       1.0899803
  11 STRETCH   4  5                     2.7004056       1.4289932
  12 STRETCH   5 15                     2.0597575       1.0899768
  13 STRETCH   5 14                     2.0599186       1.0900620
  14 STRETCH   5  6                     2.8912414       1.5299792
  15 STRETCH   6 16                     2.0598351       1.0900179
  16 STRETCH   6 18                     2.0597307       1.0899627
  17 STRETCH   6 17                     2.0598749       1.0900389
  18 BEND      1  3 13                  1.9106224     109.4705969
  19 BEND      1  3 11                  1.9107727     109.4792120
  20 BEND      1  2  9                  1.9106138     109.4701097
  21 BEND      1  4  5                  1.9896690     113.9996354
  22 BEND      1  3 12                  1.9106304     109.4710606
  23 BEND      1  2 10                  1.9106559     109.4725215
  24 BEND      1  2  8                  1.9106427     109.4717641
  25 BEND      2  1  7                  1.9105692     109.4675492
  26 BEND      2  1  3                  1.9105793     109.4681331
  27 BEND      2  1  4                  1.9106554     109.4724909
  28 BEND      3  1  7                  1.9107128     109.4757812
  29 BEND      3  1  4                  1.9106081     109.4697809
  30 BEND      4  5  6                  1.9106522     109.4723060
  31 BEND      4  5 14                  1.9106272     109.4708753
  32 BEND      4  5 15                  1.9107078     109.4754929
  33 BEND      4  1  7                  1.9106746     109.4735884
  34 BEND      5  6 17                  1.9106192     109.4704168
  35 BEND      5  6 16                  1.9106849     109.4741815
  36 BEND      5  6 18                  1.9106063     109.4696776
  37 BEND      6  5 14                  1.9105968     109.4691352
  38 BEND      6  5 15                  1.9106383     109.4715131
  39 BEND      8  2 10                  1.9106894     109.4744393
  40 BEND      8  2  9                  1.9105853     109.4684759
  41 BEND      9  2 10                  1.9106122     109.4700131
  42 BEND     11  3 12                  1.9106116     109.4699800
  43 BEND     11  3 13                  1.9105793     109.4681276
  44 BEND     12  3 13                  1.9105831     109.4683462
  45 BEND     14  5 15                  1.9105770     109.4680011
  46 BEND     16  6 17                  1.9106034     109.4695104
  47 BEND     16  6 18                  1.9106456     109.4719278
  48 BEND     17  6 18                  1.9106400     109.4716097
  49 TORSION   1  4  5  6              -3.1415667    -179.9985112
  50 TORSION   1  4  5 14              -1.0472082     -60.0006121
  51 TORSION   1  4  5 15               1.0471600      59.9978495
  52 TORSION   2  1  3 11               1.0471872      59.9994060
  53 TORSION   2  1  3 13              -1.0472205     -60.0013177
  54 TORSION   2  1  4  5               1.5708157      90.0011098
  55 TORSION   2  1  3 12              -3.1415458    -179.9973173
  56 TORSION   3  1  2  8               1.0472800      60.0047252
  57 TORSION   3  1  4  5              -2.6180423    -150.0027755
  58 TORSION   3  1  2 10              -1.0472036     -60.0003464
  59 TORSION   3  1  2  9              -3.1415749    -179.9989838
  60 TORSION   4  1  2  9              -1.0472300     -60.0018599
  61 TORSION   4  1  3 13               3.1415909     179.9998988
  62 TORSION   4  5  6 17              -3.1415901    -179.9998558
  63 TORSION   4  5  6 18              -1.0472118     -60.0008165
  64 TORSION   4  5  6 16               1.0472136      60.0009179
  65 TORSION   4  1  2  8              -3.1415604    -179.9981509
  66 TORSION   4  1  2 10               1.0471413      59.9967775
  67 TORSION   4  1  3 11              -1.0471867     -59.9993775
  68 TORSION   4  1  3 12               1.0472656      60.0038991
  69 TORSION   5  4  1  7              -0.5235398     -29.9966215
  70 TORSION   7  1  2  8              -1.0471403     -59.9967214
  71 TORSION   7  1  2 10               3.1415614     179.9982070
  72 TORSION   7  1  3 11               3.1415195     179.9958113
  73 TORSION   7  1  3 12              -1.0472135     -60.0009121
  74 TORSION   7  1  2  9               1.0471900      59.9995696
  75 TORSION   7  1  3 13               1.0471118      59.9950875
  76 TORSION  14  5  6 18              -3.1415888    -179.9997811
  77 TORSION  14  5  6 16              -1.0471635     -59.9980467
  78 TORSION  14  5  6 17               1.0472181      60.0011796
  79 TORSION  15  5  6 18               1.0472894      60.0052598
  80 TORSION  15  5  6 16              -3.1414706    -179.9930059
  81 TORSION  15  5  6 17              -1.0470890     -59.9937795

     ------------------------------------------
     THE POINT GROUP IS C1 , NAXIS= 1, ORDER= 1
     ------------------------------------------

     DIMENSIONS OF THE SYMMETRY SUBSPACES ARE
 A   =  186

 ..... DONE SETTING UP THE RUN .....
 STEP CPU TIME =     0.01 TOTAL CPU TIME =        0.0 (    0.0 MIN)
 TOTAL WALL CLOCK TIME=        0.0 SECONDS, CPU UTILIZATION IS  33.33%


          -----------------------------
          STATIONARY POINT LOCATION RUN
          -----------------------------

 OBTAINING INITIAL HESSIAN, HESS=GUESS   
 DIAGONAL GUESS HESSIAN IN INTERNAL COORDS IS
     1  0.3608     2  0.3464     3  0.3672     4  0.3671     5  0.3464
     6  0.3463     7  0.3464     8  0.3464     9  0.3463    10  0.3464
    11  0.3608    12  0.3464    13  0.3463    14  0.3672    15  0.3464
    16  0.3464    17  0.3463    18  0.2241    19  0.2241    20  0.2241
    21  0.2377    22  0.2241    23  0.2241    24  0.2241    25  0.2241
    26  0.2485    27  0.2430    28  0.2241    29  0.2430    30  0.2430
    31  0.2194    32  0.2194    33  0.2194    34  0.2241    35  0.2241
    36  0.2241    37  0.2241    38  0.2241    39  0.2034    40  0.2034
    41  0.2034    42  0.2034    43  0.2034    44  0.2034    45  0.2034
    46  0.2034    47  0.2034    48  0.2034    49  0.2500    50  0.2500
    51  0.2500    52  0.2500    53  0.2500    54  0.2500    55  0.2500
    56  0.2500    57  0.2500    58  0.2500    59  0.2500    60  0.2500
    61  0.2500    62  0.2500    63  0.2500    64  0.2500    65  0.2500
    66  0.2500    67  0.2500    68  0.2500    69  0.2500    70  0.2500
    71  0.2500    72  0.2500    73  0.2500    74  0.2500    75  0.2500
    76  0.2500    77  0.2500    78  0.2500    79  0.2500    80  0.2500
    81  0.2500
 TRANSFORMING HESSIAN TO SYMMETRY COORDINATES

          PARAMETERS CONTROLLING GEOMETRY SEARCH ARE
          METHOD =QA                  UPHESS =BFGS    
          NNEG   =         0          NFRZ   =         3
          NSTEP  =        50          IFOLOW =         1
          HESS   =GUESS               RESTAR =         F
          IHREP  =         0          HSSEND =         F
          NPRT   =         0          NPUN   =         0
          OPTTOL = 5.000E-04          RMIN   = 1.500E-03
          RMAX   = 1.000E-01          RLIM   = 7.000E-02
          DXMAX  = 3.000E-01          PURIFY =         F
          MOVIE  =         F          TRUPD  =         T
          TRMAX  = 5.000E-01          TRMIN  = 5.000E-02
          ITBMAT =         5          STPT   =         F
          STSTEP = 1.000E-02          PROJCT=          F
          FROZEN COORD(S)=   1   2   3


      ***** EQUILIBRIUM GEOMETRY LOCATED *****
            (SUBJECT TO   3 CONSTRAINT(S))
 COORDINATES OF ALL ATOMS ARE (ANGS)
   ATOM   CHARGE       X              Y              Z
 ------------------------------------------------------------
 C           6.0   0.9764404418  -0.0124875461   0.3016955718
 C           6.0   1.5024699781  -1.3512554412  -0.2044867680
 C           6.0   1.9365243144   1.1178056158  -0.0361625042
 O           8.0  -0.2882952371   0.2854682624  -0.2638954314
 C           6.0  -1.3934791556  -0.1799752168   0.4731221551
 C           6.0  -2.6855923827   0.1475635186  -0.2515636008
 H           1.0   0.8633653876  -0.0583634818   1.3827572627
 H           1.0   2.4666288890  -1.5676223858   0.2473508578
 H           1.0   0.8272992244  -2.1660023622   0.0345378505
 H           1.0   1.6318800765  -1.3172998688  -1.2831794756
 H           1.0   2.0704905500   1.1980690158  -1.1117051749
 H           1.0   1.5686336028   2.0663787826   0.3404590527
 H           1.0   2.9075594625   0.9238977106   0.4110804745
 H           1.0  -1.3218365354  -1.2547989605   0.6221937432
 H           1.0  -1.3940773295   0.2874844048   1.4563101556
 H           1.0  -2.7236779445  -0.3336884524  -1.2240518011
 H           1.0  -3.5278136859  -0.2102085632   0.3351634872
 H           1.0  -2.7986837766   1.2185550746  -0.3893056756


                     --------------------
                     INTERNAL COORDINATES
                     --------------------

                 - - ATOMS - -         COORDINATE      COORDINATE
 NO.   TYPE    I  J  K  L  M  N        (BOHR,RAD)       (ANG,DEG)
 ----------------------------------------------------------------
   1 STRETCH   1  4                     2.6779672       1.4171193
   2 STRETCH   1  7                     2.0558837       1.0879269
   3 STRETCH   1  3                     2.8742923       1.5210101
   4 STRETCH   1  2                     2.8815856       1.5248695
   5 STRETCH   2 10                     2.0540530       1.0869581
   6 STRETCH   2  9                     2.0499833       1.0848045
   7 STRETCH   2  8                     2.0532673       1.0865424
   8 STRETCH   3 13                     2.0532339       1.0865247
   9 STRETCH   3 12                     2.0501380       1.0848864
  10 STRETCH   3 11                     2.0537950       1.0868216
  11 STRETCH   4  5                     2.6599288       1.4075738
  12 STRETCH   5 15                     2.0572664       1.0886586
  13 STRETCH   5 14                     2.0550291       1.0874746
  14 STRETCH   5  6                     2.8671619       1.5172369
  15 STRETCH   6 16                     2.0517127       1.0857197
  16 STRETCH   6 18                     2.0517112       1.0857189
  17 STRETCH   6 17                     2.0541472       1.0870079
  18 BEND      1  3 13                  1.9177831     109.8808800
  19 BEND      1  3 11                  1.9310471     110.6408501
  20 BEND      1  2  9                  1.9514708     111.8110418
  21 BEND      1  4  5                  2.0067065     114.9758126
  22 BEND      1  3 12                  1.9375517     111.0135367
  23 BEND      1  2 10                  1.9209810     110.0641035
  24 BEND      1  2  8                  1.9207987     110.0536609
  25 BEND      2  1  7                  1.9057117     109.1892380
  26 BEND      2  1  3                  1.9400750     111.1581116
  27 BEND      2  1  4                  1.9390433     111.0989985
  28 BEND      3  1  7                  1.8940653     108.5219460
  29 BEND      3  1  4                  1.8948812     108.5686939
  30 BEND      4  5  6                  1.9253688     110.3155087
  31 BEND      4  5 14                  1.9250321     110.2962136
  32 BEND      4  5 15                  1.9085041     109.3492295
  33 BEND      4  1  7                  1.8888314     108.2220663
  34 BEND      5  6 17                  1.9081383     109.3282697
  35 BEND      5  6 16                  1.9412154     111.2234520
  36 BEND      5  6 18                  1.9414810     111.2386666
  37 BEND      6  5 14                  1.9123446     109.5692721
  38 BEND      6  5 15                  1.9157969     109.7670790
  39 BEND      8  2 10                  1.8894208     108.2558395
  40 BEND      8  2  9                  1.8871448     108.1254341
  41 BEND      9  2 10                  1.8925445     108.4348128
  42 BEND     11  3 12                  1.8973467     108.7099568
  43 BEND     11  3 13                  1.8863818     108.0817161
  44 BEND     12  3 13                  1.8925236     108.4336164
  45 BEND     14  5 15                  1.8761510     107.4955342
  46 BEND     16  6 17                  1.8864105     108.0833617
  47 BEND     16  6 18                  1.8964770     108.6601273
  48 BEND     17  6 18                  1.8885594     108.2064858
  49 TORSION   1  4  5  6              -3.1031886    -177.7996076
  50 TORSION   1  4  5 14              -0.9881995     -56.6196596
  51 TORSION   1  4  5 15               1.0714265      61.3882187
  52 TORSION   2  1  3 11               1.0510781      60.2223405
  53 TORSION   2  1  3 13              -1.0305463     -59.0459517
  54 TORSION   2  1  4  5               1.5735858      90.1598255
  55 TORSION   2  1  3 12              -3.1239143    -178.9871024
  56 TORSION   3  1  2  8               1.0399200      59.5830265
  57 TORSION   3  1  4  5              -2.5710456    -147.3100645
  58 TORSION   3  1  2 10              -1.0410728     -59.6490777
  59 TORSION   3  1  2  9               3.1375469     179.7681942
  60 TORSION   4  1  2  9              -1.0334466     -59.2121268
  61 TORSION   4  1  3 13               3.1147107     178.4597789
  62 TORSION   4  5  6 17              -3.1324583    -179.4766389
  63 TORSION   4  5  6 18              -1.0477924     -60.0340833
  64 TORSION   4  5  6 16               1.0688899      61.2428775
  65 TORSION   4  1  2  8              -3.1310735    -179.3972945
  66 TORSION   4  1  2 10               1.0711191      61.3706013
  67 TORSION   4  1  3 11              -1.0868502     -62.2719289
  68 TORSION   4  1  3 12               1.0213427      58.5186282
  69 TORSION   5  4  1  7              -0.5184247     -29.7035480
  70 TORSION   7  1  2  8              -1.0491345     -60.1109815
  71 TORSION   7  1  2 10              -3.1301273    -179.3430857
  72 TORSION   7  1  3 11              -3.1361335    -179.6872156
  73 TORSION   7  1  3 12              -1.0279406     -58.8966586
  74 TORSION   7  1  2  9               1.0484923      60.0741862
  75 TORSION   7  1  3 13               1.0654274      61.0444921
  76 TORSION  14  5  6 18               3.1128649     178.3540184
  77 TORSION  14  5  6 16              -1.0536382     -60.3690208
  78 TORSION  14  5  6 17               1.0281990      58.9114629
  79 TORSION  15  5  6 18               1.0564120      60.5279504
  80 TORSION  15  5  6 16              -3.1100910    -178.1950888
  81 TORSION  15  5  6 17              -1.0282538     -58.9146051

          INTERNUCLEAR DISTANCES (ANGS.)


 =====================================================
   GAMESS/COSab RESULTS
 =====================================================

   Dielectric Constant                  = INFTY
   Basic Grid Size                      =                 1082
   Number of Segments                   =                   92
   Number of Segments located on spheres=                  240
   Number of Segments of the cavity     =                  615
   Solvent Radius (rsolv)               = 1.40
   Outlying Charge Error Method         = double cavity

 =====================================================

  Total solvated Energy (a.u.)          =  -271.2594862624
  Total Energy corrected (a.u.)         =  -271.2593018881

  Outlying charge effect (a.u.)         =     0.0001843742
  Outlying charge effect (kcal/mol)     =     0.1156966810

  Dielectric Energy (a.u.)              =    -0.0067994600
  Dielectric energy corr. (a.u.)        =    -0.0066150857

  Sum of polarization charges           =     0.0267374605
  Sum of polarization charges(cor.)     =    -0.0267374605

  Total surface area of cavity (A**2)   =  146.73
  Total volume of cavity (A**3)         =  135.29

 =====================================================
 NPS=                   615
NR.  ATOM  (X, Y, Z)(a.u.)                  CHARGE(e)  AREA(A**2) SIGMA(e/A**2)
   1   1   0.904387   2.385851   3.325768  -0.000100   0.046456  -0.002152
   2   1   4.103450  -0.985701   3.443958  -0.000393   0.139368  -0.002819
   3   1   4.220064  -0.437804   3.480915  -0.000084   0.046456  -0.001817
   4   2   1.680374  -5.304768  -2.704151   0.001989   0.418105   0.004756
   5   2   2.898972  -3.703954   3.213179   0.000496   0.232280   0.002137
   6   2   3.634819  -6.107803   0.622706   0.001577   0.418105   0.003772
   7   2   5.290385  -4.426074  -2.570404   0.001292   0.371649   0.003477
   8   2   0.163966  -3.391871  -2.921034   0.000546   0.139368   0.003921
   9   2   0.385204  -4.070976  -2.827572   0.001541   0.325193   0.004739
  10   2   5.970262  -4.174094  -1.748335   0.001276   0.371649   0.003435
  11   2   4.426245  -5.694532   0.991876   0.000919   0.278737   0.003298
  12   2   3.697714  -4.057377   2.972991   0.000941   0.325193   0.002894
  13   2   0.602996  -4.782348  -2.463850   0.000820   0.232280   0.003531
  14   2   1.246112  -4.438005  -3.249090   0.001092   0.278737   0.003917
  15   2   3.914437  -2.918659   3.218417   0.000310   0.232280   0.001333
  16   2   2.753528  -4.715431   2.712444   0.001266   0.371649   0.003406
  17   2   3.407912  -5.588166   1.793425   0.001533   0.325193   0.004714
  18   2   4.485971  -5.955255  -0.413611   0.001183   0.464561   0.002546
  19   2   5.012377  -5.326307  -1.755156   0.001112   0.464561   0.002394
  20   2   5.961354  -3.174340  -2.423914   0.001739   0.371649   0.004678
  21   2   5.938328  -1.937622  -2.460242   0.000915   0.232280   0.003938
  22   2   1.774073  -3.914574   2.974694   0.000570   0.325193   0.001753
  23   2   3.259863  -6.294514  -0.721474   0.000999   0.418105   0.002388
  24   2   2.581262  -5.978245  -1.964052   0.001230   0.418105   0.002943
  25   2   2.933637  -5.381334  -2.892177   0.001456   0.464561   0.003135
  26   2   4.303169  -5.091162  -2.774222   0.000823   0.325193   0.002532
  27   2   0.563693  -3.030657  -3.366091   0.000389   0.185824   0.002095
  28   2   5.326533  -5.365620  -0.822053   0.000560   0.278737   0.002010
  29   2   3.748105  -4.973367   2.370845   0.001109   0.278737   0.003979
  30   2   6.376399  -2.430510  -1.712236   0.001272   0.325193   0.003910
  31   2   3.882205  -5.908365  -1.779799   0.000926   0.464561   0.001994
  32   3   5.615657   4.730237   1.830164   0.001880   0.418105   0.004497
  33   3   3.978210   5.554909  -1.595218   0.001412   0.371649   0.003799
  34   3   7.093465   3.195595  -1.216658   0.001173   0.371649   0.003155
  35   3   4.739164   1.628226   3.521125   0.000359   0.278737   0.001289
  36   3   3.004021   3.307147   3.456868   0.000381   0.185824   0.002053
  37   3   4.066623   2.825567   3.620815   0.000888   0.371649   0.002389
  38   3   4.924324   3.665456   3.136708   0.001282   0.325193   0.003941
  39   3   6.678889   2.919997  -2.193231   0.001355   0.371649   0.003646
  40   3   3.909425   5.033488  -2.453427   0.000924   0.278737   0.003316
  41   3   1.719575   3.866009  -2.796997   0.000661   0.185824   0.003559
  42   3   4.777344   4.458639   2.675668   0.000875   0.232280   0.003766
  43   3   5.687965   3.903275   2.570248   0.001088   0.278737   0.003903
  44   3   1.429624   4.501924  -1.966178   0.000810   0.232280   0.003489
  45   3   2.967220   5.309340  -1.961529   0.001570   0.325193   0.004827
  46   3   5.182824   5.103618  -1.804987   0.001230   0.464561   0.002647
  47   3   6.449664   4.225496  -1.494437   0.001061   0.464561   0.002283
  48   3   7.043381   1.865597  -1.733470   0.001655   0.371649   0.004452
  49   3   6.810985   0.661534  -1.567508   0.000872   0.232280   0.003752
  50   3   4.911602   5.632431  -0.638792   0.001013   0.418105   0.002423
  51   3   5.567405   5.303025   0.612583   0.001182   0.418105   0.002827
  52   3   6.405104   4.540276   0.854165   0.001262   0.464561   0.002717
  53   3   6.917577   4.008352  -0.340890   0.000664   0.325193   0.002043
  54   3   3.844148   3.748177   3.333753   0.000662   0.232280   0.002848
  55   3   5.114958   2.676685   3.373672   0.000720   0.278737   0.002582
  56   3   5.821000   4.317564  -2.247581   0.000605   0.278737   0.002169
  57   3   2.261486   4.630980  -2.515019   0.001167   0.278737   0.004188
  58   3   6.492315   1.148643  -2.377158   0.001319   0.325193   0.004057
  59   3   1.992724   5.086724  -1.699026   0.000856   0.232280   0.003684
  60   3   6.034934   5.006911  -0.581158   0.000830   0.464561   0.001786
  61   4  -0.762696  -0.058340  -3.686124   0.003375   0.171795   0.019643
  62   4  -0.686182   3.000195  -2.617506   0.002130   0.103077   0.020663
  63   4  -1.233997   2.758524  -2.771432   0.004418   0.206154   0.021431
  64   4  -0.943783   0.770425  -3.716150   0.004904   0.206154   0.023786
  65   4  -0.823326   2.068268  -3.353467   0.004254   0.240512   0.017689
  66   4  -1.070389   3.380785  -1.987057   0.006473   0.274871   0.023547
  67   4  -1.274119   3.706254  -0.434307   0.002112   0.103077   0.020488
  68   4  -1.105613  -1.102749  -3.247005   0.000979   0.034359   0.028491
  69   4  -0.154627   0.484178  -3.725031   0.003922   0.171795   0.022829
  70   4  -0.360075   2.609781  -2.997534   0.002649   0.137436   0.019274
  71   4  -1.204850   3.635578   0.238220   0.000777   0.034359   0.022623
  72   4  -0.778834  -0.637702  -3.519303   0.002313   0.103077   0.022437
  73   4  -1.200956   1.430214  -3.554930   0.002524   0.137436   0.018364
  74   4  -0.246578   1.429005  -3.610657   0.004363   0.240512   0.018139
  75   4  -1.002139   3.674333  -1.225347   0.002482   0.103077   0.024075
  76   5  -3.598660  -1.763474   4.259533   0.000436   0.371649   0.001173
  77   5  -2.337240   3.352971   1.640985   0.000402   0.185824   0.002163
  78   5  -1.864532   3.118904   2.208833  -0.000021   0.046456  -0.000446
  79   5  -3.210478  -2.604102   3.864828   0.000305   0.278737   0.001093
  80   5  -2.814647  -3.359373  -1.372052  -0.000164   0.139368  -0.001178
  81   5  -2.455517  -2.869495  -1.908565  -0.000023   0.046456  -0.000493
  82   5  -1.697329  -1.678722   4.302342   0.000517   0.185824   0.002785
  83   5  -2.480598  -1.987806   4.292012   0.000788   0.278737   0.002826
  84   5  -4.493889  -2.283406   3.548501  -0.000346   0.418105  -0.000826
  85   5  -4.672419  -1.093252   3.985834  -0.000487   0.325193  -0.001497
  86   5  -2.917005   3.227887   2.107858   0.000094   0.139368   0.000673
  87   5  -4.703275  -2.948172   2.682193  -0.000401   0.185824  -0.002156
  88   5  -1.634976  -2.430900   3.880065   0.000453   0.185824   0.002439
  89   6  -8.251741   2.161486   0.329862   0.001827   0.418105   0.004370
  90   6  -5.718938  -3.443165  -0.348202   0.000456   0.232280   0.001964
  91   6  -8.329062  -1.253104  -1.636682   0.001469   0.418105   0.003513
  92   6  -6.966385   2.151554  -3.158681   0.001194   0.371649   0.003212
  93   6  -5.154534   3.174923   1.951689   0.000323   0.278737   0.001158
  94   6  -6.362910   1.249710   2.942652   0.000372   0.232280   0.001601
  95   6  -6.160256   2.296351   2.530639   0.000714   0.325193   0.002197
  96   6  -7.133467   2.578297   1.706266   0.001272   0.325193   0.003912
  97   6  -6.520976   1.374739  -3.790893   0.001224   0.371649   0.003292
  98   6  -7.780002  -1.558263  -2.370742   0.000952   0.278737   0.003414
  99   6  -5.887848  -3.297147  -1.389597   0.001005   0.371649   0.002705
 100   6  -3.747364   1.208297  -3.889736   0.000760   0.278737   0.002726
 101   6  -7.822708   2.004876   1.462476   0.000824   0.232280   0.003548
 102   6  -7.529340   2.831170   0.846079   0.001064   0.278737   0.003816
 103   6  -4.778714  -3.342770  -1.514757   0.000258   0.232280   0.001112
 104   6  -6.800241  -3.075692  -0.709662   0.000929   0.278737   0.003334
 105   6  -7.669864  -2.332238  -1.331690   0.001462   0.325193   0.004496
 106   6  -8.238272  -0.207814  -2.485687   0.001152   0.464561   0.002479
 107   6  -7.760862   1.211424  -2.965547   0.001021   0.464561   0.002198
 108   6  -5.777428   2.285501  -3.600179   0.001446   0.325193   0.004445
 109   6  -4.032380   1.960212  -3.695675   0.000959   0.232280   0.004131
 110   6  -3.824241   2.595417  -3.187102   0.000502   0.139368   0.003604
 111   6  -6.357268  -3.194884   0.281722   0.000569   0.278737   0.002042
 112   6  -8.753915   0.048926  -1.310352   0.000833   0.418105   0.001993
 113   6  -8.703261   1.326587  -0.625120   0.001062   0.418105   0.002541
 114   6  -8.215315   2.332715  -0.927611   0.001330   0.464561   0.002863
 115   6  -7.760136   2.256024  -2.254510   0.000719   0.325193   0.002211
 116   6  -6.933534   1.789662   2.448244   0.000592   0.232280   0.002550
 117   6  -6.108739   3.012745   1.920757   0.000667   0.232280   0.002874
 118   6  -7.625925   0.282150  -3.264150   0.000577   0.278737   0.002071
 119   6  -6.942108  -2.811968  -1.591214   0.001097   0.278737   0.003936
 120   6  -5.032178   1.670557  -3.989026   0.001125   0.278737   0.004037
 121   6  -8.462337   1.151538  -1.906758   0.000792   0.464561   0.001706
 122   6  -4.659855   2.519027  -3.490944   0.000929   0.232280   0.003999
 123   7   2.061913  -0.289305   5.025046  -0.001709   0.333671  -0.005123
 124   7   2.650514   0.681919   4.703282  -0.001164   0.294415  -0.003954
 125   7   3.038756  -1.003425   4.417783  -0.000893   0.274788  -0.003249
 126   7   1.178926  -1.742727   4.392196  -0.001051   0.255160  -0.004119
 127   7   1.287323   1.510356   4.426891  -0.001175   0.274788  -0.004277
 128   7   3.156002  -0.091496   4.539353  -0.001314   0.314043  -0.004185
 129   7   2.160060  -1.426667   4.618754  -0.001364   0.353299  -0.003860
 130   7   1.112580  -0.823759   4.905794  -0.001877   0.353299  -0.005314
 131   7   1.157573   0.399877   4.968912  -0.001873   0.333671  -0.005612
 132   7   1.948982   1.065465   4.746547  -0.000958   0.235532  -0.004067
 133   8   6.752283  -3.769041   1.473390  -0.002693   0.451437  -0.005966
 134   8   6.979921  -2.703689  -0.301921  -0.001290   0.353299  -0.003652
 135   8   6.628987  -4.245136  -0.252021  -0.000990   0.353299  -0.002803
 136   8   5.611095  -4.951694   1.551642  -0.000988   0.372926  -0.002651
 137   8   5.320321  -3.334930   2.804510  -0.000984   0.372926  -0.002638
 138   8   7.007745  -2.741865   1.160546  -0.002552   0.392554  -0.006502
 139   8   7.041737  -3.470250   0.135146  -0.001485   0.333671  -0.004451
 140   8   6.329352  -4.754672   0.667932  -0.001931   0.471065  -0.004098
 141   8   5.768034  -4.208798   2.272027  -0.001960   0.471065  -0.004160
 142   8   6.174578  -2.719046   2.387254  -0.002759   0.490692  -0.005623
 143   9   0.298316  -6.112222   0.663645  -0.003217   0.490692  -0.006555
 144   9   0.092461  -5.418486  -1.389034  -0.000869   0.314043  -0.002767
 145   9   1.712097  -5.992652   1.616021  -0.000844   0.353299  -0.002390
 146   9   1.748790  -6.514178  -0.307955  -0.000816   0.333671  -0.002445
 147   9  -0.052858  -5.860095  -0.483170  -0.001904   0.333671  -0.005707
 148   9   0.808585  -5.462463   1.960091  -0.002138   0.451437  -0.004736
 149   9   1.519130  -6.448962   0.760427  -0.001698   0.431809  -0.003932
 150   9   0.873521  -6.290525  -0.789550  -0.001543   0.431809  -0.003574
 151  10   3.473583  -2.749052  -4.836450  -0.002718   0.490692  -0.005539
 152  10   1.545814  -2.815792  -4.312479  -0.001029   0.372926  -0.002760
 153  10   3.093267  -4.143068  -4.241509  -0.001057   0.392554  -0.002694
 154  10   4.913614  -2.988967  -3.986056  -0.000938   0.372926  -0.002515
 155  10   2.202048  -1.777545  -4.604531  -0.002423   0.471065  -0.005145
 156  10   2.323802  -3.479949  -4.540562  -0.001819   0.510320  -0.003564
 157  10   4.188213  -3.787054  -4.194426  -0.001455   0.451437  -0.003223
 158  10   4.783868  -2.021897  -4.135546  -0.001700   0.431809  -0.003937
 159  10   3.494713  -1.676217  -4.706335  -0.002569   0.431809  -0.005950
 160  11   4.327880   2.740604  -4.474743  -0.002624   0.471065  -0.005571
 161  11   5.531508   1.347715  -3.705433  -0.001175   0.333671  -0.003521
 162  11   5.748444   3.045612  -3.534020  -0.000897   0.353299  -0.002540
 163  11   3.880730   4.165261  -3.656234  -0.000895   0.353299  -0.002533
 164  11   2.511173   3.081666  -3.945369  -0.000877   0.274788  -0.003193
 165  11   4.275444   1.614033  -4.441967  -0.002345   0.392554  -0.005973
 166  11   5.559430   2.175642  -3.921642  -0.001512   0.392554  -0.003851
 167  11   4.925734   3.712130  -3.807191  -0.001741   0.471065  -0.003696
 168  11   3.266065   3.547950  -4.092928  -0.001558   0.412182  -0.003780
 169  11   3.025345   2.094404  -4.385328  -0.002747   0.490692  -0.005598
 170  12   2.209639   6.090693   1.472785  -0.003382   0.569203  -0.005942
 171  12   3.684532   5.341300   2.501628  -0.000826   0.372926  -0.002216
 172  12   1.960000   4.548575   2.790982  -0.001181   0.314043  -0.003762
 173  12   1.055527   5.391620   1.069305  -0.001975   0.372926  -0.005295
 174  12   2.191244   6.008139  -0.363543  -0.000975   0.372926  -0.002614
 175  12   3.881807   6.183486   0.679234  -0.000954   0.372926  -0.002558
 176  12   2.645191   5.252157   2.672708  -0.001663   0.431809  -0.003852
 177  12   1.397828   5.133484   2.082787  -0.002017   0.372926  -0.005410
 178  12   1.325903   5.654357   0.104669  -0.001839   0.451437  -0.004074
 179  12   2.990046   6.312475   0.155519  -0.001776   0.471065  -0.003770
 180  12   3.655610   6.020356   1.683572  -0.001970   0.490692  -0.004015
 181  13   7.752751   1.761397   1.743857  -0.003363   0.549575  -0.006119
 182  13   6.412399   1.875657   3.051842  -0.001259   0.412182  -0.003055
 183  13   7.368557   3.118165   1.576781  -0.001339   0.412182  -0.003248
 184  13   7.826927   1.686325   0.007838  -0.001236   0.392554  -0.003150
 185  13   6.619232   0.863628   2.774731  -0.002683   0.510320  -0.005258
 186  13   6.931185   2.678341   2.537960  -0.001614   0.451437  -0.003575
 187  13   7.789157   2.606105   0.604417  -0.001570   0.431809  -0.003636
 188  13   7.697672   0.758775   0.322190  -0.002272   0.471065  -0.004823
 189  13   7.462587   0.623007   1.725930  -0.002753   0.412182  -0.006679
 190  14  -2.681977  -4.733239   1.825516  -0.002720   0.431809  -0.006300
 191  14  -3.002698  -4.271968  -0.296463  -0.001011   0.274788  -0.003679
 192  14  -4.030067  -4.222448   1.686284  -0.001443   0.333671  -0.004323
 193  14  -2.809358  -3.832773   3.125655  -0.000841   0.294415  -0.002857
 194  14  -2.829366  -4.711559   0.506363  -0.001272   0.235532  -0.005399
 195  14  -3.595196  -4.541803   0.829801  -0.001291   0.333671  -0.003870
 196  14  -3.549966  -4.124414   2.537635  -0.001450   0.392554  -0.003693
 197  14  -1.925699  -3.965624   2.954993  -0.001832   0.392554  -0.004667
 198  15  -2.887016   1.652658   4.929316  -0.002417   0.451437  -0.005355
 199  15  -3.913333   2.214577   4.019413  -0.001103   0.294415  -0.003748
 200  15  -2.217052   2.841162   3.514009  -0.001219   0.333671  -0.003654
 201  15  -2.256706  -0.263846   5.041349  -0.001055   0.372926  -0.002828
 202  15  -4.171275   0.296906   4.652690  -0.001151   0.333671  -0.003451
 203  15  -3.098513   2.649308   3.928617  -0.001683   0.431809  -0.003897
 204  15  -1.809045   2.167399   4.400078  -0.002225   0.412182  -0.005398
 205  15  -1.959770   0.951178   5.078734  -0.002091   0.412182  -0.005073
 206  15  -3.216629   0.131681   5.102931  -0.001709   0.451437  -0.003786
 207  15  -4.066730   1.308773   4.595297  -0.001691   0.451437  -0.003746
 208  16  -5.397903  -1.685821  -4.517358  -0.003344   0.569203  -0.005875
 209  16  -3.852763  -2.029162  -3.863627  -0.001656   0.333671  -0.004962
 210  16  -4.231584  -0.009864  -4.506721  -0.001006   0.372926  -0.002698
 211  16  -6.295143  -0.116343  -4.423206  -0.000925   0.353299  -0.002618
 212  16  -6.834925  -2.002848  -3.454568  -0.000880   0.372926  -0.002361
 213  16  -5.110077  -3.005286  -2.941237  -0.000961   0.353299  -0.002721
 214  16  -4.080675  -1.155128  -4.463228  -0.002444   0.471065  -0.005189
 215  16  -5.286276  -0.171950  -4.722563  -0.001804   0.490692  -0.003677
 216  16  -6.670539  -1.116016  -4.178143  -0.001895   0.490692  -0.003861
 217  16  -5.980476  -2.604283  -3.515176  -0.001853   0.471065  -0.003934
 218  16  -4.527403  -2.609105  -3.630953  -0.001821   0.412182  -0.004419
 219  17  -8.610860  -1.164704   1.924107  -0.003646   0.569203  -0.006406
 220  17  -8.386221   0.768013   1.944942  -0.000986   0.372926  -0.002645
 221  17  -7.193283  -0.391603   3.032892  -0.001100   0.353299  -0.003113
 222  17  -7.203669  -2.416831   1.924859  -0.001563   0.392554  -0.003981
 223  17  -8.306114  -2.198381   0.312411  -0.001048   0.372926  -0.002811
 224  17  -9.100103  -0.313196   0.307586  -0.001286   0.412182  -0.003119
 225  17  -8.007607   0.016175   2.649785  -0.002114   0.471065  -0.004487
 226  17  -7.518657  -1.522103   2.644296  -0.002243   0.471065  -0.004761
 227  17  -7.956337  -2.391022   1.263092  -0.001939   0.431809  -0.004491
 228  17  -8.918764  -1.366340   0.479289  -0.002135   0.471065  -0.004532
 229  17  -8.965432   0.133100   1.318388  -0.002190   0.490692  -0.004463
 230  18  -5.686208   4.725797  -0.812783  -0.003099   0.529948  -0.005848
 231  18  -4.281123   4.460024  -0.130751  -0.001821   0.392554  -0.004639
 232  18  -6.123410   4.084433   0.735379  -0.000842   0.333671  -0.002522
 233  18  -7.141991   3.903008  -0.935033  -0.001329   0.431809  -0.003078
 234  18  -5.688418   3.748612  -2.681148  -0.001002   0.392554  -0.002552
 235  18  -4.352996   3.918824  -2.331854  -0.001179   0.392554  -0.003003
 236  18  -5.118266   4.384755   0.557093  -0.001595   0.451437  -0.003533
 237  18  -6.705583   4.182391  -0.032404  -0.001564   0.431809  -0.003622
 238  18  -6.692265   3.893929  -1.973976  -0.001729   0.490692  -0.003524
 239  18  -5.326174   4.447844  -1.932450  -0.002085   0.412182  -0.005059
 240  18  -4.292086   4.499628  -1.199874  -0.001998   0.392554  -0.005089
 241   1   3.757683  -1.483481   3.495214  -0.000105   0.028258  -0.003713
 242   2   3.908286  -1.912674   3.294417  -0.000098   0.028258  -0.003460
 243   7   3.545921  -1.393898   3.693643  -0.000181   0.028258  -0.006408
 244   1   4.286101  -1.645909   3.123344  -0.000112   0.027090  -0.004132
 245   2   4.477886  -2.086445   2.995594  -0.000092   0.027090  -0.003392
 246   8   4.740275  -2.200789   2.896153  -0.000121   0.027090  -0.004460
 247   2   4.278789  -2.085146   3.137707  -0.000038   0.050438  -0.000746
 248   1   3.984208  -1.487320   3.397369  -0.000066   0.050438  -0.001307
 249   1   1.490742   2.437297   3.427707  -0.000071   0.028987  -0.002434
 250   3   1.815576   2.783668   3.284615  -0.000022   0.028987  -0.000742
 251   7   1.488555   2.215514   3.635242  -0.000094   0.028987  -0.003255
 252   1   4.086441   0.286363   3.607931  -0.000145   0.028987  -0.005004
 253   3   4.378313   0.660049   3.462550  -0.000101   0.028987  -0.003481
 254   7   3.852501   0.256623   3.799374  -0.000159   0.028987  -0.005490
 255   1   1.471475   2.944920   3.052182  -0.000039   0.025665  -0.001536
 256   3   1.769959   3.333700   2.977154  -0.000042   0.025665  -0.001623
 257  12   1.764970   3.617004   2.872190  -0.000072   0.025665  -0.002790
 258   1   4.642143   0.304952   3.248353  -0.000122   0.027269  -0.004477
 259   3   4.974723   0.665374   3.174856  -0.000105   0.027269  -0.003848
 260  13   5.262264   0.693096   3.083393  -0.000103   0.027269  -0.003782
 261   3   1.821843   3.172886   3.127523   0.000036   0.042574   0.000847
 262   1   1.409685   2.621985   3.313540  -0.000005   0.042574  -0.000129
 263   3   4.749892   0.751589   3.347681  -0.000050   0.049366  -0.001007
 264   1   4.337150   0.184578   3.478145  -0.000109   0.049366  -0.002209
 265   1   0.452618   2.072267   3.488243  -0.000266   0.083267  -0.003193
 266   7   0.481939   1.874236   3.720521  -0.000365   0.083267  -0.004389
 267  15  -0.469277   1.958496   3.703034  -0.000288   0.083267  -0.003455
 268   7   1.161446   1.984720   3.838801  -0.000178   0.041020  -0.004341
 269   1   1.058439   2.254986   3.501130  -0.000137   0.050115  -0.002740
 270   7   3.522236  -0.702670   3.971688  -0.000700   0.123728  -0.005654
 271   1   3.867165  -0.473417   3.679129  -0.000770   0.151161  -0.005096
 272   1   4.940684  -0.722246   2.763318  -0.000708   0.166438  -0.004253
 273   8   5.323913  -1.318721   2.499352  -0.000678   0.166438  -0.004075
 274  13   5.510109  -0.267435   2.568730  -0.000731   0.166438  -0.004390
 275   8   5.176778  -2.017038   2.736308  -0.000516   0.141971  -0.003635
 276   1   4.472792  -1.251110   3.170021  -0.000252   0.200135  -0.001261
 277   1   0.500016   2.719850   2.835243  -0.000059   0.142887  -0.000411
 278  12   0.883132   3.301059   2.546601  -0.000027   0.142887  -0.000188
 279  15  -0.408219   2.499202   3.006661  -0.000027   0.142887  -0.000191
 280  12   1.529014   3.868729   2.719094  -0.000250   0.096166  -0.002596
 281   1   1.115922   2.882428   3.076156   0.000087   0.135583   0.000641
 282  13   5.551213   0.508203   2.961532  -0.000463   0.138562  -0.003342
 283   1   4.730164  -0.227456   3.178944  -0.000293   0.195366  -0.001499
 284  15  -0.978976   2.275914   3.725944  -0.000361   0.115231  -0.003131
 285   1   0.344256   2.474260   3.281882   0.000164   0.162983   0.001004
 286   2   5.372790  -1.102449  -2.845940   0.000062   0.065570   0.000941
 287   3   5.455081  -0.285766  -2.733278   0.000113   0.065570   0.001724
 288  10   5.203271  -1.179438  -3.087211  -0.000104   0.065570  -0.001585
 289   2   6.461439  -0.897331  -0.840223   0.000062   0.065977   0.000942
 290   3   6.682500  -0.099487  -0.807656   0.000016   0.065977   0.000241
 291  13   6.820968  -0.022489  -0.547515  -0.000160   0.065977  -0.002422
 292   3   6.332795  -0.062270  -1.673820   0.000901   0.560823   0.001606
 293   2   5.935071  -1.166628  -2.102686   0.000969   0.560823   0.001728
 294   2   0.546567  -2.160275  -3.404689   0.000309   0.056873   0.005434
 295   4   0.000336  -1.552530  -3.262945   0.001179   0.056873   0.020732
 296  10   0.789698  -2.150721  -3.586974   0.000046   0.056873   0.000813
 297   2  -0.652373  -2.165103  -2.720874   0.002469   0.165440   0.014922
 298   4  -1.284319  -1.641935  -2.828585   0.003518   0.165440   0.021266
 299  16  -2.313354  -1.664150  -2.911549   0.001190   0.165440   0.007194
 300   4  -0.622940  -1.495289  -3.189606   0.002935   0.171350   0.017130
 301   2   0.124059  -2.431784  -3.217419   0.001071   0.189350   0.005655
 302   2   0.776043  -2.943331   2.978102  -0.000340   0.191333  -0.001777
 303   5  -0.194375  -2.539595   3.190506  -0.000480   0.191333  -0.002508
 304   7   0.624576  -2.347834   3.415673  -0.000799   0.191333  -0.004176
 305   2  -0.507372  -4.039399  -1.616076   0.000034   0.096023   0.000357
 306   5  -1.424212  -3.579164  -1.323152   0.000135   0.096023   0.001403
 307   9  -0.552343  -4.244867  -1.393983  -0.000210   0.096023  -0.002182
 308   2   0.265173  -3.247629   2.726464  -0.000219   0.095483  -0.002295
 309   5  -0.695173  -2.906058   3.042130  -0.000274   0.095483  -0.002865
 310  14  -0.787224  -3.168991   2.912751  -0.000372   0.095483  -0.003892
 311   2  -1.086785  -2.784265  -2.199699   0.001083   0.111775   0.009693
 312   5  -2.116439  -2.535535  -2.158005   0.000484   0.111775   0.004326
 313  16  -2.730220  -2.295163  -2.516625   0.000112   0.111775   0.001002
 314   5  -1.903294  -3.076990  -1.903821   0.000787   0.327546   0.002402
 315   2  -0.544213  -3.768803  -2.097247   0.000965   0.327546   0.002947
 316   5  -0.599340  -2.846948   3.271321   0.000121   0.029661   0.004080
 317   2   0.790199  -3.392748   2.955672   0.000050   0.029661   0.001684
 318   7   1.327274  -2.295428   3.766980  -0.000744   0.198005  -0.003759
 319   7   2.678426  -1.820449   3.924126  -0.002167   0.405507  -0.005343
 320   2   2.187026  -3.047424   3.314172  -0.000189   0.542319  -0.000348
 321   2   3.689915  -2.399662   3.391676   0.000028   0.279039   0.000100
 322   2   6.494636  -1.404770  -0.724617  -0.000028   0.087777  -0.000321
 323   8   6.602136  -1.558566  -0.482760  -0.000240   0.087777  -0.002737
 324  13   6.709724  -0.503154  -0.378193  -0.000041   0.087777  -0.000469
 325   8   4.907171  -2.725056   2.898184  -0.000218   0.071690  -0.003037
 326   8   4.751266  -3.847969   2.693157  -0.000486   0.160418  -0.003029
 327   8   4.917221  -4.921342   1.825063  -0.000361   0.160418  -0.002249
 328   8   5.435519  -5.228605   0.571982  -0.000468   0.160418  -0.002915
 329   8   6.075790  -4.633188  -0.509124  -0.000521   0.160418  -0.003247
 330   8   6.553449  -3.399739  -0.937730  -0.000353   0.160418  -0.002199
 331   8   6.700715  -2.278975  -0.715298  -0.000175   0.071690  -0.002444
 332   2   4.425484  -3.094109   2.943266  -0.000393   0.155989  -0.002519
 333   2   4.369381  -4.544840   2.368305  -0.000081   0.155989  -0.000516
 334   2   4.776919  -5.367140   1.104943  -0.000131   0.155989  -0.000840
 335   2   5.466957  -5.195517  -0.285288  -0.000248   0.155989  -0.001590
 336   2   6.132790  -4.106254  -1.184465  -0.000159   0.155989  -0.001021
 337   2   6.478473  -2.583500  -1.192926  -0.000149   0.155989  -0.000956
 338   2   0.623352  -3.922421   2.486512  -0.000264   0.089794  -0.002943
 339   9   0.471283  -4.155643   2.360907  -0.000354   0.089794  -0.003948
 340  14  -0.431151  -3.732516   2.514497  -0.000322   0.089794  -0.003590
 341   9  -0.080950  -4.803303  -1.617893  -0.000152   0.066773  -0.002275
 342   9   0.736595  -5.505156  -1.700905  -0.000291   0.147352  -0.001975
 343   9   1.725341  -6.163684  -1.152650  -0.000353   0.147352  -0.002397
 344   9   2.363133  -6.362161  -0.027622  -0.000400   0.147352  -0.002714
 345   9   2.401284  -6.023199   1.235513  -0.000292   0.147352  -0.001984
 346   9   1.824920  -5.278965   2.144237  -0.000352   0.147352  -0.002387
 347   9   1.063325  -4.565484   2.424926  -0.000210   0.066773  -0.003152
 348   2   0.363929  -4.840010  -2.001714  -0.000071   0.147222  -0.000485
 349   2   1.512924  -5.739098  -1.820776  -0.000120   0.147222  -0.000813
 350   2   2.474819  -6.245910  -0.831237  -0.000175   0.147222  -0.001189
 351   2   2.874555  -6.162831   0.581065  -0.000140   0.147222  -0.000954
 352   2   2.556269  -5.522255   1.865449  -0.000115   0.147222  -0.000779
 353   2   1.644066  -4.573954   2.521114  -0.000212   0.147222  -0.001437
 354  10   5.269172  -1.826859  -3.331699  -0.000103   0.068461  -0.001499
 355  10   5.251378  -2.928952  -3.368529  -0.000247   0.151638  -0.001626
 356  10   4.559145  -4.063111  -3.487284  -0.000314   0.151638  -0.002073
 357  10   3.325560  -4.544007  -3.650421  -0.000352   0.151638  -0.002319
 358  10   2.050948  -4.176595  -3.791773  -0.000201   0.151638  -0.001324
 359  10   1.252275  -3.109893  -3.854011  -0.000288   0.151638  -0.001898
 360   2   5.509776  -2.241060  -2.977793  -0.000002   0.150424  -0.000014
 361   2   5.176536  -3.699739  -3.063694  -0.000010   0.150424  -0.000068
 362   2   4.035339  -4.656786  -3.230737  -0.000114   0.150424  -0.000756
 363   2   2.549036  -4.724034  -3.411171  -0.000068   0.150424  -0.000451
 364   2   1.320453  -3.874210  -3.531814  -0.000024   0.150424  -0.000162
 365   2   0.794831  -2.776662  -3.560321   0.000084   0.083641   0.001003
 366  13   7.012035   0.005627  -0.432795   0.000010   0.008398   0.001175
 367   2   6.608412  -1.312819  -0.914182   0.000078   0.011918   0.006503
 368  14  -0.883838  -3.529468   2.894762  -0.000077   0.093763  -0.000826
 369   2   0.686527  -3.699734   2.825033   0.000210   0.134302   0.001567
 370  16  -3.056938  -2.128524  -3.268859   0.000218   0.254852   0.000857
 371   2  -0.559933  -3.034532  -2.870932   0.001403   0.411782   0.003406
 372   3   1.461268   3.037759  -3.038751   0.000378   0.055725   0.006776
 373   4   0.741239   2.662929  -2.967639   0.001083   0.055725   0.019428
 374  11   1.688058   2.967113  -3.228348   0.000046   0.055725   0.000826
 375   3   0.713432   4.411647  -0.814600   0.000506   0.057739   0.008769
 376   4   0.027792   3.972542  -0.849963   0.001328   0.057739   0.022995
 377  12   0.790959   4.590666  -0.582539   0.000090   0.057739   0.001563
 378   4  -0.326106   3.710200  -1.491681   0.005828   0.323768   0.018001
 379   4   0.076419   2.963573  -2.695320   0.005297   0.323768   0.016360
 380   3   0.937667   3.809188  -2.031144   0.004977   0.710533   0.007004
 381   7   3.596366   0.475346   4.043360  -0.000653   0.166890  -0.003912
 382   7   2.761406   1.383199   4.164402  -0.001547   0.339240  -0.004559
 383   7   1.729545   2.022293   3.913743  -0.000490   0.166890  -0.002935
 384   3   4.040345   1.523554   3.688698  -0.000176   0.460354  -0.000382
 385   3   2.704710   2.630332   3.595963   0.000096   0.460354   0.000208
 386   3   5.476338   0.217656  -2.878985   0.000020   0.087938   0.000229
 387  10   5.102121  -0.666557  -3.132434   0.000060   0.087938   0.000677
 388  11   5.356723   0.379213  -3.109997  -0.000184   0.087938  -0.002096
 389  10   5.192848  -1.234010  -3.306076   0.000019   0.008580   0.002243
 390   3   5.673396   0.080198  -2.870208   0.000083   0.012182   0.006854
 391  11   2.182851   3.400936  -3.424968  -0.000113   0.068080  -0.001667
 392  11   2.974703   4.144770  -3.270827  -0.000201   0.150633  -0.001335
 393  11   4.258773   4.429268  -3.089655  -0.000348   0.150633  -0.002312
 394  11   5.462347   3.879587  -2.980761  -0.000360   0.150633  -0.002389
 395  11   6.102277   2.716385  -2.987858  -0.000313   0.150633  -0.002080
 396  11   5.921675   1.406606  -3.108097  -0.000251   0.150633  -0.001665
 397   3   2.230539   3.856030  -3.046145  -0.000035   0.149736  -0.000237
 398   3   3.493928   4.619432  -2.831810   0.000031   0.149736   0.000205
 399   3   4.967256   4.462375  -2.660016  -0.000143   0.149736  -0.000957
 400   3   6.059087   3.447906  -2.599726  -0.000207   0.149736  -0.001384
 401   3   6.331127   1.983262  -2.675142  -0.000053   0.149736  -0.000352
 402   3   5.937381   0.845764  -2.809073  -0.000010   0.083174  -0.000121
 403  12   2.120321   4.019152   2.946690  -0.000139   0.069865  -0.001993
 404  12   3.175321   4.415174   2.979786  -0.000364   0.155620  -0.002341
 405  12   4.195541   5.061083   2.349531  -0.000338   0.155620  -0.002173
 406  12   4.520408   5.656126   1.168154  -0.000345   0.155620  -0.002215
 407  12   4.011617   5.946978  -0.061401  -0.000385   0.155620  -0.002477
 408  12   2.885774   5.809816  -0.815677  -0.000283   0.155620  -0.001819
 409  12   1.622183   5.303032  -0.773558  -0.000292   0.155620  -0.001875
 410   3   2.642772   3.773458   3.113830  -0.000295   0.152665  -0.001933
 411   3   4.010148   4.407816   2.851774  -0.000108   0.152665  -0.000710
 412   3   4.809311   5.145108   1.775420  -0.000099   0.152665  -0.000650
 413   3   4.700035   5.671450   0.343001  -0.000162   0.152665  -0.001060
 414   3   3.728842   5.762762  -0.835661  -0.000102   0.152665  -0.000665
 415   3   2.309196   5.380171  -1.258779  -0.000047   0.152665  -0.000307
 416   3   1.217546   4.848769  -0.986700   0.000189   0.085356   0.002220
 417  13   7.195422   0.576651  -0.551991  -0.000154   0.071491  -0.002148
 418  13   7.447251   1.696153  -0.613395  -0.000379   0.159875  -0.002371
 419  13   7.417497   2.943702  -0.007906  -0.000483   0.159875  -0.003021
 420  13   7.004541   3.568461   1.159580  -0.000512   0.159875  -0.003202
 421  13   6.390952   3.294223   2.372915  -0.000366   0.159875  -0.002289
 422  13   5.847999   2.242228   3.095681  -0.000492   0.159875  -0.003078
 423  13   5.599859   1.121466   3.148530  -0.000217   0.071491  -0.003041
 424   3   7.100488   1.001498  -0.975982  -0.000117   0.155647  -0.000751
 425   3   7.301051   2.529524  -0.748957  -0.000150   0.155647  -0.000962
 426   3   7.037457   3.644315   0.306690  -0.000256   0.155647  -0.001646
 427   3   6.426242   3.853019   1.724254  -0.000166   0.155647  -0.001067
 428   3   5.737625   3.063366   2.877028  -0.000198   0.155647  -0.001271
 429   3   5.276046   1.624465   3.255366  -0.000405   0.155647  -0.002602
 430   4  -0.856795   3.552494   0.772778   0.002005   0.091385   0.021938
 431   5  -1.221145   3.404088   1.028683   0.001487   0.091385   0.016271
 432  12   0.041237   4.000080   0.923657   0.001047   0.091385   0.011459
 433   4  -2.097708   3.472603   0.231086   0.001237   0.093681   0.013209
 434   5  -2.484662   3.450562   0.499286   0.000449   0.093681   0.004790
 435  18  -3.109572   3.666910   0.133924   0.000081   0.093681   0.000868
 436   5  -1.987235   3.427704   0.951636   0.000731   0.089422   0.008177
 437   4  -1.499358   3.524560   0.477906   0.001479   0.081718   0.018093
 438   4  -2.285326   0.535445  -3.541588   0.001266   0.054862   0.023073
 439   6  -3.086147   0.506057  -3.716192   0.000253   0.054862   0.004618
 440  16  -3.247702   0.275518  -3.829136   0.000032   0.054862   0.000589
 441   4  -2.413118   2.911128  -2.277805   0.001077   0.055810   0.019302
 442   6  -3.220781   3.003003  -2.387233   0.000289   0.055810   0.005170
 443  18  -3.401948   3.212299  -2.263050   0.000099   0.055810   0.001779
 444   6  -3.074464   2.570384  -2.880241   0.001922   0.378218   0.005081
 445   6  -2.997443   1.164699  -3.627467   0.001892   0.378218   0.005004
 446   4  -1.862834   1.844589  -3.089755   0.012718   0.697532   0.018233
 447   4   1.274420   0.377564  -3.468094   0.003111   0.295763   0.010518
 448  10   2.036047  -0.304584  -3.721375  -0.000078   0.295763  -0.000265
 449  11   2.221504   0.764797  -3.651174  -0.000193   0.295763  -0.000654
 450  10   1.017326  -1.890719  -3.921234   0.000317   0.281905   0.001124
 451  10   1.656006  -1.031461  -4.069188  -0.000017   0.281905  -0.000059
 452   4   0.207336  -0.554480  -3.605007   0.009740   0.697373   0.013966
 453  11   2.118178   1.630462  -3.891057  -0.000130   0.291034  -0.000447
 454  11   1.816287   2.676919  -3.604561   0.000241   0.291034   0.000827
 455   4   0.599780   1.677191  -3.448279   0.009042   0.718444   0.012585
 456  12   0.656262   4.800961  -0.223273   0.000474   0.235360   0.002016
 457  12   0.463546   4.696175   0.677653   0.000203   0.235360   0.000862
 458   4  -0.598005   3.917566  -0.117151   0.008323   0.581602   0.014310
 459  16  -3.204767  -0.212992  -4.002385   0.000244   0.321045   0.000759
 460  16  -3.043267  -1.378868  -3.660204  -0.000160   0.321045  -0.000500
 461   4  -1.713796  -0.490155  -3.455046   0.011306   0.792744   0.014262
 462  18  -3.343459   4.015295  -0.320494  -0.000009   0.253506  -0.000034
 463  18  -3.372173   3.769791  -1.572259   0.000194   0.509983   0.000380
 464   4  -1.881198   3.650484  -0.753241   0.007963   0.627179   0.012696
 465   4  -1.954961   3.272155  -2.091533   0.003854   0.315952   0.012197
 466   5  -3.454495  -3.469588  -1.074386  -0.000057   0.027687  -0.002041
 467   6  -3.875622  -3.325988  -1.290554  -0.000034   0.027687  -0.001235
 468  14  -3.370418  -3.649802  -0.845134  -0.000105   0.027687  -0.003779
 469   5  -4.981987  -3.175217   1.782139  -0.000125   0.027687  -0.004523
 470   6  -5.383463  -3.035404   1.529224  -0.000089   0.027687  -0.003205
 471  14  -4.761214  -3.381774   1.755759  -0.000138   0.027687  -0.004972
 472   5  -5.148672   0.300245   3.651798  -0.000136   0.027532  -0.004928
 473   6  -5.548339   0.404223   3.379501  -0.000093   0.027532  -0.003394
 474  15  -4.944134   0.450543   3.819169  -0.000183   0.027532  -0.006663
 475   5  -3.773862   2.944248   2.395542  -0.000053   0.027532  -0.001911
 476   6  -4.191281   3.014085   2.139466  -0.000014   0.027532  -0.000495
 477  15  -3.692444   2.857762   2.675416  -0.000074   0.027532  -0.002691
 478   5  -3.519471  -3.071907  -1.725620  -0.000032   0.025413  -0.001267
 479   6  -3.936587  -3.002806  -1.982277  -0.000046   0.025413  -0.001812
 480  16  -4.034775  -2.921718  -2.256725  -0.000085   0.025413  -0.003336
 481   5  -5.455503  -2.834268   1.848049  -0.000103   0.027942  -0.003695
 482   6  -5.893211  -2.761641   1.629321  -0.000081   0.027942  -0.002888
 483  17  -6.164320  -2.649829   1.706604  -0.000091   0.027942  -0.003257
 484   5  -5.595112   0.012964   3.383816  -0.000097   0.027942  -0.003469
 485   6  -6.034631   0.122535   3.185016  -0.000089   0.027942  -0.003173
 486  17  -6.293093  -0.023575   3.123178  -0.000125   0.027942  -0.004475
 487   5  -3.824531   3.274337   1.686458  -0.000015   0.025392  -0.000577
 488   6  -4.245281   3.419095   1.470477  -0.000032   0.025392  -0.001262
 489  18  -4.348239   3.595801   1.247513  -0.000050   0.025392  -0.001959
 490   6  -4.332598   3.263582   1.808953   0.000041   0.076081   0.000538
 491   5  -3.680651   3.149302   2.079480   0.000013   0.076081   0.000172
 492   6  -3.968929  -3.163444  -1.744248   0.000012   0.072364   0.000169
 493   5  -3.410746  -3.353899  -1.340970   0.000008   0.072364   0.000115
 494   6  -5.744720  -2.922090   1.531026  -0.000010   0.031336  -0.000329
 495   5  -5.152037  -3.054123   1.899196  -0.000049   0.031336  -0.001575
 496   6  -5.910187   0.270874   3.269157  -0.000017   0.033186  -0.000518
 497   5  -5.297429   0.156907   3.609698  -0.000057   0.033186  -0.001713
 498   5  -1.147932  -0.977271   4.367978  -0.000038   0.075208  -0.000502
 499   7  -0.295501  -0.833050   4.405256  -0.000238   0.075208  -0.003168
 500  15  -1.239072  -0.712971   4.493329  -0.000210   0.075208  -0.002793
 501   7   0.334121  -1.430210   4.235718  -0.001886   0.369889  -0.005099
 502   5  -0.817024  -1.958478   3.892205   0.000261   0.519420   0.000502
 503   5  -2.020591  -3.671494  -1.010563  -0.000264   0.089275  -0.002961
 504   9  -1.062423  -4.208749  -0.966280  -0.000122   0.089275  -0.001362
 505  14  -2.003816  -3.890153  -0.796322  -0.000364   0.089275  -0.004082
 506   9  -0.654845  -4.517696  -1.298839   0.000020   0.054702   0.000357
 507   5  -2.024220  -3.651867  -1.350419   0.000176   0.078644   0.002241
 508   5  -1.177527   2.968034   2.283043   0.000319   0.112994   0.002819
 509  12   0.088574   3.461516   1.973546   0.000816   0.112994   0.007222
 510  15  -1.252659   2.858025   2.559363  -0.000170   0.112994  -0.001503
 511  12   0.477355   4.467273   1.450830   0.000144   0.354219   0.000406
 512   5  -1.301383   3.447852   1.850207   0.002453   0.535271   0.004583
 513  14  -2.885416  -3.856679  -0.743087  -0.000266   0.068061  -0.003902
 514   5  -2.810545  -3.559092  -1.083811  -0.000194   0.083152  -0.002327
 515  14  -1.463833  -3.209171   3.242324  -0.000203   0.067084  -0.003028
 516  14  -2.530135  -3.256329   3.414751  -0.000491   0.147932  -0.003322
 517  14  -3.748136  -3.400950   2.957366  -0.000714   0.147932  -0.004826
 518  14  -4.425647  -3.560845   2.130101  -0.000301   0.067084  -0.004484
 519   5  -1.826849  -2.852125   3.540743  -0.000241   0.148031  -0.001626
 520   5  -3.292542  -2.958581   3.477566  -0.000452   0.148031  -0.003054
 521   5  -4.427556  -3.160923   2.564122  -0.000698   0.148031  -0.004713
 522  15  -2.155816   2.937753   2.916950  -0.000296   0.081441  -0.003637
 523  15  -3.167630   2.925837   2.921997  -0.000240   0.081441  -0.002946
 524   5  -2.664441   2.992399   2.517756  -0.000630   0.172336  -0.003654
 525  15  -4.593451   0.240958   4.197657  -0.000324   0.073897  -0.004390
 526  15  -3.773719  -0.527196   4.563378  -0.000761   0.166273  -0.004574
 527  15  -2.387099  -0.819385   4.703147  -0.000551   0.166273  -0.003315
 528   5  -4.505845  -0.364358   4.112607  -0.000819   0.159988  -0.005120
 529   5  -3.166957  -1.153256   4.488508  -0.000439   0.159988  -0.002745
 530   5  -1.863418  -1.172986   4.498685  -0.000103   0.090282  -0.001139
 531  16  -3.700414  -2.598262  -2.771169  -0.000648   0.216502  -0.002991
 532   5  -3.008034  -2.953933  -1.937661   0.000081   0.304898   0.000265
 533  17  -6.364253  -2.391042   2.078437  -0.000782   0.215948  -0.003621
 534  17  -6.435857  -1.062423   2.894986  -0.002636   0.444934  -0.005924
 535   5  -5.369743  -2.114669   2.776696  -0.001823   0.588918  -0.003096
 536   5  -5.442175  -0.517521   3.547193  -0.000466   0.304303  -0.001531
 537  18  -4.080359   3.826334   0.745756  -0.000942   0.292923  -0.003216
 538   5  -3.057792   3.465424   1.139670   0.000215   0.412045   0.000522
 539  14  -4.587786  -3.689273   1.414276  -0.000879   0.214294  -0.004104
 540  14  -3.914850  -3.894017   0.035367  -0.002323   0.441168  -0.005265
 541   6  -5.268323  -3.377446   0.418711  -0.000547   0.584691  -0.000936
 542   6  -4.394539  -3.477477  -1.105615   0.000184   0.301950   0.000609
 543  15  -3.901814   2.655390   3.067700  -0.000618   0.213303  -0.002897
 544  15  -4.612764   1.447905   3.704250  -0.002412   0.438878  -0.005496
 545   6  -5.044447   2.405693   2.638781  -0.000275   0.582185  -0.000472
 546   6  -5.734999   0.932098   3.281709  -0.000004   0.300530  -0.000014
 547  16  -4.522048  -2.998346  -2.487441  -0.000179   0.070980  -0.002527
 548  16  -5.664044  -2.968220  -2.457625  -0.000440   0.158565  -0.002778
 549  16  -6.827045  -2.285727  -2.749824  -0.000312   0.158565  -0.001966
 550  16  -7.273209  -1.108677  -3.314836  -0.000409   0.158565  -0.002579
 551  16  -6.807345   0.047983  -3.905476  -0.000453   0.158565  -0.002858
 552  16  -5.633263   0.678228  -4.263346  -0.000275   0.158565  -0.001734
 553  16  -4.264611   0.506333  -4.231880  -0.000350   0.158565  -0.002209
 554   6  -4.926869  -3.098712  -2.048378  -0.000350   0.154679  -0.002260
 555   6  -6.434748  -2.758434  -2.157718  -0.000060   0.154679  -0.000389
 556   6  -7.392281  -1.651914  -2.667802  -0.000092   0.154679  -0.000595
 557   6  -7.380558  -0.263241  -3.355472  -0.000203   0.154679  -0.001314
 558   6  -6.404709   0.800057  -3.919883  -0.000116   0.154679  -0.000748
 559   6  -4.891656   1.072798  -4.114109  -0.000004   0.154679  -0.000026
 560   6  -3.698160   0.690778  -3.971800  -0.000021   0.086718  -0.000241
 561  17  -6.775476   0.183989   3.018919  -0.000203   0.067446  -0.003006
 562  17  -7.427421   0.894490   2.516331  -0.000406   0.148932  -0.002725
 563  17  -8.242486   1.188229   1.525463  -0.000390   0.148932  -0.002616
 564  17  -8.797197   0.704515   0.434248  -0.000404   0.148932  -0.002712
 565  17  -8.873091  -0.366151  -0.327559  -0.000458   0.148932  -0.003074
 566  17  -8.440279  -1.602106  -0.459934  -0.000340   0.148932  -0.002284
 567  17  -7.669216  -2.516592   0.089257  -0.000426   0.148932  -0.002860
 568  17  -6.863571  -2.749456   1.103724  -0.000510   0.148932  -0.003423
 569   6  -6.692827   0.747672   2.859612  -0.000405   0.148632  -0.002722
 570   6  -7.621453   1.486821   1.977332  -0.000144   0.148632  -0.000971
 571   6  -8.431915   1.374418   0.745414  -0.000160   0.148632  -0.001074
 572   6  -8.805029   0.454730  -0.350973  -0.000240   0.148632  -0.001615
 573   6  -8.593850  -0.910041  -0.880038  -0.000201   0.148632  -0.001351
 574   6  -7.881547  -2.182404  -0.633419  -0.000133   0.148632  -0.000893
 575   6  -6.948647  -2.861263   0.291759  -0.000176   0.148632  -0.001187
 576   6  -6.264476  -2.854648   1.277885  -0.000159   0.082400  -0.001933
 577  18  -4.020634   3.406565  -2.524873  -0.000096   0.070847  -0.001358
 578  18  -5.073661   3.243003  -2.932021  -0.000287   0.158202  -0.001813
 579  18  -6.423287   3.132981  -2.679332  -0.000391   0.158202  -0.002471
 580  18  -7.332124   3.170046  -1.644881  -0.000417   0.158202  -0.002639
 581  18  -7.404017   3.338043  -0.279576  -0.000341   0.158202  -0.002153
 582  18  -6.607627   3.563743   0.821455  -0.000346   0.158202  -0.002189
 583  18  -5.290096   3.748765   1.178283  -0.000521   0.158202  -0.003291
 584   6  -4.259391   2.994212  -2.897753  -0.000079   0.154451  -0.000512
 585   6  -5.777491   2.804327  -3.127709  -0.000144   0.154451  -0.000930
 586   6  -7.121108   2.760923  -2.361957  -0.000176   0.154451  -0.001137
 587   6  -7.704569   2.882920  -0.934282  -0.000185   0.154451  -0.001197
 588   6  -7.273547   3.117140   0.533004  -0.000067   0.154451  -0.000433
 589   6  -6.015923   3.361489   1.400322  -0.000208   0.154451  -0.001344
 590   6  -4.767083   3.502892   1.474392  -0.000111   0.086555  -0.001285
 591  15  -1.210011  -0.353088   4.780954  -0.000063   0.241539  -0.000262
 592  15  -1.029722   0.831948   4.742062  -0.001205   0.483369  -0.002494
 593  15  -0.885628   1.888996   4.194146  -0.000381   0.241539  -0.001577
 594   7   0.206501  -0.104951   4.754972  -0.001559   0.483369  -0.003224
 595   7   0.408739   1.292881   4.389125  -0.001323   0.483369  -0.002738
 596  13   6.144070  -0.148629   2.556701  -0.000321   0.251921  -0.001274
 597  13   6.926653  -0.232964   1.732420  -0.001332   0.503753  -0.002645
 598  13   7.212944  -0.194347   0.373665  -0.000836   0.503753  -0.001660
 599   8   6.199261  -1.683439   2.164199  -0.001165   0.503753  -0.002313
 600   8   6.921414  -1.733336   0.978586  -0.001217   0.503753  -0.002416
 601   8   6.916254  -1.657696  -0.158619  -0.000024   0.251921  -0.000097
 602  14  -2.061059  -4.308963  -0.588139  -0.000270   0.249990  -0.001079
 603  14  -1.985367  -4.817538   0.477244  -0.001781   0.500100  -0.003562
 604  14  -1.559266  -4.695822   1.846819  -0.001924   0.500100  -0.003847
 605  14  -1.047056  -4.019313   2.671073  -0.000442   0.249990  -0.001770
 606   9  -0.760318  -5.075235  -0.543854  -0.001464   0.500100  -0.002928
 607   9  -0.529825  -5.420519   0.834465  -0.001980   0.500100  -0.003960
 608   9   0.039153  -4.846866   2.025808  -0.001500   0.500100  -0.003000
 609  11   5.225584   0.458888  -3.578200   0.000103   0.286024   0.000361
 610  11   4.126121   0.690747  -4.167089  -0.001061   0.572154  -0.001854
 611  11   2.876329   0.908405  -4.163163  -0.000284   0.286024  -0.000993
 612  10   4.557090  -0.965952  -3.941112  -0.000709   0.572154  -0.001240
 613  10   3.092993  -0.685805  -4.305671  -0.001098   0.572154  -0.001920
 614  15  -1.100559   2.874480   3.213583   0.000379   0.367850   0.001031
 615  12   0.745272   4.097817   2.386676   0.000450   0.367850   0.001224
 =====================================================


   1 warning(s) detected.
     A line exceeding 80 characters begins with "http://cactus.nci.ni".
 There may be a problem in your input file.

              3173552  WORDS OF DYNAMIC MEMORY USED
 EXECUTION OF GAMESS TERMINATED NORMALLY Thu Nov 24 03:32:33 2016
 DDI: 263640 bytes (0.3 MB / 0 MWords) used by master data server.

 ----------------------------------------
 CPU timing information for all processes
 ========================================
 0: 519.508 + 0.204 = 519.712
 ----------------------------------------
 ddikick.x: exited gracefully.
