----- GAMESS execution script -----

          ******************************************************
          *         GAMESS VERSION =  5 DEC 2014 (R1)          *
          *             FROM IOWA STATE UNIVERSITY             *
          * M.W.SCHMIDT, K.K.BALDRIDGE, J.A.BOATZ, S.T.ELBERT, *
          *   M.S.GORDON, J.H.JENSEN, S.KOSEKI, N.MATSUNAGA,   *
          *          K.A.NGUYEN, S.J.SU, T.L.WINDUS,           *
          *       TOGETHER WITH M.DUPUIS, J.A.MONTGOMERY       *
          *         J.COMPUT.CHEM.  14, 1347-1363(1993)        *
          **************** 64 BIT LINUX VERSION ****************

 EXECUTION OF GAMESS BEGUN Thu Nov 24 04:14:07 2016

            ECHO OF THE FIRST FEW INPUT CARDS -
 INPUT CARD>! SELECT RESTRICTED HARTREE-FOCK AS DEFAULT                                     
 INPUT CARD>$contrl scftyp=rhf $end                                                         
 INPUT CARD>                                                                                
 INPUT CARD>! THEORY: HF OR DFT                                                             
 INPUT CARD> $contrl mplevl=0 $end                                                          
 INPUT CARD>                                                                                
 INPUT CARD> $system timlim=10000 mwords=20 $end                                            
 INPUT CARD> $SCF DIRSCF=.TRUE. $end                                                        
 INPUT CARD>                                                                                
 INPUT CARD>                                                                                
 INPUT CARD>! BASIS SETS                                                                    
 INPUT CARD>! 6-311G(d,p)                                                                   
 INPUT CARD> $BASIS GBASIS=N311 NGAUSS=6 NDFUNC=1 NPFUNC=1 $END                             
 INPUT CARD>                                                                                
 INPUT CARD>! One of the following                                                          
 INPUT CARD> $guess guess=HUCKEL $end                                                       
 INPUT CARD>                                                                                
 INPUT CARD> $statpt projct=.FALSE. $end                                                    
 INPUT CARD> $STATPT IFREEZ(1)=1,2,3 $END                                                   
 INPUT CARD>                                                                                
 INPUT CARD>! Optimize the geometry with COSMO effects                                      
 INPUT CARD> $statpt opttol=0.0005 nstep=50 $end                                            
 INPUT CARD> $contrl nzvar=1 $end                                                           
 INPUT CARD> $zmat dlc=.t. auto=.t. $end                                                    
 INPUT CARD> $contrl runtyp=OPTIMIZE maxit=200 $end                                         
 INPUT CARD>                                                                                
 INPUT CARD>! Run COSMO on perfect conductor                                                
 INPUT CARD> $COSGMS PRFCND=.TRUE. $end                                                     
 INPUT CARD>                                                                                
 INPUT CARD>! Specifying RSOLV                                                              
 INPUT CARD> $COSGMS COSRAD = 1.4 $end                                                      
 INPUT CARD>                                                                                
 INPUT CARD>! available memory                                                              
 INPUT CARD> $SYSTEM MWORDS=40 $END                                                         
 INPUT CARD>                                                                                
 INPUT CARD> $DATA                                                                          
 INPUT CARD>Propane, 1-ethoxy-, ID: C628320                                                 
 INPUT CARD>C1                                                                              
 INPUT CARD>O      8.0      3.1079000000    1.7452000000    1.0645000000                    
 INPUT CARD>C      6.0      4.4441000000    1.2694000000    1.1114000000                    
 INPUT CARD>C      6.0      5.3490000000    2.4893000000    1.2632000000                    
 INPUT CARD>C      6.0      2.1504000000    0.7063000000    0.9251000000                    
 INPUT CARD>C      6.0      6.8002000000    2.0698000000    1.3208000000                    
 INPUT CARD>C      6.0      0.7827000000    1.3612000000    0.8832000000                    
 INPUT CARD>H      1.0      4.6830000000    0.7077000000    0.1862000000                    
 INPUT CARD>H      1.0      4.5718000000    0.5698000000    1.9616000000                    
 INPUT CARD>H      1.0      5.0789000000    3.0544000000    2.1773000000                    
 INPUT CARD>H      1.0      5.1881000000    3.1923000000    0.4219000000                    
 INPUT CARD>H      1.0      2.2307000000    0.0000000000    1.7749000000                    
 INPUT CARD>H      1.0      2.3473000000    0.1294000000    0.0000000000                    
   40000000 WORDS OF MEMORY AVAILABLE

     BASIS OPTIONS
     -------------
     GBASIS=N311         IGAUSS=       6      POLAR=POPN311 
     NDFUNC=       1     NFFUNC=       0     DIFFSP=       F
     NPFUNC=       1      DIFFS=       F     BASNAM=        


     RUN TITLE
     ---------
 Propane, 1-ethoxy-, ID: C628320                                                 

 THE POINT GROUP OF THE MOLECULE IS C1      
 THE ORDER OF THE PRINCIPAL AXIS IS     0

 ATOM      ATOMIC                      COORDINATES (BOHR)
           CHARGE         X                   Y                   Z
 O           8.0     5.8730793972        3.2979497938        2.0116133139
 C           6.0     8.3981312620        2.3988181688        2.1002414628
 C           6.0    10.1081443083        4.7040949012        2.3871018677
 C           6.0     4.0636667640        1.3347134651        1.7481855112
 C           6.0    12.8505146617        3.9113548494        2.4959500846
 C           6.0     1.4790885306        2.5722950145        1.6690059924
 H           1.0     8.8495868005        1.3373590815        0.3518669789
 H           1.0     8.6394492707        1.0767658678        3.7068864975
 H           1.0     9.5977293190        5.7719790569        4.1145003931
 H           1.0     9.8040873969        6.0325722706        0.7972753942
 H           1.0     4.2154117608        0.0000000000        3.3540746556
 H           1.0     4.4357538110        0.2445305428        0.0000000000
 H           1.0    14.0975448410        5.5563613217        2.6985287105
 H           1.0    13.4280149236        2.9046978157        0.7757325180
 H           1.0    13.2222237635        2.6510965882        4.1020282015
 H           1.0     0.0000000000        1.1332686748        1.4675612021
 H           1.0     1.2969189454        3.8873553293        0.0746441765
 H           1.0     1.0794114842        3.6450924577        3.3992391067

          INTERNUCLEAR DISTANCES (ANGS.)




     $CONTRL OPTIONS
     ---------------
 SCFTYP=RHF          RUNTYP=OPTIMIZE     EXETYP=RUN     
 MPLEVL=       0     CITYP =NONE         CCTYP =NONE         VBTYP =NONE    
 DFTTYP=NONE         TDDFT =NONE    
 MULT  =       1     ICHARG=       0     NZVAR =       1     COORD =UNIQUE  
 PP    =NONE         RELWFN=NONE         LOCAL =NONE         NUMGRD=       F
 ISPHER=      -1     NOSYM =       0     MAXIT =     200     UNITS =ANGS    
 PLTORB=       F     MOLPLT=       F     AIMPAC=       F     FRIEND=        
 NPRINT=       7     IREST =       0     GEOM  =INPUT   
 NORMF =       0     NORMP =       0     ITOL  =      20     ICUT  =       9
 INTTYP=BEST         GRDTYP=BEST         QMTTOL= 1.0E-06

     $SYSTEM OPTIONS
     ---------------
  REPLICATED MEMORY=    40000000 WORDS (ON EVERY NODE).
 DISTRIBUTED MEMDDI=           0 MILLION WORDS IN AGGREGATE,
 MEMDDI DISTRIBUTED OVER   1 PROCESSORS IS           0 WORDS/PROCESSOR.
 TOTAL MEMORY REQUESTED ON EACH PROCESSOR=    40000000 WORDS.
 TIMLIM=       10000.00 MINUTES, OR       6.9 DAYS.
 PARALL= F  BALTYP=  DLB     KDIAG=    0  COREFL= F
 MXSEQ2=     300 MXSEQ3=     150  mem10=         0

     $COSGMS OPTIONS
     ---------------
     EPSI  =   INFTY     NSPA  =      92     COSRAD=    1.40
     DISEX =   10.00     OUTCHG=DBLCAV       COSBUG=       F
     COSWRT=       F     DCOSMO=       F

     SYMMETRY COORDINATES WILL NOT BE USED FOR 
     THE COSMO CALCULATION, EVEN IF SPECIFIED:
         -- SWITCHING TO C1 POINT GROUP --


     DEFINITION OF CAVITY
     ---------------------------
     ATOM         COORDINATES           RADIUS 
     1    5.8731    3.2979    2.0116    1.7200
     2    8.3981    2.3988    2.1002    2.0000
     3   10.1081    4.7041    2.3871    2.0000
     4    4.0637    1.3347    1.7482    2.0000
     5   12.8505    3.9114    2.4960    2.0000
     6    1.4791    2.5723    1.6690    2.0000
     7    8.8496    1.3374    0.3519    1.3000
     8    8.6394    1.0768    3.7069    1.3000
     9    9.5977    5.7720    4.1145    1.3000
    10    9.8041    6.0326    0.7973    1.3000
    11    4.2154    0.0000    3.3541    1.3000
    12    4.4358    0.2445    0.0000    1.3000
    13   14.0975    5.5564    2.6985    1.3000
    14   13.4280    2.9047    0.7757    1.3000
    15   13.2222    2.6511    4.1020    1.3000
    16    0.0000    1.1333    1.4676    1.3000
    17    1.2969    3.8874    0.0746    1.3000
    18    1.0794    3.6451    3.3992    1.3000

          ----------------
          PROPERTIES INPUT
          ----------------

     MOMENTS            FIELD           POTENTIAL          DENSITY
 IEMOM =       1   IEFLD =       0   IEPOT =       0   IEDEN =       0
 WHERE =COMASS     WHERE =NUCLEI     WHERE =NUCLEI     WHERE =NUCLEI  
 OUTPUT=BOTH       OUTPUT=BOTH       OUTPUT=BOTH       OUTPUT=BOTH    
 IEMINT=       0   IEFINT=       0                     IEDINT=       0
                                                       MORB  =       0
          EXTRAPOLATION IN EFFECT
          SOSCF IN EFFECT
 ORBITAL PRINTING OPTION: NPREO=     1   186     2     1

     -------------------------------
     INTEGRAL TRANSFORMATION OPTIONS
     -------------------------------
     NWORD  =            0
     CUTOFF = 1.0E-09     MPTRAN =       0
     DIRTRF =       T     AOINTS =DUP     

          ----------------------
          INTEGRAL INPUT OPTIONS
          ----------------------
 NOPK  =       1 NORDER=       0 SCHWRZ=       T


 -----------------------------------------------
  STATISTICS ON AUTOMATIC COORDINATE GENERATION 
 -----------------------------------------------
  NUMBER OF USER SPECIFIED BONDS                             0
  NUMBER OF BONDS                                           17
  NUMBER OF ANGLES                                          31
  NUMBER OF TORSIONS                                        33
  NUMBER OF EXTRA COORD.                                     0
  NUMBER OF EXTRA COORD. FOR CONSTRAINTS                     0
  NUMBER OF CONSTRAINED COORD.                               0

  TOTAL NUMBER OF PRIMITIVES                                81
 -----------------------------------------------

   --- ENCODED Z MATRIX ---
 COORD  TYPE   I   J   K   L   M   N
    1      1    1   4
    2      1    1   2
    3      1    2   3
    4      1    2   7
    5      1    2   8
    6      1    3   5
    7      1    3   9
    8      1    3  10
    9      1    4  12
   10      1    4  11
   11      1    4   6
   12      1    5  15
   13      1    5  14
   14      1    5  13
   15      1    6  16
   16      1    6  18
   17      1    6  17
   18      2    1   2   7
   19      2    1   2   8
   20      2    1   4  11
   21      2    1   4   6
   22      2    1   4  12
   23      2    1   2   3
   24      2    2   3  10
   25      2    2   1   4
   26      2    2   3   9
   27      2    2   3   5
   28      2    3   5  14
   29      2    3   5  13
   30      2    3   5  15
   31      2    3   2   7
   32      2    3   2   8
   33      2    4   6  17
   34      2    4   6  18
   35      2    4   6  16
   36      2    5   3  10
   37      2    5   3   9
   38      2    6   4  11
   39      2    6   4  12
   40      2    7   2   8
   41      2    9   3  10
   42      2   11   4  12
   43      2   13   5  14
   44      2   13   5  15
   45      2   14   5  15
   46      2   16   6  17
   47      2   16   6  18
   48      2   17   6  18
   49      3    1   4   6  17
   50      3    1   2   3  10
   51      3    1   4   6  18
   52      3    1   2   3   9
   53      3    1   4   6  16
   54      3    1   2   3   5
   55      3    2   3   5  13
   56      3    2   3   5  14
   57      3    2   3   5  15
   58      3    2   1   4  11
   59      3    2   1   4  12
   60      3    2   1   4   6
   61      3    3   2   1   4
   62      3    4   1   2   8
   63      3    4   1   2   7
   64      3    5   3   2   8
   65      3    5   3   2   7
   66      3    7   2   3  10
   67      3    7   2   3   9
   68      3    8   2   3  10
   69      3    8   2   3   9
   70      3    9   3   5  15
   71      3    9   3   5  13
   72      3    9   3   5  14
   73      3   10   3   5  15
   74      3   10   3   5  13
   75      3   10   3   5  14
   76      3   11   4   6  16
   77      3   11   4   6  18
   78      3   11   4   6  17
   79      3   12   4   6  16
   80      3   12   4   6  18
   81      3   12   4   6  17

          INDEP./SYM. INTERNAL COORDINATES
          --------------------------------
 CRD  1=  -0.1582 ( 18) -0.1581 ( 19) -0.1265 ( 20)  0.3399 ( 21) -0.1270 ( 22)
           0.4681 ( 23)  0.1067 ( 24) -0.6049 ( 25)  0.1065 ( 26) -0.3006 ( 27)
          -0.1121 ( 31) -0.1124 ( 32)
 CRD  2=   0.2623 (  1)  0.3540 (  2)  0.2568 (  3)  0.2191 (  6)  0.2097 ( 11)
          -0.1128 ( 20)  0.4096 ( 21) -0.1123 ( 22)  0.1349 ( 23) -0.1169 ( 24)
           0.1700 ( 25) -0.1169 ( 26)  0.4331 ( 27) -0.1520 ( 36) -0.1536 ( 37)
          -0.1309 ( 38) -0.1282 ( 39)
 CRD  3=  -0.1813 ( 18)  0.1795 ( 19) -0.1390 ( 28)  0.1408 ( 30) -0.1443 ( 33)
           0.1452 ( 34) -0.1203 ( 36)  0.1181 ( 37)  0.1873 ( 38) -0.1888 ( 39)
           0.2331 ( 50)  0.2331 ( 52) -0.1083 ( 53)  0.3623 ( 54)  0.2834 ( 58)
           0.2831 ( 59)  0.5030 ( 60)  0.1332 ( 64)  0.1337 ( 65)
 CRD  4=   0.3336 (  1)  0.1733 (  2)  0.1682 (  3)  0.1363 ( 20) -0.2061 ( 21)
           0.1201 ( 22)  0.3565 ( 23)  0.1439 ( 24)  0.5114 ( 25)  0.1565 ( 26)
          -0.3644 ( 27)  0.1373 ( 29) -0.1694 ( 31) -0.1422 ( 32)  0.1208 ( 35)
 CRD  5=   0.1441 ( 20) -0.1576 ( 22) -0.1215 ( 24)  0.1037 ( 26) -0.2349 ( 31)
           0.2520 ( 32) -0.1599 ( 49) -0.1614 ( 51) -0.1554 ( 53)  0.1549 ( 54)
          -0.1605 ( 55) -0.1283 ( 56) -0.1314 ( 57) -0.1433 ( 58) -0.1375 ( 59)
          -0.1083 ( 60) -0.5970 ( 61) -0.3117 ( 62) -0.3136 ( 63)
 CRD  6=   0.1783 (  2) -0.2707 (  3) -0.2121 (  6)  0.2312 ( 11)  0.2153 ( 18)
           0.2162 ( 19) -0.1509 ( 20)  0.4052 ( 21) -0.1514 ( 22) -0.3364 ( 23)
           0.2230 ( 25) -0.3195 ( 27)  0.1377 ( 33)  0.1373 ( 34) -0.1033 ( 35)
           0.1247 ( 36)  0.1256 ( 37) -0.1044 ( 48) -0.1104 ( 62)  0.1090 ( 63)
 CRD  7=  -0.3583 ( 28)  0.3590 ( 30)  0.3399 ( 33) -0.3404 ( 34) -0.1772 ( 36)
           0.1768 ( 37) -0.1187 ( 38)  0.1183 ( 39)  0.1118 ( 43) -0.1119 ( 44)
          -0.1129 ( 46)  0.1138 ( 47)  0.1396 ( 49)  0.1396 ( 51)  0.2196 ( 53)
           0.2139 ( 54) -0.2364 ( 60)  0.1872 ( 64)  0.1867 ( 65)
 CRD  8=  -0.6075 ( 11)  0.1266 ( 21)  0.1240 ( 25) -0.4540 ( 35) -0.2448 ( 38)
          -0.2456 ( 39)  0.1707 ( 42)  0.2307 ( 46)  0.2300 ( 47)  0.1635 ( 58)
          -0.1634 ( 59)
 CRD  9=  -0.6479 (  6)  0.1177 ( 23)  0.1024 ( 24)  0.1023 ( 26) -0.4398 ( 29)
          -0.1844 ( 36) -0.1843 ( 37)  0.2414 ( 43)  0.2417 ( 44)  0.1075 ( 45)
           0.1058 ( 67) -0.1058 ( 68)  0.1007 ( 72) -0.1008 ( 73)
 CRD 10=   0.5486 (  3)  0.1022 (  4)  0.1022 (  5) -0.1388 (  6)  0.1353 ( 14)
          -0.1553 ( 23) -0.2589 ( 28)  0.3976 ( 29) -0.2576 ( 30)  0.2157 ( 31)
           0.2167 ( 32) -0.1831 ( 40)  0.2353 ( 45)  0.1410 ( 62) -0.1401 ( 63)
 CRD 11=   0.1898 ( 20) -0.1892 ( 22)  0.3280 ( 24) -0.3277 ( 26)  0.1722 ( 28)
          -0.1748 ( 30)  0.1768 ( 31) -0.1759 ( 32) -0.2298 ( 36)  0.2295 ( 37)
          -0.1493 ( 38)  0.1486 ( 39) -0.1500 ( 49) -0.1502 ( 51) -0.1391 ( 53)
           0.2732 ( 55)  0.2663 ( 56)  0.2666 ( 57) -0.2083 ( 62) -0.2088 ( 63)
 CRD 12=  -0.1140 ( 16)  0.1144 ( 17) -0.1365 ( 18)  0.1362 ( 19) -0.1298 ( 24)
           0.1297 ( 26)  0.3224 ( 28) -0.3231 ( 30)  0.4103 ( 33) -0.4089 ( 34)
           0.1401 ( 36) -0.1401 ( 37) -0.1298 ( 43)  0.1294 ( 44) -0.1704 ( 46)
           0.1707 ( 47)  0.1648 ( 50)  0.1648 ( 52)  0.1960 ( 58)  0.1960 ( 59)
 CRD 13=  -0.1170 (  2)  0.1191 (  9)  0.1174 ( 10)  0.2111 ( 11) -0.1943 ( 15)
           0.1056 ( 16)  0.1055 ( 17) -0.1985 ( 21) -0.1232 ( 29)  0.3637 ( 33)
           0.3662 ( 34) -0.5335 ( 35) -0.1337 ( 42) -0.3522 ( 48)
 CRD 14=  -0.1769 ( 18)  0.1772 ( 19) -0.2735 ( 20)  0.2715 ( 22)  0.1711 ( 28)
          -0.1714 ( 30)  0.2046 ( 31) -0.2044 ( 32)  0.3128 ( 38) -0.3151 ( 39)
           0.1537 ( 49)  0.1104 ( 50)  0.1543 ( 51)  0.1102 ( 52)  0.1340 ( 53)
           0.1046 ( 54) -0.2952 ( 58) -0.2960 ( 59) -0.2207 ( 62) -0.2205 ( 63)
 CRD 15=  -0.1222 (  4)  0.1615 (  5) -0.1136 ( 12)  0.1408 ( 13)  0.2500 ( 18)
          -0.2424 ( 19) -0.1323 ( 20)  0.1152 ( 22)  0.1656 ( 24) -0.1035 ( 26)
           0.2609 ( 28) -0.1582 ( 30) -0.3511 ( 31)  0.4061 ( 32) -0.1712 ( 36)
           0.1961 ( 37) -0.1134 ( 43)  0.1301 ( 44)  0.2342 ( 62)  0.2033 ( 63)
           0.1644 ( 64)  0.1645 ( 65)
 CRD 16=   0.3424 (  3)  0.1302 (  4)  0.1597 (  6)  0.1956 (  7)  0.2099 (  8)
          -0.1441 ( 14) -0.1700 ( 23)  0.1352 ( 24)  0.1869 ( 26) -0.2769 ( 27)
           0.2270 ( 28) -0.3677 ( 29)  0.3061 ( 30)  0.2151 ( 31) -0.1502 ( 40)
          -0.1632 ( 41) -0.2656 ( 45) -0.1219 ( 63)
 CRD 17=  -0.1386 (  7)  0.1391 (  8) -0.3198 (  9)  0.3200 ( 10) -0.1593 ( 16)
           0.1594 ( 17) -0.1184 ( 28)  0.1190 ( 30)  0.2636 ( 33) -0.2635 ( 34)
           0.3155 ( 38) -0.3157 ( 39) -0.1589 ( 46)  0.1589 ( 47) -0.1284 ( 49)
          -0.1160 ( 50) -0.1284 ( 51) -0.1160 ( 52) -0.1561 ( 53) -0.1635 ( 54)
          -0.1092 ( 58) -0.1093 ( 59)  0.2386 ( 60)
 CRD 18=  -0.3452 (  4)  0.3443 (  5) -0.4428 (  7)  0.4426 (  8)  0.1315 (  9)
          -0.1318 ( 10)  0.1114 ( 12) -0.1112 ( 13)  0.1295 ( 36) -0.1295 ( 37)
           0.1337 ( 50)  0.1337 ( 52)  0.1892 ( 55)  0.1558 ( 56)  0.1559 ( 57)
          -0.1117 ( 61) -0.1620 ( 64) -0.1622 ( 65)
 CRD 19=  -0.1286 ( 11) -0.4430 ( 15) -0.4901 ( 16) -0.4901 ( 17)  0.1814 ( 33)
           0.1813 ( 34)  0.2127 ( 35) -0.2107 ( 46) -0.2106 ( 47) -0.1935 ( 48)
 CRD 20=  -0.1732 (  6) -0.5020 ( 12) -0.5022 ( 13) -0.4773 ( 14)  0.1764 ( 28)
           0.1933 ( 29)  0.1764 ( 30) -0.1991 ( 43) -0.1990 ( 44) -0.1878 ( 45)
 CRD 21=   0.3017 (  1) -0.2764 (  2) -0.1028 (  3) -0.3587 (  4) -0.3598 (  5)
           0.3462 (  9)  0.3464 ( 10)  0.1220 ( 11)  0.1646 ( 15)  0.1007 ( 16)
           0.1009 ( 17)  0.1691 ( 31)  0.1689 ( 32) -0.1563 ( 38) -0.1561 ( 39)
          -0.1717 ( 40)  0.1592 ( 42)  0.1169 ( 58) -0.1164 ( 59)  0.1285 ( 62)
          -0.1290 ( 63)
 CRD 22=   0.4339 (  4)  0.4345 (  5)  0.4516 (  9)  0.4503 ( 10) -0.1181 ( 25)
           0.1715 ( 40)  0.1784 ( 42)  0.1159 ( 58) -0.1161 ( 59) -0.1133 ( 62)
           0.1135 ( 63)
 CRD 23=   0.1741 (  7)  0.1742 (  8)  0.2903 ( 12)  0.2916 ( 13) -0.6309 ( 14)
          -0.1567 ( 43) -0.1574 ( 44)  0.3247 ( 45)  0.1696 ( 56) -0.1700 ( 57)
          -0.1868 ( 70)  0.1528 ( 72) -0.1531 ( 73)  0.1864 ( 75)
 CRD 24=   0.5585 ( 16) -0.5484 ( 17) -0.2942 ( 46)  0.2891 ( 47) -0.2241 ( 53)
          -0.2199 ( 76) -0.2201 ( 79)
 CRD 25=  -0.6588 ( 15)  0.2939 ( 16)  0.3122 ( 17) -0.1524 ( 46) -0.1621 ( 47)
           0.3231 ( 48)  0.1721 ( 49) -0.1750 ( 51) -0.1720 ( 77)  0.1750 ( 78)
          -0.1781 ( 80)  0.1689 ( 81)
 CRD 26=   0.5484 ( 12) -0.5475 ( 13) -0.2923 ( 43)  0.2919 ( 44) -0.2360 ( 55)
          -0.2333 ( 71) -0.2333 ( 74)
 CRD 27=  -0.5863 (  7) -0.5864 (  8)  0.1363 ( 12)  0.1371 ( 13) -0.1506 ( 14)
          -0.2365 ( 41)  0.1000 ( 66) -0.1002 ( 69)  0.1049 ( 71)  0.1559 ( 72)
          -0.1560 ( 73) -0.1046 ( 74)
 CRD 28=  -0.2459 (  4)  0.2458 (  5) -0.1357 ( 18)  0.1359 ( 19)  0.1395 ( 24)
          -0.1395 ( 26) -0.1574 ( 36)  0.1574 ( 37) -0.1291 ( 50) -0.1291 ( 52)
          -0.1107 ( 55) -0.1559 ( 56) -0.1558 ( 57) -0.1738 ( 64) -0.1736 ( 65)
          -0.2781 ( 66) -0.2781 ( 67) -0.2783 ( 68) -0.2783 ( 69) -0.2257 ( 70)
          -0.1807 ( 71) -0.2259 ( 72) -0.2257 ( 73) -0.1806 ( 74) -0.2258 ( 75)
 CRD 29=   0.4492 (  1) -0.4168 (  2) -0.1017 (  3)  0.2384 (  4)  0.2370 (  5)
          -0.2353 (  9) -0.2359 ( 10) -0.1018 ( 18) -0.1020 ( 19)  0.1042 ( 20)
           0.1036 ( 22)  0.1362 ( 40) -0.1425 ( 42)  0.1314 ( 64) -0.1316 ( 65)
          -0.1717 ( 67)  0.1713 ( 68)  0.1329 ( 76)  0.1696 ( 78) -0.1327 ( 79)
          -0.1693 ( 80)
 CRD 30=  -0.4538 (  1) -0.4804 (  2) -0.1416 ( 18) -0.1412 ( 19) -0.1370 ( 20)
           0.2148 ( 21) -0.1424 ( 22)  0.2050 ( 23)  0.3956 ( 25)  0.2146 ( 40)
           0.2168 ( 42)
 CRD 31=   0.2337 (  4) -0.2350 (  5) -0.1704 (  7)  0.1702 (  8)  0.3904 (  9)
          -0.3920 ( 10) -0.1360 ( 20)  0.1323 ( 22) -0.1198 ( 70) -0.1110 ( 71)
          -0.1197 ( 72) -0.1202 ( 73) -0.1114 ( 74) -0.1201 ( 75) -0.2164 ( 76)
          -0.2300 ( 77) -0.2298 ( 78) -0.2141 ( 79) -0.2276 ( 80) -0.2275 ( 81)
 CRD 32=  -0.2248 (  4)  0.2245 (  5)  0.3238 (  7) -0.3237 (  8)  0.1281 (  9)
          -0.1291 ( 10) -0.1340 ( 49) -0.1341 ( 51) -0.1282 ( 53)  0.1319 ( 55)
           0.1205 ( 56)  0.1205 ( 57) -0.1263 ( 66) -0.1262 ( 67) -0.1252 ( 68)
          -0.1252 ( 69)  0.1933 ( 70)  0.2046 ( 71)  0.1933 ( 72)  0.1931 ( 73)
           0.2045 ( 74)  0.1931 ( 75) -0.1743 ( 76) -0.1802 ( 77) -0.1801 ( 78)
          -0.1738 ( 79) -0.1797 ( 80) -0.1796 ( 81)
 CRD 33=  -0.2220 (  4)  0.2217 (  5) -0.2682 (  9)  0.2696 ( 10) -0.1846 ( 49)
           0.1595 ( 50) -0.1846 ( 51)  0.1592 ( 52) -0.1445 ( 53)  0.1338 ( 54)
          -0.1289 ( 55) -0.1252 ( 58) -0.1237 ( 59) -0.1878 ( 60)  0.1949 ( 61)
           0.1388 ( 62)  0.1388 ( 63)  0.1151 ( 64)  0.1144 ( 65)  0.1401 ( 66)
           0.1398 ( 67)  0.1408 ( 68)  0.1406 ( 69) -0.1066 ( 71) -0.1065 ( 74)
          -0.1640 ( 76) -0.2041 ( 77) -0.2041 ( 78) -0.1643 ( 79) -0.2044 ( 80)
          -0.2044 ( 81)
 CRD 34=  -0.1139 ( 12) -0.1138 ( 13) -0.2134 ( 14) -0.2110 ( 15) -0.1691 ( 16)
          -0.1687 ( 17) -0.1414 ( 18) -0.1414 ( 19) -0.1548 ( 20) -0.1552 ( 22)
          -0.1338 ( 24)  0.1749 ( 25) -0.1340 ( 26) -0.1238 ( 28) -0.1565 ( 29)
          -0.1239 ( 30) -0.1625 ( 33) -0.1626 ( 34) -0.1809 ( 35)  0.1537 ( 36)
           0.1539 ( 37)  0.1538 ( 38)  0.1535 ( 39)  0.1709 ( 43)  0.1710 ( 44)
           0.1927 ( 46)  0.1930 ( 47)  0.1553 ( 48) -0.1517 ( 58)  0.1522 ( 59)
          -0.1628 ( 67)  0.1620 ( 68)
 CRD 35=   0.2045 (  1) -0.2437 (  2)  0.1062 (  9)  0.1052 ( 10)  0.1118 ( 11)
           0.1286 ( 12)  0.1283 ( 13)  0.2239 ( 14) -0.1737 ( 15) -0.1807 ( 16)
          -0.1804 ( 17) -0.1084 ( 20)  0.1122 ( 21) -0.1090 ( 22) -0.1005 ( 23)
           0.1339 ( 24)  0.1338 ( 26)  0.1394 ( 28)  0.1694 ( 29)  0.1394 ( 30)
          -0.1661 ( 33) -0.1662 ( 34) -0.1697 ( 35) -0.1403 ( 36) -0.1401 ( 37)
           0.1198 ( 38)  0.1196 ( 39) -0.1383 ( 42) -0.1853 ( 43) -0.1855 ( 44)
          -0.1104 ( 45)  0.1782 ( 46)  0.1784 ( 47)  0.1796 ( 48) -0.1505 ( 58)
           0.1509 ( 59)
 CRD 36=  -0.2049 (  2)  0.1994 (  3) -0.1330 (  4) -0.1330 (  5)  0.3739 (  6)
          -0.2164 ( 12) -0.2167 ( 13)  0.1868 ( 18)  0.1869 ( 19) -0.1257 ( 23)
          -0.1335 ( 25) -0.1784 ( 28) -0.1610 ( 29) -0.1784 ( 30) -0.2003 ( 31)
          -0.2004 ( 32)  0.1580 ( 40) -0.1250 ( 41)  0.1520 ( 43)  0.1518 ( 44)
           0.2514 ( 45) -0.2118 ( 62)  0.2119 ( 63)  0.1356 ( 72) -0.1356 ( 73)
 CRD 37=   0.2312 (  4) -0.2309 (  5) -0.2402 (  7)  0.2402 (  8) -0.2108 (  9)
           0.2111 ( 10) -0.1565 ( 12)  0.1559 ( 13)  0.1588 ( 16) -0.1584 ( 17)
          -0.1269 ( 18)  0.1271 ( 19) -0.1127 ( 20)  0.1124 ( 22) -0.1168 ( 43)
           0.1166 ( 44)  0.1200 ( 46) -0.1205 ( 47)  0.1827 ( 53)  0.1088 ( 54)
          -0.2019 ( 66) -0.2018 ( 67) -0.2022 ( 68) -0.2021 ( 69)  0.1754 ( 70)
           0.1759 ( 72)  0.1754 ( 73)  0.1758 ( 75) -0.1357 ( 77) -0.1357 ( 78)
          -0.1357 ( 80) -0.1357 ( 81)
 CRD 38=  -0.3364 (  1)  0.5339 ( 11) -0.2149 ( 16) -0.2163 ( 17)  0.2150 ( 20)
           0.2162 ( 22) -0.1203 ( 33) -0.1204 ( 34) -0.1419 ( 35) -0.1678 ( 38)
          -0.1675 ( 39)  0.2781 ( 48)  0.1336 ( 58) -0.1330 ( 59)  0.1088 ( 76)
           0.2024 ( 78) -0.1085 ( 79) -0.2035 ( 80)
 CRD 39=   0.4026 (  3) -0.1305 (  4) -0.1301 (  5) -0.2610 (  6)  0.1323 (  9)
           0.1299 ( 10) -0.1931 ( 11)  0.1535 ( 12)  0.1570 ( 13) -0.1588 ( 14)
           0.1984 ( 15) -0.1242 ( 24) -0.1230 ( 26) -0.1112 ( 31) -0.1119 ( 32)
           0.1759 ( 40) -0.1880 ( 42) -0.2149 ( 45) -0.1052 ( 46) -0.1033 ( 47)
          -0.1120 ( 56)  0.1124 ( 57) -0.1068 ( 58)  0.1056 ( 59) -0.1431 ( 62)
           0.1438 ( 63) -0.1928 ( 72)  0.1949 ( 73)  0.1698 ( 78) -0.1680 ( 80)
 CRD 40=   0.1883 (  1) -0.1057 (  2)  0.2763 (  3) -0.1771 (  9) -0.1669 ( 10)
           0.2531 ( 11)  0.1089 ( 12) -0.1689 ( 14) -0.2931 ( 15)  0.1011 ( 18)
           0.1016 ( 19) -0.1580 ( 25)  0.2435 ( 42) -0.1485 ( 45)  0.1513 ( 46)
           0.1413 ( 47) -0.1336 ( 48) -0.1370 ( 49)  0.1376 ( 51)  0.1466 ( 58)
          -0.1402 ( 59) -0.1708 ( 72)  0.1617 ( 73) -0.2411 ( 78)  0.1026 ( 79)
           0.2327 ( 80)
 CRD 41=   0.1697 (  7) -0.1679 (  8) -0.1523 (  9)  0.1647 ( 10)  0.2526 ( 12)
          -0.2563 ( 13)  0.2079 ( 16) -0.2126 ( 17) -0.1112 ( 20)  0.1104 ( 22)
           0.1143 ( 24) -0.1110 ( 26)  0.1906 ( 43) -0.1921 ( 44)  0.1528 ( 46)
          -0.1634 ( 47)  0.1087 ( 50)  0.1089 ( 52)  0.2382 ( 53)  0.2711 ( 55)
           0.1088 ( 59) -0.1894 ( 61) -0.1588 ( 70)  0.1272 ( 71) -0.1555 ( 72)
          -0.1613 ( 73)  0.1247 ( 74) -0.1580 ( 75)  0.1000 ( 76) -0.1339 ( 77)
          -0.1247 ( 78) -0.1404 ( 80) -0.1312 ( 81)
 CRD 42=   0.2904 (  2) -0.1698 (  4) -0.1704 (  5) -0.3092 (  6)  0.1576 (  7)
           0.1566 (  8)  0.1554 ( 11)  0.2131 ( 14) -0.1234 ( 25)  0.1135 ( 36)
           0.1136 ( 37)  0.2504 ( 40) -0.2457 ( 41) -0.1190 ( 43) -0.1211 ( 44)
           0.1429 ( 50) -0.1423 ( 52) -0.1035 ( 62)  0.1029 ( 63)  0.1467 ( 64)
          -0.1469 ( 65) -0.2893 ( 67)  0.2895 ( 68)  0.1702 ( 72) -0.1716 ( 73)
 CRD 43=   0.1759 (  4) -0.1757 (  5)  0.1604 ( 12) -0.1603 ( 13) -0.2438 ( 16)
           0.2442 ( 17) -0.1238 ( 18)  0.1240 ( 19) -0.1421 ( 33)  0.1416 ( 34)
          -0.1129 ( 38)  0.1122 ( 39)  0.1193 ( 43) -0.1194 ( 44) -0.1819 ( 46)
           0.1824 ( 47)  0.1353 ( 49)  0.1107 ( 50)  0.1360 ( 51)  0.1104 ( 52)
          -0.1872 ( 53)  0.1854 ( 54)  0.1677 ( 55) -0.2342 ( 60)  0.1295 ( 62)
           0.1294 ( 63)  0.1793 ( 71)  0.1797 ( 74) -0.2645 ( 76) -0.2649 ( 79)
 CRD 44=  -0.2632 (  2)  0.2087 (  3)  0.1046 (  4)  0.1052 (  5) -0.2237 (  6)
           0.2567 ( 14)  0.1140 ( 18)  0.1136 ( 19)  0.1266 ( 23) -0.1684 ( 24)
          -0.1682 ( 26)  0.1029 ( 28) -0.1294 ( 29)  0.1028 ( 30)  0.1685 ( 36)
           0.1680 ( 37) -0.1614 ( 40) -0.1152 ( 43) -0.1153 ( 44)  0.1469 ( 45)
           0.1652 ( 56) -0.1653 ( 57) -0.1635 ( 64)  0.1635 ( 65)  0.2621 ( 66)
          -0.2617 ( 69) -0.2647 ( 70)  0.2645 ( 75)
 CRD 45=  -0.2802 (  1)  0.1494 (  9)  0.1481 ( 10) -0.2615 ( 15)  0.1336 ( 16)
           0.1323 ( 17)  0.1038 ( 20)  0.2123 ( 21)  0.1030 ( 22) -0.1048 ( 33)
          -0.1058 ( 34)  0.2193 ( 35) -0.2207 ( 42) -0.1978 ( 48) -0.2023 ( 49)
           0.2009 ( 51)  0.2044 ( 76)  0.4051 ( 77) -0.2026 ( 79) -0.4052 ( 81)
 CRD 46=   0.1498 (  2)  0.2007 (  3) -0.1001 (  5)  0.1744 (  6) -0.1818 (  7)
          -0.1815 (  8)  0.1432 ( 14) -0.1619 ( 23) -0.2506 ( 27) -0.1700 ( 29)
           0.1451 ( 40)  0.2707 ( 41)  0.1320 ( 45) -0.1632 ( 50)  0.1633 ( 52)
           0.1275 ( 56) -0.1281 ( 57)  0.1258 ( 64) -0.1256 ( 65) -0.2891 ( 66)
           0.2887 ( 69) -0.2951 ( 70) -0.1666 ( 71)  0.1679 ( 74)  0.2949 ( 75)
 CRD 47=  -0.1331 (  7)  0.1337 (  8)  0.1966 (  9) -0.1976 ( 10)  0.1282 ( 12)
          -0.1275 ( 13)  0.1151 ( 16) -0.1156 ( 17)  0.1493 ( 20) -0.1493 ( 22)
           0.1090 ( 28) -0.1095 ( 30)  0.1243 ( 33) -0.1239 ( 34) -0.1105 ( 36)
           0.1106 ( 37)  0.1416 ( 38) -0.1415 ( 39) -0.2333 ( 49) -0.2340 ( 51)
           0.1735 ( 54) -0.1400 ( 56) -0.1390 ( 57) -0.2171 ( 58) -0.2180 ( 59)
           0.1849 ( 61)  0.1930 ( 62)  0.1926 ( 63)  0.1116 ( 64)  0.1124 ( 65)
           0.2010 ( 71)  0.2004 ( 74)  0.2211 ( 76)  0.2220 ( 79)
 CRD 48=  -0.1708 (  4)  0.1707 (  5) -0.1643 (  7)  0.1640 (  8)  0.1044 ( 12)
          -0.1042 ( 13)  0.1282 ( 18) -0.1281 ( 19) -0.1427 ( 24)  0.1428 ( 26)
           0.1101 ( 28) -0.1104 ( 30)  0.1464 ( 31) -0.1464 ( 32) -0.1209 ( 36)
           0.1209 ( 37)  0.1064 ( 49) -0.2428 ( 50)  0.1065 ( 51) -0.2425 ( 52)
          -0.2350 ( 56) -0.2346 ( 57)  0.1968 ( 58)  0.1973 ( 59) -0.2098 ( 62)
          -0.2097 ( 63)  0.2470 ( 64)  0.2471 ( 65)  0.1970 ( 71)  0.1972 ( 74)

 THE DETERMINANT OF THE G MATRIX IS 10**(   -17)


                     --------------------
                     INTERNAL COORDINATES
                     --------------------

                 - - ATOMS - -         COORDINATE      COORDINATE
 NO.   TYPE    I  J  K  L  M  N        (BOHR,RAD)       (ANG,DEG)
 ----------------------------------------------------------------
   1 STRETCH   1  4                     2.6828465       1.4197013
   2 STRETCH   1  2                     2.6818239       1.4191602
   3 STRETCH   2  3                     2.8845683       1.5264479
   4 STRETCH   2  7                     2.0945932       1.1084111
   5 STRETCH   2  8                     2.0946038       1.1084167
   6 STRETCH   3  5                     2.8567254       1.5117141
   7 STRETCH   3  9                     2.0939928       1.1080933
   8 STRETCH   3 10                     2.0940036       1.1080990
   9 STRETCH   4 12                     2.0935855       1.1078778
  10 STRETCH   4 11                     2.0936491       1.1079115
  11 STRETCH   4  6                     2.8666918       1.5169881
  12 STRETCH   5 15                     2.0750676       1.0980786
  13 STRETCH   5 14                     2.0750936       1.0980923
  14 STRETCH   5 13                     2.0741670       1.0976020
  15 STRETCH   6 16                     2.0734222       1.0972079
  16 STRETCH   6 18                     2.0746910       1.0978793
  17 STRETCH   6 17                     2.0747431       1.0979069
  18 BEND      1  2  7                  1.9233018     110.1970750
  19 BEND      1  2  8                  1.9234988     110.2083658
  20 BEND      1  4 11                  1.9201741     110.0178740
  21 BEND      1  4  6                  1.8701087     107.1493336
  22 BEND      1  4 12                  1.9210941     110.0705815
  23 BEND      1  2  3                  1.8686905     107.0680807
  24 BEND      2  3 10                  1.9234948     110.2081363
  25 BEND      2  1  4                  1.9745968     113.1360643
  26 BEND      2  3  9                  1.9231379     110.1876874
  27 BEND      2  3  5                  1.9295441     110.5547359
  28 BEND      3  5 14                  1.9500132     111.7275247
  29 BEND      3  5 13                  1.9399126     111.1488059
  30 BEND      3  5 15                  1.9497904     111.7147602
  31 BEND      3  2  7                  1.9393095     111.1142487
  32 BEND      3  2  8                  1.9388916     111.0903031
  33 BEND      4  6 17                  1.9541411     111.9640361
  34 BEND      4  6 18                  1.9539890     111.9553217
  35 BEND      4  6 16                  1.9243305     110.2560175
  36 BEND      5  3 10                  1.9223648     110.1433907
  37 BEND      5  3  9                  1.9220558     110.1256829
  38 BEND      6  4 11                  1.9409405     111.2076986
  39 BEND      6  4 12                  1.9411830     111.2215923
  40 BEND      7  2  8                  1.8708488     107.1917403
  41 BEND      9  3 10                  1.8414678     105.5083310
  42 BEND     11  4 12                  1.8709191     107.1957661
  43 BEND     13  5 14                  1.8737965     107.3606327
  44 BEND     13  5 15                  1.8737924     107.3603975
  45 BEND     14  5 15                  1.8724974     107.2861990
  46 BEND     16  6 17                  1.8782292     107.6146056
  47 BEND     16  6 18                  1.8780876     107.6064947
  48 BEND     17  6 18                  1.8715170     107.2300231
  49 TORSION   1  4  6 17               1.0519475      60.2721509
  50 TORSION   1  2  3 10              -1.0116372     -57.9625403
  51 TORSION   1  4  6 18              -1.0504819     -60.1881820
  52 TORSION   1  2  3  9               1.0135405      58.0715937
  53 TORSION   1  4  6 16              -3.1407207    -179.9500403
  54 TORSION   1  2  3  5              -3.1409555    -179.9634949
  55 TORSION   2  3  5 13               3.1396435     179.8883199
  56 TORSION   2  3  5 14               1.0469078      59.9834003
  57 TORSION   2  3  5 15              -1.0509619     -60.2156796
  58 TORSION   2  1  4 11               1.0340275      59.2454100
  59 TORSION   2  1  4 12              -1.0239103     -58.6657367
  60 TORSION   2  1  4  6              -3.1369477    -179.7338632
  61 TORSION   3  2  1  4              -3.1403616    -179.9294666
  62 TORSION   4  1  2  8              -1.0295782     -58.9904854
  63 TORSION   4  1  2  7               1.0316476      59.1090507
  64 TORSION   5  3  2  8               1.0412324      59.6582194
  65 TORSION   5  3  2  7              -1.0399552     -59.5850420
  66 TORSION   7  2  3 10               1.0893632      62.4159125
  67 TORSION   7  2  3  9               3.1145409     178.4500465
  68 TORSION   8  2  3 10              -3.1126346    -178.3408261
  69 TORSION   8  2  3  9              -1.0874569     -62.3066921
  70 TORSION   9  3  5 15               1.0783635      61.7856794
  71 TORSION   9  3  5 13              -1.0142164     -58.1103211
  72 TORSION   9  3  5 14              -3.1069521    -178.0152407
  73 TORSION  10  3  5 15               3.1022411     177.7453224
  74 TORSION  10  3  5 13               1.0096611      57.8493219
  75 TORSION  10  3  5 14              -1.0830745     -62.0555976
  76 TORSION  11  4  6 16              -1.0416957     -59.6847648
  77 TORSION  11  4  6 18               1.0485431      60.0770935
  78 TORSION  11  4  6 17              -3.1322128    -179.4625737
  79 TORSION  12  4  6 16               1.0421742      59.7121853
  80 TORSION  12  4  6 18               3.1324130     179.4740436
  81 TORSION  12  4  6 17              -1.0483429     -60.0656235

     ------------------------------------------
     THE POINT GROUP IS C1 , NAXIS= 1, ORDER= 1
     ------------------------------------------

     DIMENSIONS OF THE SYMMETRY SUBSPACES ARE
 A   =  186

 ..... DONE SETTING UP THE RUN .....
 STEP CPU TIME =     0.01 TOTAL CPU TIME =        0.0 (    0.0 MIN)
 TOTAL WALL CLOCK TIME=        0.0 SECONDS, CPU UTILIZATION IS  50.00%


          -----------------------------
          STATIONARY POINT LOCATION RUN
          -----------------------------

 OBTAINING INITIAL HESSIAN, HESS=GUESS   
 DIAGONAL GUESS HESSIAN IN INTERNAL COORDS IS
     1  0.3674     2  0.3678     3  0.3697     4  0.3342     5  0.3342
     6  0.3805     7  0.3344     8  0.3344     9  0.3345    10  0.3345
    11  0.3766    12  0.3410    13  0.3410    14  0.3413    15  0.3415
    16  0.3411    17  0.3411    18  0.2189    19  0.2189    20  0.2189
    21  0.2445    22  0.2189    23  0.2439    24  0.2232    25  0.2389
    26  0.2232    27  0.2500    28  0.2247    29  0.2247    30  0.2247
    31  0.2232    32  0.2232    33  0.2244    34  0.2244    35  0.2244
    36  0.2241    37  0.2241    38  0.2238    39  0.2238    40  0.2016
    41  0.2016    42  0.2016    43  0.2026    44  0.2026    45  0.2026
    46  0.2026    47  0.2026    48  0.2026    49  0.2500    50  0.2500
    51  0.2500    52  0.2500    53  0.2500    54  0.2500    55  0.2500
    56  0.2500    57  0.2500    58  0.2500    59  0.2500    60  0.2500
    61  0.2500    62  0.2500    63  0.2500    64  0.2500    65  0.2500
    66  0.2500    67  0.2500    68  0.2500    69  0.2500    70  0.2500
    71  0.2500    72  0.2500    73  0.2500    74  0.2500    75  0.2500
    76  0.2500    77  0.2500    78  0.2500    79  0.2500    80  0.2500
    81  0.2500
 TRANSFORMING HESSIAN TO SYMMETRY COORDINATES

          PARAMETERS CONTROLLING GEOMETRY SEARCH ARE
          METHOD =QA                  UPHESS =BFGS    
          NNEG   =         0          NFRZ   =         3
          NSTEP  =        50          IFOLOW =         1
          HESS   =GUESS               RESTAR =         F
          IHREP  =         0          HSSEND =         F
          NPRT   =         0          NPUN   =         0
          OPTTOL = 5.000E-04          RMIN   = 1.500E-03
          RMAX   = 1.000E-01          RLIM   = 7.000E-02
          DXMAX  = 3.000E-01          PURIFY =         F
          MOVIE  =         F          TRUPD  =         T
          TRMAX  = 5.000E-01          TRMIN  = 5.000E-02
          ITBMAT =         5          STPT   =         F
          STSTEP = 1.000E-02          PROJCT=          F
          FROZEN COORD(S)=   1   2   3


      ***** EQUILIBRIUM GEOMETRY LOCATED *****
            (SUBJECT TO   3 CONSTRAINT(S))
 COORDINATES OF ALL ATOMS ARE (ANGS)
   ATOM   CHARGE       X              Y              Z
 ------------------------------------------------------------
 O           8.0   3.1056744030   1.7332905764   1.0636009433
 C           6.0   4.4310525307   1.2840848448   1.1121629242
 C           6.0   5.3491385162   2.4818922367   1.2626181026
 C           6.0   2.1503919061   0.7158428916   0.9256606335
 C           6.0   6.8181255534   2.0715611468   1.3218483394
 C           6.0   0.7790743708   1.3566043786   0.8825522208
 H           1.0   4.6706010641   0.7357821308   0.2009123974
 H           1.0   4.5606913498   0.6000556929   1.9510533604
 H           1.0   5.0719098146   3.0210325885   2.1653159372
 H           1.0   5.1798903286   3.1566144816   0.4268624206
 H           1.0   2.2249572114   0.0227748605   1.7626430585
 H           1.0   2.3401107489   0.1518580750   0.0133370670
 H           1.0   7.4601870496   2.9399017105   1.4273461595
 H           1.0   7.1111372885   1.5457834560   0.4168308863
 H           1.0   7.0035351810   1.4127951526   2.1662310772
 H           1.0   0.0081138447   0.6002814235   0.7763419885
 H           1.0   0.7116138384   2.0419602842   0.0430993884
 H           1.0   0.5962084288   1.9132483514   1.7966947134


                     --------------------
                     INTERNAL COORDINATES
                     --------------------

                 - - ATOMS - -         COORDINATE      COORDINATE
 NO.   TYPE    I  J  K  L  M  N        (BOHR,RAD)       (ANG,DEG)
 ----------------------------------------------------------------
   1 STRETCH   1  4                     2.6501963       1.4024236
   2 STRETCH   1  2                     2.6461368       1.4002754
   3 STRETCH   2  3                     2.8660741       1.5166612
   4 STRETCH   2  7                     2.0600587       1.0901362
   5 STRETCH   2  8                     2.0600954       1.0901556
   6 STRETCH   3  5                     2.8844194       1.5263691
   7 STRETCH   3  9                     2.0548469       1.0873782
   8 STRETCH   3 10                     2.0548393       1.0873742
   9 STRETCH   4 12                     2.0583327       1.0892228
  10 STRETCH   4 11                     2.0583643       1.0892396
  11 STRETCH   4  6                     2.8615128       1.5142475
  12 STRETCH   5 15                     2.0539258       1.0868908
  13 STRETCH   5 14                     2.0539458       1.0869014
  14 STRETCH   5 13                     2.0504947       1.0850752
  15 STRETCH   6 16                     2.0507534       1.0852120
  16 STRETCH   6 18                     2.0518534       1.0857942
  17 STRETCH   6 17                     2.0518497       1.0857922
  18 BEND      1  2  7                  1.9180853     109.8981915
  19 BEND      1  2  8                  1.9182791     109.9092972
  20 BEND      1  4 11                  1.9170870     109.8409954
  21 BEND      1  4  6                  1.8888038     108.2204836
  22 BEND      1  4 12                  1.9170649     109.8397274
  23 BEND      1  2  3                  1.8997370     108.8469133
  24 BEND      2  3 10                  1.8960920     108.6380679
  25 BEND      2  1  4                  1.9991855     114.5448916
  26 BEND      2  3  9                  1.8961054     108.6388369
  27 BEND      2  3  5                  1.9542385     111.9696181
  28 BEND      3  5 14                  1.9360451     110.9272145
  29 BEND      3  5 13                  1.9370461     110.9845675
  30 BEND      3  5 15                  1.9361266     110.9318849
  31 BEND      3  2  7                  1.9253079     110.3120167
  32 BEND      3  2  8                  1.9254064     110.3176590
  33 BEND      4  6 17                  1.9234320     110.2045351
  34 BEND      4  6 18                  1.9235539     110.2115190
  35 BEND      4  6 16                  1.9296929     110.5632561
  36 BEND      5  3 10                  1.9245611     110.2692279
  37 BEND      5  3  9                  1.9245722     110.2698663
  38 BEND      6  4 11                  1.9316979     110.6781390
  39 BEND      6  4 12                  1.9315681     110.6707003
  40 BEND      7  2  8                  1.8770807     107.5488046
  41 BEND      9  3 10                  1.8657763     106.9011089
  42 BEND     11  4 12                  1.8778270     107.5915603
  43 BEND     13  5 14                  1.8844694     107.9721438
  44 BEND     13  5 15                  1.8844801     107.9727544
  45 BEND     14  5 15                  1.8835624     107.9201758
  46 BEND     16  6 17                  1.8966349     108.6691759
  47 BEND     16  6 18                  1.8965707     108.6654948
  48 BEND     17  6 18                  1.8931981     108.4722629
  49 TORSION   1  4  6 17               1.0447962      59.8624123
  50 TORSION   1  2  3 10              -1.0108844     -57.9194101
  51 TORSION   1  4  6 18              -1.0441374     -59.8246669
  52 TORSION   1  2  3  9               1.0127887      58.0285207
  53 TORSION   1  4  6 16              -3.1412627    -179.9810940
  54 TORSION   1  2  3  5              -3.1406289    -179.9447787
  55 TORSION   2  3  5 13               3.1395163     179.8810330
  56 TORSION   2  3  5 14               1.0445600      59.8488773
  57 TORSION   2  3  5 15              -1.0486451     -60.0829400
  58 TORSION   2  1  4 11               1.0353661      59.3221066
  59 TORSION   2  1  4 12              -1.0267232     -58.8269088
  60 TORSION   2  1  4  6              -3.1371854    -179.7474807
  61 TORSION   3  2  1  4              -3.1408975    -179.9601694
  62 TORSION   4  1  2  8              -1.0304408     -59.0399105
  63 TORSION   4  1  2  7               1.0320713      59.1333289
  64 TORSION   5  3  2  8               1.0364792      59.3858842
  65 TORSION   5  3  2  7              -1.0348510     -59.2925967
  66 TORSION   7  2  3 10               1.0948934      62.7327719
  67 TORSION   7  2  3  9               3.1185666     178.6807027
  68 TORSION   8  2  3 10              -3.1169616    -178.5887471
  69 TORSION   8  2  3  9              -1.0932885     -62.6408164
  70 TORSION   9  3  5 15               1.0647504      61.0057033
  71 TORSION   9  3  5 13              -1.0302735     -59.0303236
  72 TORSION   9  3  5 14              -3.1252298    -179.0624793
  73 TORSION  10  3  5 15               3.1211695     178.8298376
  74 TORSION  10  3  5 13               1.0261456      58.7938106
  75 TORSION  10  3  5 14              -1.0688108     -61.2383451
  76 TORSION  11  4  6 16              -1.0397227     -59.5717213
  77 TORSION  11  4  6 18               1.0574026      60.5847059
  78 TORSION  11  4  6 17              -3.1368491    -179.7282150
  79 TORSION  12  4  6 16               1.0404881      59.6155759
  80 TORSION  12  4  6 18               3.1376134     179.7720031
  81 TORSION  12  4  6 17              -1.0566383     -60.5409178

          INTERNUCLEAR DISTANCES (ANGS.)


 =====================================================
   GAMESS/COSab RESULTS
 =====================================================

   Dielectric Constant                  = INFTY
   Basic Grid Size                      =                 1082
   Number of Segments                   =                   92
   Number of Segments located on spheres=                  252
   Number of Segments of the cavity     =                  653
   Solvent Radius (rsolv)               = 1.40
   Outlying Charge Error Method         = double cavity

 =====================================================

  Total solvated Energy (a.u.)          =  -271.2575884845
  Total Energy corrected (a.u.)         =  -271.2574030342

  Outlying charge effect (a.u.)         =     0.0001854503
  Outlying charge effect (kcal/mol)     =     0.1163719252

  Dielectric Energy (a.u.)              =    -0.0063119646
  Dielectric energy corr. (a.u.)        =    -0.0061265143

  Sum of polarization charges           =     0.0277242543
  Sum of polarization charges(cor.)     =    -0.0277242543

  Total surface area of cavity (A**2)   =  148.33
  Total volume of cavity (A**3)         =  133.54

 =====================================================
 NPS=                   653
NR.  ATOM  (X, Y, Z)(a.u.)                  CHARGE(e)  AREA(A**2) SIGMA(e/A**2)
   1   1   5.427303   5.638194  -0.178023   0.003710   0.171795   0.021595
   2   1   5.200194   6.142012   3.388401   0.006425   0.274871   0.023374
   3   1   4.903505   6.283163   2.775593   0.003521   0.171795   0.020495
   4   1   5.172880   6.214362   0.808677   0.003162   0.137436   0.023007
   5   1   5.107884   6.433330   2.124973   0.003254   0.240512   0.013531
   6   1   5.071569   5.566102   4.173650   0.005263   0.240512   0.021884
   7   1   5.083824   4.281099   4.999382   0.002671   0.137436   0.019432
   8   1   5.519966   4.560292  -0.955233   0.002172   0.103077   0.021067
   9   1   5.423424   6.027675   0.339157   0.003138   0.137436   0.022832
  10   1   5.674010   4.291733   5.091107   0.002166   0.103077   0.021009
  11   1   5.482620   3.600679   5.220771   0.002732   0.171795   0.015904
  12   1   6.064622   4.478802  -1.003106   0.001979   0.103077   0.019199
  13   1   5.668531   5.108795  -0.666529   0.002994   0.137436   0.021788
  14   1   4.806427   6.286470   1.402024   0.003060   0.137436   0.022262
  15   1   5.564060   6.456283   1.414968   0.002974   0.137436   0.021639
  16   1   5.231824   4.950061   4.721812   0.003133   0.137436   0.022796
  17   1   5.918268   3.883183  -1.182718   0.001758   0.137436   0.012789
  18   2   7.669318   3.690034  -1.390033   0.000244   0.139368   0.001753
  19   2   8.429951  -1.351629   2.181451   0.001013   0.371649   0.002726
  20   2   7.868110   2.717411   5.835881   0.000189   0.139368   0.001360
  21   2   7.195683   3.301743   5.584653   0.000216   0.139368   0.001552
  22   2   8.686038  -1.248437   1.276471   0.000639   0.278737   0.002294
  23   2  10.815507  -0.290357   1.132599  -0.000094   0.046456  -0.002030
  24   2   7.689425   2.972737  -1.575007   0.000225   0.185824   0.001210
  25   2  10.479367  -0.708344   2.249550   0.000183   0.232280   0.000787
  26   2   9.673213  -1.122339   2.117889   0.000988   0.371649   0.002658
  27   2   7.137421   2.541280   5.671449   0.000282   0.185824   0.001515
  28   2  10.269221  -0.767735   1.403900   0.000179   0.139368   0.001285
  29   2   8.421376   3.332620  -1.567247   0.000159   0.139368   0.001139
  30   3  11.387630   8.235625   2.663484   0.000352   0.185824   0.001893
  31   3   7.984325   7.803344   2.102807   0.001207   0.278737   0.004330
  32   3  10.598362   4.291172  -1.340259   0.000087   0.092912   0.000934
  33   3   8.296007   7.955727   2.964876   0.000818   0.185824   0.004404
  34   3  10.667411   8.297711   3.364178   0.000970   0.325193   0.002983
  35   3   9.785686   3.775915   6.039006   0.000066   0.139368   0.000477
  36   3  11.447038   7.921488   3.817913   0.000449   0.232280   0.001934
  37   3  10.432630   8.451861   2.218088   0.001242   0.371649   0.003341
  38   3   8.952622   8.288467   2.396269   0.001433   0.278737   0.005140
  39   3   7.574598   7.435564   2.957381   0.000817   0.185824   0.004395
  40   3  11.544746   8.109047   1.656700   0.000702   0.325193   0.002160
  41   3  10.225376   4.419744  -1.381949   0.000035   0.046456   0.000751
  42   3   9.650233   8.396786   2.964564   0.001196   0.278737   0.004291
  43   3  10.311923   3.964779   6.089622   0.000059   0.046456   0.001266
  44   4   4.172048   2.402032   5.378512   0.000225   0.139368   0.001613
  45   4   2.283236  -1.969531   1.471993  -0.000435   0.232280  -0.001874
  46   4   5.812078  -1.960858   1.252024   0.000957   0.371649   0.002574
  47   4   4.271235   2.262220  -1.913261   0.000178   0.139368   0.001275
  48   4   4.590345   3.064217  -1.579065   0.000194   0.139368   0.001391
  49   4   5.561598  -2.093404   2.154746   0.000601   0.278737   0.002157
  50   4   2.894332  -2.225088   2.089925  -0.000239   0.325193  -0.000734
  51   4   4.500994   1.746222   5.482639   0.000215   0.185824   0.001156
  52   4   2.031017  -1.688758   2.698956  -0.000383   0.232280  -0.001651
  53   4   3.333830  -2.278736   0.998283   0.000008   0.325193   0.000025
  54   4   4.657187  -2.347013   1.255568   0.000799   0.325193   0.002458
  55   4   2.399829  -1.818872   0.542272  -0.000260   0.278737  -0.000935
  56   4   5.001600   2.438287  -1.747329   0.000259   0.185824   0.001393
  57   4   3.934391  -2.424123   1.802142   0.000375   0.278737   0.001345
  58   4   3.686078   1.712419   5.492561   0.000146   0.139368   0.001047
  59   4   2.178729  -1.338583  -0.118391  -0.000181   0.139368  -0.001297
  60   5  14.901228   4.390719   5.658631   0.001031   0.232280   0.004440
  61   5  16.574470   3.177333   2.146009   0.000842   0.371649   0.002266
  62   5  14.816806   5.157211  -0.503094   0.001662   0.371649   0.004473
  63   5  13.080309   0.160893   2.891450   0.000489   0.139368   0.003506
  64   5  13.174221   7.339558   0.926135   0.000084   0.092912   0.000905
  65   5  15.147177   5.787993   0.119953   0.001106   0.278737   0.003968
  66   5  16.639183   4.299521   2.303827   0.001137   0.418105   0.002719
  67   5  14.984045   5.180222   5.374412   0.001607   0.371649   0.004325
  68   5  13.097906   6.713917   5.028350   0.000476   0.232280   0.002048
  69   5  14.498471   0.498988   2.607280   0.001565   0.325193   0.004813
  70   5  14.264560   0.452606   1.870767   0.000996   0.232280   0.004286
  71   5  13.114562   5.666112   5.839162   0.000906   0.325193   0.002787
  72   5  13.896762   4.913479   5.999616   0.001290   0.325193   0.003967
  73   5  15.830719   4.015797   4.862921   0.002333   0.511017   0.004565
  74   5  16.515766   3.492435   3.456603   0.001145   0.418105   0.002738
  75   5  16.346014   3.657419   1.002870   0.001516   0.418105   0.003626
  76   5  15.724944   4.623162   0.107625   0.001626   0.325193   0.005000
  77   5  14.055876   6.167802  -0.301241   0.001057   0.325193   0.003252
  78   5  13.318061   6.546925  -0.179292   0.000349   0.139368   0.002504
  79   5  12.001667   3.978049   6.172310   0.000116   0.092912   0.001250
  80   5  15.583284   1.337817   3.097874   0.001237   0.371649   0.003329
  81   5  16.265846   2.261934   2.842008   0.001139   0.464561   0.002452
  82   5  16.191005   2.363568   1.526052   0.000859   0.325193   0.002642
  83   5  13.798697   5.175472  -0.945718   0.000866   0.278737   0.003106
  84   5  12.676737   4.845358  -1.159252   0.000306   0.185824   0.001649
  85   5  13.228362   0.179140   2.037948   0.001612   0.371649   0.004336
  86   5  13.755641   6.858505   0.293586   0.000329   0.139368   0.002359
  87   5  16.254204   4.650316   0.952794   0.001281   0.325193   0.003940
  88   5  16.348937   4.298653   3.958664   0.000909   0.278737   0.003263
  89   5  13.937231   5.948440   5.504534   0.000736   0.232280   0.003167
  90   5  15.558047   1.290591   1.998040   0.001539   0.418105   0.003680
  91   5  12.778936   4.569306   6.218769   0.000868   0.325193   0.002669
  92   5  16.076181   2.665318   4.090345   0.000990   0.371649   0.002665
  93   5  13.196820   5.643776  -0.848246   0.000586   0.232280   0.002521
  94   6  -1.031417   2.025503   4.447406   0.000982   0.232280   0.004227
  95   6  -1.978776   3.941149   0.977049   0.000696   0.371649   0.001872
  96   6  -0.032937   1.988741  -1.751029   0.001463   0.371649   0.003938
  97   6   2.454124   6.009141   2.871315   0.000106   0.046456   0.002286
  98   6   1.896868   6.209454   2.568772   0.000702   0.185824   0.003778
  99   6   2.511564   6.158717   1.139274   0.000283   0.092912   0.003049
 100   6  -0.669742   1.412889  -1.225664   0.000960   0.278737   0.003443
 101   6  -2.229587   2.834340   0.955459   0.000879   0.418105   0.002103
 102   6  -1.186758   1.303865   4.039899   0.001440   0.371649   0.003875
 103   6   0.497437  -0.540261   3.591302   0.000132   0.185824   0.000710
 104   6   0.478302   6.186560   2.080798   0.001609   0.371649   0.004330
 105   6   0.720770   6.258019   1.401483   0.000918   0.232280   0.003953
 106   6   0.471502   0.257446   4.489892   0.000552   0.278737   0.001981
 107   6  -0.110663   1.240558   4.834502   0.001336   0.371649   0.003594
 108   6  -1.769921   2.648467   3.608238   0.002137   0.511017   0.004183
 109   6  -2.158518   3.454661   2.222607   0.000937   0.418105   0.002241
 110   6  -1.763793   3.517501  -0.035871   0.001236   0.371649   0.003326
 111   6  -0.895660   2.486267  -1.276934   0.001483   0.325193   0.004560
 112   6   0.403696   0.914956  -1.560909   0.000884   0.325193   0.002717
 113   6   1.052232   0.406349  -1.406972   0.000245   0.139368   0.001761
 114   6  -0.878057   5.453033   2.309320   0.001183   0.371649   0.003182
 115   6  -1.644056   4.695479   1.835285   0.000957   0.464561   0.002061
 116   6  -1.393960   4.753072   0.538441   0.000778   0.325193   0.002392
 117   6   0.983469   1.982153  -2.034559   0.000585   0.232280   0.002518
 118   6   2.071941   2.089936  -2.033613   0.000129   0.185824   0.000693
 119   6   1.910258   6.316754   1.747412   0.001668   0.371649   0.004488
 120   6   0.591298  -0.026986  -0.939330   0.000196   0.185824   0.001057
 121   6  -1.656717   2.556989  -0.452086   0.000997   0.278737   0.003578
 122   6  -2.186636   2.574130   2.614728   0.000725   0.278737   0.002599
 123   6  -0.294124   0.362581   4.181663   0.000610   0.232280   0.002626
 124   6  -0.686168   5.636575   1.240680   0.001379   0.418105   0.003297
 125   6   1.019501   1.320181   5.207992   0.000743   0.371649   0.002000
 126   6  -1.699535   4.108991   3.022715   0.000937   0.371649   0.002521
 127   6  -1.247685   3.351767  -0.835235   0.000755   0.232280   0.003249
 128   6   1.400729   1.355412  -1.912646   0.000388   0.232280   0.001672
 129   7   9.046126   0.022628  -1.649094  -0.001770   0.353299  -0.005009
 130   7   8.453785   1.876116  -1.999521  -0.000956   0.333671  -0.002865
 131   7   9.041280  -1.000280  -0.143199  -0.000776   0.333671  -0.002326
 132   7  10.190416  -0.609432  -0.038076  -0.001102   0.314043  -0.003509
 133   7   9.577902   1.726411  -1.934872  -0.002091   0.451437  -0.004632
 134   7   8.598072   0.838576  -2.003304  -0.001847   0.372926  -0.004953
 135   7   8.759303  -0.623396  -1.025746  -0.001445   0.294415  -0.004908
 136   7   9.970635  -0.340708  -0.935051  -0.001885   0.372926  -0.005053
 137   7  10.037455   0.589227  -1.601736  -0.001980   0.333671  -0.005935
 138   8   9.147329  -0.469692   5.471273  -0.001684   0.333671  -0.005048
 139   8   7.818555   1.181872   6.009244  -0.001014   0.294415  -0.003446
 140   8   8.909366   1.426221   6.108750  -0.001193   0.333671  -0.003576
 141   8   9.569810  -1.123473   3.871636  -0.000775   0.353299  -0.002195
 142   8   8.149563   0.311309   5.953798  -0.001620   0.353299  -0.004586
 143   8   9.410092   0.449982   5.909712  -0.002024   0.353299  -0.005729
 144   8   9.869153  -0.697110   4.744366  -0.002214   0.392554  -0.005639
 145   8   8.549097  -1.260067   4.233799  -0.001636   0.431809  -0.003788
 146   8   8.234800  -0.633667   5.349339  -0.001833   0.333671  -0.005494
 147   9   8.992041   6.956905   6.123267  -0.002785   0.549575  -0.005067
 148   9  10.493731   6.203392   6.319844  -0.000844   0.294415  -0.002867
 149   9   9.052642   5.020355   6.389258  -0.000993   0.353299  -0.002811
 150   9   8.434830   7.841062   4.500930  -0.000693   0.372926  -0.001859
 151   9  10.424135   7.816086   5.035279  -0.000691   0.353299  -0.001955
 152   9   9.733082   5.677775   6.543803  -0.001585   0.451437  -0.003512
 153   9   8.163316   5.908101   6.085748  -0.002128   0.510320  -0.004169
 154   9   7.867375   7.090097   5.177627  -0.002079   0.510320  -0.004075
 155   9   9.315659   7.952795   5.055128  -0.001464   0.471065  -0.003107
 156   9  10.370297   7.170108   5.903655  -0.001623   0.490692  -0.003307
 157  10   9.727596   7.414655  -1.175847  -0.002238   0.451437  -0.004957
 158  10   8.706044   6.056207  -1.396744  -0.001248   0.333671  -0.003740
 159  10  10.526272   5.984862  -1.536543  -0.000842   0.333671  -0.002524
 160  10  10.980231   7.775446  -0.350009  -0.001223   0.392554  -0.003116
 161  10   9.223074   8.351964   0.671219  -0.000574   0.333671  -0.001719
 162  10   8.164422   7.719620   0.241862  -0.001127   0.431809  -0.002610
 163  10   9.622146   6.026794  -1.643580  -0.001324   0.412182  -0.003213
 164  10  10.879988   6.999021  -1.136296  -0.001181   0.392554  -0.003008
 165  10  10.251374   8.282547   0.135434  -0.001270   0.451437  -0.002813
 166  10   9.059368   8.006750  -0.348844  -0.001477   0.353299  -0.004182
 167  10   8.472879   7.072976  -0.947411  -0.002206   0.451437  -0.004886
 168  11   4.111165  -1.538023   5.208856  -0.002294   0.431809  -0.005312
 169  11   2.937323  -0.601820   5.334264  -0.001086   0.294415  -0.003689
 170  11   4.450012   0.370656   5.753213  -0.000962   0.314043  -0.003065
 171  11   5.064053  -2.249182   3.536162  -0.001099   0.392554  -0.002800
 172  11   2.966589  -2.018218   3.834699  -0.001198   0.353299  -0.003392
 173  11   3.663102  -0.194764   5.715322  -0.001588   0.412182  -0.003853
 174  11   4.873419  -0.779599   5.546996  -0.002113   0.392554  -0.005384
 175  11   5.151496  -1.833299   4.602842  -0.002092   0.412182  -0.005076
 176  11   4.004050  -2.326621   3.947077  -0.001799   0.451437  -0.003984
 177  11   2.940378  -1.514554   4.748976  -0.001827   0.451437  -0.004047
 178  12   4.571702  -1.061340  -2.022907  -0.002059   0.392554  -0.005244
 179  12   5.040984   0.969548  -2.252128  -0.001048   0.294415  -0.003561
 180  12   4.006585   0.659880  -2.367142  -0.000995   0.333671  -0.002983
 181  12   3.082388  -1.129056  -1.469768  -0.001404   0.333671  -0.004209
 182  12   4.731281  -2.084751  -0.535542  -0.001107   0.372926  -0.002969
 183  12   5.125484   0.040778  -2.315694  -0.001780   0.372926  -0.004773
 184  12   3.545026  -0.355410  -2.177760  -0.001868   0.471065  -0.003965
 185  12   4.112207  -1.687052  -1.403858  -0.001418   0.294415  -0.004816
 186  12   5.609411  -1.706764  -0.781344  -0.001703   0.431809  -0.003944
 187  12   5.539595  -0.921089  -1.798803  -0.001960   0.353299  -0.005548
 188  12   3.538612  -1.876577  -0.732067  -0.000772   0.274788  -0.002809
 189  13  15.578707   7.508492   2.864690  -0.003535   0.588831  -0.006004
 190  13  15.419514   6.419952   4.579003  -0.000794   0.372926  -0.002129
 191  13  13.983925   7.594450   4.063035  -0.001007   0.353299  -0.002849
 192  13  14.122968   7.822396   1.750636  -0.001129   0.353299  -0.003197
 193  13  15.724892   6.644382   1.213375  -0.000853   0.372926  -0.002288
 194  13  16.529264   5.833572   2.910414  -0.001039   0.412182  -0.002520
 195  13  14.918743   7.314736   4.202771  -0.002038   0.490692  -0.004152
 196  13  14.204574   7.999970   2.918151  -0.002031   0.490692  -0.004140
 197  13  15.035066   7.472534   1.479958  -0.001804   0.471065  -0.003829
 198  13  16.286199   6.487243   2.082698  -0.001857   0.471065  -0.003942
 199  13  16.134000   6.386588   3.791877  -0.001928   0.490692  -0.003928
 200  14  14.381264   1.848064  -1.210831  -0.002525   0.471065  -0.005361
 201  14  13.578139   0.554526   0.143634  -0.001105   0.353299  -0.003127
 202  14  15.129696   1.212461   0.283568  -0.000803   0.353299  -0.002273
 203  14  15.345392   3.131143  -0.746315  -0.000814   0.372926  -0.002184
 204  14  13.515372   3.636043  -1.561337  -0.000828   0.372926  -0.002221
 205  14  13.349429   1.334173  -1.085505  -0.002379   0.412182  -0.005772
 206  14  14.352051   0.843242  -0.151607  -0.001489   0.392554  -0.003792
 207  14  15.420805   2.042314  -0.366294  -0.001634   0.471065  -0.003469
 208  14  14.527969   3.194166  -1.396952  -0.001701   0.471065  -0.003611
 209  14  13.101088   2.618373  -1.626813  -0.002405   0.490692  -0.004900
 210  15  14.038203   1.278102   5.951741  -0.002417   0.451437  -0.005353
 211  15  13.403136   0.228532   4.310228  -0.000948   0.353299  -0.002684
 212  15  12.525872   2.621908   6.445243  -0.001212   0.353299  -0.003429
 213  15  14.484312   2.924708   6.193285  -0.000798   0.372926  -0.002140
 214  15  15.240724   1.515715   4.917767  -0.000980   0.412182  -0.002379
 215  15  13.214173   0.565920   5.361792  -0.002259   0.431809  -0.005232
 216  15  12.770377   1.456784   6.178780  -0.002429   0.431809  -0.005626
 217  15  13.518604   2.627540   6.533411  -0.001540   0.431809  -0.003566
 218  15  14.920254   2.110674   5.791105  -0.001520   0.431809  -0.003520
 219  15  14.494672   0.625956   4.613584  -0.001534   0.510320  -0.003007
 220  16  -1.744325  -0.551272   1.155147  -0.003821   0.588831  -0.006489
 221  16  -1.678826   0.266044   3.019774  -0.000976   0.372926  -0.002618
 222  16  -0.371214  -1.053732   2.514871  -0.001208   0.353299  -0.003419
 223  16  -0.203690  -0.955967   0.195203  -0.001355   0.353299  -0.003834
 224  16  -1.520045   0.530351  -0.353059  -0.001036   0.372926  -0.002779
 225  16  -2.435497   1.237962   1.333832  -0.001275   0.412182  -0.003093
 226  16  -1.265205  -0.643366   2.578354  -0.002293   0.490692  -0.004673
 227  16  -0.479702  -1.266331   1.303704  -0.002160   0.490692  -0.004401
 228  16  -1.005360  -0.427959  -0.130561  -0.002057   0.471065  -0.004366
 229  16  -2.172880   0.665097   0.453868  -0.002122   0.471065  -0.004504
 230  16  -2.258286   0.518329   2.164351  -0.002199   0.490692  -0.004481
 231  17   1.006383   5.395485  -1.805082  -0.003212   0.549575  -0.005844
 232  17   2.653021   4.719933  -1.811127  -0.001283   0.314043  -0.004085
 233  17   2.015338   6.197671  -0.257379  -0.001019   0.353299  -0.002885
 234  17   0.029468   5.886243  -0.359412  -0.000902   0.353299  -0.002553
 235  17  -0.314190   4.190970  -1.699737  -0.000861   0.372926  -0.002309
 236  17   1.505698   3.467433  -2.338478  -0.000963   0.353299  -0.002725
 237  17   2.214179   5.690189  -1.305982  -0.002313   0.431809  -0.005356
 238  17   1.018257   6.224138  -0.495943  -0.001805   0.490692  -0.003678
 239  17  -0.258963   5.224003  -1.183165  -0.001861   0.490692  -0.003792
 240  17   0.574231   4.076269  -2.241062  -0.001835   0.471065  -0.003896
 241  17   1.978831   4.360247  -2.238357  -0.001812   0.412182  -0.004396
 242  18   0.644337   4.885582   5.442063  -0.003461   0.588831  -0.005878
 243  18   1.000929   6.027016   3.846919  -0.000833   0.353299  -0.002358
 244  18   2.078770   5.082611   5.120443  -0.001519   0.314043  -0.004838
 245  18   1.609334   3.251744   5.776392  -0.001128   0.353299  -0.003194
 246  18  -0.393544   3.288934   5.297201  -0.000862   0.372926  -0.002311
 247  18  -0.762627   4.969367   4.190726  -0.001052   0.412182  -0.002553
 248  18   1.679959   5.728971   4.518787  -0.001704   0.412182  -0.004135
 249  18   1.870020   4.257571   5.646992  -0.002020   0.392554  -0.005146
 250  18   0.602163   3.366472   5.782299  -0.001825   0.471065  -0.003874
 251  18  -0.612924   4.268876   5.002133  -0.001838   0.471065  -0.003902
 252  18   0.103687   5.660859   4.292596  -0.001859   0.490692  -0.003789
 253   1   5.747137   2.700982   5.227029   0.000776   0.056313   0.013773
 254   2   6.181422   2.543882   5.299778   0.000478   0.056313   0.008491
 255   4   5.429976   2.356650   5.238266   0.000536   0.056313   0.009509
 256   1   6.152752   3.197813  -1.247102   0.000770   0.056313   0.013678
 257   2   6.594184   3.049468  -1.288427   0.000528   0.056313   0.009383
 258   4   5.842730   2.862226  -1.349811   0.000481   0.056313   0.008540
 259   1   6.678570   4.147285   5.182921   0.001101   0.093950   0.011720
 260   2   7.108754   4.028046   5.326558   0.000474   0.093950   0.005043
 261   9   7.504488   4.645695   5.443892   0.000210   0.093950   0.002235
 262   1   7.058690   4.615997  -0.865908   0.001300   0.093984   0.013831
 263   2   7.504556   4.516030  -0.971366   0.000474   0.093984   0.005041
 264  10   7.905222   5.140903  -0.942060   0.000115   0.093984   0.001222
 265   2   6.732179   3.306767   5.399898   0.001135   0.189083   0.006004
 266   1   6.035359   3.290222   5.250546   0.002276   0.172813   0.013170
 267   2   7.077725   3.606743  -1.255728   0.001068   0.189886   0.005623
 268   1   6.508918   4.002317  -1.086715   0.002421   0.173547   0.013951
 269   1   6.468711   6.413908   3.416333   0.001318   0.060730   0.021696
 270   3   7.161553   6.814939   3.543163   0.000283   0.060730   0.004660
 271   9   7.276395   6.835213   3.824558   0.000071   0.060730   0.001170
 272   1   6.607448   6.588349   1.193678   0.001140   0.060793   0.018752
 273   3   7.306764   6.997417   1.217513   0.000306   0.060793   0.005034
 274  10   7.455037   7.059753   0.958833   0.000158   0.060793   0.002596
 275   3   7.112520   7.097196   1.747274   0.001677   0.295700   0.005671
 276   3   7.033245   6.997591   3.015532   0.001587   0.295700   0.005367
 277   1   6.037512   6.517710   2.275085   0.009161   0.540869   0.016937
 278   1   4.640904   4.011800  -1.064135   0.001082   0.094626   0.011430
 279   4   4.314448   3.719767  -1.233726   0.000440   0.094626   0.004647
 280  17   3.660744   4.080927  -1.296643   0.000143   0.094626   0.001513
 281   1   4.243161   3.567157   4.971600   0.001250   0.094643   0.013204
 282   4   3.900185   3.256647   5.052655   0.000440   0.094643   0.004651
 283  18   3.240497   3.611258   5.081669   0.000056   0.094643   0.000593
 284   4   4.731235   2.624652   5.251409   0.001094   0.194808   0.005617
 285   1   5.036202   3.263391   5.143490   0.002392   0.178052   0.013432
 286   4   4.991533   3.278871  -1.377248   0.001129   0.190005   0.005940
 287   1   5.617990   3.578586  -1.210952   0.002085   0.173659   0.012005
 288   1   3.843415   5.858160   0.813784   0.001302   0.057569   0.022622
 289   6   3.045025   5.897748   0.703445   0.000271   0.057569   0.004713
 290  17   2.910516   5.886713   0.431486   0.000036   0.057569   0.000631
 291   1   3.679937   5.676347   3.293520   0.001114   0.057588   0.019336
 292   6   2.873631   5.707122   3.303186   0.000294   0.057588   0.005103
 293  18   2.704962   5.657951   3.550805   0.000118   0.057588   0.002041
 294   6   2.991656   5.970835   2.746439   0.001837   0.336963   0.005451
 295   6   3.086836   6.076651   1.303150   0.001841   0.336963   0.005464
 296   1   4.201057   6.025889   2.101570   0.010919   0.619349   0.017630
 297   9   7.213594   6.765901   4.307433   0.000444   0.277793   0.001598
 298   9   7.359808   5.722722   5.265809  -0.000131   0.560641  -0.000234
 299   1   6.018884   5.802267   4.212585   0.009871   0.683530   0.014441
 300   1   6.275784   4.599485   5.159976   0.004005   0.344921   0.011610
 301  10   7.892216   5.783988  -0.969398  -0.000025   0.278377  -0.000092
 302  10   7.532995   6.749390   0.018417   0.000210   0.561858   0.000374
 303   1   6.480060   5.485377  -0.438966   0.009499   0.684920   0.013869
 304   1   6.173910   6.457427   0.736589   0.004714   0.345633   0.013638
 305  17   2.970640   5.899901  -0.036028   0.000293   0.265395   0.001105
 306  17   3.285889   5.039725  -1.035779  -0.000297   0.534824  -0.000555
 307   1   4.486648   5.617584   0.016459   0.009288   0.654201   0.014197
 308   1   4.783076   4.578533  -0.993242   0.003786   0.329887   0.011478
 309  18   2.942718   4.157883   5.192771  -0.000102   0.265593  -0.000385
 310  18   2.787464   5.244313   4.394615   0.000160   0.535234   0.000298
 311   1   4.332902   4.609602   4.698665   0.008505   0.654678   0.012991
 312   1   4.127925   5.707352   3.727523   0.004615   0.330131   0.013978
 313   2   9.436334   3.272393  -1.433138  -0.000070   0.026954  -0.002579
 314   3   9.731002   3.658867  -1.342070  -0.000046   0.026954  -0.001695
 315   7   9.459359   2.978026  -1.508435  -0.000086   0.026954  -0.003173
 316   2   8.980777   2.709348   5.828772  -0.000071   0.026949  -0.002619
 317   3   9.280740   3.102365   5.835437  -0.000049   0.026949  -0.001825
 318   8   8.997049   2.406689   5.860255  -0.000109   0.026949  -0.004047
 319   2   8.765178   3.438493   5.831598  -0.000023   0.028761  -0.000803
 320   3   9.060387   3.824898   5.921518  -0.000041   0.028761  -0.001433
 321   9   9.019486   4.116668   5.994302  -0.000076   0.028761  -0.002632
 322   2   9.211426   3.998592  -1.350318  -0.000018   0.028763  -0.000618
 323   3   9.511734   4.391398  -1.342466  -0.000029   0.028763  -0.001025
 324  10   9.477288   4.691285  -1.373788  -0.000044   0.028763  -0.001515
 325   3   9.204065   3.571330   5.937834   0.000020   0.070445   0.000279
 326   2   8.842632   2.959692   5.867390  -0.000003   0.070445  -0.000036
 327   3   9.728957   4.088141  -1.379292   0.000026   0.071348   0.000365
 328   2   9.231413   3.580876  -1.450122   0.000001   0.071348   0.000020
 329   2   7.062599   2.246094  -1.474822  -0.000064   0.061689  -0.001038
 330   4   6.312193   2.049068  -1.463521   0.000080   0.061689   0.001291
 331   7   7.248458   2.014509  -1.549244  -0.000225   0.061689  -0.003653
 332   2   7.569328  -1.218399   2.882817  -0.000095   0.061718  -0.001536
 333   4   6.805657  -1.334317   2.809138  -0.000131   0.061718  -0.002129
 334   8   7.661268  -1.194037   3.173807  -0.000202   0.061718  -0.003271
 335   2   6.156556   1.604703   5.306884   0.000084   0.061531   0.001359
 336   4   5.403442   1.418363   5.318900  -0.000065   0.061531  -0.001062
 337  11   5.351653   1.120129   5.361576  -0.000228   0.061531  -0.003705
 338   2   7.211458  -1.104980   0.673988  -0.000124   0.061712  -0.002006
 339   4   6.482780  -1.358756   0.592188  -0.000099   0.061712  -0.001603
 340  12   6.383072  -1.348447   0.303390  -0.000208   0.061712  -0.003365
 341   4   5.379239   1.822705   5.391310   0.000465   0.168988   0.002754
 342   2   6.419620   2.217067   5.471363   0.000508   0.168988   0.003005
 343   4   5.784090   2.480732  -1.564627   0.000504   0.170684   0.002950
 344   2   6.888950   2.621372  -1.500034   0.000471   0.170684   0.002759
 345   4   6.529960  -1.515905   1.491518  -0.000307   0.512108  -0.000600
 346   2   7.576783  -1.278359   1.970585  -0.000283   0.512108  -0.000553
 347   2  11.078929  -0.008331   0.950101  -0.000182   0.066018  -0.002756
 348   5  11.834867   0.326035   1.043462  -0.000095   0.066018  -0.001433
 349   7  10.974357  -0.009451   0.662232  -0.000322   0.066018  -0.004874
 350   2  10.938795  -0.181443   3.193190  -0.000234   0.065974  -0.003546
 351   5  11.697227   0.156094   3.246128  -0.000117   0.065974  -0.001767
 352   8  10.799146  -0.225770   3.462156  -0.000345   0.065974  -0.005231
 353   5  12.239898   0.169762   2.372322   0.000333   0.564600   0.000590
 354   2  11.141286  -0.169893   1.870757  -0.000937   0.564600  -0.001659
 355   2   7.663744  -1.011164   0.540076  -0.000156   0.083248  -0.001872
 356   7   7.790489  -0.955434   0.265413  -0.000293   0.083248  -0.003517
 357  12   6.797333  -1.126932   0.196522  -0.000178   0.083248  -0.002136
 358   7   7.953348   2.208630  -1.745832  -0.000357   0.091259  -0.003910
 359   7   9.000913   2.621307  -1.718758  -0.000288   0.091259  -0.003161
 360   2   8.339695   2.753041  -1.567641  -0.000853   0.187681  -0.004544
 361   7  10.389400  -0.481904   0.513463  -0.000363   0.087154  -0.004160
 362   7   9.102599  -0.951073   0.457490  -0.000874   0.205079  -0.004264
 363   2   9.922968  -0.718324   0.937305  -0.000602   0.181473  -0.003319
 364   2   8.469228  -1.105870   0.788334  -0.000129   0.106478  -0.001215
 365   2   6.620849   1.564938   5.410359  -0.000086   0.083403  -0.001031
 366   8   6.793757   1.321101   5.482943  -0.000302   0.083403  -0.003623
 367  11   5.826228   1.067946   5.329718  -0.000126   0.083403  -0.001512
 368   8   8.520310   2.026733   5.954863  -0.000266   0.091031  -0.002927
 369   8   7.483504   1.626937   5.789090  -0.000333   0.091031  -0.003661
 370   2   7.882907   2.187833   5.745623  -0.000855   0.187343  -0.004562
 371   8   8.390553  -1.265505   3.290471  -0.000231   0.087328  -0.002651
 372   8   9.719344  -0.926401   3.361637  -0.001064   0.205618  -0.005174
 373   2   8.902364  -1.147884   2.868194  -0.000511   0.181743  -0.002814
 374   2  10.323869  -0.657380   3.048482  -0.000327   0.106690  -0.003063
 375   9   8.292679   4.665323   5.876730  -0.000867   0.291803  -0.002973
 376   2   8.057727   3.560671   5.746668   0.000149   0.410804   0.000362
 377  10   8.998474   5.093077  -1.329384  -0.000822   0.290607  -0.002828
 378   2   8.263441   4.227709  -1.277746   0.000230   0.409130   0.000563
 379   3  11.723006   7.206502   4.710074   0.000003   0.026890   0.000120
 380   5  12.191684   7.039262   4.704630   0.000029   0.026890   0.001063
 381   9  11.481386   7.207762   4.893560  -0.000025   0.026890  -0.000934
 382   3  10.909260   4.491234   6.081905   0.000008   0.026890   0.000303
 383   5  11.388646   4.359725   6.058409   0.000050   0.026890   0.001869
 384   9  10.740656   4.736130   6.142299  -0.000023   0.026890  -0.000871
 385   3  11.359565   5.056648  -1.169385  -0.000000   0.026892  -0.000018
 386   5  11.833662   4.918497  -1.107705   0.000024   0.026892   0.000886
 387  10  11.197340   5.309546  -1.211506  -0.000032   0.026892  -0.001200
 388   3  11.972375   7.519677   0.694968   0.000012   0.026892   0.000439
 389   5  12.438407   7.349116   0.732114   0.000058   0.026892   0.002173
 390  10  11.755163   7.551573   0.485562  -0.000020   0.026892  -0.000750
 391   3  12.441589   7.583287   1.244508   0.000045   0.025759   0.001755
 392   5  12.930058   7.488309   1.247066  -0.000003   0.025759  -0.000106
 393  13  13.180752   7.550008   1.404234  -0.000032   0.025759  -0.001229
 394   3  12.258110   7.356762   4.225839   0.000024   0.025759   0.000919
 395   5  12.744105   7.258731   4.268588  -0.000011   0.025759  -0.000437
 396  13  13.011508   7.341059   4.154248  -0.000044   0.025759  -0.001712
 397   3  11.608569   4.252102  -1.174217  -0.000007   0.025980  -0.000286
 398   5  12.087918   4.120634  -1.198155  -0.000025   0.025980  -0.000981
 399  14  12.263038   3.880825  -1.259100  -0.000063   0.025980  -0.002420
 400   3  11.167161   3.706717   5.995656   0.000001   0.025973   0.000038
 401   5  11.641210   3.568701   6.057796  -0.000021   0.025973  -0.000803
 402  15  11.809849   3.320871   6.102817  -0.000049   0.025973  -0.001885
 403   5  12.588688   7.180684   4.483220   0.000084   0.066704   0.001266
 404   3  11.887541   7.329833   4.521869   0.000104   0.066704   0.001566
 405   5  11.628948   3.980394   6.115878   0.000121   0.085969   0.001402
 406   3  10.915041   4.072965   6.079036   0.000103   0.085969   0.001192
 407   5  12.053199   4.442800  -1.202956   0.000086   0.088366   0.000976
 408   3  11.394712   4.736510  -1.220875   0.000102   0.088366   0.001151
 409   5  12.797518   7.416966   0.940716   0.000127   0.064163   0.001977
 410   3  12.116671   7.639398   0.983578   0.000118   0.064163   0.001842
 411   3  10.880541   3.357154  -1.148685  -0.000267   0.168146  -0.001590
 412   7  10.538783   2.691425  -1.256264  -0.000566   0.168146  -0.003366
 413  14  11.569697   3.033485  -1.164241  -0.000376   0.168146  -0.002237
 414   7   9.704980   2.705185  -1.570232  -0.000435   0.144117  -0.003019
 415   3  10.287607   3.646566  -1.361454   0.000055   0.203164   0.000270
 416   3  10.451298   2.822081   5.741356  -0.000271   0.168157  -0.001610
 417   8  10.104897   2.151216   5.701956  -0.000522   0.168157  -0.003104
 418  15  11.136961   2.494586   5.792045  -0.000424   0.168157  -0.002522
 419   8   9.369545   2.063690   5.894584  -0.000481   0.144735  -0.003326
 420   3   9.711358   3.136563   5.934564   0.000081   0.204034   0.000395
 421   9   9.390289   4.461610   6.198415  -0.000139   0.070241  -0.001973
 422   9  10.211860   4.764035   6.270099  -0.000124   0.070241  -0.001763
 423   3   9.945556   4.255038   6.087794  -0.000346   0.153581  -0.002250
 424   9  11.030306   7.532845   4.867732  -0.000115   0.073632  -0.001566
 425   9  10.128060   8.030498   4.293412  -0.000358   0.165688  -0.002158
 426   9   8.758080   7.948094   3.921897  -0.000223   0.165688  -0.001344
 427   9   7.751492   7.335624   3.978573  -0.000071   0.073632  -0.000960
 428   3  10.961076   7.767340   4.301887  -0.000250   0.159388  -0.001567
 429   3   9.559704   8.152792   3.641296   0.000062   0.159388   0.000387
 430   3   8.069527   7.593413   3.517748   0.000033   0.159388   0.000209
 431  10   7.940769   7.573161   0.943963  -0.000036   0.073610  -0.000492
 432  10   8.926831   8.159341   1.217521  -0.000242   0.165626  -0.001463
 433  10  10.330870   8.284629   1.034354  -0.000328   0.165626  -0.001980
 434  10  11.301294   7.873033   0.505558  -0.000116   0.073610  -0.001581
 435   3   8.197333   7.753504   1.474528   0.000085   0.159350   0.000531
 436   3   9.685768   8.310333   1.622661   0.000063   0.159350   0.000397
 437   3  11.160894   8.017953   1.087910  -0.000249   0.159350  -0.001564
 438  10  10.688076   5.361952  -1.397505  -0.000121   0.070229  -0.001723
 439  10   9.867006   5.060033  -1.474985  -0.000142   0.070229  -0.002016
 440   3  10.406339   4.833502  -1.330156  -0.000339   0.153560  -0.002205
 441  13  13.287491   7.739023   1.809617  -0.000371   0.200897  -0.001846
 442  13  13.183091   7.702422   3.249370  -0.001392   0.411249  -0.003385
 443   3  12.134837   7.892474   2.241591   0.000299   0.550215   0.000543
 444   3  12.048983   7.702405   3.870385   0.000424   0.282945   0.001498
 445  14  12.191190   3.413575  -1.340156  -0.000312   0.136109  -0.002292
 446   3  11.252397   4.046407  -1.284736   0.000189   0.191818   0.000985
 447  15  11.792027   2.962925   6.131796  -0.000327   0.138520  -0.002361
 448   3  10.743965   3.374719   5.999682   0.000167   0.195211   0.000856
 449   4   1.793672  -1.124151   3.495834  -0.000120   0.026391  -0.004565
 450   6   1.365010  -0.881489   3.463488  -0.000085   0.026391  -0.003227
 451  11   2.007894  -1.191924   3.701007  -0.000172   0.026391  -0.006520
 452   4   2.817897   1.190658   5.321393  -0.000052   0.026391  -0.001983
 453   6   2.375855   1.403080   5.265199  -0.000016   0.026391  -0.000611
 454  11   2.940195   0.915131   5.362722  -0.000072   0.026391  -0.002735
 455   4   3.296733   1.726862  -1.939952  -0.000056   0.026400  -0.002127
 456   6   2.849109   1.933035  -1.911525  -0.000029   0.026400  -0.001114
 457  12   3.425943   1.459140  -2.004796  -0.000097   0.026400  -0.003675
 458   4   2.064876  -0.820719  -0.621259  -0.000122   0.026400  -0.004620
 459   6   1.633343  -0.581270  -0.610057  -0.000080   0.026400  -0.003021
 460  12   2.304643  -0.859801  -0.804453  -0.000133   0.026400  -0.005047
 461   4   1.512323  -0.898997  -0.127699  -0.000096   0.026237  -0.003677
 462   6   1.052647  -0.723037  -0.165367  -0.000075   0.026237  -0.002877
 463  16   0.778085  -0.766144  -0.046331  -0.000085   0.026237  -0.003259
 464   4   1.311264  -1.123497   2.930425  -0.000090   0.026237  -0.003442
 465   6   0.848936  -0.950498   2.933093  -0.000083   0.026237  -0.003172
 466  16   0.592639  -0.973212   2.774323  -0.000119   0.026237  -0.004521
 467   4   3.144787   2.475399  -1.855627  -0.000026   0.026740  -0.000965
 468   6   2.702457   2.687336  -1.911516  -0.000047   0.026740  -0.001745
 469  17   2.584761   2.962930  -1.953751  -0.000090   0.026740  -0.003348
 470   4   2.672594   1.948338   5.328379  -0.000021   0.026734  -0.000803
 471   6   2.224749   2.154119   5.356412  -0.000033   0.026734  -0.001227
 472  18   2.099866   2.421739   5.422567  -0.000055   0.026734  -0.002055
 473   6   0.983933  -0.924750   3.177667  -0.000049   0.067553  -0.000723
 474   4   1.637194  -1.192725   3.272353  -0.000107   0.067553  -0.001591
 475   6   2.179337   1.779799   5.350895   0.000042   0.073329   0.000573
 476   4   2.857421   1.560529   5.379902   0.000005   0.073329   0.000075
 477   6   2.698179   2.398308  -1.958565   0.000018   0.072690   0.000253
 478   4   3.302134   2.019273  -1.946203   0.000003   0.072690   0.000043
 479   6   1.240146  -0.620666  -0.451888  -0.000033   0.067927  -0.000480
 480   4   1.859239  -0.962254  -0.364471  -0.000114   0.067927  -0.001680
 481   4   5.920477   1.805544  -1.583835  -0.000092   0.083270  -0.001111
 482   7   6.857455   1.740104  -1.537128  -0.000126   0.083270  -0.001516
 483  12   5.883356   1.518933  -1.687866  -0.000306   0.083270  -0.003677
 484   4   6.365382  -1.482221   2.943036  -0.000189   0.083216  -0.002276
 485   8   7.193063  -1.209102   3.295626  -0.000175   0.083216  -0.002100
 486  11   6.234726  -1.524086   3.217851  -0.000291   0.083216  -0.003492
 487   4   6.500137  -1.610179   2.821881   0.000045   0.006296   0.007138
 488  11   4.642905   0.932936   5.558525  -0.000359   0.091649  -0.003914
 489  11   3.518811   0.797103   5.546194  -0.000284   0.091649  -0.003095
 490   4   4.036577   1.242564   5.430093  -0.000870   0.188095  -0.004627
 491  11   2.392895  -1.577191   3.680436  -0.000311   0.071144  -0.004369
 492  11   3.224843  -2.138890   3.141194  -0.000774   0.158635  -0.004880
 493  11   4.571014  -2.288188   2.897633  -0.000521   0.158635  -0.003287
 494  11   5.637199  -1.937003   3.093449  -0.000257   0.071144  -0.003612
 495   4   2.473346  -1.737962   3.101299  -0.000782   0.155347  -0.005036
 496   4   3.801534  -2.284682   2.530249  -0.000480   0.155347  -0.003092
 497   4   5.329024  -2.054672   2.584625  -0.000332   0.155347  -0.002137
 498  12   4.020794   1.363072  -2.126925  -0.000272   0.090669  -0.003001
 499  12   5.124057   1.491260  -1.976741  -0.000336   0.090669  -0.003706
 500   4   4.508007   1.784245  -1.883391  -0.000862   0.186627  -0.004617
 501  12   5.831724  -1.719403   0.155184  -0.000201   0.071158  -0.002826
 502  12   4.752488  -2.085758   0.157227  -0.000571   0.158675  -0.003596
 503  12   3.447770  -1.889996  -0.235109  -0.000803   0.158675  -0.005063
 504  12   2.687452  -1.247632  -0.790315  -0.000322   0.071158  -0.004532
 505   4   5.461123  -1.907376   0.596894  -0.000344   0.155369  -0.002217
 506   4   3.941617  -2.128880   0.417838  -0.000525   0.155369  -0.003380
 507   4   2.693463  -1.492112  -0.235356  -0.000801   0.155369  -0.005158
 508  16   0.590643  -0.996410   0.318785  -0.000671   0.204823  -0.003276
 509  16   0.498481  -1.182625   1.785042  -0.002215   0.420167  -0.005272
 510   4   1.627026  -1.402012   0.861789  -0.001581   0.560204  -0.002822
 511   4   1.512765  -1.453716   2.540991  -0.000371   0.288576  -0.001286
 512  17   2.950201   3.771956  -1.755100  -0.001006   0.293264  -0.003431
 513   4   3.702108   2.907708  -1.735837   0.000059   0.412673   0.000143
 514  18   2.316815   3.003405   5.436900  -0.001022   0.292799  -0.003491
 515   4   3.384429   2.608565   5.307079   0.000135   0.412020   0.000327
 516   5  12.326088   0.468863   0.883966  -0.000070   0.088345  -0.000794
 517   7  11.408153   0.279461   0.539653  -0.000236   0.088345  -0.002672
 518  14  12.460446   0.537044   0.617318  -0.000230   0.088345  -0.002599
 519   7  10.954914  -0.116725   0.457254  -0.000009   0.012004  -0.000746
 520   5  12.277705   0.251523   0.992361   0.000089   0.017052   0.005222
 521   5  12.165000   0.270221   3.492768  -0.000085   0.088331  -0.000965
 522   8  11.212859   0.038999   3.686801  -0.000261   0.088331  -0.002958
 523  15  12.265227   0.296422   3.780975  -0.000178   0.088331  -0.002020
 524   8  10.754466  -0.364233   3.638204  -0.000019   0.014059  -0.001365
 525   5  12.133099   0.072906   3.352766   0.000095   0.019972   0.004741
 526   9  10.807434   5.204282   6.198780  -0.000295   0.208526  -0.001415
 527   9  11.236627   6.514650   5.612280  -0.001286   0.428011  -0.003004
 528   5  12.017012   5.287071   5.912814   0.000592   0.570004   0.001038
 529   5  12.418109   6.736327   5.111804   0.000575   0.293714   0.001958
 530  10  11.669665   7.402254   0.041453  -0.000275   0.208537  -0.001317
 531  10  11.428567   6.261656  -0.900040  -0.001325   0.428035  -0.003096
 532   5  12.636124   6.632832  -0.118768   0.000627   0.570032   0.001100
 533   5  12.259270   5.274444  -1.075805   0.000515   0.293729   0.001754
 534  13  13.508123   7.271508   4.353140  -0.000129   0.068981  -0.001866
 535  13  14.286805   6.637247   4.834552  -0.000305   0.153214  -0.001990
 536  13  15.372028   5.849569   4.713055  -0.000291   0.153214  -0.001901
 537  13  16.219490   5.333509   3.802891  -0.000289   0.153214  -0.001883
 538  13  16.477521   5.303217   2.481751  -0.000360   0.153214  -0.002353
 539  13  16.039044   5.771263   1.297868  -0.000227   0.153214  -0.001480
 540  13  15.086015   6.543422   0.742518  -0.000331   0.153214  -0.002157
 541  13  14.013912   7.299271   1.046153  -0.000414   0.153214  -0.002703
 542   5  13.475775   6.829279   4.753644  -0.000233   0.151145  -0.001541
 543   5  14.637384   5.927393   5.107305  -0.000069   0.151145  -0.000459
 544   5  15.784049   5.153883   4.495219   0.000042   0.151145   0.000281
 545   5  16.439940   4.829732   3.171383  -0.000143   0.151145  -0.000943
 546   5  16.332881   5.089452   1.685148  -0.000064   0.151145  -0.000425
 547   5  15.507298   5.825267   0.653258   0.000026   0.151145   0.000174
 548   5  14.305784   6.731838   0.503915  -0.000130   0.151145  -0.000857
 549   5  13.377160   7.356762   1.011959  -0.000032   0.084276  -0.000377
 550  14  12.780385   3.857395  -1.387506  -0.000150   0.067341  -0.002234
 551  14  13.809277   4.170195  -1.236117  -0.000350   0.148665  -0.002353
 552  14  15.000648   3.953417  -0.724453  -0.000191   0.148665  -0.001282
 553  14  15.703260   3.106688  -0.005049  -0.000299   0.148665  -0.002011
 554  14  15.641104   1.962632   0.639490  -0.000325   0.148665  -0.002189
 555  14  14.838595   0.970675   0.955966  -0.000238   0.148665  -0.001599
 556  14  13.610988   0.520490   0.820057  -0.000241   0.148665  -0.001621
 557   5  13.011429   4.371155  -1.208294  -0.000214   0.148434  -0.001441
 558   5  14.433331   4.537721  -0.844705  -0.000044   0.148434  -0.000296
 559   5  15.553809   3.908551  -0.116407  -0.000038   0.148434  -0.000256
 560   5  15.932702   2.730805   0.690501  -0.000049   0.148434  -0.000333
 561   5  15.421167   1.467142   1.259036  -0.000044   0.148434  -0.000294
 562   5  14.220153   0.613971   1.365859   0.000076   0.148434   0.000512
 563   5  13.067436   0.397358   1.118498   0.000045   0.082272   0.000546
 564  15  13.016787   0.243366   3.768570  -0.000106   0.067344  -0.001578
 565  15  14.080359   0.451313   3.697270  -0.000180   0.148673  -0.001211
 566  15  15.122675   1.177770   4.035164  -0.000292   0.148673  -0.001961
 567  15  15.502405   2.209199   4.756479  -0.000325   0.148673  -0.002184
 568  15  15.070360   3.140367   5.577819  -0.000210   0.148673  -0.001411
 569  15  13.996283   3.605430   6.176492  -0.000268   0.148673  -0.001802
 570  15  12.702163   3.421673   6.317289  -0.000403   0.148673  -0.002711
 571   5  13.374789   0.298832   3.301434   0.000032   0.148438   0.000218
 572   5  14.757783   0.809106   3.395864   0.000079   0.148438   0.000530
 573   5  15.599070   1.849077   4.022495  -0.000096   0.148438  -0.000648
 574   5  15.568120   3.010154   4.935134  -0.000024   0.148438  -0.000159
 575   5  14.677094   3.836168   5.775218   0.000098   0.148438   0.000663
 576   5  13.276062   4.002590   6.212690  -0.000083   0.148438  -0.000562
 577   5  12.128283   3.657163   6.195222  -0.000060   0.082275  -0.000725
 578  11   2.799156   0.465146   5.340395  -0.000576   0.205903  -0.002795
 579  11   2.260144  -0.654836   4.528523  -0.002202   0.422401  -0.005213
 580   6   1.644683   0.631765   4.916011  -0.000187   0.563095  -0.000333
 581   6   1.138992  -0.600591   3.879090   0.000054   0.290059   0.000187
 582  12   2.476417  -0.665172  -1.198952  -0.000781   0.205967  -0.003791
 583  12   3.016927   0.533390  -1.889475  -0.001987   0.422545  -0.004701
 584   6   1.672362   0.270678  -1.334623  -0.000395   0.563261  -0.000702
 585   6   2.378735   1.657969  -1.988853   0.000209   0.290151   0.000719
 586  16   0.091140  -0.846835   2.917891  -0.000196   0.068431  -0.002859
 587  16  -0.643424  -0.163065   3.380816  -0.000409   0.151724  -0.002697
 588  16  -1.565258   0.795460   3.246556  -0.000402   0.151724  -0.002647
 589  16  -2.185443   1.555179   2.338387  -0.000402   0.151724  -0.002649
 590  16  -2.250761   1.805902   1.027112  -0.000466   0.151724  -0.003074
 591  16  -1.734543   1.445261  -0.151883  -0.000336   0.151724  -0.002214
 592  16  -0.847558   0.620503  -0.717219  -0.000443   0.151724  -0.002923
 593  16   0.048041  -0.331627  -0.438072  -0.000529   0.151724  -0.003487
 594   6   0.130118  -0.471720   3.378517  -0.000370   0.150195  -0.002466
 595   6  -0.918482   0.550537   3.710599  -0.000176   0.150195  -0.001171
 596   6  -1.832571   1.569089   3.092662  -0.000086   0.150195  -0.000576
 597   6  -2.238928   2.168066   1.777005  -0.000264   0.150195  -0.001755
 598   6  -1.971640   2.102908   0.300805  -0.000196   0.150195  -0.001308
 599   6  -1.139840   1.400219  -0.733211  -0.000089   0.150195  -0.000591
 600   6  -0.083148   0.346904  -0.902860  -0.000232   0.150195  -0.001544
 601   6   0.666561  -0.485174  -0.419614  -0.000161   0.083603  -0.001922
 602  17   2.092883   3.097696  -2.130943  -0.000170   0.069191  -0.002458
 603  17   0.982288   2.990457  -2.129234  -0.000395   0.153710  -0.002570
 604  17  -0.219572   3.413821  -1.686987  -0.000302   0.153710  -0.001963
 605  17  -0.801023   4.333258  -0.889593  -0.000359   0.153710  -0.002338
 606  17  -0.520085   5.366130  -0.068900  -0.000395   0.153710  -0.002571
 607  17   0.506326   6.082590   0.433547  -0.000246   0.153710  -0.001603
 608  17   1.851051   6.184473   0.408647  -0.000294   0.153710  -0.001916
 609   6   1.733639   2.625200  -2.055004  -0.000302   0.151585  -0.001995
 610   6   0.235939   2.728727  -1.850106  -0.000100   0.151585  -0.000659
 611   6  -0.822267   3.525537  -1.114510  -0.000111   0.151585  -0.000731
 612   6  -1.000590   4.684026  -0.154346  -0.000125   0.151585  -0.000823
 613   6  -0.224817   5.722069   0.630797  -0.000078   0.151585  -0.000514
 614   6   1.182201   6.207669   0.914171   0.000012   0.151585   0.000079
 615   6   2.396902   6.110002   0.736802   0.000036   0.084532   0.000430
 616  18   2.055299   5.879572   3.608182  -0.000060   0.069196  -0.000864
 617  18   0.987384   6.012676   3.313499  -0.000268   0.153719  -0.001741
 618  18  -0.283090   5.560096   3.334934  -0.000279   0.153719  -0.001812
 619  18  -1.049807   4.550744   3.796176  -0.000364   0.153719  -0.002365
 620  18  -0.993672   3.404693   4.505266  -0.000246   0.153719  -0.001600
 621  18  -0.138049   2.598910   5.167093  -0.000344   0.153719  -0.002236
 622  18   1.160967   2.468747   5.506216  -0.000479   0.153719  -0.003118
 623   6   1.794025   6.001950   3.083916   0.000004   0.151594   0.000026
 624   6   0.301068   5.906988   2.843081   0.000101   0.151594   0.000665
 625   6  -0.907792   5.039484   3.129499  -0.000110   0.151594  -0.000727
 626   6  -1.329448   3.760477   3.823969  -0.000081   0.151594  -0.000535
 627   6  -0.788416   2.602268   4.637465   0.000044   0.151594   0.000290
 628   6   0.490138   2.046882   5.231424  -0.000115   0.151594  -0.000762
 629   6   1.703910   2.139122   5.418067  -0.000102   0.084538  -0.001201
 630  12   5.978809   1.130359  -1.952294  -0.000150   0.262744  -0.000572
 631  12   6.261185  -0.058092  -1.761020  -0.001264   0.525725  -0.002403
 632  12   6.447656  -1.133042  -0.731498  -0.001007   0.525725  -0.001916
 633   7   7.485858   1.019474  -1.801545  -0.001111   0.525725  -0.002114
 634   7   7.780514  -0.338251  -1.235889  -0.001244   0.525725  -0.002365
 635   7   7.866936  -1.014514  -0.204416  -0.000102   0.262744  -0.000388
 636  14  12.552947   0.458382   0.175081   0.000060   0.250778   0.000239
 637  14  12.441582   1.045846  -0.769962  -0.000817   0.501397  -0.001629
 638  14  12.104521   2.222186  -1.373091  -0.000780   0.501397  -0.001556
 639   7  11.050162   0.171916  -0.330965  -0.001036   0.501397  -0.002067
 640   7  10.828490   1.099782  -1.306197  -0.001173   0.501397  -0.002339
 641   7  10.508701   2.136059  -1.579118  -0.000231   0.250778  -0.000921
 642  11   6.208534  -1.664092   3.675126  -0.000100   0.262521  -0.000382
 643  11   5.992149  -1.147426   4.774591  -0.001242   0.525269  -0.002365
 644  11   5.622725   0.112347   5.494447  -0.001108   0.525269  -0.002109
 645   8   7.530022  -1.151342   4.225197  -0.000979   0.525269  -0.001865
 646   8   7.212449  -0.240024   5.369899  -0.001244   0.525269  -0.002369
 647   8   6.902152   0.907762   5.699887  -0.000142   0.262521  -0.000542
 648  15  11.511036   2.043310   6.059167  -0.000155   0.250204  -0.000620
 649  15  11.871693   1.061388   5.673538  -0.000911   0.500243  -0.001822
 650  15  12.221363   0.292726   4.607127  -0.000539   0.500243  -0.001077
 651   8  10.178843   1.169007   5.809494  -0.000991   0.500243  -0.001982
 652   8  10.598936   0.098828   5.082459  -0.001191   0.500243  -0.002381
 653   8  10.832399  -0.338508   4.083867  -0.000230   0.250204  -0.000919
 =====================================================

              3173552  WORDS OF DYNAMIC MEMORY USED
 EXECUTION OF GAMESS TERMINATED NORMALLY Thu Nov 24 04:21:02 2016
 DDI: 263640 bytes (0.3 MB / 0 MWords) used by master data server.

 ----------------------------------------
 CPU timing information for all processes
 ========================================
 0: 414.896 + 0.216 = 415.112
 ----------------------------------------
 ddikick.x: exited gracefully.
