----- GAMESS execution script -----

          ******************************************************
          *         GAMESS VERSION =  5 DEC 2014 (R1)          *
          *             FROM IOWA STATE UNIVERSITY             *
          * M.W.SCHMIDT, K.K.BALDRIDGE, J.A.BOATZ, S.T.ELBERT, *
          *   M.S.GORDON, J.H.JENSEN, S.KOSEKI, N.MATSUNAGA,   *
          *          K.A.NGUYEN, S.J.SU, T.L.WINDUS,           *
          *       TOGETHER WITH M.DUPUIS, J.A.MONTGOMERY       *
          *         J.COMPUT.CHEM.  14, 1347-1363(1993)        *
          **************** 64 BIT LINUX VERSION ****************

 EXECUTION OF GAMESS BEGUN Thu Nov 24 04:48:36 2016

            ECHO OF THE FIRST FEW INPUT CARDS -
 INPUT CARD>! SELECT RESTRICTED HARTREE-FOCK AS DEFAULT                                     
 INPUT CARD>$contrl scftyp=rhf $end                                                         
 INPUT CARD>                                                                                
 INPUT CARD>! THEORY: HF OR DFT                                                             
 INPUT CARD> $contrl mplevl=0 $end                                                          
 INPUT CARD>                                                                                
 INPUT CARD> $system timlim=10000 mwords=20 $end                                            
 INPUT CARD> $SCF DIRSCF=.TRUE. $end                                                        
 INPUT CARD>                                                                                
 INPUT CARD>                                                                                
 INPUT CARD>! BASIS SETS                                                                    
 INPUT CARD>! 6-311G(d,p)                                                                   
 INPUT CARD> $BASIS GBASIS=N311 NGAUSS=6 NDFUNC=1 NPFUNC=1 $END                             
 INPUT CARD>                                                                                
 INPUT CARD>! One of the following                                                          
 INPUT CARD> $guess guess=HUCKEL $end                                                       
 INPUT CARD>                                                                                
 INPUT CARD> $statpt projct=.FALSE. $end                                                    
 INPUT CARD> $STATPT IFREEZ(1)=1,2,3 $END                                                   
 INPUT CARD>                                                                                
 INPUT CARD>! Optimize the geometry with COSMO effects                                      
 INPUT CARD> $statpt opttol=0.0005 nstep=50 $end                                            
 INPUT CARD> $contrl nzvar=1 $end                                                           
 INPUT CARD> $zmat dlc=.t. auto=.t. $end                                                    
 INPUT CARD> $contrl runtyp=OPTIMIZE maxit=200 $end                                         
 INPUT CARD>                                                                                
 INPUT CARD>! Run COSMO on perfect conductor                                                
 INPUT CARD> $COSGMS PRFCND=.TRUE. $end                                                     
 INPUT CARD>                                                                                
 INPUT CARD>! Specifying RSOLV                                                              
 INPUT CARD> $COSGMS COSRAD = 1.4 $end                                                      
 INPUT CARD>                                                                                
 INPUT CARD>! available memory                                                              
 INPUT CARD> $SYSTEM MWORDS=40 $END                                                         
 INPUT CARD>                                                                                
 INPUT CARD> $DATA                                                                          
 INPUT CARD>                                                                                
 INPUT CARD>C1                                                                              
 INPUT CARD>C      6.0     -1.1676000000    0.5842000000   -0.3029000000                    
 INPUT CARD>C      6.0     -2.2680000000    1.1383000000    0.6774000000                    
 INPUT CARD>C      6.0     -0.9963000000    1.5154000000   -1.5219000000                    
 INPUT CARD>H      1.0     -1.9143000000    1.5643000000   -2.1397000000                    
 INPUT CARD>H      1.0     -0.1922000000    1.1342000000   -2.1876000000                    
 INPUT CARD>H      1.0     -0.7268000000    2.5432000000   -1.1962000000                    
 INPUT CARD>C      6.0      0.2035000000    0.4970000000    0.4008000000                    
 INPUT CARD>H      1.0      0.9792000000    0.1398000000   -0.3105000000                    
 INPUT CARD>H      1.0      0.1946000000   -0.2259000000    1.2399000000                    
 INPUT CARD>H      1.0      0.5108000000    1.4927000000    0.7870000000                    
 INPUT CARD>C      6.0     -3.6293000000    1.1528000000   -0.0643000000                    
 INPUT CARD>C      6.0     -3.8936000000   -0.2431000000   -0.6776000000                    
   40000000 WORDS OF MEMORY AVAILABLE

     BASIS OPTIONS
     -------------
     GBASIS=N311         IGAUSS=       6      POLAR=POPN311 
     NDFUNC=       1     NFFUNC=       0     DIFFSP=       F
     NPFUNC=       1      DIFFS=       F     BASNAM=        


     RUN TITLE
     ---------
                                                                                 

 THE POINT GROUP OF THE MOLECULE IS C1      
 THE ORDER OF THE PRINCIPAL AXIS IS     0

 ATOM      ATOMIC                      COORDINATES (BOHR)
           CHARGE         X                   Y                   Z
 C           6.0    -2.2064440633        1.1039779220       -0.5723980017
 C           6.0    -4.2858985402        2.1510750918        1.2801003841
 C           6.0    -1.8827340016        2.8636907618       -2.8759739807
 H           1.0    -3.6175024583        2.9560983626       -4.0434466959
 H           1.0    -0.3632053348        2.1433272153       -4.1339645707
 H           1.0    -1.3734528479        4.8059511320       -2.2604902265
 C           6.0     0.3845592385        0.9391938159        0.7574021759
 H           1.0     1.8504196872        0.2641836931       -0.5867599192
 H           1.0     0.3677406772       -0.4268891006        2.3430712522
 H           1.0     0.9652720345        2.8207939819        1.4872143523
 C           6.0    -6.8583825272        2.1784761186       -0.1215093810
 C           6.0    -7.3578371058       -0.4593923876       -1.2804783293
 H           1.0    -6.9517349910        3.6501947179       -1.6123142127
 H           1.0    -8.3807457829        2.6709387110        1.2423058643
 C           6.0    -5.2067620140       -2.2969619381       -0.5007773867
 H           1.0    -7.3703092973       -0.3087812264       -3.3771293127
 H           1.0    -9.2439726141       -1.1580240853       -0.6706637530
 C           6.0    -5.6886421408       -4.9336966087       -1.5962515418
 H           1.0    -7.5012673083       -5.7137754965       -0.8777777213
 H           1.0    -4.1347204611       -6.2389303485       -1.0582465531
 H           1.0    -5.7789710431       -4.8441235969       -3.6919576622
 C           6.0    -4.5999709993        0.2621049945        3.4973158855
 C           6.0    -5.0434896886       -2.4226287163        2.4264081682
 H           1.0    -6.2372295951        0.8513215575        4.6774497648
 H           1.0    -2.9534527462        0.2573806795        4.7955576390
 H           1.0    -3.8401121796        4.0678241612        2.0169045467
 H           1.0    -6.7814706795       -3.2473051373        3.2731943833
 H           1.0    -3.4226717090       -3.6566197862        2.9449489793
 O           8.0    -2.8585885016       -1.3715631219       -1.4766318868

          INTERNUCLEAR DISTANCES (ANGS.)




     $CONTRL OPTIONS
     ---------------
 SCFTYP=RHF          RUNTYP=OPTIMIZE     EXETYP=RUN     
 MPLEVL=       0     CITYP =NONE         CCTYP =NONE         VBTYP =NONE    
 DFTTYP=NONE         TDDFT =NONE    
 MULT  =       1     ICHARG=       0     NZVAR =       1     COORD =UNIQUE  
 PP    =NONE         RELWFN=NONE         LOCAL =NONE         NUMGRD=       F
 ISPHER=      -1     NOSYM =       0     MAXIT =     200     UNITS =ANGS    
 PLTORB=       F     MOLPLT=       F     AIMPAC=       F     FRIEND=        
 NPRINT=       7     IREST =       0     GEOM  =INPUT   
 NORMF =       0     NORMP =       0     ITOL  =      20     ICUT  =       9
 INTTYP=BEST         GRDTYP=BEST         QMTTOL= 1.0E-06

     $SYSTEM OPTIONS
     ---------------
  REPLICATED MEMORY=    40000000 WORDS (ON EVERY NODE).
 DISTRIBUTED MEMDDI=           0 MILLION WORDS IN AGGREGATE,
 MEMDDI DISTRIBUTED OVER   1 PROCESSORS IS           0 WORDS/PROCESSOR.
 TOTAL MEMORY REQUESTED ON EACH PROCESSOR=    40000000 WORDS.
 TIMLIM=       10000.00 MINUTES, OR       6.9 DAYS.
 PARALL= F  BALTYP=  DLB     KDIAG=    0  COREFL= F
 MXSEQ2=     300 MXSEQ3=     150  mem10=         0

     $COSGMS OPTIONS
     ---------------
     EPSI  =   INFTY     NSPA  =      92     COSRAD=    1.40
     DISEX =   10.00     OUTCHG=DBLCAV       COSBUG=       F
     COSWRT=       F     DCOSMO=       F

     SYMMETRY COORDINATES WILL NOT BE USED FOR 
     THE COSMO CALCULATION, EVEN IF SPECIFIED:
         -- SWITCHING TO C1 POINT GROUP --


     DEFINITION OF CAVITY
     ---------------------------
     ATOM         COORDINATES           RADIUS 
     1   -2.2064    1.1040   -0.5724    2.0000
     2   -4.2859    2.1511    1.2801    2.0000
     3   -1.8827    2.8637   -2.8760    2.0000
     4   -3.6175    2.9561   -4.0434    1.3000
     5   -0.3632    2.1433   -4.1340    1.3000
     6   -1.3735    4.8060   -2.2605    1.3000
     7    0.3846    0.9392    0.7574    2.0000
     8    1.8504    0.2642   -0.5868    1.3000
     9    0.3677   -0.4269    2.3431    1.3000
    10    0.9653    2.8208    1.4872    1.3000
    11   -6.8584    2.1785   -0.1215    2.0000
    12   -7.3578   -0.4594   -1.2805    2.0000
    13   -6.9517    3.6502   -1.6123    1.3000
    14   -8.3807    2.6709    1.2423    1.3000
    15   -5.2068   -2.2970   -0.5008    2.0000
    16   -7.3703   -0.3088   -3.3771    1.3000
    17   -9.2440   -1.1580   -0.6707    1.3000
    18   -5.6886   -4.9337   -1.5963    2.0000
    19   -7.5013   -5.7138   -0.8778    1.3000
    20   -4.1347   -6.2389   -1.0582    1.3000
    21   -5.7790   -4.8441   -3.6920    1.3000
    22   -4.6000    0.2621    3.4973    2.0000
    23   -5.0435   -2.4226    2.4264    2.0000
    24   -6.2372    0.8513    4.6774    1.3000
    25   -2.9535    0.2574    4.7956    1.3000
    26   -3.8401    4.0678    2.0169    1.3000
    27   -6.7815   -3.2473    3.2732    1.3000
    28   -3.4227   -3.6566    2.9449    1.3000
    29   -2.8586   -1.3716   -1.4766    1.7200

          ----------------
          PROPERTIES INPUT
          ----------------

     MOMENTS            FIELD           POTENTIAL          DENSITY
 IEMOM =       1   IEFLD =       0   IEPOT =       0   IEDEN =       0
 WHERE =COMASS     WHERE =NUCLEI     WHERE =NUCLEI     WHERE =NUCLEI  
 OUTPUT=BOTH       OUTPUT=BOTH       OUTPUT=BOTH       OUTPUT=BOTH    
 IEMINT=       0   IEFINT=       0                     IEDINT=       0
                                                       MORB  =       0
          EXTRAPOLATION IN EFFECT
          SOSCF IN EFFECT
 ORBITAL PRINTING OPTION: NPREO=     1   317     2     1

     -------------------------------
     INTEGRAL TRANSFORMATION OPTIONS
     -------------------------------
     NWORD  =            0
     CUTOFF = 1.0E-09     MPTRAN =       0
     DIRTRF =       T     AOINTS =DUP     

          ----------------------
          INTEGRAL INPUT OPTIONS
          ----------------------
 NOPK  =       1 NORDER=       0 SCHWRZ=       T


 -----------------------------------------------
  STATISTICS ON AUTOMATIC COORDINATE GENERATION 
 -----------------------------------------------
  NUMBER OF USER SPECIFIED BONDS                             0
  NUMBER OF BONDS                                           30
  NUMBER OF ANGLES                                          61
  NUMBER OF TORSIONS                                        96
  NUMBER OF EXTRA COORD.                                     0
  NUMBER OF EXTRA COORD. FOR CONSTRAINTS                     0
  NUMBER OF CONSTRAINED COORD.                               0

  TOTAL NUMBER OF PRIMITIVES                               187
 -----------------------------------------------

   --- ENCODED Z MATRIX ---
 COORD  TYPE   I   J   K   L   M   N
    1      1    1   7
    2      1    1   2
    3      1    1  29
    4      1    1   3
    5      1    2  22
    6      1    2  26
    7      1    2  11
    8      1    3   5
    9      1    3   4
   10      1    3   6
   11      1    7   8
   12      1    7  10
   13      1    7   9
   14      1   11  14
   15      1   11  13
   16      1   11  12
   17      1   12  16
   18      1   12  15
   19      1   12  17
   20      1   15  29
   21      1   15  23
   22      1   15  18
   23      1   18  21
   24      1   18  20
   25      1   18  19
   26      1   22  25
   27      1   22  24
   28      1   22  23
   29      1   23  28
   30      1   23  27
   31      2    1   2  26
   32      2    1   2  11
   33      2    1   3   4
   34      2    1   7  10
   35      2    1   2  22
   36      2    1   3   6
   37      2    1   3   5
   38      2    1  29  15
   39      2    1   7   8
   40      2    1   7   9
   41      2    2   1   7
   42      2    2  22  23
   43      2    2   1  29
   44      2    2  22  24
   45      2    2  11  12
   46      2    2  22  25
   47      2    2  11  14
   48      2    2   1   3
   49      2    2  11  13
   50      2    3   1  29
   51      2    3   1   7
   52      2    4   3   6
   53      2    4   3   5
   54      2    5   3   6
   55      2    7   1  29
   56      2    8   7   9
   57      2    8   7  10
   58      2    9   7  10
   59      2   11   2  26
   60      2   11  12  17
   61      2   11  12  15
   62      2   11   2  22
   63      2   11  12  16
   64      2   12  15  18
   65      2   12  15  23
   66      2   12  15  29
   67      2   12  11  13
   68      2   12  11  14
   69      2   13  11  14
   70      2   15  18  19
   71      2   15  18  20
   72      2   15  18  21
   73      2   15  23  27
   74      2   15  23  28
   75      2   15  23  22
   76      2   15  12  17
   77      2   15  12  16
   78      2   16  12  17
   79      2   18  15  23
   80      2   18  15  29
   81      2   19  18  20
   82      2   19  18  21
   83      2   20  18  21
   84      2   22  23  27
   85      2   22  23  28
   86      2   22   2  26
   87      2   23  22  24
   88      2   23  22  25
   89      2   23  15  29
   90      2   24  22  25
   91      2   27  23  28
   92      3    1  29  15  12
   93      3    1   2  11  14
   94      3    1   2  22  23
   95      3    1   2  22  24
   96      3    1   2  22  25
   97      3    1   2  11  12
   98      3    1  29  15  18
   99      3    1  29  15  23
  100      3    1   2  11  13
  101      3    2  11  12  15
  102      3    2  11  12  16
  103      3    2   1  29  15
  104      3    2   1   3   5
  105      3    2   1   7  10
  106      3    2  22  23  27
  107      3    2  22  23  28
  108      3    2  22  23  15
  109      3    2   1   3   6
  110      3    2   1   3   4
  111      3    2   1   7   9
  112      3    2   1   7   8
  113      3    2  11  12  17
  114      3    3   1   7  10
  115      3    3   1  29  15
  116      3    3   1   2  26
  117      3    3   1   2  11
  118      3    3   1   7   9
  119      3    3   1   2  22
  120      3    3   1   7   8
  121      3    4   3   1  29
  122      3    4   3   1   7
  123      3    5   3   1  29
  124      3    5   3   1   7
  125      3    6   3   1  29
  126      3    6   3   1   7
  127      3    7   1  29  15
  128      3    7   1   2  26
  129      3    7   1   2  11
  130      3    7   1   2  22
  131      3    8   7   1  29
  132      3    9   7   1  29
  133      3   10   7   1  29
  134      3   11   2  22  24
  135      3   11  12  15  18
  136      3   11  12  15  23
  137      3   11  12  15  29
  138      3   11   2  22  23
  139      3   11   2   1  29
  140      3   11   2  22  25
  141      3   12  15  23  27
  142      3   12  15  23  28
  143      3   12  15  23  22
  144      3   12  11   2  26
  145      3   12  15  18  19
  146      3   12  11   2  22
  147      3   12  15  18  20
  148      3   12  15  18  21
  149      3   13  11  12  16
  150      3   13  11  12  15
  151      3   13  11  12  17
  152      3   13  11   2  26
  153      3   13  11   2  22
  154      3   14  11  12  16
  155      3   14  11  12  15
  156      3   14  11  12  17
  157      3   14  11   2  26
  158      3   14  11   2  22
  159      3   15  23  22  24
  160      3   15  23  22  25
  161      3   16  12  15  23
  162      3   16  12  15  18
  163      3   16  12  15  29
  164      3   17  12  15  23
  165      3   17  12  15  18
  166      3   17  12  15  29
  167      3   18  15  23  22
  168      3   18  15  23  28
  169      3   18  15  23  27
  170      3   19  18  15  23
  171      3   19  18  15  29
  172      3   20  18  15  23
  173      3   20  18  15  29
  174      3   21  18  15  23
  175      3   21  18  15  29
  176      3   22  23  15  29
  177      3   22   2   1  29
  178      3   23  22   2  26
  179      3   24  22   2  26
  180      3   24  22  23  28
  181      3   24  22  23  27
  182      3   25  22  23  28
  183      3   25  22  23  27
  184      3   25  22   2  26
  185      3   26   2   1  29
  186      3   27  23  15  29
  187      3   28  23  15  29

          INDEP./SYM. INTERNAL COORDINATES
          --------------------------------
 CRD  1=   0.1358 ( 32) -0.1358 ( 35) -0.1072 ( 37)  0.1072 ( 39) -0.3355 ( 41)
           0.3355 ( 48) -0.2538 ( 50)  0.2538 ( 55) -0.1294 ( 64)  0.1304 ( 66)
           0.1294 ( 79) -0.1304 ( 89) -0.1272 ( 92) -0.2069 ( 98) -0.1272 ( 99)
          -0.1329 (110) -0.1329 (111)  0.1456 (114) -0.2155 (115)  0.1332 (120)
           0.1332 (124)  0.1456 (126) -0.2156 (127)
 CRD  2=  -0.1917 (  2) -0.2303 (  3) -0.2532 ( 20) -0.1610 ( 33) -0.1611 ( 40)
          -0.1681 ( 41)  0.2026 ( 43) -0.1681 ( 48) -0.1412 ( 50)  0.4233 ( 51)
          -0.1413 ( 55)  0.1183 ( 62) -0.1072 ( 80)  0.1747 (115) -0.1558 (116)
          -0.1858 (117) -0.1259 (119) -0.1749 (127)  0.1559 (128)  0.1260 (129)
           0.1859 (130)
 CRD  3=   0.3384 (  2) -0.2109 (  3) -0.1881 ( 20) -0.1160 ( 37)  0.1070 ( 38)
          -0.1160 ( 39)  0.1497 ( 41)  0.1497 ( 48) -0.1470 ( 51) -0.1104 ( 62)
           0.1156 ( 64) -0.1430 ( 65)  0.1521 ( 70) -0.1116 ( 71) -0.1115 ( 72)
           0.1155 ( 79) -0.2439 ( 80)  0.1029 ( 94) -0.1029 ( 97) -0.1011 (105)
           0.1011 (109) -0.1136 (115)  0.1405 (118) -0.1405 (122)  0.1136 (127)
           0.1957 (135)  0.1103 (138) -0.1103 (146)  0.1210 (162)  0.1298 (165)
          -0.1957 (167) -0.1210 (168) -0.1298 (169)
 CRD  4=   0.1395 (  1) -0.1395 (  4) -0.1194 ( 16) -0.1658 ( 18)  0.1659 ( 21)
           0.1194 ( 28) -0.1104 ( 32) -0.1848 ( 33)  0.1104 ( 35)  0.1847 ( 40)
          -0.1139 ( 50)  0.1139 ( 55) -0.1683 ( 64)  0.1315 ( 71) -0.1315 ( 72)
           0.1684 ( 79) -0.2367 ( 98)  0.2317 (115) -0.1173 (116) -0.2105 (117)
          -0.2105 (119) -0.1006 (125)  0.2316 (127) -0.1172 (128) -0.2104 (129)
          -0.2104 (130) -0.1006 (133)  0.1534 (171)
 CRD  5=   0.2065 (  5) -0.2065 (  7)  0.1556 ( 18) -0.1556 ( 21) -0.1192 ( 34)
           0.1192 ( 36) -0.1143 ( 41)  0.1143 ( 48) -0.1028 ( 50)  0.1028 ( 55)
           0.2700 ( 64) -0.1059 ( 66) -0.1678 ( 71)  0.1678 ( 72) -0.2700 ( 79)
           0.1059 ( 89)  0.2139 ( 98) -0.1978 (117) -0.1978 (119) -0.1978 (129)
          -0.1978 (130) -0.1483 (135) -0.1447 (139) -0.1368 (162) -0.1483 (167)
          -0.1368 (168) -0.1447 (177)
 CRD  6=  -0.2253 (  1) -0.2044 (  3) -0.2254 (  4) -0.1780 ( 20) -0.4447 ( 22)
          -0.1500 ( 37) -0.1500 ( 39) -0.1201 ( 51)  0.1595 ( 62) -0.1115 ( 64)
           0.2093 ( 65) -0.2047 ( 70) -0.1115 ( 79)  0.1271 ( 81)  0.1271 ( 82)
           0.1058 ( 83)  0.1096 ( 92) -0.1096 ( 99)
 CRD  7=  -0.3730 (  1) -0.1750 (  2) -0.3732 (  4)  0.1286 ( 18) -0.1020 ( 20)
           0.1285 ( 21)  0.3395 ( 22) -0.1865 ( 34) -0.1866 ( 36) -0.1345 ( 37)
          -0.1346 ( 39) -0.1364 ( 51)  0.1250 ( 54)  0.1250 ( 57)  0.1833 ( 70)
          -0.1002 ( 81) -0.1002 ( 82)  0.1216 (119) -0.1216 (129)
 CRD  8=  -0.4119 (  1)  0.4118 (  4)  0.1597 (  5) -0.1597 (  7) -0.2172 ( 18)
           0.2172 ( 21) -0.1284 ( 32)  0.1776 ( 33)  0.1284 ( 35) -0.1776 ( 40)
          -0.1217 ( 52) -0.1173 ( 53)  0.1174 ( 56)  0.1217 ( 58)  0.1107 ( 71)
          -0.1107 ( 72) -0.1220 ( 98)  0.1264 (171)
 CRD  9=   0.1547 (  1)  0.2024 (  2)  0.1546 (  4)  0.2129 (  5)  0.2130 (  7)
           0.1296 ( 16)  0.1810 ( 18)  0.1810 ( 21)  0.3292 ( 22)  0.1296 ( 28)
           0.1962 ( 34)  0.1962 ( 36)  0.1767 ( 62)  0.1455 ( 65)  0.1035 ( 71)
           0.1035 ( 72) -0.1053 (136)  0.1053 (143)
 CRD 10=  -0.1494 (  1) -0.1495 (  4) -0.1401 (  5) -0.1401 (  7) -0.2310 ( 18)
          -0.2310 ( 21)  0.1938 ( 22) -0.1194 ( 33)  0.1642 ( 34)  0.1642 ( 36)
          -0.1718 ( 37) -0.1719 ( 39) -0.1193 ( 40)  0.1053 ( 53)  0.1053 ( 56)
           0.1054 ( 61) -0.1235 ( 65) -0.2749 ( 70)  0.2202 ( 71)  0.2201 ( 72)
          -0.1131 ( 73)  0.1053 ( 75) -0.1131 ( 76) -0.1505 ( 83) -0.1165 (135)
           0.1225 (147)  0.1165 (167) -0.1225 (174)
 CRD 11=  -0.1017 ( 15)  0.1017 ( 26) -0.1511 ( 32)  0.1512 ( 35) -0.2500 ( 42)
           0.1148 ( 44)  0.2499 ( 45) -0.1148 ( 47)  0.1318 ( 59) -0.2743 ( 61)
           0.1628 ( 63)  0.1005 ( 66) -0.1220 ( 67) -0.2034 ( 71)  0.2035 ( 72)
          -0.1077 ( 73)  0.2743 ( 75)  0.1076 ( 76) -0.1084 ( 78) -0.1628 ( 85)
          -0.1317 ( 86)  0.1221 ( 88) -0.1005 ( 89)  0.1084 ( 91)  0.1239 ( 92)
           0.1239 ( 99)
 CRD 12=  -0.2638 (  2) -0.2326 (  5) -0.2326 (  7)  0.3006 ( 34)  0.3005 ( 36)
          -0.2667 ( 37) -0.2669 ( 39)  0.1693 ( 42)  0.1694 ( 45) -0.1472 ( 46)
          -0.1473 ( 49) -0.1220 ( 52)  0.1027 ( 53)  0.1028 ( 56) -0.1221 ( 58)
          -0.1602 ( 61)  0.1491 ( 70) -0.1152 ( 71) -0.1151 ( 72) -0.1601 ( 75)
 CRD 13=  -0.1504 (  2)  0.1544 (  5)  0.1545 (  7)  0.1767 ( 16) -0.3344 ( 18)
          -0.3345 ( 21)  0.1768 ( 28) -0.1030 ( 42) -0.1030 ( 45)  0.1133 ( 61)
           0.3726 ( 70) -0.1734 ( 71) -0.1735 ( 72) -0.1208 ( 73) -0.1417 ( 74)
           0.1132 ( 75) -0.1207 ( 76) -0.1417 ( 77)  0.1302 ( 83)
 CRD 14=  -0.2069 (  1) -0.2070 (  4)  0.1966 (  5)  0.1966 (  7) -0.1377 (  9)
          -0.1377 ( 13)  0.1590 ( 20) -0.4626 ( 33)  0.1490 ( 34)  0.1488 ( 36)
           0.1310 ( 37)  0.1312 ( 39) -0.4628 ( 40)  0.1478 ( 52)  0.1492 ( 53)
          -0.1074 ( 54)  0.1492 ( 56) -0.1075 ( 57)  0.1478 ( 58)
 CRD 15=  -0.1766 (  1)  0.1765 (  4) -0.1126 (  9)  0.1126 ( 13)  0.1210 ( 16)
           0.1287 ( 18) -0.1284 ( 21) -0.1210 ( 28) -0.3541 ( 33) -0.1682 ( 34)
           0.1682 ( 36)  0.3543 ( 37) -0.3543 ( 39)  0.3539 ( 40) -0.2315 ( 54)
           0.2315 ( 57)  0.1440 ( 71) -0.1439 ( 72)
 CRD 16=  -0.1301 (  5)  0.1302 (  7) -0.2271 ( 18)  0.2272 ( 21)  0.1247 ( 23)
          -0.1247 ( 24) -0.1478 ( 33) -0.1326 ( 34)  0.1326 ( 36)  0.1478 ( 40)
           0.1247 ( 42) -0.1012 ( 44) -0.1246 ( 45)  0.1011 ( 47)  0.1467 ( 61)
          -0.4336 ( 71)  0.4336 ( 72)  0.1349 ( 73) -0.1467 ( 75) -0.1349 ( 76)
           0.1812 ( 81) -0.1812 ( 82)
 CRD 17=   0.2223 (  2) -0.2110 (  5) -0.2105 (  7) -0.2163 ( 16) -0.1544 ( 18)
          -0.1543 ( 21)  0.1075 ( 25) -0.2173 ( 28)  0.1069 ( 31) -0.1240 ( 33)
           0.1519 ( 37)  0.1530 ( 39) -0.1236 ( 40) -0.1594 ( 60) -0.1294 ( 68)
           0.3501 ( 70) -0.1334 ( 71) -0.1338 ( 72)  0.1098 ( 83) -0.1595 ( 84)
          -0.1295 ( 87) -0.1184 (136)  0.1182 (143)
 CRD 18=   0.1147 (  5) -0.1153 (  7) -0.1029 ( 10)  0.1028 ( 12) -0.2068 ( 16)
           0.2055 ( 28)  0.3601 ( 34) -0.3603 ( 36)  0.3500 ( 37) -0.3495 ( 39)
           0.1450 ( 52) -0.1595 ( 53)  0.1594 ( 56) -0.1447 ( 58) -0.1071 ( 67)
          -0.1404 ( 71)  0.1400 ( 72)  0.1073 ( 88)
 CRD 19=   0.1508 (  2) -0.1598 (  5) -0.1598 (  7)  0.3945 ( 16)  0.3944 ( 28)
           0.1633 ( 37)  0.1054 ( 38)  0.1627 ( 39) -0.1794 ( 46) -0.1795 ( 49)
           0.1298 ( 60)  0.1064 ( 63)  0.1287 ( 67)  0.1298 ( 84)  0.1063 ( 85)
           0.1286 ( 88)  0.1222 ( 96) -0.1223 (100)  0.1006 (140) -0.1006 (153)
 CRD 20=  -0.3758 ( 16)  0.3761 ( 28) -0.2399 ( 34)  0.2398 ( 36) -0.1082 ( 37)
           0.1084 ( 39) -0.1284 ( 63) -0.1679 ( 67)  0.1286 ( 85)  0.1681 ( 88)
 CRD 21=   0.2789 (  5) -0.2788 (  7) -0.1272 ( 14)  0.1272 ( 27) -0.1164 ( 34)
           0.1164 ( 36)  0.1978 ( 44) -0.1978 ( 47)  0.1245 ( 68) -0.1606 ( 71)
           0.1607 ( 72) -0.1244 ( 87)  0.1266 ( 93)  0.1266 ( 95) -0.1355 (101)
          -0.1050 (106) -0.1355 (108) -0.1050 (113)  0.1149 (116)  0.1149 (128)
           0.1498 (134)  0.1295 (135)  0.1063 (136)  0.1193 (137)  0.1017 (138)
           0.1062 (143)  0.1017 (146)  0.1498 (158)  0.1295 (167)  0.1193 (176)
           0.1372 (185)
 CRD 22=  -0.1032 (  5)  0.1033 (  7) -0.1289 ( 17)  0.1033 ( 19)  0.1290 ( 29)
          -0.1033 ( 30) -0.1716 ( 44)  0.1117 ( 46)  0.1716 ( 47) -0.1117 ( 49)
          -0.1447 ( 60)  0.1107 ( 63)  0.1258 ( 67) -0.1460 ( 68) -0.2209 ( 73)
           0.2199 ( 74)  0.2209 ( 76) -0.2197 ( 77)  0.1448 ( 84) -0.1108 ( 85)
           0.1459 ( 87) -0.1259 ( 88) -0.1115 (145) -0.1191 (147) -0.1191 (148)
          -0.1672 (150) -0.2010 (155) -0.2010 (159) -0.1673 (160) -0.1114 (170)
          -0.1191 (172) -0.1191 (174)
 CRD 23=   0.1376 (  2) -0.1911 (  6)  0.1026 ( 14)  0.2627 ( 20)  0.1026 ( 27)
          -0.1962 ( 38) -0.1136 ( 42) -0.1136 ( 45)  0.1014 ( 62)  0.1043 ( 68)
          -0.1269 ( 74) -0.1271 ( 77)  0.1045 ( 87)  0.1151 ( 93) -0.1152 ( 95)
          -0.1678 (104)  0.1639 (105) -0.1639 (109) -0.1853 (110)  0.1853 (111)
           0.1678 (112)  0.1181 (114)  0.1395 (118)  0.1040 (119)  0.1220 (120)
          -0.1126 (121) -0.1394 (122) -0.1219 (124) -0.1180 (126) -0.1041 (129)
           0.1126 (132)  0.1152 (140) -0.1152 (153)
 CRD 24=  -0.1992 ( 17)  0.1482 ( 19) -0.1816 ( 25) -0.1992 ( 29)  0.1481 ( 30)
           0.1144 ( 44) -0.1134 ( 46)  0.1145 ( 47) -0.1135 ( 49) -0.2852 ( 70)
           0.1303 ( 71)  0.1303 ( 72)  0.1445 ( 73) -0.1810 ( 74)  0.1446 ( 76)
          -0.1811 ( 77) -0.1168 ( 80) -0.1601 ( 83)  0.1125 (102) -0.1124 (107)
           0.1542 (135) -0.1522 (150) -0.1497 (155)  0.1496 (159)  0.1522 (160)
           0.1361 (162)  0.1299 (165) -0.1542 (167) -0.1361 (168) -0.1299 (169)
 CRD 25=   0.1030 (  8) -0.1030 ( 11) -0.1089 ( 14) -0.1498 ( 18) -0.1466 ( 19)
           0.1498 ( 21)  0.1089 ( 27)  0.1466 ( 30)  0.1077 ( 52) -0.1077 ( 58)
           0.1152 ( 71) -0.1152 ( 72)  0.1083 ( 73) -0.1082 ( 76)  0.1532 ( 98)
          -0.1078 (106) -0.1078 (113)  0.1474 (114) -0.1245 (115)  0.1191 (118)
           0.1448 (120)  0.1192 (122)  0.1062 (123)  0.1449 (124)  0.1087 (125)
           0.1475 (126) -0.1245 (127)  0.1061 (131)  0.1087 (133) -0.1688 (145)
          -0.1549 (147) -0.1549 (148) -0.1687 (170) -0.1385 (171) -0.1549 (172)
          -0.1246 (173) -0.1549 (174) -0.1246 (175)
 CRD 26=   0.1509 (  2)  0.1616 (  3)  0.6372 (  6) -0.1008 ( 14)  0.1884 ( 20)
          -0.1007 ( 27) -0.1201 ( 68) -0.1201 ( 87) -0.1236 ( 93)  0.1236 ( 95)
          -0.1079 (119)  0.1080 (129)
 CRD 27=   0.1014 (  5) -0.1014 (  7)  0.1192 ( 10) -0.1191 ( 12) -0.1606 (104)
          -0.1496 (105) -0.1496 (109) -0.1270 (110) -0.1271 (111) -0.1607 (112)
          -0.1536 (114) -0.1311 (118) -0.1647 (120) -0.1145 (121) -0.1310 (122)
          -0.1481 (123) -0.1646 (124) -0.1371 (125) -0.1536 (126) -0.1482 (131)
          -0.1146 (132) -0.1371 (133) -0.1974 (145) -0.1919 (147) -0.1919 (148)
          -0.1974 (170) -0.1898 (171) -0.1919 (172) -0.1843 (173) -0.1919 (174)
          -0.1843 (175)
 CRD 28=  -0.1406 (  3) -0.2129 ( 14)  0.2234 ( 15) -0.2209 ( 17)  0.1641 ( 19)
           0.2235 ( 26) -0.2130 ( 27) -0.2211 ( 29)  0.1642 ( 30)  0.1782 ( 60)
          -0.1536 ( 63)  0.1498 ( 67) -0.1299 ( 68) -0.1148 ( 73) -0.1148 ( 76)
           0.1782 ( 84) -0.1536 ( 85) -0.1299 ( 87)  0.1498 ( 88)  0.1026 (144)
          -0.1027 (178)
 CRD 29=  -0.1097 ( 10)  0.1099 ( 12) -0.2331 ( 14)  0.2564 ( 15) -0.1544 ( 17)
           0.2051 ( 19) -0.2535 ( 26)  0.2312 ( 27)  0.1549 ( 29) -0.2056 ( 30)
           0.1459 ( 60) -0.1434 ( 63) -0.1208 ( 68) -0.1077 ( 74)  0.1079 ( 77)
          -0.1465 ( 84)  0.1436 ( 85)  0.1205 ( 87) -0.1179 (102) -0.1087 (106)
          -0.1166 (107) -0.1098 (113) -0.1193 (116) -0.1195 (128) -0.1094 (185)
 CRD 30=  -0.2402 (  3)  0.1396 (  6)  0.1919 ( 14) -0.2763 ( 15)  0.1393 ( 20)
          -0.2109 ( 23) -0.2109 ( 24) -0.1318 ( 25) -0.2787 ( 26)  0.1942 ( 27)
          -0.1454 ( 31)  0.1011 ( 70)  0.1160 ( 71)  0.1162 ( 72) -0.1182 ( 81)
          -0.1183 ( 82) -0.1075 ( 83)  0.1227 (102) -0.1155 (106) -0.1239 (107)
           0.1145 (113) -0.1468 (144)  0.1476 (178)
 CRD 31=  -0.3028 (  8) -0.2666 (  9) -0.3012 ( 10)  0.3027 ( 11)  0.3011 ( 12)
           0.2665 ( 13)  0.1113 ( 14) -0.1113 ( 27)  0.1679 ( 33) -0.1164 ( 34)
           0.1164 ( 36)  0.1099 ( 37) -0.1098 ( 39) -0.1678 ( 40) -0.1585 ( 52)
          -0.1489 ( 53) -0.1080 ( 54)  0.1488 ( 56)  0.1079 ( 57)  0.1585 ( 58)
 CRD 32=  -0.1402 (  6)  0.2785 (  8)  0.3295 (  9)  0.3197 ( 10)  0.2786 ( 11)
           0.3198 ( 12)  0.3296 ( 13)  0.1538 ( 23)  0.1538 ( 24)  0.1746 ( 25)
          -0.1005 ( 33) -0.1236 ( 34) -0.1235 ( 36) -0.1491 ( 37) -0.1492 ( 39)
          -0.1005 ( 40)  0.1136 ( 52)  0.1336 ( 53)  0.1466 ( 54)  0.1336 ( 56)
           0.1466 ( 57)  0.1137 ( 58)
 CRD 33=  -0.1186 (  9) -0.1333 ( 10) -0.1332 ( 12) -0.1184 ( 13)  0.1307 ( 22)
           0.3746 ( 23)  0.3746 ( 24)  0.4427 ( 25) -0.1600 ( 70) -0.1503 ( 71)
          -0.1503 ( 72)  0.1572 ( 81)  0.1572 ( 82)  0.1613 ( 83)  0.1080 (142)
          -0.1080 (161)
 CRD 34=  -0.1345 (  5)  0.1345 (  7)  0.1004 (  9) -0.1006 ( 13) -0.1118 ( 14)
           0.2110 ( 15) -0.1434 ( 19) -0.2112 ( 26)  0.1118 ( 27)  0.1436 ( 30)
          -0.1611 ( 46)  0.1610 ( 49)  0.1204 ( 59) -0.1050 ( 60)  0.1051 ( 84)
          -0.1204 ( 86) -0.1268 (104) -0.1334 (105) -0.1335 (109) -0.1191 (110)
          -0.1190 (111) -0.1268 (112) -0.1073 (114) -0.1523 (116) -0.1007 (120)
          -0.1077 (121) -0.1154 (123) -0.1008 (124) -0.1220 (125) -0.1074 (126)
          -0.1523 (128) -0.1153 (131) -0.1076 (132) -0.1219 (133)  0.1067 (141)
           0.1035 (142)  0.1005 (150)  0.1005 (160)  0.1034 (161)  0.1066 (164)
           0.1024 (166) -0.1521 (185)  0.1025 (186)
 CRD 35=   0.1286 (  1) -0.1295 (  4)  0.1497 (  5) -0.1483 (  7) -0.1265 (  8)
          -0.1757 (  9) -0.1084 ( 10)  0.1249 ( 11)  0.1078 ( 12)  0.1749 ( 13)
          -0.2502 ( 14) -0.2276 ( 19)  0.2526 ( 27)  0.2269 ( 30)  0.1216 ( 67)
          -0.1245 ( 68)  0.1229 ( 87) -0.1200 ( 88) -0.1417 ( 93) -0.1402 ( 95)
          -0.1377 ( 96) -0.1391 (100) -0.1242 (134) -0.1217 (140)  0.1036 (142)
          -0.1323 (152) -0.1236 (153) -0.1348 (157) -0.1261 (158)  0.1041 (161)
           0.1004 (164) -0.1330 (179) -0.1305 (184)
 CRD 36=  -0.1075 (  3) -0.1195 (  5) -0.1213 (  7)  0.1443 (  8)  0.1457 ( 11)
          -0.2209 ( 14) -0.1125 ( 17) -0.2180 ( 27) -0.1131 ( 29) -0.1725 ( 44)
           0.1402 ( 46) -0.1719 ( 47)  0.1392 ( 49)  0.1027 ( 62) -0.1471 ( 67)
           0.1469 ( 68)  0.1483 ( 87) -0.1485 ( 88)  0.1287 ( 93) -0.1303 ( 95)
          -0.1176 ( 96)  0.1160 (100) -0.1764 (134) -0.1637 (140)  0.1521 (152)
           0.1623 (153)  0.1648 (157)  0.1750 (158) -0.1664 (179) -0.1536 (184)
 CRD 37=   0.3940 (  8) -0.3871 (  9) -0.3945 ( 11)  0.3881 ( 13) -0.2010 ( 52)
           0.2097 ( 54) -0.2103 ( 57)  0.2013 ( 58) -0.1462 (105) -0.1459 (109)
          -0.1568 (114) -0.1572 (125) -0.1565 (126) -0.1574 (133)
 CRD 38=   0.3631 (  8) -0.4062 (  9)  0.3617 ( 11) -0.4058 ( 13) -0.1935 ( 52)
           0.2208 ( 54)  0.2206 ( 57) -0.1928 ( 58)  0.1013 (104)  0.1365 (105)
          -0.1369 (109) -0.1014 (112)  0.1312 (114) -0.1067 (120)  0.1066 (124)
          -0.1470 (125) -0.1316 (126)  0.1467 (133)
 CRD 39=   0.5463 ( 23) -0.5476 ( 24) -0.2956 ( 81)  0.2964 ( 82) -0.2098 (145)
           0.1077 (147)  0.1085 (148) -0.2098 (170) -0.2242 (171)  0.1077 (172)
           0.1085 (174)
 CRD 40=  -0.3275 ( 23) -0.3252 ( 24)  0.6135 ( 25)  0.1740 ( 81)  0.1728 ( 82)
          -0.3393 ( 83) -0.1888 (147)  0.1814 (148) -0.1819 (172) -0.1853 (173)
           0.1883 (174)  0.1849 (175)
 CRD 41=   0.2329 (  8)  0.1994 (  9) -0.4462 ( 10) -0.2344 ( 11)  0.4472 ( 12)
          -0.1989 ( 13) -0.1253 ( 52)  0.2454 ( 53) -0.1140 ( 54) -0.2460 ( 56)
           0.1137 ( 57)  0.1261 ( 58) -0.1411 (104)  0.1215 (110)  0.1220 (111)
          -0.1412 (112)  0.1147 (118) -0.1485 (120)  0.1259 (121)  0.1141 (122)
          -0.1367 (123) -0.1485 (124) -0.1368 (131)  0.1264 (132)
 CRD 42=  -0.2578 (  8) -0.1730 (  9)  0.4394 ( 10) -0.2575 ( 11)  0.4382 ( 12)
          -0.1722 ( 13)  0.1415 ( 52) -0.2462 ( 53) -0.2455 ( 56)  0.1413 ( 58)
           0.1177 (104) -0.1483 (110)  0.1481 (111) -0.1173 (112)  0.1712 (118)
          -0.1456 (121) -0.1715 (122)  0.1205 (123) -0.1200 (131)  0.1453 (132)
 CRD 43=  -0.1269 (  3) -0.1574 (  6) -0.1776 ( 14) -0.1384 ( 15)  0.3786 ( 17)
           0.4165 ( 19) -0.1379 ( 26) -0.1770 ( 27)  0.3772 ( 29)  0.4153 ( 30)
           0.1283 ( 78)  0.1279 ( 91)  0.1078 (149) -0.1075 (182)
 CRD 44=   0.1994 ( 14)  0.1299 ( 15) -0.4369 ( 17) -0.3766 ( 19) -0.1303 ( 26)
          -0.2000 ( 27)  0.4382 ( 29)  0.3779 ( 30) -0.1507 ( 78)  0.1511 ( 91)
          -0.1062 (149) -0.1065 (182)
 CRD 45=  -0.3433 ( 14) -0.4137 ( 15) -0.2366 ( 17)  0.4147 ( 26)  0.3440 ( 27)
           0.2365 ( 29) -0.1599 ( 69)  0.1603 ( 90)  0.1071 ( 93)  0.1073 ( 95)
           0.1085 (134)  0.1105 (151)  0.1182 (157)  0.1084 (158)  0.1184 (179)
           0.1104 (183)
 CRD 46=   0.3559 ( 14)  0.4028 ( 15)  0.2125 ( 19)  0.4018 ( 26)  0.3551 ( 27)
           0.2125 ( 30)  0.1669 ( 69)  0.1665 ( 90) -0.1138 (140)  0.1023 (152)
           0.1138 (153)  0.1468 (154)  0.1032 (156) -0.1467 (180) -0.1032 (181)
          -0.1023 (184)
 CRD 47=  -0.3497 (  3) -0.2171 (  6) -0.1023 ( 10) -0.1023 ( 12) -0.1171 ( 14)
          -0.1423 ( 17) -0.1127 ( 19)  0.1865 ( 20)  0.1850 ( 22)  0.1234 ( 23)
           0.1233 ( 24)  0.1388 ( 25) -0.1174 ( 27) -0.1425 ( 29) -0.1126 ( 30)
           0.1660 ( 63) -0.1159 ( 78)  0.1661 ( 85) -0.1159 ( 91) -0.2052 (142)
           0.1093 (151)  0.2052 (161)  0.1077 (162)  0.1581 (163) -0.1077 (168)
          -0.1094 (183) -0.1581 (187)
 CRD 48=  -0.2090 (  2)  0.1340 (  8)  0.1339 ( 11)  0.2870 ( 17) -0.2244 ( 19)
          -0.2363 ( 20)  0.2865 ( 29) -0.2237 ( 30)  0.1097 ( 38) -0.1147 ( 83)
           0.1067 (114)  0.1328 (118)  0.1058 (120) -0.1299 (121) -0.1327 (122)
          -0.1029 (123) -0.1057 (124) -0.1038 (125) -0.1067 (126)  0.1030 (131)
           0.1300 (132)  0.1039 (133) -0.1127 (151)  0.1175 (162)  0.1009 (165)
          -0.1173 (168) -0.1007 (169)  0.1126 (183)
 CRD 49=  -0.1414 (  1)  0.1412 (  4)  0.1689 (  9) -0.1689 ( 13)  0.2200 ( 17)
           0.1825 ( 18) -0.2647 ( 19) -0.1823 ( 21) -0.2207 ( 29)  0.2652 ( 30)
           0.1003 ( 33) -0.1002 ( 40) -0.1131 ( 74)  0.1130 ( 77) -0.1235 ( 98)
          -0.1284 (102) -0.1285 (107)  0.1109 (115)  0.1108 (127) -0.1281 (149)
          -0.1771 (154) -0.1772 (180) -0.1283 (182)
 CRD 50=  -0.2227 ( 14)  0.2071 ( 15) -0.2070 ( 26)  0.2227 ( 27)  0.1049 (102)
           0.1559 (106)  0.1049 (107)  0.1560 (113)  0.1464 (149)  0.1262 (150)
           0.1974 (151) -0.1023 (152)  0.1447 (154)  0.1245 (155)  0.1957 (156)
           0.1244 (159)  0.1261 (160)  0.1446 (180)  0.1956 (181)  0.1463 (182)
           0.1973 (183) -0.1023 (184)
 CRD 51=  -0.1510 (  2)  0.1251 (  3)  0.1148 (  6) -0.1644 ( 14)  0.1497 ( 15)
          -0.2478 ( 20)  0.1497 ( 26) -0.1645 ( 27)  0.1097 ( 96) -0.1097 (100)
           0.1310 (102) -0.1337 (106) -0.1310 (107)  0.1337 (113)  0.1312 (140)
           0.1155 (142) -0.1356 (144)  0.1628 (149)  0.1111 (150)  0.1655 (151)
          -0.1781 (152) -0.1312 (153)  0.1417 (154)  0.1444 (156) -0.1342 (157)
          -0.1111 (160) -0.1155 (161)  0.1355 (178)  0.1342 (179) -0.1417 (180)
          -0.1444 (181) -0.1628 (182) -0.1656 (183)  0.1781 (184)
 CRD 52=  -0.2106 (  3)  0.3802 (  6)  0.1786 ( 10)  0.1786 ( 12) -0.1934 ( 16)
           0.1647 ( 23)  0.1648 ( 24)  0.1712 ( 25) -0.1934 ( 28) -0.1090 ( 38)
          -0.1038 ( 52) -0.1037 ( 58)  0.1581 ( 70)  0.1532 ( 71)  0.1531 ( 72)
          -0.1615 ( 81) -0.1615 ( 82) -0.1566 ( 83) -0.1324 (118)  0.1324 (122)
          -0.1129 (137) -0.1398 (166)  0.1129 (176)  0.1398 (186)
 CRD 53=  -0.3640 (  3)  0.2715 (  6)  0.1067 ( 15) -0.1166 ( 19)  0.3033 ( 20)
           0.1179 ( 22) -0.1298 ( 23) -0.1299 ( 24) -0.1233 ( 25)  0.1067 ( 26)
          -0.1167 ( 30) -0.1019 ( 54) -0.1020 ( 57)  0.1041 ( 68) -0.1348 ( 70)
          -0.1174 ( 71) -0.1173 ( 72)  0.1244 ( 81)  0.1243 ( 82)  0.1331 ( 83)
           0.1041 ( 87)  0.1098 ( 93) -0.1098 ( 95)  0.1072 (125) -0.1071 (133)
           0.1074 (137)  0.1548 (166) -0.1074 (176) -0.1548 (186)
 CRD 54=   0.1549 (  1) -0.1547 (  4)  0.1330 (  8)  0.2372 (  9)  0.1347 ( 10)
          -0.1331 ( 11) -0.1348 ( 12) -0.2373 ( 13) -0.1242 ( 18)  0.1241 ( 21)
          -0.1129 ( 23)  0.1128 ( 24)  0.1764 ( 33) -0.1537 ( 34)  0.1536 ( 36)
           0.1484 ( 37) -0.1485 ( 39) -0.1766 ( 40) -0.1978 ( 52) -0.1872 ( 53)
          -0.1191 ( 54)  0.1873 ( 56)  0.1192 ( 57)  0.1979 ( 58)  0.1604 ( 98)
           0.1248 (139) -0.1202 (171)  0.1248 (177)  0.1630 (185)
 CRD 55=  -0.1610 (  1) -0.2045 (  2) -0.1610 (  4)  0.2359 (  8)  0.1032 ( 10)
           0.2358 ( 11)  0.1032 ( 12) -0.1278 ( 17)  0.1830 ( 19) -0.2055 ( 20)
           0.1216 ( 25) -0.1278 ( 29)  0.1830 ( 30)  0.1162 ( 33)  0.1212 ( 34)
           0.1213 ( 36)  0.1654 ( 37)  0.1653 ( 39)  0.1160 ( 40)  0.1091 ( 43)
          -0.1640 ( 53) -0.1891 ( 54) -0.1638 ( 56) -0.1890 ( 57)  0.1216 (125)
          -0.1216 (133)
 CRD 56=   0.1364 (  1) -0.1912 (  2)  0.1364 (  4)  0.2282 (  6)  0.2026 ( 14)
          -0.1072 ( 15) -0.1571 ( 17)  0.1430 ( 19) -0.2803 ( 20) -0.1071 ( 26)
           0.2025 ( 27) -0.1571 ( 29)  0.1429 ( 30)  0.1450 ( 38) -0.1008 ( 43)
           0.1214 ( 67)  0.1019 ( 80)  0.1214 ( 88)  0.1374 (140) -0.1091 (141)
           0.1011 (144) -0.1375 (153)  0.1295 (157)  0.1091 (164)  0.1476 (166)
          -0.1011 (178) -0.1295 (179) -0.1476 (186)
 CRD 57=   0.1027 ( 10)  0.1027 ( 12) -0.1079 ( 16)  0.4808 ( 22) -0.1577 ( 23)
          -0.1577 ( 24) -0.2030 ( 25) -0.1079 ( 28)  0.1242 ( 60)  0.1127 ( 63)
          -0.1775 ( 70) -0.1822 ( 71) -0.1822 ( 72) -0.1059 ( 73) -0.1058 ( 76)
           0.1987 ( 81)  0.1987 ( 82)  0.1622 ( 83)  0.1243 ( 84)  0.1128 ( 85)
          -0.1123 (166)  0.1123 (186)
 CRD 58=  -0.2599 (  1) -0.2595 (  4)  0.1755 (  9)  0.1123 ( 10)  0.1124 ( 12)
           0.1754 ( 13)  0.1115 ( 14)  0.1006 ( 16) -0.1288 ( 18) -0.1289 ( 21)
          -0.1192 ( 22)  0.1114 ( 27)  0.1006 ( 28)  0.1284 ( 31)  0.1445 ( 38)
          -0.1027 ( 43) -0.1864 ( 52) -0.1864 ( 58) -0.1241 ( 83) -0.1798 (125)
           0.1797 (133)  0.1444 (144)  0.1085 (150)  0.1276 (151)  0.1204 (157)
          -0.1084 (160) -0.1443 (178) -0.1206 (179) -0.1278 (183)
 CRD 59=   0.2247 (  1) -0.2251 (  4)  0.1110 (  8)  0.1011 ( 10) -0.1110 ( 11)
          -0.1010 ( 12)  0.1438 ( 15)  0.1345 ( 16)  0.1210 ( 17) -0.1439 ( 26)
          -0.1344 ( 28) -0.1210 ( 29) -0.1075 ( 44)  0.1075 ( 47) -0.1352 ( 54)
           0.1352 ( 57) -0.1105 ( 69) -0.1375 ( 73) -0.1110 ( 74)  0.1375 ( 76)
           0.1111 ( 77) -0.1077 ( 78)  0.1104 ( 90)  0.1078 ( 91)  0.1375 (106)
           0.1376 (113) -0.1110 (115) -0.1111 (127)  0.1801 (151) -0.1897 (154)
          -0.1121 (155) -0.1122 (159)  0.1516 (171) -0.1898 (180)  0.1799 (183)
 CRD 60=  -0.2357 (  1)  0.2357 (  4)  0.1118 ( 15) -0.1009 ( 23)  0.1008 ( 24)
          -0.1118 ( 26) -0.1516 ( 44) -0.1273 ( 46)  0.1516 ( 47)  0.1273 ( 49)
           0.1077 ( 54) -0.1076 ( 57) -0.1597 ( 59) -0.1523 ( 67)  0.1597 ( 86)
           0.1524 ( 88)  0.1039 ( 96)  0.1039 (100)  0.1418 (116)  0.1418 (128)
           0.1145 (140)  0.1144 (153) -0.1239 (154) -0.1578 (155) -0.1466 (156)
          -0.1057 (157) -0.1578 (159) -0.1057 (179) -0.1240 (180) -0.1466 (181)
           0.2129 (185)
 CRD 61=   0.1289 (  1)  0.1398 (  2) -0.2979 (  3)  0.1286 (  4) -0.1901 (  5)
          -0.1904 (  7) -0.1124 (  8) -0.1218 (  9)  0.1304 ( 10) -0.1125 ( 11)
           0.1303 ( 12) -0.1218 ( 13)  0.1629 ( 16) -0.1030 ( 20)  0.1628 ( 28)
           0.1210 ( 44)  0.1212 ( 47)  0.1567 ( 53)  0.1567 ( 56)  0.1031 ( 73)
           0.1031 ( 76) -0.1057 ( 78) -0.1055 ( 91) -0.1376 (104)  0.1375 (112)
          -0.1023 (123)  0.1023 (131)  0.1150 (151) -0.1903 (154) -0.1230 (155)
           0.1229 (159)  0.1903 (180) -0.1148 (183)
 CRD 62=  -0.1428 (  1)  0.1429 (  4) -0.1951 (  5)  0.1948 (  7)  0.1426 ( 15)
          -0.1965 ( 18)  0.1963 ( 21) -0.1131 ( 23)  0.1131 ( 24) -0.1425 ( 26)
           0.1124 ( 46) -0.1123 ( 49) -0.1269 ( 60) -0.1058 ( 63)  0.1506 ( 68)
          -0.1120 ( 73)  0.1121 ( 76)  0.1268 ( 84)  0.1057 ( 85) -0.1506 ( 87)
           0.1314 ( 93)  0.1315 ( 95)  0.1109 (134) -0.1073 (140) -0.1530 (142)
          -0.1311 (152) -0.1072 (153)  0.1108 (158) -0.1530 (161) -0.1361 (162)
          -0.1025 (163)  0.1028 (166) -0.1360 (168) -0.1176 (171) -0.1311 (184)
           0.1439 (185)  0.1027 (186) -0.1026 (187)
 CRD 63=   0.1651 (  5) -0.1652 (  7)  0.1863 ( 14) -0.1196 ( 15)  0.1921 ( 16)
          -0.1491 ( 17) -0.2188 ( 18)  0.1741 ( 19)  0.2188 ( 21)  0.1196 ( 26)
          -0.1863 ( 27) -0.1921 ( 28)  0.1491 ( 29) -0.1740 ( 30) -0.1234 ( 46)
           0.1234 ( 49) -0.1204 ( 60) -0.1630 ( 74)  0.1629 ( 77)  0.1205 ( 84)
          -0.1590 (102) -0.1590 (107)  0.1191 (141)  0.1455 (150)  0.1173 (151)
          -0.1141 (154)  0.1455 (160)  0.1190 (164)  0.1201 (165)  0.1337 (166)
           0.1202 (169) -0.1141 (180)  0.1173 (183)  0.1338 (186)
 CRD 64=   0.1309 (  1) -0.2250 (  2)  0.1309 (  4)  0.1079 (  8) -0.1745 (  9)
           0.1079 ( 11) -0.1745 ( 13)  0.1319 ( 14)  0.2493 ( 20)  0.1109 ( 23)
           0.1109 ( 24) -0.2305 ( 25)  0.1320 ( 27) -0.1322 ( 38)  0.1208 ( 43)
           0.1231 ( 52)  0.1231 ( 58) -0.1664 ( 83) -0.1061 (114)  0.1858 (125)
           0.1061 (126) -0.1858 (133) -0.1624 (147)  0.1140 (149)  0.1444 (150)
           0.1214 (151) -0.1445 (160) -0.1199 (173)  0.1624 (174)  0.1200 (175)
          -0.1140 (182) -0.1215 (183)
 CRD 65=  -0.1585 (  3)  0.1354 (  5) -0.1695 (  6)  0.1353 (  7) -0.1143 (  9)
           0.1320 ( 10)  0.1321 ( 12) -0.1143 ( 13) -0.1596 ( 15)  0.1047 ( 16)
          -0.1304 ( 17)  0.1412 ( 18)  0.1412 ( 21) -0.2132 ( 22) -0.1597 ( 26)
           0.1047 ( 28) -0.1304 ( 29)  0.1075 ( 53)  0.1076 ( 56)  0.1414 ( 69)
           0.1466 ( 78)  0.1414 ( 90)  0.1466 ( 91) -0.1403 ( 93)  0.1403 ( 95)
          -0.1460 (104)  0.1104 (106)  0.1460 (112) -0.1104 (113)  0.1116 (120)
          -0.1116 (124) -0.1333 (151)  0.1607 (154)  0.1143 (155) -0.1143 (159)
           0.1537 (166) -0.1608 (180)  0.1332 (183) -0.1537 (186)
 CRD 66=   0.1144 (  8) -0.2394 (  9)  0.1455 ( 10) -0.1144 ( 11) -0.1456 ( 12)
           0.2394 ( 13) -0.1489 ( 23)  0.1490 ( 24)  0.1103 ( 33) -0.1103 ( 40)
          -0.1911 ( 54)  0.1911 ( 57) -0.1105 ( 81)  0.1105 ( 82) -0.1237 ( 92)
          -0.1236 ( 98) -0.1236 ( 99)  0.1667 (103) -0.1424 (104)  0.1520 (105)
           0.1520 (109) -0.1424 (112)  0.1506 (114)  0.1533 (115) -0.1439 (120)
          -0.1276 (123) -0.1438 (124)  0.1668 (125)  0.1506 (126)  0.1533 (127)
          -0.1277 (131)  0.1668 (133) -0.1351 (145) -0.1351 (170) -0.1842 (171)
 CRD 67=  -0.1171 (  5)  0.1170 (  7) -0.1223 ( 17)  0.2462 ( 23) -0.2462 ( 24)
           0.1223 ( 29)  0.1153 ( 71) -0.1153 ( 72)  0.1838 ( 81) -0.1837 ( 82)
           0.1442 ( 98) -0.1210 (106) -0.1211 (113)  0.1197 (116)  0.1197 (128)
           0.1848 (145) -0.1197 (147) -0.1197 (148) -0.1507 (152) -0.1090 (156)
           0.1848 (170)  0.1844 (171) -0.1197 (172) -0.1201 (173) -0.1197 (174)
          -0.1201 (175) -0.1090 (181) -0.1507 (184)  0.1708 (185)
 CRD 68=   0.2609 (  8) -0.2548 ( 10) -0.2609 ( 11)  0.2549 ( 12) -0.1086 ( 34)
           0.1086 ( 36) -0.1239 ( 37)  0.1239 ( 39)  0.1954 ( 52) -0.1848 ( 53)
           0.1848 ( 56) -0.1954 ( 58)  0.1020 (105)  0.1020 (109) -0.2269 (110)
          -0.2269 (111) -0.2867 (118) -0.2409 (121) -0.2868 (122) -0.2409 (132)
 CRD 69=  -0.1647 (  2)  0.1239 ( 18) -0.1443 ( 19)  0.1239 ( 21) -0.1110 ( 22)
          -0.1201 ( 23) -0.1202 ( 24)  0.2736 ( 25) -0.1443 ( 30)  0.1136 ( 31)
           0.1050 ( 60) -0.1116 ( 70) -0.1184 ( 74) -0.1184 ( 77) -0.1107 ( 81)
          -0.1108 ( 82)  0.1810 ( 83)  0.1050 ( 84)  0.1483 (102) -0.1483 (107)
           0.1194 (135)  0.1372 (144)  0.1645 (147) -0.1567 (148)  0.1849 (149)
           0.1281 (152)  0.1201 (157) -0.1194 (167)  0.1567 (172)  0.1606 (173)
          -0.1645 (174) -0.1606 (175) -0.1372 (178) -0.1201 (179) -0.1849 (182)
          -0.1281 (184)
 CRD 70=   0.1915 (  5) -0.1493 (  6)  0.1914 (  7) -0.1309 (  9) -0.1309 ( 13)
           0.1031 ( 17) -0.1716 ( 18) -0.1716 ( 21)  0.1763 ( 22)  0.1032 ( 29)
          -0.1039 ( 46) -0.1038 ( 49)  0.1172 ( 51) -0.1061 ( 54) -0.1061 ( 57)
           0.1040 ( 67)  0.1083 ( 73)  0.1083 ( 76) -0.1105 ( 80)  0.1041 ( 88)
          -0.1037 (104) -0.1213 (106)  0.1036 (112)  0.1212 (113) -0.1071 (119)
           0.1032 (120) -0.1256 (123) -0.1032 (124)  0.1071 (129)  0.1255 (131)
          -0.1166 (149)  0.1875 (156) -0.1063 (163) -0.1877 (181)  0.1167 (182)
           0.1062 (187)
 CRD 71=   0.1113 ( 14) -0.2922 ( 16)  0.1628 ( 19) -0.1113 ( 27)  0.2922 ( 28)
          -0.1629 ( 30)  0.1174 ( 67) -0.1921 ( 78) -0.1173 ( 88)  0.1920 ( 91)
          -0.1260 ( 96) -0.1261 (100) -0.1221 (102) -0.1221 (107) -0.1563 (140)
           0.1814 (142) -0.1088 (145) -0.1365 (152) -0.1563 (153)  0.1814 (161)
           0.1741 (162)  0.1332 (163) -0.1134 (166)  0.1741 (168) -0.1088 (170)
          -0.1365 (184) -0.1133 (186)  0.1332 (187)
 CRD 72=  -0.1251 (  1)  0.1252 (  4) -0.1669 (  5)  0.1670 (  7) -0.1162 ( 14)
          -0.1318 ( 15) -0.1027 ( 18)  0.1026 ( 21)  0.1317 ( 26)  0.1162 ( 27)
           0.1387 ( 42) -0.1388 ( 45)  0.1833 ( 69) -0.1833 ( 90) -0.1062 (102)
          -0.1082 (103) -0.1062 (107) -0.1009 (117) -0.1009 (119) -0.1197 (123)
          -0.1009 (129) -0.1009 (130) -0.1197 (131)  0.1244 (140) -0.2112 (149)
          -0.1078 (150)  0.1244 (153)  0.1300 (155)  0.1969 (156) -0.1200 (157)
           0.1300 (159) -0.1078 (160) -0.1200 (179)  0.1968 (181) -0.2112 (182)
           0.1169 (185)
 CRD 73=   0.1109 (  1) -0.1384 (  2)  0.1109 (  4)  0.1104 (  9)  0.1104 ( 13)
          -0.1613 ( 15) -0.1087 ( 18)  0.1191 ( 20) -0.1087 ( 21) -0.1613 ( 26)
          -0.1106 ( 33) -0.1006 ( 38) -0.1106 ( 40)  0.1008 ( 43) -0.1620 ( 51)
           0.1037 ( 69)  0.1037 ( 90) -0.1133 ( 93)  0.1133 ( 95)  0.1446 (105)
          -0.1446 (109)  0.1074 (114) -0.1012 (115)  0.1275 (119)  0.1110 (121)
           0.1720 (123) -0.1074 (126)  0.1013 (127) -0.1275 (129) -0.1720 (131)
          -0.1111 (132)  0.1462 (134)  0.1012 (135)  0.1772 (156) -0.1083 (157)
          -0.1462 (158) -0.1012 (167)  0.1084 (179) -0.1773 (181)
 CRD 74=   0.1507 (  2) -0.1233 (  3)  0.1609 (  8) -0.1245 ( 10)  0.1608 ( 11)
          -0.1244 ( 12)  0.1199 ( 16)  0.1200 ( 28)  0.1082 ( 34)  0.1083 ( 36)
          -0.1318 ( 37) -0.1318 ( 39) -0.1040 ( 41) -0.1041 ( 48)  0.1224 ( 50)
           0.1087 ( 52)  0.1222 ( 55)  0.1087 ( 58)  0.1033 ( 69)  0.1033 ( 90)
          -0.1110 ( 96)  0.1110 (100) -0.1417 (110)  0.1416 (111) -0.2437 (114)
           0.1039 (115) -0.1952 (120) -0.2356 (121)  0.1953 (124)  0.2437 (126)
          -0.1038 (127)  0.2356 (132)  0.1538 (134) -0.1537 (158)
 CRD 75=   0.1237 ( 14) -0.1174 ( 15)  0.1870 ( 18) -0.1126 ( 19) -0.1871 ( 21)
           0.1173 ( 26) -0.1237 ( 27)  0.1124 ( 30) -0.1199 ( 64) -0.1034 ( 68)
           0.1197 ( 79)  0.1033 ( 87)  0.1645 ( 92)  0.1112 ( 94)  0.1112 ( 97)
           0.1642 ( 99) -0.1027 (101) -0.1429 (103) -0.1028 (108) -0.1002 (113)
          -0.1129 (115) -0.1131 (127)  0.1179 (135) -0.1228 (145)  0.1603 (149)
          -0.1127 (152)  0.1234 (154) -0.1204 (157) -0.1364 (163)  0.1178 (167)
          -0.1227 (170)  0.1887 (173)  0.1886 (175) -0.1202 (179)  0.1233 (180)
           0.1601 (182) -0.1127 (184)  0.1258 (185) -0.1359 (187)
 CRD 76=  -0.1426 ( 16)  0.1338 ( 17) -0.2154 ( 22) -0.1427 ( 28)  0.1338 ( 29)
           0.1594 ( 61) -0.1657 ( 65)  0.1596 ( 75) -0.1564 ( 78)  0.1298 ( 80)
          -0.1565 ( 91) -0.1421 ( 92)  0.1424 ( 99) -0.1115 (106)  0.1113 (113)
           0.1336 (137)  0.2568 (141) -0.1118 (149)  0.1291 (156)  0.2212 (163)
          -0.2567 (164) -0.1985 (165)  0.1987 (169) -0.1336 (176) -0.1290 (181)
           0.1121 (182) -0.2215 (187)
 CRD 77=  -0.1431 (  1)  0.1431 (  4)  0.1544 (  5) -0.1542 (  7)  0.1241 ( 17)
          -0.1241 ( 29)  0.1101 ( 41) -0.1102 ( 48)  0.1079 ( 59) -0.1079 ( 86)
          -0.1178 ( 96)  0.1303 ( 98) -0.1178 (100) -0.1280 (103)  0.1224 (105)
           0.1224 (109) -0.2141 (116) -0.1030 (123) -0.2141 (128) -0.1030 (131)
           0.1129 (137)  0.1545 (139)  0.1139 (144)  0.1445 (145)  0.1068 (149)
           0.1225 (151) -0.1247 (165) -0.1246 (169)  0.1444 (170)  0.1129 (176)
           0.1544 (177)  0.1139 (178)  0.1068 (182)  0.1227 (183)
 CRD 78=  -0.2378 (  2) -0.1215 ( 14)  0.1157 ( 16) -0.1526 ( 20) -0.1075 ( 25)
          -0.1214 ( 27)  0.1157 ( 28)  0.1292 ( 31)  0.1057 ( 44)  0.1057 ( 47)
          -0.1060 ( 62)  0.1189 (102) -0.1189 (107)  0.1477 (138) -0.1386 (141)
          -0.1478 (146)  0.1542 (148) -0.1028 (150)  0.2287 (152)  0.1260 (157)
           0.1028 (160) -0.1627 (162)  0.1387 (164)  0.1628 (168) -0.1543 (172)
          -0.1260 (179) -0.2287 (184)
 CRD 79=  -0.2045 (  3) -0.1842 (  6)  0.1285 ( 31) -0.1040 ( 32) -0.1041 ( 35)
           0.1232 ( 43)  0.1081 ( 94)  0.1945 ( 96) -0.1082 ( 97) -0.1945 (100)
           0.1474 (105) -0.1473 (109) -0.2033 (110)  0.2033 (111)  0.1217 (116)
           0.2227 (117) -0.1719 (120)  0.1719 (124) -0.1218 (128) -0.2226 (130)
          -0.1491 (134) -0.1040 (138)  0.1010 (139)  0.1039 (146)  0.1492 (158)
          -0.1008 (177)
 CRD 80=   0.1101 (  1) -0.1099 (  4) -0.1266 (  5)  0.1267 (  7)  0.1024 ( 17)
          -0.1246 ( 18)  0.1248 ( 21) -0.1023 ( 29) -0.1011 ( 32)  0.1010 ( 35)
           0.1018 ( 66) -0.1017 ( 89) -0.1791 ( 92)  0.1449 ( 94)  0.1448 ( 97)
          -0.1790 ( 99) -0.1500 (101)  0.2411 (103) -0.1497 (108)  0.1651 (116)
           0.1649 (128)  0.1358 (137) -0.1816 (139)  0.1060 (145)  0.1257 (156)
          -0.1134 (157) -0.1075 (165) -0.1074 (169)  0.1058 (170) -0.1215 (173)
          -0.1214 (175)  0.1356 (176) -0.1817 (177) -0.1134 (179)  0.1257 (181)
 CRD 81=   0.1181 ( 19)  0.1615 ( 20)  0.1181 ( 30) -0.1129 ( 62)  0.1178 ( 65)
           0.1510 ( 94) -0.1509 ( 97)  0.2028 (101) -0.2029 (108) -0.1945 (136)
          -0.1254 (137)  0.1253 (138)  0.1946 (143) -0.1100 (145) -0.1253 (146)
          -0.1630 (148) -0.1179 (149) -0.1040 (151)  0.1133 (152)  0.1131 (157)
           0.1595 (162)  0.1348 (165) -0.1595 (168) -0.1349 (169)  0.1101 (170)
           0.1630 (172)  0.1255 (176) -0.1132 (179)  0.1180 (182)  0.1041 (183)
          -0.1134 (184)

 THE DETERMINANT OF THE G MATRIX IS 10**(   -26)


                     --------------------
                     INTERNAL COORDINATES
                     --------------------

                 - - ATOMS - -         COORDINATE      COORDINATE
 NO.   TYPE    I  J  K  L  M  N        (BOHR,RAD)       (ANG,DEG)
 ----------------------------------------------------------------
   1 STRETCH   1  7                     2.9169882       1.5436038
   2 STRETCH   1  2                     2.9752804       1.5744507
   3 STRETCH   1 29                     2.7150018       1.4367172
   4 STRETCH   1  3                     2.9168201       1.5435149
   5 STRETCH   2 22                     2.9296577       1.5503082
   6 STRETCH   2 26                     2.1013169       1.1119691
   7 STRETCH   2 11                     2.9296646       1.5503118
   8 STRETCH   3  5                     2.1001027       1.1113266
   9 STRETCH   3  4                     2.0930727       1.1076065
  10 STRETCH   3  6                     2.1001340       1.1113431
  11 STRETCH   7  8                     2.1002755       1.1114180
  12 STRETCH   7 10                     2.1000648       1.1113065
  13 STRETCH   7  9                     2.0930389       1.1075886
  14 STRETCH  11 14                     2.1024037       1.1125442
  15 STRETCH  11 13                     2.0969429       1.1096545
  16 STRETCH  11 12                     2.9242117       1.5474263
  17 STRETCH  12 16                     2.1020905       1.1123785
  18 STRETCH  12 15                     2.9345731       1.5529093
  19 STRETCH  12 17                     2.1017772       1.1122127
  20 STRETCH  15 29                     2.7060255       1.4319671
  21 STRETCH  15 23                     2.9344276       1.5528323
  22 STRETCH  15 18                     2.8956246       1.5322987
  23 STRETCH  18 21                     2.0995635       1.1110412
  24 STRETCH  18 20                     2.0994659       1.1109896
  25 STRETCH  18 19                     2.1000804       1.1113148
  26 STRETCH  22 25                     2.0967776       1.1095670
  27 STRETCH  22 24                     2.1025004       1.1125954
  28 STRETCH  22 23                     2.9242687       1.5474565
  29 STRETCH  23 28                     2.1020631       1.1123640
  30 STRETCH  23 27                     2.1018363       1.1122440
  31 BEND      1  2 26                  1.9725878     113.0209566
  32 BEND      1  2 11                  1.8955901     108.6093126
  33 BEND      1  3  4                  1.9553684     112.0343580
  34 BEND      1  7 10                  1.9320335     110.6973639
  35 BEND      1  2 22                  1.8957092     108.6161361
  36 BEND      1  3  6                  1.9320063     110.6958089
  37 BEND      1  3  5                  1.9245646     110.2694265
  38 BEND      1 29 15                  1.9824713     113.5872387
  39 BEND      1  7  8                  1.9244577     110.2633015
  40 BEND      1  7  9                  1.9553064     112.0308033
  41 BEND      2  1  7                  1.9356796     110.9062700
  42 BEND      2 22 23                  1.9082254     109.3332629
  43 BEND      2  1 29                  1.9394727     111.1235999
  44 BEND      2 22 24                  1.9045465     109.1224752
  45 BEND      2 11 12                  1.9083224     109.3388186
  46 BEND      2 22 25                  1.9669367     112.6971740
  47 BEND      2 11 14                  1.9046296     109.1272390
  48 BEND      2  1  3                  1.9358194     110.9142815
  49 BEND      2 11 13                  1.9668536     112.6924098
  50 BEND      3  1 29                  1.8899010     108.2833529
  51 BEND      3  1  7                  1.8708149     107.1897993
  52 BEND      4  3  6                  1.9003537     108.8822450
  53 BEND      4  3  5                  1.8553348     106.3028549
  54 BEND      5  3  6                  1.8936984     108.5009282
  55 BEND      7  1 29                  1.8898625     108.2811446
  56 BEND      8  7  9                  1.8553160     106.3017785
  57 BEND      8  7 10                  1.8937541     108.5041199
  58 BEND      9  7 10                  1.9004624     108.8884731
  59 BEND     11  2 26                  1.9235710     110.2125006
  60 BEND     11 12 17                  1.9157290     109.7631869
  61 BEND     11 12 15                  1.9117231     109.5336636
  62 BEND     11  2 22                  1.8483177     105.9008033
  63 BEND     11 12 16                  1.9088918     109.3714412
  64 BEND     12 15 18                  1.9259041     110.3461769
  65 BEND     12 15 23                  1.9098981     109.4291021
  66 BEND     12 15 29                  1.9029939     109.0335170
  67 BEND     12 11 13                  1.9216926     110.1048731
  68 BEND     12 11 14                  1.9227411     110.1649509
  69 BEND     13 11 14                  1.8385334     105.3402034
  70 BEND     15 18 19                  1.9309833     110.6371959
  71 BEND     15 18 20                  1.9240928     110.2423973
  72 BEND     15 18 21                  1.9240334     110.2389928
  73 BEND     15 23 27                  1.9526912     111.8809669
  74 BEND     15 23 28                  1.8903206     108.3073921
  75 BEND     15 23 22                  1.9117986     109.5379935
  76 BEND     15 12 17                  1.9525763     111.8743789
  77 BEND     15 12 16                  1.8904324     108.3137995
  78 BEND     16 12 17                  1.8837635     107.9316961
  79 BEND     18 15 23                  1.9258601     110.3436571
  80 BEND     18 15 29                  1.8958716     108.6254430
  81 BEND     19 18 20                  1.8967783     108.6773915
  82 BEND     19 18 21                  1.8967391     108.6751444
  83 BEND     20 18 21                  1.8903616     108.3097386
  84 BEND     22 23 27                  1.9156864     109.7607436
  85 BEND     22 23 28                  1.9088679     109.3700740
  86 BEND     22  2 26                  1.9235837     110.2132247
  87 BEND     23 22 24                  1.9227568     110.1658517
  88 BEND     23 22 25                  1.9217311     110.1070816
  89 BEND     23 15 29                  1.9029669     109.0319720
  90 BEND     24 22 25                  1.8385803     105.3428904
  91 BEND     27 23 28                  1.8837463     107.9307132
  92 TORSION   1 29 15 12               1.0422410      59.7160078
  93 TORSION   1  2 11 14               3.0117069     172.5580961
  94 TORSION   1  2 22 23              -0.9072113     -51.9793780
  95 TORSION   1  2 22 24              -3.0112442    -172.5315822
  96 TORSION   1  2 22 25               1.2359774      70.8162907
  97 TORSION   1  2 11 12               0.9075832      52.0006890
  98 TORSION   1 29 15 18              -3.1414644    -179.9926490
  99 TORSION   1 29 15 23              -1.0420536     -59.7052745
 100 TORSION   1  2 11 13              -1.2355691     -70.7928933
 101 TORSION   2 11 12 15               0.0659091       3.7763109
 102 TORSION   2 11 12 16              -2.0034425    -114.7888013
 103 TORSION   2  1 29 15              -0.0001384      -0.0079324
 104 TORSION   2  1  3  5               3.1058766     177.9536195
 105 TORSION   2  1  7 10              -1.0103072     -57.8863391
 106 TORSION   2 22 23 27              -2.2168061    -127.0136360
 107 TORSION   2 22 23 28               2.0028233     114.7533242
 108 TORSION   2 22 23 15              -0.0664229      -3.8057536
 109 TORSION   2  1  3  6               1.0101882      57.8795219
 110 TORSION   2  1  3  4              -1.1146237     -63.8632311
 111 TORSION   2  1  7  9               1.1146203      63.8630392
 112 TORSION   2  1  7  8              -3.1060131    -177.9614424
 113 TORSION   2 11 12 17               2.2161266     126.9747014
 114 TORSION   3  1  7 10               1.1051944      63.3229773
 115 TORSION   3  1 29 15              -2.1303343    -122.0591625
 116 TORSION   3  1  2 26              -1.0382152     -59.4853471
 117 TORSION   3  1  2 11               1.1020475      63.1426721
 118 TORSION   3  1  7  9              -3.0530633    -174.9276444
 119 TORSION   3  1  2 22               3.1046055     177.8807945
 120 TORSION   3  1  7  8              -0.9905115     -56.7521260
 121 TORSION   4  3  1 29               1.0178086      58.3161382
 122 TORSION   4  3  1  7               3.0531482     174.9325054
 123 TORSION   5  3  1 29              -1.0448765     -59.8670112
 124 TORSION   5  3  1  7               0.9904631      56.7493559
 125 TORSION   6  3  1 29              -3.1405648    -179.9411088
 126 TORSION   6  3  1  7              -1.1052252     -63.3247417
 127 TORSION   7  1 29 15               2.1298579     122.0318661
 128 TORSION   7  1  2 26               1.0385507      59.5045728
 129 TORSION   7  1  2 11              -3.1043719    -177.8674080
 130 TORSION   7  1  2 22              -1.1018139     -63.1292856
 131 TORSION   8  7  1 29               1.0448535      59.8656970
 132 TORSION   9  7  1 29              -1.0176984     -58.3098214
 133 TORSION  10  7  1 29               3.1405594     179.9408003
 134 TORSION  11  2 22 24              -0.9780583     -56.0386123
 135 TORSION  11 12 15 18               3.1259888     179.1059653
 136 TORSION  11 12 15 23               1.0036821      57.5067475
 137 TORSION  11 12 15 29              -1.0763035     -61.6676500
 138 TORSION  11  2 22 23               1.1259746      64.5135919
 139 TORSION  11  2  1 29              -1.0012336     -57.3664624
 140 TORSION  11  2 22 25              -3.0140220    -172.6907394
 141 TORSION  12 15 23 27               1.1249680      64.4559166
 142 TORSION  12 15 23 28              -3.0841054    -176.7062222
 143 TORSION  12 15 23 22              -1.0033899     -57.4900066
 144 TORSION  12 11  2 26               3.0772293     176.3122527
 145 TORSION  12 15 18 19              -1.0563781     -60.5260062
 146 TORSION  12 11  2 22              -1.1256831     -64.4968911
 147 TORSION  12 15 18 20               3.1282404     179.2349742
 148 TORSION  12 15 18 21               1.0421010      59.7079913
 149 TORSION  13 11 12 16               0.1663916       9.5335355
 150 TORSION  13 11 12 15               2.2357432     128.0986477
 151 TORSION  13 11 12 17              -1.8972246    -108.7029618
 152 TORSION  13 11  2 26               0.9340770      53.5186704
 153 TORSION  13 11  2 22               3.0143499     172.7095267
 154 TORSION  14 11 12 16               2.1867107     125.2892934
 155 TORSION  14 11 12 15              -2.0271230    -116.1455944
 156 TORSION  14 11 12 17               0.1230945       7.0527960
 157 TORSION  14 11  2 26              -1.1018323     -63.1303402
 158 TORSION  14 11  2 22               0.9784406      56.0605160
 159 TORSION  15 23 22 24               2.0264559     116.1073685
 160 TORSION  15 23 22 25              -2.2363217    -128.1317934
 161 TORSION  16 12 15 23               3.0844489     176.7259047
 162 TORSION  16 12 15 18              -1.0764297     -61.6748776
 163 TORSION  16 12 15 29               1.0044633      57.5515071
 164 TORSION  17 12 15 23              -1.1246005     -64.4348632
 165 TORSION  17 12 15 18               0.9977062      57.1643546
 166 TORSION  17 12 15 29               3.0785992     176.3907393
 167 TORSION  18 15 23 22              -3.1257231    -179.0907432
 168 TORSION  18 15 23 28               1.0767467      61.6930412
 169 TORSION  18 15 23 27              -0.9973653     -57.1448199
 170 TORSION  19 18 15 23               1.0564424      60.5296904
 171 TORSION  19 18 15 29              -3.1415901    -179.9998537
 172 TORSION  20 18 15 23              -1.0421244     -59.7093292
 173 TORSION  20 18 15 29               1.0430284      59.7611267
 174 TORSION  21 18 15 23              -3.1282638    -179.2363122
 175 TORSION  21 18 15 29              -1.0431110     -59.7658563
 176 TORSION  22 23 15 29               1.0766124      61.6853455
 177 TORSION  22  2  1 29               1.0013244      57.3716600
 178 TORSION  23 22  2 26              -3.0769462    -176.2960291
 179 TORSION  24 22  2 26               1.1022063      63.1517667
 180 TORSION  24 22 23 28              -2.1874832    -125.3335537
 181 TORSION  24 22 23 27              -0.1239273      -7.1005139
 182 TORSION  25 22 23 28              -0.1670754      -9.5727155
 183 TORSION  25 22 23 27               1.8964804     108.6603242
 184 TORSION  25 22  2 26              -0.9337574     -53.5003604
 185 TORSION  26  2  1 29              -3.1414963    -179.9944815
 186 TORSION  27 23 15 29              -3.0782151    -176.3687312
 187 TORSION  28 23 15 29              -1.0041031     -57.5308701

     ------------------------------------------
     THE POINT GROUP IS C1 , NAXIS= 1, ORDER= 1
     ------------------------------------------

     DIMENSIONS OF THE SYMMETRY SUBSPACES ARE
 A   =  317

 ..... DONE SETTING UP THE RUN .....
 STEP CPU TIME =     0.03 TOTAL CPU TIME =        0.0 (    0.0 MIN)
 TOTAL WALL CLOCK TIME=        0.0 SECONDS, CPU UTILIZATION IS  75.00%


          -----------------------------
          STATIONARY POINT LOCATION RUN
          -----------------------------

 OBTAINING INITIAL HESSIAN, HESS=GUESS   
 DIAGONAL GUESS HESSIAN IN INTERNAL COORDS IS
     1  0.3576     2  0.3368     3  0.3554     4  0.3576     5  0.3530
     6  0.3319     7  0.3530     8  0.3323     9  0.3347    10  0.3323
    11  0.3322    12  0.3323    13  0.3347    14  0.3315    15  0.3334
    16  0.3549    17  0.3316    18  0.3512    19  0.3317    20  0.3587
    21  0.3512    22  0.3655    23  0.3325    24  0.3325    25  0.3323
    26  0.3334    27  0.3315    28  0.3549    29  0.3316    30  0.3317
    31  0.2202    32  0.2440    33  0.2222    34  0.2220    35  0.2440
    36  0.2220    37  0.2220    38  0.2370    39  0.2220    40  0.2222
    41  0.2445    42  0.2459    43  0.2395    44  0.2216    45  0.2459
    46  0.2217    47  0.2216    48  0.2445    49  0.2217    50  0.2416
    51  0.2466    52  0.2015    53  0.2015    54  0.2013    55  0.2416
    56  0.2015    57  0.2013    58  0.2015    59  0.2216    60  0.2217
    61  0.2457    62  0.2457    63  0.2217    64  0.2467    65  0.2453
    66  0.2412    67  0.2219    68  0.2217    69  0.2013    70  0.2227
    71  0.2227    72  0.2227    73  0.2214    74  0.2214    75  0.2457
    76  0.2214    77  0.2214    78  0.2012    79  0.2467    80  0.2426
    81  0.2013    82  0.2013    83  0.2013    84  0.2217    85  0.2217
    86  0.2216    87  0.2217    88  0.2219    89  0.2413    90  0.2013
    91  0.2012    92  0.2500    93  0.2500    94  0.2500    95  0.2500
    96  0.2500    97  0.2500    98  0.2500    99  0.2500   100  0.2500
   101  0.2500   102  0.2500   103  0.2500   104  0.2500   105  0.2500
   106  0.2500   107  0.2500   108  0.2500   109  0.2500   110  0.2500
   111  0.2500   112  0.2500   113  0.2500   114  0.2500   115  0.2500
   116  0.2500   117  0.2500   118  0.2500   119  0.2500   120  0.2500
   121  0.2500   122  0.2500   123  0.2500   124  0.2500   125  0.2500
   126  0.2500   127  0.2500   128  0.2500   129  0.2500   130  0.2500
   131  0.2500   132  0.2500   133  0.2500   134  0.2500   135  0.2500
   136  0.2500   137  0.2500   138  0.2500   139  0.2500   140  0.2500
   141  0.2500   142  0.2500   143  0.2500   144  0.2500   145  0.2500
   146  0.2500   147  0.2500   148  0.2500   149  0.2500   150  0.2500
   151  0.2500   152  0.2500   153  0.2500   154  0.2500   155  0.2500
   156  0.2500   157  0.2500   158  0.2500   159  0.2500   160  0.2500
   161  0.2500   162  0.2500   163  0.2500   164  0.2500   165  0.2500
   166  0.2500   167  0.2500   168  0.2500   169  0.2500   170  0.2500
   171  0.2500   172  0.2500   173  0.2500   174  0.2500   175  0.2500
   176  0.2500   177  0.2500   178  0.2500   179  0.2500   180  0.2500
   181  0.2500   182  0.2500   183  0.2500   184  0.2500   185  0.2500
   186  0.2500   187  0.2500
 TRANSFORMING HESSIAN TO SYMMETRY COORDINATES

          PARAMETERS CONTROLLING GEOMETRY SEARCH ARE
          METHOD =QA                  UPHESS =BFGS    
          NNEG   =         0          NFRZ   =         3
          NSTEP  =        50          IFOLOW =         1
          HESS   =GUESS               RESTAR =         F
          IHREP  =         0          HSSEND =         F
          NPRT   =         0          NPUN   =         0
          OPTTOL = 5.000E-04          RMIN   = 1.500E-03
          RMAX   = 1.000E-01          RLIM   = 7.000E-02
          DXMAX  = 3.000E-01          PURIFY =         F
          MOVIE  =         F          TRUPD  =         T
          TRMAX  = 5.000E-01          TRMIN  = 5.000E-02
          ITBMAT =         5          STPT   =         F
          STSTEP = 1.000E-02          PROJCT=          F
          FROZEN COORD(S)=   1   2   3


      ***** EQUILIBRIUM GEOMETRY LOCATED *****
            (SUBJECT TO   3 CONSTRAINT(S))
 COORDINATES OF ALL ATOMS ARE (ANGS)
   ATOM   CHARGE       X              Y              Z
 ------------------------------------------------------------
 C           6.0  -1.1629540641   0.5999681941  -0.2973773539
 C           6.0  -2.2648504287   1.1065698289   0.6586075292
 C           6.0  -0.9931040177   1.5113800132  -1.5171552037
 H           1.0  -1.8891506950   1.5652603978  -2.1218687665
 H           1.0  -0.1886704834   1.1401505108  -2.1450655797
 H           1.0  -0.7325234218   2.5178757610  -1.1987698102
 C           6.0   0.2000980624   0.4986352697   0.3948504795
 H           1.0   0.9516242309   0.1721476797  -0.3177685291
 H           1.0   0.1952574891  -0.2037921630   1.2182931088
 H           1.0   0.4996718060   1.4721075112   0.7755276691
 C           6.0  -3.6156934791   1.1485733580  -0.0727409910
 C           6.0  -3.8938560056  -0.2515473055  -0.6682066305
 H           1.0  -3.6271774054   1.9087804490  -0.8438062367
 H           1.0  -4.3888666327   1.4198589029   0.6388183638
 C           6.0  -2.7769359704  -1.2151336384  -0.2512715484
 H           1.0  -3.9276853881  -0.2171136217  -1.7530913107
 H           1.0  -4.8503527038  -0.6386615176  -0.3303954451
 C           6.0  -2.9899695914  -2.5965483319  -0.8498999017
 H           1.0  -3.9263498879  -3.0094981298  -0.4841970908
 H           1.0  -2.1893597903  -3.2737508951  -0.5688011746
 H           1.0  -3.0410279932  -2.5510823349  -1.9333770267
 C           6.0  -2.4222840154   0.1359095883   1.8394811235
 C           6.0  -2.6794939992  -1.2817750109   1.2770871740
 H           1.0  -3.2594247213   0.4611999969   2.4486562255
 H           1.0  -1.5512940953   0.1473897074   2.4827797769
 H           1.0  -1.9932414009   2.0958081528   1.0129911481
 H           1.0  -3.5953447031  -1.7034761899   1.6798692827
 H           1.0  -1.8727828383  -1.9601540276   1.5384677092
 O           8.0  -1.5396695814  -0.7070674582  -0.7546408541


                     --------------------
                     INTERNAL COORDINATES
                     --------------------

                 - - ATOMS - -         COORDINATE      COORDINATE
 NO.   TYPE    I  J  K  L  M  N        (BOHR,RAD)       (ANG,DEG)
 ----------------------------------------------------------------
   1 STRETCH   1  7                     2.8952667       1.5321093
   2 STRETCH   1  2                     2.9182215       1.5442564
   3 STRETCH   1 29                     2.7118369       1.4350424
   4 STRETCH   1  3                     2.8952789       1.5321157
   5 STRETCH   2 22                     2.9039310       1.5366942
   6 STRETCH   2 26                     2.0509854       1.0853348
   7 STRETCH   2 11                     2.9039204       1.5366886
   8 STRETCH   3  5                     2.0520685       1.0859080
   9 STRETCH   3  4                     2.0453447       1.0823499
  10 STRETCH   3  6                     2.0547720       1.0873386
  11 STRETCH   7  8                     2.0520820       1.0859151
  12 STRETCH   7 10                     2.0547742       1.0873398
  13 STRETCH   7  9                     2.0453484       1.0823518
  14 STRETCH  11 14                     2.0507744       1.0852232
  15 STRETCH  11 13                     2.0463109       1.0828612
  16 STRETCH  11 12                     2.9228457       1.5467035
  17 STRETCH  12 16                     2.0521631       1.0859580
  18 STRETCH  12 15                     2.8967988       1.5329200
  19 STRETCH  12 17                     2.0517758       1.0857531
  20 STRETCH  15 29                     2.7006161       1.4291046
  21 STRETCH  15 23                     2.8967819       1.5329111
  22 STRETCH  15 18                     2.8734064       1.5205413
  23 STRETCH  18 21                     2.0515470       1.0856320
  24 STRETCH  18 20                     2.0515462       1.0856315
  25 STRETCH  18 19                     2.0537020       1.0867724
  26 STRETCH  22 25                     2.0463110       1.0828612
  27 STRETCH  22 24                     2.0507774       1.0852247
  28 STRETCH  22 23                     2.9228347       1.5466976
  29 STRETCH  23 28                     2.0521596       1.0859562
  30 STRETCH  23 27                     2.0517654       1.0857476
  31 BEND      1  2 26                  1.8992469     108.8188320
  32 BEND      1  2 11                  1.9194057     109.9738472
  33 BEND      1  3  4                  1.9634507     112.4974410
  34 BEND      1  7 10                  1.9220515     110.1254363
  35 BEND      1  2 22                  1.9194155     109.9744076
  36 BEND      1  3  6                  1.9220676     110.1263639
  37 BEND      1  3  5                  1.9167744     109.8230827
  38 BEND      1 29 15                  2.0251043     116.0299320
  39 BEND      1  7  8                  1.9167462     109.8214702
  40 BEND      1  7  9                  1.9634916     112.4997833
  41 BEND      2  1  7                  1.9571451     112.1361545
  42 BEND      2 22 23                  1.8929269     108.4567227
  43 BEND      2  1 29                  1.8846603     107.9830801
  44 BEND      2 22 24                  1.8976372     108.7266036
  45 BEND      2 11 12                  1.8929133     108.4559431
  46 BEND      2 22 25                  1.9470242     111.5562713
  47 BEND      2 11 14                  1.8976556     108.7276552
  48 BEND      2  1  3                  1.9571458     112.1361966
  49 BEND      2 11 13                  1.9470087     111.5553829
  50 BEND      3  1 29                  1.8936011     108.4953505
  51 BEND      3  1  7                  1.8759334     107.4830674
  52 BEND      4  3  6                  1.8922169     108.4160437
  53 BEND      4  3  5                  1.8830850     107.8928226
  54 BEND      5  3  6                  1.8841248     107.9523997
  55 BEND      7  1 29                  1.8936479     108.4980323
  56 BEND      8  7  9                  1.8830812     107.8926053
  57 BEND      8  7 10                  1.8841475     107.9536993
  58 BEND      9  7 10                  1.8922016     108.4151636
  59 BEND     11  2 26                  1.9288731     110.5162904
  60 BEND     11 12 17                  1.9405655     111.1862153
  61 BEND     11 12 15                  1.9105693     109.4675574
  62 BEND     11  2 22                  1.8680872     107.0335119
  63 BEND     11 12 16                  1.9406821     111.1928935
  64 BEND     12 15 18                  1.9411202     111.2179937
  65 BEND     12 15 23                  1.9228468     110.1710045
  66 BEND     12 15 29                  1.8876086     108.1520081
  67 BEND     12 11 13                  1.9384838     111.0669406
  68 BEND     12 11 14                  1.9289987     110.5234822
  69 BEND     13 11 14                  1.8585866     106.4891657
  70 BEND     15 18 19                  1.9107539     109.4781319
  71 BEND     15 18 20                  1.9406217     111.1894354
  72 BEND     15 18 21                  1.9406234     111.1895304
  73 BEND     15 23 27                  1.9104237     109.4592140
  74 BEND     15 23 28                  1.8905736     108.3218870
  75 BEND     15 23 22                  1.9105481     109.4663418
  76 BEND     15 12 17                  1.9104269     109.4593961
  77 BEND     15 12 16                  1.8905661     108.3214592
  78 BEND     16 12 17                  1.8699225     107.1386695
  79 BEND     18 15 23                  1.9411391     111.2190801
  80 BEND     18 15 29                  1.8813772     107.7949751
  81 BEND     19 18 20                  1.8873067     108.1347075
  82 BEND     19 18 21                  1.8872796     108.1331536
  83 BEND     20 18 21                  1.8957027     108.6157638
  84 BEND     22 23 27                  1.9405497     111.1853062
  85 BEND     22 23 28                  1.9406997     111.1939007
  86 BEND     22  2 26                  1.9288493     110.5149225
  87 BEND     23 22 24                  1.9289746     110.5221031
  88 BEND     23 22 25                  1.9385143     111.0686860
  89 BEND     23 15 29                  1.8876758     108.1558543
  90 BEND     24 22 25                  1.8585673     106.4880620
  91 BEND     27 23 28                  1.8699389     107.1396080
  92 TORSION   1 29 15 12               1.0412659      59.6601410
  93 TORSION   1  2 11 14               3.0531054     174.9300511
  94 TORSION   1  2 22 23              -0.9545405     -54.6911432
  95 TORSION   1  2 22 24              -3.0528431    -174.9150254
  96 TORSION   1  2 22 25               1.1858964      67.9468609
  97 TORSION   1  2 11 12               0.9547710      54.7043486
  98 TORSION   1 29 15 18              -3.1414616    -179.9924933
  99 TORSION   1 29 15 23              -1.0409434     -59.6416615
 100 TORSION   1  2 11 13              -1.1856083     -67.9303539
 101 TORSION   2 11 12 15               0.0616837       3.5342185
 102 TORSION   2 11 12 16              -2.0265440    -116.1124162
 103 TORSION   2  1 29 15              -0.0002338      -0.0133931
 104 TORSION   2  1  3  5               3.1082279     178.0883398
 105 TORSION   2  1  7 10              -1.0357038     -59.3414540
 106 TORSION   2 22 23 27              -2.1749300    -124.6143102
 107 TORSION   2 22 23 28               2.0262010     116.0927674
 108 TORSION   2 22 23 15              -0.0620333      -3.5542438
 109 TORSION   2  1  3  6               1.0355753      59.3340936
 110 TORSION   2  1  3  4              -1.0773407     -61.7270771
 111 TORSION   2  1  7  9               1.0772089      61.7195260
 112 TORSION   2  1  7  8              -3.1083570    -178.0957358
 113 TORSION   2 11 12 17               2.1746088     124.5959091
 114 TORSION   3  1  7 10               1.1230045      64.3434169
 115 TORSION   3  1 29 15              -2.1252940    -121.7703769
 116 TORSION   3  1  2 26              -1.0561939     -60.5154514
 117 TORSION   3  1  2 11               1.0589118      60.6711777
 118 TORSION   3  1  7  9              -3.0472681    -174.5956031
 119 TORSION   3  1  2 22               3.1119091     178.2992563
 120 TORSION   3  1  7  8              -0.9496487     -54.4108649
 121 TORSION   4  3  1 29               1.0027156      57.4513723
 122 TORSION   4  3  1  7               3.0471368     174.5880777
 123 TORSION   5  3  1 29              -1.0949011     -62.7332108
 124 TORSION   5  3  1  7               0.9495201      54.4034946
 125 TORSION   6  3  1 29               3.1156316     178.5125430
 126 TORSION   6  3  1  7              -1.1231325     -64.3507516
 127 TORSION   7  1 29 15               2.1248532     121.7451190
 128 TORSION   7  1  2 26               1.0563328      60.5234138
 129 TORSION   7  1  2 11              -3.1117468    -178.2899570
 130 TORSION   7  1  2 22              -1.0587495     -60.6618785
 131 TORSION   8  7  1 29               1.0947419      62.7240900
 132 TORSION   9  7  1 29              -1.0028775     -57.4606481
[...]
 508  26  -1.644643   5.317036   2.571016  -0.001372   0.595527  -0.002304
 509  10  -0.198754   4.473892   3.079565  -0.001012   0.595527  -0.001699
 510  10  -0.126015   5.181367   1.984988  -0.000499   0.297678  -0.001677
 511  11  -8.739167   2.830740  -3.341753   0.000020   0.025617   0.000797
 512  12  -8.806414   2.357389  -3.502229   0.000041   0.025617   0.001600
 513  13  -8.576978   3.078416  -3.397074  -0.000035   0.025617  -0.001372
 514  11 -10.641340   1.383684  -0.254673   0.000036   0.025675   0.001403
 515  12 -10.775403   0.936335  -0.445038   0.000007   0.025675   0.000272
 516  17 -10.877757   0.663776  -0.362707  -0.000050   0.025675  -0.001934
 517  12 -10.701503   1.274795  -0.959018   0.000211   0.222175   0.000951
 518  12  -9.816795   1.833559  -2.686110  -0.000137   0.452287  -0.000303
 519  11 -10.282272   2.161825  -1.362748  -0.000102   0.452287  -0.000227
 520  11  -9.239163   2.658917  -3.018827   0.000217   0.222175   0.000977
 521  13  -8.670983   3.602572  -3.243807  -0.000131   0.072334  -0.001814
 522  13  -8.944136   4.409087  -2.444587  -0.000377   0.162615  -0.002318
 523  13  -8.483282   5.360073  -1.513856  -0.000219   0.162615  -0.001345
 524  13  -7.279758   5.889590  -1.009712  -0.000338   0.162615  -0.002077
 525  13  -6.112319   5.878562  -1.037960  -0.000182   0.072334  -0.002513
 526  11  -9.048086   3.610892  -2.763105  -0.000239   0.156661  -0.001528
 527  11  -9.067612   4.736689  -1.652876   0.000060   0.156661   0.000383
 528  11  -8.074357   5.620213  -0.796581   0.000032   0.156661   0.000207
 529  11  -6.524708   5.855495  -0.587677  -0.000177   0.156661  -0.001130
 530  11 -10.586391   1.630180   0.192124   0.000014   0.053466   0.000261
 531  14 -10.585933   1.761155   0.465553  -0.000076   0.053466  -0.001428
 532  17 -10.732763   0.891624   0.058697   0.000043   0.053466   0.000800
 533  14  -7.967418   4.669623   2.611584  -0.000102   0.071518  -0.001426
 534  14  -8.652937   4.991567   1.743964  -0.000263   0.160092  -0.001646
 535  14  -9.628249   4.636318   0.819641  -0.000203   0.160092  -0.001268
 536  14 -10.385421   3.543855   0.413412  -0.000297   0.160092  -0.001854
 537  14 -10.646388   2.431001   0.554129  -0.000136   0.071518  -0.001901
 538  11  -7.869670   4.971226   2.093093  -0.000192   0.155546  -0.001234
 539  11  -8.902987   5.081281   0.928342   0.000079   0.155546   0.000511
 540  11  -9.934906   4.218981   0.135826   0.000098   0.155546   0.000632
 541  11 -10.506311   2.767976   0.068146  -0.000192   0.155546  -0.001236
 542  17 -10.989413   0.502781  -0.203553  -0.000052   0.042536  -0.001229
 543  11 -10.706188   1.597240  -0.063050   0.000158   0.059946   0.002631
 544  26  -4.703545   5.967740   0.765669  -0.000344   0.195317  -0.001759
 545  26  -5.381980   5.742932   1.975627  -0.001213   0.399139  -0.003040
 546  11  -5.917081   5.778617   0.625666   0.000710   0.535657   0.001326
 547  11  -6.620106   5.396928   2.009240   0.000526   0.275081   0.001913
 548  12  -8.542374   2.001415  -3.898581   0.000021   0.052223   0.000407
 549  13  -8.284540   2.692816  -3.704023   0.000038   0.052223   0.000727
 550  16  -8.434890   1.822868  -4.119144  -0.000068   0.052223  -0.001302
 551  13  -8.387010   3.217623  -3.572424  -0.000070   0.062110  -0.001125
 552  12  -8.797617   2.173089  -3.759546   0.000229   0.087534   0.002614
 553  12  -8.738711  -2.629618  -4.099817   0.000092   0.067897   0.001352
 554  16  -8.612961  -2.457474  -4.317241  -0.000082   0.067897  -0.001208
 555  18  -8.389542  -3.383825  -4.100485   0.000149   0.067897   0.002190
 556  16  -8.980758  -1.896396  -4.495780  -0.000051   0.068312  -0.000744
 557  16  -9.480485  -0.915125  -4.449062  -0.000207   0.151334  -0.001368
 558  16  -9.396772   0.414861  -4.409465  -0.000252   0.151334  -0.001665
 559  16  -8.777878   1.326826  -4.399818  -0.000141   0.068312  -0.002062
 560  12  -9.408105  -1.683927  -4.140619   0.000090   0.150061   0.000601
 561  12  -9.794730  -0.238036  -4.082682   0.000048   0.150061   0.000318
 562  12  -9.229798   1.148900  -4.056280  -0.000155   0.150061  -0.001034
 563  12  -9.825146  -3.173464  -2.364311   0.000073   0.066054   0.001107
 564  17 -10.000326  -3.133882  -2.118757  -0.000124   0.066054  -0.001873
 565  18  -9.455715  -3.917267  -2.392750   0.000096   0.066054   0.001455
 566  17 -11.122613   0.275579  -0.661595  -0.000150   0.070755  -0.002121
 567  17 -11.192216  -0.369626  -1.598056  -0.000372   0.157946  -0.002354
 568  17 -10.924465  -1.569751  -2.215234  -0.000231   0.157946  -0.001463
 569  17 -10.477569  -2.615655  -2.148446  -0.000160   0.070755  -0.002262
 570  12 -10.988919   0.376764  -1.242557  -0.000267   0.154295  -0.001728
 571  12 -10.924738  -0.725347  -2.323813   0.000014   0.154295   0.000093
 572  12 -10.421085  -2.168401  -2.551437  -0.000005   0.154295  -0.000034
 573  18  -9.021992  -4.159051  -3.237864   0.000993   0.523017   0.001899
 574  12  -9.255570  -2.957271  -3.460703   0.000961   0.523017   0.001837
 575  16  -8.123673   1.841598  -4.481784   0.000017   0.292298   0.000057
 576  13  -7.777878   3.118259  -4.010670  -0.000058   0.292298  -0.000198
 577  14  -9.232426   0.676617   2.556527  -0.000600   0.300879  -0.001993
 578  17  -9.351101  -0.163718   2.066128  -0.000198   0.300879  -0.000658
 579  24  -8.657902   0.315011   3.273920  -0.000315   0.300879  -0.001047
 580  17 -10.215019  -0.344599   1.638308  -0.000086   0.258352  -0.000333
 581  17 -10.827685   0.232519   0.704282  -0.000456   0.517118  -0.000882
 582  14 -10.205523   1.103679   1.877554  -0.000337   0.517118  -0.000652
 583  14 -10.715362   1.684826   0.886009   0.000196   0.258352   0.000760
 584  24  -7.396054   3.208820   4.683842  -0.000124   0.246147  -0.000505
 585  24  -8.250943   2.378083   4.777309  -0.001136   0.492517  -0.002307
 586  24  -8.721888   1.062291   4.374240  -0.000939   0.492517  -0.001906
 587  14  -8.414337   3.482826   3.659269  -0.000868   0.492517  -0.001761
 588  14  -9.267065   2.307969   3.569109  -0.001137   0.492517  -0.002308
 589  14  -9.430777   1.222085   3.096089  -0.000153   0.246147  -0.000620
 590  16  -8.250921  -2.833101  -4.435494   0.000092   0.086368   0.001070
 591  18  -8.131334  -3.796245  -4.325842   0.000029   0.086368   0.000337
 592  21  -7.941606  -3.830069  -4.563024  -0.000167   0.086368  -0.001934
 593  18  -8.377041  -3.783314  -4.305065   0.000113   0.019849   0.005703
 594  16  -8.609745  -2.378760  -4.532896   0.000029   0.014002   0.002064
 595  16  -5.390794  -1.487741  -4.784879   0.000344   0.283332   0.001215
 596  21  -5.015243  -2.478266  -4.859872   0.000438   0.283332   0.001547
 597  29  -4.417904  -1.698137  -4.540873   0.003912   0.283332   0.013808
 598  21  -7.772810  -3.754101  -5.020833   0.000094   0.283513   0.000332
 599  21  -6.688504  -3.302506  -5.534462  -0.001119   0.567256  -0.001972
 600  21  -5.491046  -2.855080  -5.437631  -0.000251   0.283513  -0.000884
 601  16  -7.903704  -2.182481  -5.145257  -0.000620   0.567256  -0.001093
 602  16  -6.481866  -1.622273  -5.404977  -0.000999   0.567256  -0.001761
 603  29  -4.085249  -1.265383  -4.705028   0.000334   0.026700   0.012518
 604  16  -5.479911  -0.949343  -5.031888  -0.000044   0.021461  -0.002048
 605  17  -9.829586  -3.623385  -1.891667   0.000016   0.087959   0.000187
 606  18  -9.419777  -4.462016  -2.227754  -0.000042   0.087959  -0.000479
 607  19  -9.513361  -4.642222  -1.998543  -0.000154   0.087959  -0.001746
 608  18  -9.528262  -4.374766  -2.447276   0.000154   0.038730   0.003973
 609  17 -10.209119  -3.155519  -2.006796   0.000015   0.027282   0.000552
 610  17  -9.570712  -3.481205   0.881438  -0.000803   0.316445  -0.002538
 611  19  -9.181424  -4.491501   0.818187  -0.000996   0.316445  -0.003147
 612  27  -9.036277  -3.934645   1.737488  -0.000799   0.316445  -0.002525
 613  19  -9.702043  -4.884285   0.215649  -0.000578   0.305415  -0.001891
 614  19  -9.865046  -4.860972  -1.122955  -0.001208   0.611209  -0.001976
 615  17 -10.360485  -3.465506  -0.203685  -0.001476   0.611209  -0.002415
 616  17 -10.392945  -3.390820  -1.549918  -0.000047   0.305415  -0.000155
 617  17  -9.116162  -0.951882   2.302853  -0.000434   0.344573  -0.001260
 618  24  -8.447153  -0.470643   3.526315  -0.000237   0.344573  -0.000688
 619  27  -8.678145  -1.378061   3.223933  -0.000695   0.344573  -0.002016
 620  27  -9.194744  -2.016281   3.149064  -0.000059   0.280231  -0.000211
 621  27  -9.360821  -3.133180   2.661138  -0.001078   0.560424  -0.001923
 622  17 -10.045370  -1.806284   1.768459  -0.000898   0.560424  -0.001603
 623  17 -10.110837  -2.908193   1.225662  -0.000351   0.280231  -0.001253
 624  18  -7.020473  -6.498092   1.616308  -0.000037   0.087954  -0.000424
 625  19  -7.313059  -6.509413   1.526669  -0.000204   0.087954  -0.002322
 626  27  -7.158159  -5.890295   2.388167   0.000036   0.087954   0.000410
 627  19  -9.457322  -5.354267  -2.245964  -0.000155   0.069267  -0.002245
 628  19  -9.098273  -6.382220  -2.487412  -0.000330   0.153813  -0.002148
 629  19  -8.453883  -7.502176  -2.102137  -0.000439   0.153813  -0.002856
 630  19  -7.802694  -8.054793  -1.058804  -0.000456   0.153813  -0.002962
 631  19  -7.415131  -7.810583   0.209318  -0.000326   0.153813  -0.002118
 632  19  -7.380194  -7.116978   1.082011  -0.000204   0.069267  -0.002942
 633  18  -9.152174  -5.575576  -2.711170  -0.000109   0.151819  -0.000717
 634  18  -8.550315  -6.965240  -2.739356  -0.000090   0.151819  -0.000593
 635  18  -7.781615  -7.957620  -1.891726  -0.000267   0.151819  -0.001756
 636  18  -7.165297  -8.140606  -0.520281  -0.000097   0.151819  -0.000642
 637  18  -6.957303  -7.438208   0.805453  -0.000116   0.151819  -0.000765
 638  18  -4.501143  -6.876039   1.490345   0.000012   0.086374   0.000138
 639  20  -4.236047  -6.973858   1.373938  -0.000104   0.086374  -0.001205
 640  28  -4.101541  -6.353220   2.212180   0.000072   0.086374   0.000836
 641  18  -1.920446  -5.195413  -2.328479   0.000495   0.056561   0.008749
 642  20  -1.899577  -5.427290  -2.133884   0.000172   0.056561   0.003041
 643  29  -1.571739  -4.464888  -2.242730   0.001122   0.056561   0.019841
 644  20  -4.401514  -7.557344   0.947541  -0.000106   0.067531  -0.001570
 645  20  -4.662204  -8.211403   0.114319  -0.000271   0.149284  -0.001814
 646  20  -4.514664  -8.561764  -1.149936  -0.000337   0.149284  -0.002254
 647  20  -3.870478  -8.262066  -2.262621  -0.000396   0.149284  -0.002656
 648  20  -2.985495  -7.431339  -2.781813  -0.000218   0.149284  -0.001458
 649  20  -2.211202  -6.399521  -2.501308  -0.000254   0.149284  -0.001701
 650  18  -4.924604  -7.729440   0.730833  -0.000072   0.148648  -0.000483
 651  18  -5.078603  -8.446640  -0.558369  -0.000069   0.148648  -0.000462
 652  18  -4.609956  -8.476629  -1.965353  -0.000174   0.148648  -0.001171
 653  18  -3.704793  -7.807496  -2.931312  -0.000061   0.148648  -0.000412
 654  18  -2.722616  -6.704998  -3.072598   0.000063   0.148648   0.000427
 655  18  -2.108032  -5.782920  -2.601607   0.000154   0.082504   0.001861
 656  18  -3.234663  -4.080455  -4.434290   0.000505   0.056573   0.008920
 657  21  -3.460765  -4.102740  -4.635418   0.000192   0.056573   0.003387
 658  29  -2.823606  -3.402819  -4.248654   0.001115   0.056573   0.019705
 659  21  -3.652675  -4.689423  -4.933012  -0.000015   0.067526  -0.000229
 660  21  -3.948799  -5.738827  -4.963092  -0.000230   0.149271  -0.001538
 661  21  -4.897556  -6.656675  -4.956899  -0.000283   0.149271  -0.001894
 662  21  -6.205624  -6.825814  -4.902360  -0.000373   0.149271  -0.002497
 663  21  -7.353561  -6.179078  -4.821132  -0.000267   0.149271  -0.001792
 664  21  -7.885513  -4.973289  -4.745471  -0.000353   0.149271  -0.002363
 665  18  -3.466385  -5.159993  -4.626351   0.000066   0.148640   0.000444
 666  18  -4.153876  -6.474023  -4.649093   0.000103   0.148640   0.000694
 667  18  -5.489751  -7.117440  -4.613145  -0.000133   0.148640  -0.000897
 668  18  -6.943525  -6.834738  -4.532780  -0.000146   0.148640  -0.000982
 669  18  -7.937895  -5.738179  -4.439913   0.000031   0.148640   0.000205
 670  18  -8.200463  -4.564794  -4.378305   0.000080   0.082498   0.000964
 671  18  -6.699446  -6.255364   2.021594   0.000103   0.066058   0.001563
 672  23  -6.623250  -5.889603   2.763854   0.000062   0.066058   0.000946
 673  27  -6.884596  -5.776995   2.871411  -0.000110   0.066058  -0.001660
 674  18  -4.642892  -6.561624   1.899921   0.000141   0.067891   0.002074
 675  23  -4.531009  -6.198550   2.639117   0.000132   0.067891   0.001938
 676  28  -4.233272  -6.172254   2.697242  -0.000095   0.067891  -0.001404
 677  23  -5.785828  -6.161113   2.712113   0.000961   0.523046   0.001836
 678  18  -5.560327  -6.834557   1.690283   0.000973   0.523046   0.001860
 679  27  -7.108845  -5.800185   2.985705   0.000026   0.027600   0.000957
 680  18  -6.860424  -6.625011   1.801651   0.000160   0.039181   0.004083
 681  28  -4.049525  -6.253591   2.791706   0.000015   0.013688   0.001125
 682  18  -4.632893  -6.953263   1.674043   0.000103   0.019403   0.005284
 683  29  -1.394943  -3.959409  -2.807922   0.005754   0.323751   0.017773
 684  29  -2.106757  -3.355538  -3.948487   0.005860   0.323751   0.018101
 685  18  -2.402934  -4.615399  -3.478420   0.005068   0.710456   0.007133
 686  27  -8.965201  -4.555222   2.378442  -0.000495   0.305356  -0.001619
 687  27  -8.042538  -5.453202   2.779252  -0.001045   0.611090  -0.001710
 688  19  -8.839290  -5.710407   1.250627  -0.001749   0.611090  -0.002862
 689  19  -7.820986  -6.527463   1.587971  -0.000052   0.305356  -0.000169
 690  20  -1.917885  -5.106024   0.101911   0.000462   0.283346   0.001630
 691  28  -1.781986  -4.549209   0.995971   0.000354   0.283346   0.001251
 692  29  -1.528872  -4.149089   0.087044   0.003989   0.283346   0.014080
 693  28  -3.583644  -6.358395   2.651435   0.000109   0.283557   0.000383
 694  28  -2.442409  -5.955098   2.228579  -0.000959   0.567344  -0.001690
 695  28  -1.698883  -5.122495   1.597857  -0.000172   0.283557  -0.000607
 696  20  -3.318140  -7.022493   1.240319  -0.000700   0.567344  -0.001234
 697  20  -2.143688  -6.252366   0.583802  -0.001026   0.567344  -0.001809
 698  29  -1.067188  -4.161013  -0.695060   0.005482   0.352664   0.015544
 699  29  -1.098389  -4.238700  -1.877073   0.004830   0.352664   0.013696
 700  20  -1.698690  -5.545271  -1.181382   0.000477   0.571422   0.000835
 701  29  -2.755011  -2.833210  -4.531382   0.005122   0.352812   0.014517
 702  29  -3.591572  -2.019323  -4.739092   0.005142   0.352812   0.014575
 703  21  -4.112586  -3.497251  -5.048708   0.000483   0.571671   0.000844
 704  22  -2.938133  -2.091260   5.953479   0.000024   0.025613   0.000931
 705  23  -3.041324  -2.534043   5.735240   0.000044   0.025613   0.001737
 706  25  -2.712279  -1.897606   6.000318  -0.000033   0.025613  -0.001303
 707  22  -6.832199  -1.848367   5.847411   0.000039   0.025676   0.001514
 708  23  -6.938396  -2.319290   5.701519   0.000007   0.025676   0.000284
 709  27  -7.162404  -2.488652   5.588918  -0.000051   0.025676  -0.001988
 710  23  -3.634323  -2.861211   5.891418   0.000261   0.222103   0.001174
 711  23  -5.624924  -2.554432   6.028493  -0.000144   0.452130  -0.000319
 712  22  -4.277086  -2.101952   6.259631  -0.000095   0.452130  -0.000210
 713  22  -6.260692  -1.728432   6.225266   0.000223   0.222103   0.001003
 714  22  -7.040190  -1.379060   5.873987   0.000007   0.053466   0.000130
 715  24  -7.192551  -1.118516   5.902609  -0.000037   0.053466  -0.000688
 716  27  -7.310689  -2.012231   5.541413   0.000023   0.053466   0.000426
 717  24  -7.026062  -0.641301   6.355057  -0.000123   0.071512  -0.001723
 718  24  -6.341472   0.112023   6.893569  -0.000308   0.160076  -0.001925
 719  24  -5.809061   1.394952   6.940148  -0.000169   0.160076  -0.001056
 720  24  -5.839117   2.603039   6.253737  -0.000285   0.160076  -0.001782
 721  24  -6.249241   3.210700   5.365649  -0.000124   0.071512  -0.001732
 722  22  -6.454740  -0.670131   6.560196  -0.000190   0.155535  -0.001225
 723  22  -5.626557   0.562806   7.039929   0.000100   0.155535   0.000644
 724  22  -5.327341   2.046517   6.658829   0.000075   0.155535   0.000481
 725  22  -5.690200   3.120974   5.586430  -0.000146   0.155535  -0.000938
 726  25  -2.052686   2.434043   5.467318  -0.000157   0.072344  -0.002170
 727  25  -2.692542   1.997336   6.341439  -0.000300   0.162643  -0.001843
 728  25  -3.167523   0.849475   7.005028  -0.000247   0.162643  -0.001518
 729  25  -3.093917  -0.555005   6.930449  -0.000327   0.162643  -0.002009
 730  25  -2.669688  -1.489470   6.372757  -0.000142   0.072344  -0.001965
 731  22  -2.618469   2.541093   5.671839  -0.000226   0.156676  -0.001441
 732  22  -3.382492   1.639046   6.722384   0.000042   0.156676   0.000269
 733  22  -3.622026   0.115850   7.073895   0.000053   0.156676   0.000337
 734  22  -3.226974  -1.328391   6.564810  -0.000249   0.156676  -0.001587
 735  26  -4.502909   4.643225   4.198521  -0.000326   0.195328  -0.001667
 736  26  -3.129709   4.344372   4.202692  -0.001201   0.399161  -0.003008
 737  22  -4.197018   3.729002   4.972267   0.000571   0.535684   0.001065
 738  22  -2.652862   3.336996   4.844289   0.000604   0.275095   0.002197
 739  27  -7.371864  -2.561058   5.553301  -0.000059   0.042734  -0.001384
 740  22  -6.956143  -1.590012   5.979950   0.000160   0.060225   0.002663
 741  23  -2.744239  -2.917358   5.389891   0.000001   0.052218   0.000028
 742  25  -2.478682  -2.232650   5.597332   0.000032   0.052218   0.000617
 743  28  -2.592664  -3.133214   5.239862  -0.000060   0.052218  -0.001149
 744  25  -2.474845  -1.830966   6.016145  -0.000067   0.062295  -0.001071
 745  23  -2.870869  -2.825484   5.630396   0.000215   0.087795   0.002450
 746  27  -6.911763  -5.640594   3.562675  -0.000096   0.070752  -0.001351
 747  27  -6.686230  -5.165208   4.573207  -0.000289   0.157940  -0.001829
 748  27  -6.815483  -4.082808   5.412562  -0.000409   0.157940  -0.002591
 749  27  -7.223148  -3.032961   5.584784  -0.000158   0.070752  -0.002230
 750  23  -6.403342  -5.576668   3.883675   0.000017   0.154291   0.000109
 751  23  -6.271015  -4.673310   5.130353  -0.000041   0.154291  -0.000263
 752  23  -6.677455  -3.281162   5.663742  -0.000260   0.154291  -0.001683
 753  28  -2.761979  -3.776484   5.237020  -0.000131   0.068311  -0.001920
 754  28  -3.445685  -4.633424   5.123103  -0.000279   0.151330  -0.001846
 755  28  -3.986993  -5.575029   4.349948  -0.000167   0.151330  -0.001103
 756  28  -4.073840  -6.058467   3.363275  -0.000116   0.068311  -0.001693
 757  23  -3.330244  -3.855836   5.394116  -0.000170   0.150058  -0.001134
 758  23  -4.160588  -5.017491   4.941923   0.000101   0.150058   0.000671
 759  23  -4.483213  -5.861425   3.747318   0.000089   0.150058   0.000590
 760  27  -7.806645  -2.246138   5.408843   0.000089   0.258326   0.000345
 761  27  -8.505803  -1.801782   4.463161  -0.000500   0.517067  -0.000966
 762  24  -7.904124  -0.786140   5.525648  -0.000223   0.517067  -0.000431
 763  24  -8.503849  -0.334869   4.517049   0.000008   0.258326   0.000030
 764  28  -2.003269  -3.202400   4.985618  -0.000005   0.291975  -0.000018
 765  25  -1.956457  -1.969010   5.654930   0.000016   0.291975   0.000056
 766  29  -1.049903  -3.824541   0.151481   0.000371   0.026488   0.014018
 767  28  -1.439949  -4.394127   1.445778  -0.000035   0.021290  -0.001633
 =====================================================

              8831625  WORDS OF DYNAMIC MEMORY USED
 EXECUTION OF GAMESS TERMINATED NORMALLY Thu Nov 24 06:16:08 2016
 DDI: 263640 bytes (0.3 MB / 0 MWords) used by master data server.

 ----------------------------------------
 CPU timing information for all processes
 ========================================
 0: 5249.740 + 1.60 = 5250.800
 ----------------------------------------
 ddikick.x: exited gracefully.
