----- GAMESS execution script -----

          ******************************************************
          *         GAMESS VERSION =  5 DEC 2014 (R1)          *
          *             FROM IOWA STATE UNIVERSITY             *
          * M.W.SCHMIDT, K.K.BALDRIDGE, J.A.BOATZ, S.T.ELBERT, *
          *   M.S.GORDON, J.H.JENSEN, S.KOSEKI, N.MATSUNAGA,   *
          *          K.A.NGUYEN, S.J.SU, T.L.WINDUS,           *
          *       TOGETHER WITH M.DUPUIS, J.A.MONTGOMERY       *
          *         J.COMPUT.CHEM.  14, 1347-1363(1993)        *
          **************** 64 BIT LINUX VERSION ****************

 EXECUTION OF GAMESS BEGUN Thu Nov 24 04:50:49 2016

            ECHO OF THE FIRST FEW INPUT CARDS -
 INPUT CARD>! SELECT RESTRICTED HARTREE-FOCK AS DEFAULT                                     
 INPUT CARD>$contrl scftyp=rhf $end                                                         
 INPUT CARD>                                                                                
 INPUT CARD>! THEORY: HF OR DFT                                                             
 INPUT CARD> $contrl mplevl=0 $end                                                          
 INPUT CARD>                                                                                
 INPUT CARD> $system timlim=10000 mwords=20 $end                                            
 INPUT CARD> $SCF DIRSCF=.TRUE. $end                                                        
 INPUT CARD>                                                                                
 INPUT CARD>                                                                                
 INPUT CARD>! BASIS SETS                                                                    
 INPUT CARD>! 6-311G(d,p)                                                                   
 INPUT CARD> $BASIS GBASIS=N311 NGAUSS=6 NDFUNC=1 NPFUNC=1 $END                             
 INPUT CARD>                                                                                
 INPUT CARD>! One of the following                                                          
 INPUT CARD> $guess guess=HUCKEL $end                                                       
 INPUT CARD>                                                                                
 INPUT CARD> $statpt projct=.FALSE. $end                                                    
 INPUT CARD> $STATPT IFREEZ(1)=1,2,3 $END                                                   
 INPUT CARD>                                                                                
 INPUT CARD>! Optimize the geometry with COSMO effects                                      
 INPUT CARD> $statpt opttol=0.0005 nstep=50 $end                                            
 INPUT CARD> $contrl nzvar=1 $end                                                           
 INPUT CARD> $zmat dlc=.t. auto=.t. $end                                                    
 INPUT CARD> $contrl runtyp=OPTIMIZE maxit=200 $end                                         
 INPUT CARD>                                                                                
 INPUT CARD>! Run COSMO on perfect conductor                                                
 INPUT CARD> $COSGMS PRFCND=.TRUE. $end                                                     
 INPUT CARD>                                                                                
 INPUT CARD>! Specifying RSOLV                                                              
 INPUT CARD> $COSGMS COSRAD = 1.4 $end                                                      
 INPUT CARD>                                                                                
 INPUT CARD>! available memory                                                              
 INPUT CARD> $SYSTEM MWORDS=40 $END                                                         
 INPUT CARD>                                                                                
 INPUT CARD> $DATA                                                                          
 INPUT CARD>Fluorene, ID: C86737                                                            
 INPUT CARD>C1                                                                              
 INPUT CARD>C      6.0      3.3005000000    1.4205000000    2.7751000000                    
 INPUT CARD>C      6.0      4.4290000000    1.4582000000    3.7026000000                    
 INPUT CARD>C      6.0      2.3090000000    2.3148000000    3.2451000000                    
 INPUT CARD>C      6.0      3.1070000000    0.6909000000    1.6146000000                    
 INPUT CARD>C      6.0      4.1238000000    2.3754000000    4.7367000000                    
 INPUT CARD>C      6.0      5.6331000000    0.7751000000    3.6905000000                    
 INPUT CARD>C      6.0      2.7641000000    2.9770000000    4.5155000000                    
 INPUT CARD>C      6.0      1.1243000000    2.4775000000    2.5522000000                    
 INPUT CARD>C      6.0      1.9073000000    0.8610000000    0.9202000000                    
 INPUT CARD>C      6.0      5.0255000000    2.6078000000    5.7580000000                    
 INPUT CARD>C      6.0      6.5385000000    1.0157000000    4.7262000000                    
 INPUT CARD>C      6.0      0.9329000000    1.7391000000    1.3810000000                    
   40000000 WORDS OF MEMORY AVAILABLE

     BASIS OPTIONS
     -------------
     GBASIS=N311         IGAUSS=       6      POLAR=POPN311 
     NDFUNC=       1     NFFUNC=       0     DIFFSP=       F
     NPFUNC=       1      DIFFS=       F     BASNAM=        


     RUN TITLE
     ---------
 Fluorene, ID: C86737                                                            

 THE POINT GROUP OF THE MOLECULE IS C1      
 THE ORDER OF THE PRINCIPAL AXIS IS     0

 ATOM      ATOMIC                      COORDINATES (BOHR)
           CHARGE         X                   Y                   Z
 C           6.0     6.2370406225        2.6843557656        5.2441785885
 C           6.0     8.3695963996        2.7555984353        6.9968994421
 C           6.0     4.3633773056        4.3743377164        6.1323498028
 C           6.0     5.8713786439        1.3056116849        3.0511515798
 C           6.0     7.7928520282        4.4888551112        8.9510650860
 C           6.0    10.6450154614        1.4647266131        6.9740337577
 C           6.0     5.2233916027        5.6257142654        8.5330576976
 C           6.0     2.1246189280        4.6817961346        4.8229586659
 C           6.0     3.6042743764        1.6270540754        1.7389258539
 C           6.0     9.4968179513        4.9280274308       10.8810422373
 C           6.0    12.3559733707        1.9193946857        8.9312229632
 C           6.0     1.7629253739        3.2864224652        2.6097115890
 C           6.0    11.7915122182        3.6214708829       10.8513735393
 H           1.0     7.3236330654        0.0000000000        2.3693384434
 H           1.0    11.0849436714        0.1252888330        5.4605522141
 H           1.0     3.9298741641        5.2247144109       10.1242069792
 H           1.0     5.3184448198        7.7029010712        8.3319908525
 H           1.0     0.6695299174        5.9849511757        5.4998585147
 H           1.0     3.2760289723        0.5550125226        0.0000000000
 H           1.0     9.0619920015        6.2659534301       12.3969804247
 H           1.0    14.1667088122        0.9184068300        8.9499312504
 H           1.0     0.0000000000        3.5067645154        1.5486304469
 H           1.0    13.1630753401        3.9470706706       12.3657999459

          INTERNUCLEAR DISTANCES (ANGS.)




     $CONTRL OPTIONS
     ---------------
 SCFTYP=RHF          RUNTYP=OPTIMIZE     EXETYP=RUN     
 MPLEVL=       0     CITYP =NONE         CCTYP =NONE         VBTYP =NONE    
 DFTTYP=NONE         TDDFT =NONE    
 MULT  =       1     ICHARG=       0     NZVAR =       1     COORD =UNIQUE  
 PP    =NONE         RELWFN=NONE         LOCAL =NONE         NUMGRD=       F
 ISPHER=      -1     NOSYM =       0     MAXIT =     200     UNITS =ANGS    
 PLTORB=       F     MOLPLT=       F     AIMPAC=       F     FRIEND=        
 NPRINT=       7     IREST =       0     GEOM  =INPUT   
 NORMF =       0     NORMP =       0     ITOL  =      20     ICUT  =       9
 INTTYP=BEST         GRDTYP=BEST         QMTTOL= 1.0E-06

     $SYSTEM OPTIONS
     ---------------
  REPLICATED MEMORY=    40000000 WORDS (ON EVERY NODE).
 DISTRIBUTED MEMDDI=           0 MILLION WORDS IN AGGREGATE,
 MEMDDI DISTRIBUTED OVER   1 PROCESSORS IS           0 WORDS/PROCESSOR.
 TOTAL MEMORY REQUESTED ON EACH PROCESSOR=    40000000 WORDS.
 TIMLIM=       10000.00 MINUTES, OR       6.9 DAYS.
 PARALL= F  BALTYP=  DLB     KDIAG=    0  COREFL= F
 MXSEQ2=     300 MXSEQ3=     150  mem10=         0

     $COSGMS OPTIONS
     ---------------
     EPSI  =   INFTY     NSPA  =      92     COSRAD=    1.40
     DISEX =   10.00     OUTCHG=DBLCAV       COSBUG=       F
     COSWRT=       F     DCOSMO=       F

     SYMMETRY COORDINATES WILL NOT BE USED FOR 
     THE COSMO CALCULATION, EVEN IF SPECIFIED:
         -- SWITCHING TO C1 POINT GROUP --


     DEFINITION OF CAVITY
     ---------------------------
     ATOM         COORDINATES           RADIUS 
     1    6.2370    2.6844    5.2442    2.0000
     2    8.3696    2.7556    6.9969    2.0000
     3    4.3634    4.3743    6.1323    2.0000
     4    5.8714    1.3056    3.0512    2.0000
     5    7.7929    4.4889    8.9511    2.0000
     6   10.6450    1.4647    6.9740    2.0000
     7    5.2234    5.6257    8.5331    2.0000
     8    2.1246    4.6818    4.8230    2.0000
     9    3.6043    1.6271    1.7389    2.0000
    10    9.4968    4.9280   10.8810    2.0000
    11   12.3560    1.9194    8.9312    2.0000
    12    1.7629    3.2864    2.6097    2.0000
    13   11.7915    3.6215   10.8514    2.0000
    14    7.3236    0.0000    2.3693    1.3000
    15   11.0849    0.1253    5.4606    1.3000
    16    3.9299    5.2247   10.1242    1.3000
    17    5.3184    7.7029    8.3320    1.3000
    18    0.6695    5.9850    5.4999    1.3000
    19    3.2760    0.5550    0.0000    1.3000
    20    9.0620    6.2660   12.3970    1.3000
    21   14.1667    0.9184    8.9499    1.3000
    22    0.0000    3.5068    1.5486    1.3000
    23   13.1631    3.9471   12.3658    1.3000

          ----------------
          PROPERTIES INPUT
          ----------------

     MOMENTS            FIELD           POTENTIAL          DENSITY
 IEMOM =       1   IEFLD =       0   IEPOT =       0   IEDEN =       0
 WHERE =COMASS     WHERE =NUCLEI     WHERE =NUCLEI     WHERE =NUCLEI  
 OUTPUT=BOTH       OUTPUT=BOTH       OUTPUT=BOTH       OUTPUT=BOTH    
 IEMINT=       0   IEFINT=       0                     IEDINT=       0
                                                       MORB  =       0
          EXTRAPOLATION IN EFFECT
          SOSCF IN EFFECT
 ORBITAL PRINTING OPTION: NPREO=     1   307     2     1

     -------------------------------
     INTEGRAL TRANSFORMATION OPTIONS
     -------------------------------
     NWORD  =            0
     CUTOFF = 1.0E-09     MPTRAN =       0
     DIRTRF =       T     AOINTS =DUP     

          ----------------------
          INTEGRAL INPUT OPTIONS
          ----------------------
 NOPK  =       1 NORDER=       0 SCHWRZ=       T


 -----------------------------------------------
  STATISTICS ON AUTOMATIC COORDINATE GENERATION 
 -----------------------------------------------
  NUMBER OF USER SPECIFIED BONDS                             0
  NUMBER OF BONDS                                           25
  NUMBER OF ANGLES                                          42
  NUMBER OF TORSIONS                                        64
  NUMBER OF EXTRA COORD.                                     0
  NUMBER OF EXTRA COORD. FOR CONSTRAINTS                     0
  NUMBER OF CONSTRAINED COORD.                               0

  TOTAL NUMBER OF PRIMITIVES                               131
 -----------------------------------------------

   --- ENCODED Z MATRIX ---
 COORD  TYPE   I   J   K   L   M   N
    1      1    1   2
    2      1    1   4
    3      1    1   3
    4      1    2   5
    5      1    2   6
    6      1    3   8
    7      1    3   7
    8      1    4   9
    9      1    4  14
   10      1    5   7
   11      1    5  10
   12      1    6  11
   13      1    6  15
   14      1    7  17
   15      1    7  16
   16      1    8  12
   17      1    8  18
   18      1    9  12
   19      1    9  19
   20      1   10  13
   21      1   10  20
   22      1   11  13
   23      1   11  21
   24      1   12  22
   25      1   13  23
   26      2    1   4  14
   27      2    1   3   7
   28      2    1   3   8
   29      2    1   4   9
   30      2    1   2   5
   31      2    1   2   6
   32      2    2   6  15
   33      2    2   5  10
   34      2    2   5   7
   35      2    2   6  11
   36      2    2   1   3
   37      2    2   1   4
   38      2    3   7   5
   39      2    3   7  17
   40      2    3   8  18
   41      2    3   8  12
   42      2    3   1   4
   43      2    3   7  16
   44      2    4   9  19
   45      2    4   9  12
   46      2    5  10  20
   47      2    5   7  16
   48      2    5   7  17
   49      2    5  10  13
   50      2    5   2   6
   51      2    6  11  13
   52      2    6  11  21
   53      2    7   3   8
   54      2    7   5  10
   55      2    8  12  22
   56      2    8  12   9
   57      2    9   4  14
   58      2    9  12  22
   59      2   10  13  23
   60      2   10  13  11
   61      2   11   6  15
   62      2   11  13  23
   63      2   12   9  19
   64      2   12   8  18
   65      2   13  11  21
   66      2   13  10  20
   67      2   16   7  17
   68      3    1   3   7  16
   69      3    1   4   9  19
   70      3    1   4   9  12
   71      3    1   3   7  17
   72      3    1   2   6  15
   73      3    1   2   6  11
   74      3    1   3   8  18
   75      3    1   3   7   5
   76      3    1   3   8  12
   77      3    1   2   5  10
   78      3    1   2   5   7
   79      3    2   1   4  14
   80      3    2   5  10  13
   81      3    2   1   3   7
   82      3    2   1   4   9
   83      3    2   6  11  21
   84      3    2   6  11  13
   85      3    2   5  10  20
   86      3    2   5   7  16
   87      3    2   5   7  17
   88      3    2   5   7   3
   89      3    2   1   3   8
   90      3    3   8  12  22
   91      3    3   8  12   9
   92      3    3   1   4   9
   93      3    3   7   5  10
   94      3    3   1   2   6
   95      3    3   1   4  14
   96      3    3   1   2   5
   97      3    4   1   2   6
   98      3    4   1   3   8
   99      3    4   9  12  22
  100      3    4   9  12   8
  101      3    4   1   3   7
  102      3    4   1   2   5
  103      3    5   2   6  15
  104      3    5   7   3   8
  105      3    5  10  13  23
  106      3    5  10  13  11
  107      3    5   2   6  11
  108      3    6   2   5   7
  109      3    6   2   5  10
  110      3    6  11  13  23
  111      3    6  11  13  10
  112      3    7   3   8  12
  113      3    7   3   8  18
  114      3    7   5  10  13
  115      3    7   5  10  20
  116      3    8  12   9  19
  117      3    8   3   7  17
  118      3    8   3   7  16
  119      3    9  12   8  18
  120      3   10  13  11  21
  121      3   10   5   7  17
  122      3   10   5   7  16
  123      3   11  13  10  20
  124      3   12   9   4  14
  125      3   13  11   6  15
  126      3   14   4   9  19
  127      3   15   6  11  21
  128      3   18   8  12  22
  129      3   19   9  12  22
  130      3   20  10  13  23
  131      3   21  11  13  23

          INDEP./SYM. INTERNAL COORDINATES
          --------------------------------
 CRD  1=  -0.3481 (  1) -0.1813 (  2) -0.1813 (  5)  0.1943 (  7) -0.1666 (  8)
           0.1943 ( 10) -0.1666 ( 12)  0.1276 ( 16)  0.1276 ( 20) -0.1758 ( 28)
           0.1177 ( 30) -0.3296 ( 31) -0.1758 ( 33)  0.1177 ( 36) -0.3296 ( 37)
           0.2120 ( 42)  0.2120 ( 50)  0.2655 ( 53)  0.2655 ( 54)
 CRD  2=  -0.3412 (  1) -0.1909 (  2) -0.1909 (  5) -0.3629 (  6) -0.2604 (  7)
          -0.2604 ( 10) -0.3629 ( 11) -0.1063 ( 16) -0.1062 ( 20)  0.1119 ( 27)
          -0.1383 ( 29)  0.1119 ( 34) -0.1383 ( 35) -0.1271 ( 38)  0.1172 ( 42)
           0.1172 ( 50) -0.1726 ( 53) -0.1726 ( 54)  0.1228 ( 57)  0.1228 ( 61)
           0.1609 ( 64)  0.1610 ( 66)
 CRD  3=   0.1093 ( 39) -0.1093 ( 43) -0.1091 ( 47)  0.1093 ( 48)  0.1431 ( 69)
           0.1727 ( 72)  0.3062 ( 73) -0.1863 ( 75) -0.2013 ( 77) -0.1225 ( 78)
          -0.1726 ( 79)  0.1223 ( 81) -0.3061 ( 82) -0.1431 ( 83)  0.1864 ( 88)
           0.2011 ( 89) -0.1570 ( 90) -0.1263 ( 91) -0.1396 ( 92)  0.2738 ( 93)
          -0.1504 ( 94)  0.1507 (102) -0.2738 (104)  0.1570 (105)  0.1263 (106)
           0.1396 (107)  0.1609 (112) -0.1607 (114)
 CRD  4=  -0.1375 ( 72) -0.1199 ( 74) -0.1495 ( 76)  0.1903 ( 77)  0.2119 ( 78)
          -0.1377 ( 79) -0.1496 ( 80)  0.2120 ( 81) -0.1198 ( 85)  0.1905 ( 89)
          -0.2543 ( 94) -0.1292 ( 95) -0.2619 ( 96) -0.2466 ( 97)  0.1837 ( 98)
           0.1309 (100)  0.2052 (101) -0.2542 (102) -0.1291 (103)  0.2052 (108)
           0.1836 (109)  0.1309 (111) -0.1755 (112) -0.1459 (113) -0.1756 (114)
          -0.1459 (115)  0.1036 (116)  0.1036 (120)
 CRD  5=   0.2547 (  2) -0.1247 (  3)  0.1246 (  4) -0.2548 (  5) -0.2859 (  6)
           0.2859 ( 11) -0.1007 ( 16)  0.1006 ( 20)  0.1280 ( 26)  0.2044 ( 27)
           0.2022 ( 30) -0.2191 ( 31) -0.1280 ( 32) -0.2045 ( 34) -0.2022 ( 36)
           0.2191 ( 37) -0.1538 ( 40)  0.1539 ( 46) -0.2443 ( 53)  0.2443 ( 54)
 CRD  6=   0.2789 (  2) -0.2789 (  5)  0.3499 (  7) -0.3499 ( 10)  0.1604 ( 16)
          -0.1604 ( 20) -0.1967 ( 28)  0.1778 ( 30)  0.1967 ( 33) -0.1778 ( 36)
           0.1266 ( 39)  0.1005 ( 42)  0.1266 ( 43) -0.1266 ( 47) -0.1266 ( 48)
          -0.1004 ( 50)  0.1892 ( 53) -0.1892 ( 54) -0.1208 ( 57)  0.1208 ( 61)
 CRD  7=  -0.2501 (  2) -0.2302 (  3) -0.2302 (  4) -0.2501 (  5)  0.1037 (  6)
          -0.1992 (  7) -0.1991 ( 10)  0.1036 ( 11) -0.1389 ( 14) -0.1391 ( 15)
          -0.1690 ( 26) -0.2292 ( 27)  0.1662 ( 28) -0.1689 ( 32)  0.1662 ( 33)
          -0.2291 ( 34)  0.3200 ( 38) -0.1263 ( 39) -0.1263 ( 43) -0.1264 ( 47)
          -0.1262 ( 48) -0.1478 ( 56)  0.1161 ( 57) -0.1478 ( 60)  0.1161 ( 61)
           0.1709 ( 67)
 CRD  8=  -0.1560 (  8)  0.1565 ( 12) -0.2622 ( 16) -0.3324 ( 18) -0.1586 ( 19)
           0.2640 ( 20)  0.3335 ( 22)  0.1594 ( 23) -0.1497 ( 24)  0.1505 ( 25)
           0.1919 ( 26) -0.1924 ( 32)  0.2293 ( 40)  0.1148 ( 45) -0.2309 ( 46)
          -0.1153 ( 51) -0.1145 ( 57) -0.1274 ( 58) -0.1001 ( 60)  0.1145 ( 61)
           0.1274 ( 62) -0.1936 ( 63) -0.1706 ( 64)  0.1944 ( 65)  0.1718 ( 66)
 CRD  9=  -0.2200 (  8) -0.2185 ( 12) -0.2422 ( 16) -0.3054 ( 18) -0.1997 ( 19)
          -0.2419 ( 20) -0.3035 ( 22) -0.1988 ( 23) -0.1424 ( 24) -0.1417 ( 25)
           0.1773 ( 26)  0.1760 ( 32)  0.2360 ( 40) -0.1114 ( 41)  0.1483 ( 45)
           0.2356 ( 46) -0.1109 ( 49)  0.1476 ( 51) -0.1327 ( 58) -0.1313 ( 62)
          -0.1593 ( 63) -0.1246 ( 64) -0.1585 ( 65) -0.1247 ( 66)
 CRD 10=   0.3111 (  8) -0.3159 ( 12) -0.2111 ( 16)  0.2145 ( 20) -0.1894 ( 26)
           0.1927 ( 32)  0.1465 ( 40)  0.2137 ( 44) -0.1484 ( 46) -0.2175 ( 52)
          -0.2134 ( 55)  0.2388 ( 57)  0.1641 ( 58)  0.2172 ( 59) -0.2427 ( 61)
          -0.1668 ( 62) -0.1393 ( 63) -0.2216 ( 64)  0.1412 ( 65)  0.2250 ( 66)
 CRD 11=   0.2573 (  8)  0.2526 ( 12) -0.2640 ( 16) -0.2600 ( 20) -0.1717 ( 26)
          -0.1691 ( 32)  0.1600 ( 40)  0.2378 ( 44)  0.1572 ( 46)  0.2342 ( 52)
          -0.2259 ( 55)  0.2305 ( 57)  0.1460 ( 58) -0.2225 ( 59)  0.2268 ( 61)
           0.1437 ( 62) -0.1492 ( 63) -0.2363 ( 64) -0.1464 ( 65) -0.2324 ( 66)
 CRD 12=   0.1078 (  2)  0.1935 (  3) -0.1933 (  4) -0.1078 (  5)  0.1776 (  9)
          -0.1775 ( 13)  0.1631 ( 17)  0.2967 ( 18) -0.1629 ( 21) -0.2966 ( 22)
           0.2038 ( 26) -0.1606 ( 29) -0.2035 ( 32)  0.1604 ( 35)  0.1681 ( 40)
          -0.1501 ( 41) -0.2079 ( 44) -0.1677 ( 46)  0.1499 ( 49)  0.2077 ( 52)
          -0.2355 ( 55)  0.1056 ( 56)  0.1299 ( 58)  0.2353 ( 59) -0.1055 ( 60)
          -0.1298 ( 62)  0.1485 ( 63) -0.1485 ( 65)
 CRD 13=   0.1831 (  3)  0.1832 (  4)  0.1220 (  6)  0.1401 (  9)  0.1219 ( 11)
           0.1404 ( 13)  0.1498 ( 17)  0.3129 ( 18)  0.1500 ( 21)  0.3135 ( 22)
           0.1458 ( 26) -0.1043 ( 29)  0.1459 ( 32) -0.1044 ( 35)  0.1930 ( 40)
          -0.1111 ( 41) -0.2478 ( 44)  0.1930 ( 46) -0.1112 ( 49) -0.2482 ( 52)
          -0.2370 ( 55)  0.1983 ( 58) -0.2373 ( 59)  0.1985 ( 62)  0.1720 ( 63)
           0.1723 ( 65)
 CRD 14=  -0.1428 (  3)  0.1417 (  4) -0.1708 (  8) -0.1877 (  9)  0.1695 ( 12)
           0.1863 ( 13) -0.1776 ( 16) -0.1824 ( 17)  0.1763 ( 20)  0.1810 ( 21)
           0.1739 ( 29) -0.1728 ( 35)  0.1700 ( 41) -0.1620 ( 44) -0.1688 ( 49)
           0.1613 ( 52) -0.1671 ( 55) -0.1763 ( 57)  0.2527 ( 58)  0.1663 ( 59)
           0.1750 ( 61) -0.2513 ( 62)  0.2474 ( 63) -0.2027 ( 64) -0.2461 ( 65)
           0.2015 ( 66)
 CRD 15=  -0.1712 (  3) -0.1721 (  4) -0.1792 (  8) -0.2083 (  9) -0.1803 ( 12)
          -0.2095 ( 13) -0.1628 ( 16) -0.2118 ( 17) -0.1639 ( 20) -0.2130 ( 21)
           0.1776 ( 29)  0.1788 ( 35)  0.1813 ( 41) -0.1285 ( 44) -0.1002 ( 45)
           0.1824 ( 49) -0.1009 ( 51) -0.1296 ( 52) -0.1338 ( 55) -0.1912 ( 57)
           0.2133 ( 58) -0.1349 ( 59) -0.1922 ( 61)  0.2149 ( 62)  0.2288 ( 63)
          -0.1641 ( 64)  0.2305 ( 65) -0.1654 ( 66)
 CRD 16=  -0.1553 ( 14)  0.1551 ( 15)  0.1940 ( 68)  0.1454 ( 69)  0.1392 ( 70)
           0.1941 ( 71)  0.1152 ( 73)  0.1148 ( 74)  0.1746 ( 75)  0.1561 ( 76)
           0.1147 ( 78) -0.1562 ( 80) -0.1147 ( 81) -0.1152 ( 82) -0.1455 ( 83)
          -0.1393 ( 84) -0.1148 ( 85) -0.1942 ( 86) -0.1941 ( 87) -0.1746 ( 88)
          -0.1092 ( 93) -0.1393 ( 98) -0.1222 (100) -0.1981 (101)  0.1092 (104)
           0.1981 (108)  0.1392 (109)  0.1223 (111)  0.2273 (112)  0.1860 (113)
          -0.2274 (114) -0.1861 (115) -0.1285 (116)  0.1287 (117)  0.1287 (118)
           0.1285 (120) -0.1286 (121) -0.1287 (122)
 CRD 17=   0.1789 (  6)  0.1564 (  8)  0.1401 (  9) -0.1789 ( 11) -0.1565 ( 12)
          -0.1400 ( 13) -0.1860 ( 19)  0.1859 ( 23)  0.3057 ( 24) -0.3056 ( 25)
           0.1094 ( 26) -0.1173 ( 31) -0.1093 ( 32)  0.1173 ( 37)  0.1237 ( 41)
          -0.1162 ( 42) -0.1250 ( 44)  0.2445 ( 45) -0.1237 ( 49)  0.1163 ( 50)
          -0.2444 ( 51)  0.1250 ( 52)  0.1333 ( 55) -0.2693 ( 56)  0.1360 ( 58)
          -0.1333 ( 59)  0.2692 ( 60) -0.1360 ( 62) -0.1195 ( 63)  0.1194 ( 65)
 CRD 18=   0.1210 ( 39) -0.1210 ( 43)  0.1210 ( 47) -0.1211 ( 48)  0.1849 ( 69)
           0.1736 ( 70) -0.1240 ( 72) -0.2017 ( 73)  0.1721 ( 76) -0.1240 ( 79)
           0.1721 ( 80) -0.2017 ( 82)  0.1848 ( 83)  0.1736 ( 84) -0.2242 ( 90)
          -0.2256 ( 91) -0.2261 ( 92) -0.1484 ( 95) -0.1484 (103) -0.2242 (105)
          -0.2256 (106) -0.2261 (107)  0.1973 (112)  0.1972 (114) -0.1122 (117)
          -0.1121 (118) -0.1004 (119) -0.1122 (121) -0.1122 (122) -0.1004 (123)
           0.1069 (126)  0.1068 (127)
 CRD 19=   0.1344 (  1) -0.1428 (  7) -0.1370 (  9) -0.1429 ( 10) -0.1370 ( 13)
           0.1719 ( 17)  0.2655 ( 19)  0.1719 ( 21)  0.2656 ( 23) -0.2645 ( 24)
          -0.2646 ( 25)  0.1037 ( 29)  0.1037 ( 35)  0.1409 ( 38) -0.1332 ( 41)
           0.1170 ( 44) -0.2407 ( 45) -0.1333 ( 49) -0.2407 ( 51)  0.1170 ( 52)
          -0.1222 ( 55)  0.2495 ( 56) -0.1274 ( 58) -0.1222 ( 59)  0.2496 ( 60)
          -0.1274 ( 62)  0.1237 ( 63)  0.1237 ( 65)
 CRD 20=  -0.3272 ( 39)  0.3275 ( 43) -0.3275 ( 47)  0.3273 ( 48)  0.2174 ( 68)
           0.2175 ( 71) -0.1097 ( 73) -0.1098 ( 82)  0.2174 ( 86)  0.2173 ( 87)
           0.2199 (117)  0.2199 (118)  0.2197 (121)  0.2199 (122)
 CRD 21=  -0.1849 (  2)  0.1848 (  5) -0.2675 (  6)  0.1912 (  7) -0.1553 (  8)
           0.1046 (  9) -0.1913 ( 10)  0.2675 ( 11)  0.1553 ( 12) -0.1046 ( 13)
          -0.1242 ( 16) -0.1939 ( 17) -0.2562 ( 19)  0.1243 ( 20)  0.1939 ( 21)
           0.2562 ( 23) -0.1736 ( 29)  0.1736 ( 35) -0.1296 ( 40)  0.1604 ( 42)
           0.1296 ( 46) -0.1604 ( 50)  0.1967 ( 57) -0.1967 ( 61)  0.1263 ( 64)
          -0.1263 ( 66)
 CRD 22=  -0.3158 ( 14)  0.3157 ( 15) -0.1119 ( 39)  0.1120 ( 43)  0.1117 ( 47)
          -0.1120 ( 48) -0.1995 ( 68)  0.1262 ( 70) -0.1996 ( 71)  0.1427 ( 74)
           0.1398 ( 76) -0.1397 ( 80) -0.1261 ( 84) -0.1428 ( 85)  0.1997 ( 86)
           0.1996 ( 87) -0.1622 ( 91) -0.1478 ( 92)  0.1111 ( 94) -0.1806 ( 95)
           0.1056 (101) -0.1110 (102)  0.1806 (103)  0.1622 (106)  0.1478 (107)
          -0.1057 (108) -0.1651 (119)  0.1652 (123)  0.1591 (124) -0.1590 (125)
 CRD 23=  -0.2408 (  2)  0.1040 (  3)  0.1040 (  4) -0.2409 (  5)  0.1397 (  7)
          -0.2733 (  9)  0.1397 ( 10) -0.2733 ( 13)  0.3930 ( 14)  0.3936 ( 15)
           0.2001 ( 17)  0.2001 ( 21) -0.1813 ( 26) -0.1813 ( 32) -0.1272 ( 38)
          -0.1457 ( 53) -0.1457 ( 54)  0.1004 ( 57)  0.1005 ( 61)
 CRD 24=   0.1214 (  2)  0.1214 (  5)  0.1527 (  9)  0.1527 ( 13)  0.4773 ( 14)
           0.4768 ( 15) -0.1166 ( 17) -0.1166 ( 21)  0.1299 ( 38) -0.1233 ( 39)
          -0.1232 ( 43) -0.1232 ( 47) -0.1232 ( 48)  0.1004 ( 53)  0.1004 ( 54)
           0.3360 ( 67)  0.1298 ( 68) -0.1298 ( 71) -0.1298 ( 86)  0.1298 ( 87)
          -0.1298 (117)  0.1298 (118)  0.1298 (121) -0.1298 (122)
 CRD 25=  -0.3245 ( 14)  0.3243 ( 15) -0.1283 ( 68)  0.1123 ( 69) -0.1284 ( 71)
          -0.1604 ( 74) -0.1126 ( 83)  0.1607 ( 85)  0.1282 ( 86)  0.1283 ( 87)
           0.1506 ( 91)  0.1302 ( 95) -0.1378 (100) -0.1303 (103) -0.1508 (106)
           0.1380 (111) -0.1358 (113)  0.1361 (115) -0.2224 (116) -0.1509 (117)
          -0.1509 (118)  0.2526 (119)  0.2229 (120)  0.1510 (121)  0.1509 (122)
          -0.2531 (123)  0.1566 (128) -0.1261 (129) -0.1568 (130)  0.1263 (131)
 CRD 26=  -0.3075 ( 14)  0.3075 ( 15) -0.1013 ( 69) -0.1763 ( 70) -0.1163 ( 72)
           0.1201 ( 79)  0.1709 ( 84) -0.1742 ( 90)  0.1442 ( 95)  0.2684 ( 99)
           0.1852 (100) -0.1400 (103)  0.1679 (105) -0.2598 (110) -0.1784 (111)
           0.1101 (116) -0.1051 (120) -0.2401 (124)  0.2325 (125) -0.1652 (126)
           0.1593 (127) -0.1058 (128)  0.1933 (129)  0.1009 (130) -0.1864 (131)
 CRD 27=  -0.1178 ( 69) -0.1673 ( 70)  0.1198 ( 72)  0.1161 ( 79) -0.1209 ( 83)
          -0.1728 ( 84) -0.1962 ( 90) -0.1425 ( 91)  0.1237 ( 95)  0.2676 ( 99)
           0.2137 (100)  0.1283 (103) -0.2015 (105) -0.1452 (106)  0.2759 (110)
           0.2194 (111)  0.1024 (114)  0.1642 (116) -0.1003 (119)  0.1675 (120)
          -0.1009 (123) -0.2335 (124) -0.2410 (125) -0.1840 (126) -0.1891 (127)
          -0.1540 (128)  0.2180 (129) -0.1572 (130)  0.2240 (131)
 CRD 28=   0.2458 (  7) -0.2768 (  9) -0.2476 ( 10)  0.2761 ( 13) -0.1192 ( 16)
           0.2697 ( 17)  0.1200 ( 20) -0.2693 ( 21) -0.1453 ( 24)  0.1475 ( 25)
           0.1666 ( 28) -0.1793 ( 31) -0.1670 ( 33)  0.1795 ( 37)  0.1130 ( 39)
          -0.1535 ( 42)  0.1131 ( 43) -0.1130 ( 47) -0.1129 ( 48)  0.1537 ( 50)
          -0.1196 ( 53)  0.1191 ( 54) -0.1069 ( 55)  0.1221 ( 58)  0.1075 ( 59)
          -0.1226 ( 62)  0.1703 ( 64) -0.1718 ( 66)
 CRD 29=  -0.3518 (  1) -0.2781 (  7) -0.2764 ( 10) -0.1005 ( 13)  0.1166 ( 16)
           0.1963 ( 19)  0.1159 ( 20)  0.1958 ( 23)  0.3271 ( 24)  0.3264 ( 25)
           0.1181 ( 27)  0.1179 ( 34) -0.1159 ( 38)  0.2050 ( 40)  0.2045 ( 46)
          -0.1064 ( 57) -0.1066 ( 61) -0.2333 ( 64) -0.2322 ( 66)
 CRD 30=   0.2480 ( 69) -0.1400 ( 73) -0.2527 ( 74)  0.1228 ( 77) -0.1401 ( 82)
           0.2478 ( 83) -0.2526 ( 85)  0.1229 ( 89) -0.1502 ( 90) -0.1019 ( 93)
           0.1784 ( 95)  0.1504 ( 97)  0.1552 ( 99)  0.1782 (103) -0.1020 (104)
          -0.1505 (105)  0.1555 (110) -0.1618 (113) -0.1617 (115) -0.2623 (116)
           0.2600 (119) -0.2619 (120)  0.2598 (123) -0.1716 (124) -0.1716 (125)
 CRD 31=  -0.1748 (  3)  0.1748 (  4) -0.1272 (  8)  0.1272 ( 12)  0.1149 ( 16)
           0.2657 ( 17) -0.2629 ( 19) -0.1148 ( 20) -0.2655 ( 21)  0.2631 ( 23)
           0.1418 ( 24) -0.1415 ( 25) -0.1541 ( 26)  0.1981 ( 27)  0.2270 ( 30)
           0.1543 ( 32) -0.1980 ( 34) -0.2271 ( 36)  0.1541 ( 40)  0.1333 ( 42)
          -0.1540 ( 46) -0.1333 ( 50)  0.1650 ( 57) -0.1652 ( 61) -0.1391 ( 64)
           0.1390 ( 66)
 CRD 32=   0.1069 (  1)  0.1785 (  9)  0.1780 ( 13) -0.2685 ( 17)  0.1368 ( 19)
          -0.2686 ( 21)  0.1368 ( 23) -0.1494 ( 24) -0.1486 ( 25) -0.1672 ( 26)
          -0.1668 ( 32)  0.1330 ( 40) -0.2416 ( 44)  0.1329 ( 46) -0.2409 ( 52)
           0.2362 ( 55)  0.1677 ( 57) -0.2377 ( 58)  0.2358 ( 59)  0.1673 ( 61)
          -0.2374 ( 62)  0.2308 ( 63) -0.1374 ( 64)  0.2302 ( 65) -0.1372 ( 66)
 CRD 33=   0.1157 (  3) -0.1155 (  4) -0.1744 (  6) -0.1425 (  8) -0.2813 (  9)
           0.1743 ( 11)  0.1423 ( 12)  0.2818 ( 13)  0.1058 ( 18) -0.1059 ( 22)
           0.3963 ( 24) -0.3964 ( 25)  0.1345 ( 26) -0.1353 ( 32)  0.2350 ( 44)
          -0.2356 ( 52) -0.1251 ( 55)  0.1255 ( 59) -0.2205 ( 63)  0.2212 ( 65)
 CRD 34=   0.2436 (  1)  0.1701 (  2)  0.1699 (  5) -0.1498 (  7) -0.1438 (  8)
          -0.1498 ( 10) -0.1441 ( 12)  0.2023 ( 16) -0.4080 ( 19)  0.2023 ( 20)
          -0.4077 ( 23)  0.1247 ( 24)  0.1256 ( 25) -0.2032 ( 26) -0.1307 ( 28)
          -0.2029 ( 32) -0.1307 ( 33)  0.1839 ( 57)  0.1837 ( 61) -0.1045 ( 64)
          -0.1045 ( 66)
 CRD 35=  -0.1693 (  2)  0.1695 (  5)  0.1279 (  7) -0.1459 (  9) -0.1281 ( 10)
           0.1461 ( 13) -0.1615 ( 16) -0.1655 ( 17)  0.1427 ( 18)  0.3296 ( 19)
           0.1618 ( 20)  0.1661 ( 21) -0.1429 ( 22) -0.3301 ( 23)  0.1178 ( 24)
          -0.1178 ( 25)  0.1499 ( 30) -0.1224 ( 31) -0.1500 ( 36)  0.1225 ( 37)
           0.1833 ( 40) -0.1833 ( 46) -0.1444 ( 53)  0.1444 ( 54)  0.2147 ( 55)
          -0.2094 ( 58) -0.2149 ( 59)  0.2097 ( 62) -0.1019 ( 64)  0.1017 ( 66)
 CRD 36=  -0.2329 (  1) -0.2433 (  3) -0.2432 (  4)  0.1421 (  6)  0.1535 (  8)
           0.3034 (  9)  0.1420 ( 11)  0.1535 ( 12)  0.3031 ( 13)  0.3148 ( 17)
          -0.2027 ( 18)  0.3145 ( 21) -0.2025 ( 22) -0.2141 ( 24) -0.2139 ( 25)
          -0.1316 ( 38)  0.1101 ( 63)  0.1101 ( 65)
 CRD 37=   0.1902 (  2)  0.2384 (  3) -0.2385 (  4) -0.1902 (  5) -0.3286 (  9)
           0.3286 ( 13) -0.3018 ( 17)  0.1800 ( 18) -0.2552 ( 19)  0.3019 ( 21)
          -0.1800 ( 22)  0.2552 ( 23) -0.1846 ( 24)  0.1846 ( 25)  0.1119 ( 57)
          -0.1119 ( 61)
 CRD 38=  -0.3142 (  1)  0.2667 (  3)  0.2666 (  4)  0.2025 (  6) -0.1505 (  7)
           0.1865 (  8) -0.1933 (  9) -0.1505 ( 10)  0.2025 ( 11)  0.1865 ( 12)
          -0.1933 ( 13)  0.1342 ( 16) -0.1881 ( 17) -0.1667 ( 19)  0.1342 ( 20)
          -0.1881 ( 21) -0.1666 ( 23) -0.3071 ( 24) -0.3070 ( 25) -0.1016 ( 40)
          -0.1015 ( 46)  0.1221 ( 67)
 CRD 39=   0.2767 ( 14) -0.2766 ( 15)  0.2569 ( 69) -0.1694 ( 72)  0.1694 ( 79)
          -0.2568 ( 83) -0.2737 ( 90) -0.1188 ( 93)  0.2276 ( 99)  0.1188 (104)
           0.2737 (105) -0.2277 (110) -0.1296 (113)  0.1296 (115) -0.2165 (116)
           0.2165 (120)  0.1557 (126) -0.1556 (127) -0.1644 (128)  0.1644 (130)
 CRD 40=   0.1609 (  2)  0.1207 (  3) -0.1207 (  4) -0.1608 (  5) -0.3156 (  6)
          -0.1037 (  7)  0.1036 ( 10)  0.3157 ( 11)  0.1255 ( 17) -0.1168 ( 18)
          -0.1176 ( 19) -0.1255 ( 21)  0.1169 ( 22)  0.1175 ( 23)  0.1775 ( 24)
          -0.1775 ( 25) -0.1384 ( 26)  0.1065 ( 28)  0.1384 ( 32) -0.1065 ( 33)
           0.1463 ( 39)  0.1093 ( 40) -0.1673 ( 42)  0.1462 ( 43) -0.1031 ( 44)
          -0.1093 ( 46) -0.1463 ( 47) -0.1462 ( 48)  0.1673 ( 50)  0.1031 ( 52)
          -0.1170 ( 58)  0.1170 ( 62)  0.1809 ( 63) -0.1226 ( 64) -0.1809 ( 65)
           0.1225 ( 66)  0.1011 ( 68) -0.1010 ( 71)  0.1010 ( 86) -0.1011 ( 87)
          -0.1011 (117)  0.1010 (118) -0.1010 (121)  0.1010 (122)
 CRD 41=  -0.2452 (  2)  0.3411 (  3)  0.3411 (  4) -0.2452 (  5)  0.1777 (  9)
           0.1777 ( 13) -0.2977 ( 18)  0.1906 ( 19) -0.2976 ( 22)  0.1906 ( 23)
           0.1158 ( 24)  0.1158 ( 25) -0.1192 ( 28) -0.1193 ( 33) -0.1107 ( 40)
          -0.1108 ( 46)  0.1104 ( 53)  0.1104 ( 54) -0.1298 ( 55)  0.1204 ( 58)
          -0.1298 ( 59)  0.1203 ( 62)  0.1431 ( 67)
 CRD 42=   0.2715 (  2) -0.2720 (  5)  0.1923 (  6) -0.3088 (  8) -0.1930 ( 11)
           0.3093 ( 12) -0.2886 ( 16)  0.2893 ( 20)  0.1825 ( 24) -0.1826 ( 25)
          -0.2026 ( 26)  0.2029 ( 32) -0.1389 ( 40) -0.1123 ( 42)  0.1393 ( 46)
           0.1123 ( 50)  0.1515 ( 57) -0.1519 ( 61)  0.1786 ( 64) -0.1788 ( 66)
 CRD 43=  -0.3533 (  6)  0.1386 (  7)  0.3447 (  8) -0.1837 (  9)  0.1388 ( 10)
          -0.3530 ( 11)  0.3442 ( 12) -0.1834 ( 13)  0.1527 ( 17) -0.1100 ( 19)
           0.1524 ( 21) -0.1100 ( 23)  0.1128 ( 26) -0.1117 ( 27)  0.1126 ( 32)
          -0.1117 ( 34) -0.1285 ( 44) -0.1283 ( 52)  0.1690 ( 63) -0.1408 ( 64)
           0.1689 ( 65) -0.1405 ( 66)
 CRD 44=   0.1049 (  1) -0.2579 (  2) -0.2573 (  5)  0.1817 (  9)  0.1820 ( 13)
           0.3249 ( 16) -0.2234 ( 17) -0.1309 ( 19)  0.3244 ( 20) -0.2235 ( 21)
          -0.1311 ( 23)  0.1138 ( 28)  0.1210 ( 29)  0.1139 ( 33)  0.1212 ( 35)
           0.1987 ( 40) -0.1439 ( 41)  0.1295 ( 44) -0.1001 ( 45)  0.1986 ( 46)
          -0.1441 ( 49) -0.1003 ( 51)  0.1298 ( 52) -0.1869 ( 57) -0.1868 ( 61)
          -0.1053 ( 67)
 CRD 45=  -0.2600 (  3)  0.2602 (  4)  0.1484 (  9) -0.1482 ( 13) -0.1449 ( 17)
           0.2801 ( 18) -0.2270 ( 19)  0.1447 ( 21) -0.2802 ( 22)  0.2267 ( 23)
           0.1568 ( 28)  0.1267 ( 29) -0.1251 ( 30) -0.1566 ( 33) -0.1266 ( 35)
           0.1252 ( 36)  0.1563 ( 40) -0.1094 ( 41)  0.2005 ( 44) -0.1551 ( 45)
          -0.1560 ( 46)  0.1092 ( 49)  0.1548 ( 51) -0.2004 ( 52) -0.1685 ( 53)
           0.1684 ( 54) -0.1503 ( 57)  0.1500 ( 61)
 CRD 46=  -0.1436 ( 68) -0.1436 ( 71) -0.1758 ( 72)  0.2632 ( 74) -0.1209 ( 75)
           0.1754 ( 79) -0.2636 ( 85)  0.1438 ( 86)  0.1438 ( 87)  0.1210 ( 88)
           0.2720 ( 95) -0.1201 ( 99) -0.2725 (103)  0.1201 (110)  0.1621 (113)
          -0.1623 (115) -0.2152 (119)  0.2156 (123) -0.2249 (124)  0.2254 (125)
          -0.1758 (126)  0.1757 (127) -0.1117 (128) -0.1694 (129)  0.1123 (130)
           0.1699 (131)
 CRD 47=  -0.1679 (  2)  0.1443 (  3) -0.1443 (  4)  0.1684 (  5)  0.1818 (  9)
          -0.1819 ( 13)  0.2207 ( 16) -0.2549 ( 17) -0.2241 ( 18) -0.2210 ( 20)
           0.2548 ( 21)  0.2239 ( 22)  0.1121 ( 24) -0.1117 ( 25)  0.1213 ( 29)
           0.1153 ( 30) -0.2075 ( 31) -0.1213 ( 35) -0.1151 ( 36)  0.2075 ( 37)
          -0.1922 ( 41)  0.1921 ( 49) -0.2166 ( 55)  0.1074 ( 56)  0.1092 ( 58)
           0.2165 ( 59) -0.1071 ( 60) -0.1095 ( 62)  0.1070 ( 64) -0.1068 ( 66)
 CRD 48=   0.1542 ( 69)  0.1534 ( 72)  0.2447 ( 74)  0.1397 ( 78)  0.1537 ( 79)
           0.1399 ( 81)  0.1541 ( 83)  0.2441 ( 85) -0.1064 ( 94)  0.2274 ( 95)
          -0.1728 ( 96) -0.1062 (102)  0.2269 (103) -0.1087 (112)  0.1349 (113)
          -0.1087 (114)  0.1345 (115) -0.1628 (116) -0.2410 (119) -0.1628 (120)
          -0.2404 (123) -0.2249 (124) -0.2244 (125) -0.1837 (128) -0.2202 (129)
          -0.1835 (130) -0.2199 (131)
 CRD 49=  -0.3875 (  1)  0.1219 (  2)  0.1215 (  5) -0.1501 ( 16) -0.1187 ( 17)
          -0.1443 ( 19) -0.1497 ( 20) -0.1191 ( 21) -0.1443 ( 23)  0.2573 ( 24)
           0.2574 ( 25) -0.1103 ( 26)  0.1075 ( 28)  0.1238 ( 29) -0.1104 ( 32)
           0.1077 ( 33)  0.1240 ( 35) -0.1304 ( 41) -0.1702 ( 42) -0.1535 ( 45)
          -0.1307 ( 49) -0.1703 ( 50) -0.1535 ( 51)  0.2227 ( 56) -0.1291 ( 58)
           0.2229 ( 60) -0.1289 ( 62)  0.1537 ( 63)  0.1636 ( 64)  0.1537 ( 65)
           0.1637 ( 66)
 CRD 50=  -0.1966 (  7) -0.2943 (  8)  0.1967 ( 10)  0.2943 ( 12)  0.1852 ( 16)
           0.1752 ( 19) -0.1853 ( 20) -0.1753 ( 23) -0.2125 ( 24)  0.2125 ( 25)
          -0.1150 ( 26)  0.1150 ( 32)  0.1205 ( 39)  0.1206 ( 43)  0.1635 ( 45)
          -0.1205 ( 47) -0.1205 ( 48) -0.1637 ( 51) -0.1959 ( 56)  0.1627 ( 58)
           0.1959 ( 60) -0.1000 ( 61) -0.1629 ( 62) -0.2048 ( 63) -0.1111 ( 64)
           0.2049 ( 65)  0.1110 ( 66)
 CRD 51=  -0.1645 (  2)  0.1092 (  3)  0.1090 (  4) -0.1643 (  5)  0.1697 (  9)
           0.1696 ( 13) -0.1946 ( 16)  0.1486 ( 17)  0.3243 ( 18) -0.1707 ( 19)
          -0.1945 ( 20)  0.1487 ( 21)  0.3243 ( 22) -0.1706 ( 23)  0.1673 ( 29)
           0.1672 ( 35)  0.1317 ( 41)  0.1850 ( 44) -0.1572 ( 45)  0.1317 ( 49)
          -0.1571 ( 51)  0.1849 ( 52)  0.1696 ( 55) -0.1496 ( 57) -0.1321 ( 58)
           0.1697 ( 59) -0.1495 ( 61) -0.1320 ( 62)  0.1183 ( 67)
 CRD 52=  -0.3594 (  1)  0.2092 (  2)  0.2125 (  5) -0.2116 (  6)  0.1054 (  7)
          -0.2458 (  8)  0.1062 ( 10) -0.2109 ( 11) -0.2447 ( 12)  0.1547 ( 16)
           0.1568 ( 20) -0.1240 ( 24) -0.1236 ( 25) -0.1683 ( 26) -0.1259 ( 27)
           0.1335 ( 28)  0.1077 ( 30) -0.1674 ( 32)  0.1350 ( 33) -0.1258 ( 34)
           0.1055 ( 36) -0.1983 ( 42) -0.1976 ( 50)  0.1012 ( 51) -0.1320 ( 56)
          -0.1316 ( 60) -0.1265 ( 63) -0.1135 ( 64) -0.1261 ( 65) -0.1130 ( 66)
 CRD 53=  -0.2330 (  2)  0.2754 (  3) -0.2766 (  4)  0.2302 (  5)  0.1731 (  9)
          -0.1739 ( 13) -0.1529 ( 16)  0.1253 ( 17)  0.2133 ( 18) -0.1038 ( 19)
           0.1508 ( 20) -0.1256 ( 21) -0.2143 ( 22)  0.1025 ( 23) -0.1113 ( 28)
           0.1762 ( 29)  0.1562 ( 30) -0.2096 ( 31)  0.1095 ( 33) -0.1772 ( 35)
          -0.1577 ( 36)  0.2084 ( 37)  0.1338 ( 41)  0.1424 ( 44) -0.1172 ( 45)
          -0.1342 ( 49)  0.1159 ( 51) -0.1428 ( 52)  0.1180 ( 53) -0.1179 ( 54)
           0.1121 ( 55) -0.1140 ( 57) -0.1128 ( 59)  0.1127 ( 61)
 CRD 54=  -0.2094 ( 73)  0.1332 ( 77) -0.2094 ( 82)  0.1333 ( 89)  0.1933 ( 90)
          -0.1186 ( 93)  0.1509 ( 97) -0.2483 ( 99) -0.1186 (104)  0.1932 (105)
          -0.2484 (110)  0.1551 (112)  0.1551 (114)  0.1851 (116)  0.1851 (120)
          -0.1244 (124) -0.1245 (125) -0.2877 (126) -0.2878 (127)  0.2686 (128)
           0.2685 (130)
 CRD 55=  -0.1020 (  2)  0.1019 (  5)  0.2665 (  6) -0.3630 (  7)  0.1039 (  8)
           0.3630 ( 10) -0.2664 ( 11) -0.1038 ( 12) -0.1070 ( 16)  0.1069 ( 20)
           0.1853 ( 27) -0.1150 ( 28)  0.1062 ( 30)  0.1149 ( 33) -0.1852 ( 34)
          -0.1062 ( 36)  0.1839 ( 39)  0.1153 ( 42)  0.1842 ( 43) -0.1840 ( 47)
          -0.1842 ( 48) -0.1153 ( 50)  0.1009 ( 64) -0.1008 ( 66)  0.1271 ( 68)
          -0.1272 ( 71)  0.1272 ( 86) -0.1271 ( 87) -0.1271 (117)  0.1272 (118)
          -0.1270 (121)  0.1273 (122)
 CRD 56=  -0.2606 ( 14)  0.2614 ( 15)  0.1302 ( 39) -0.1297 ( 43) -0.1300 ( 47)
           0.1298 ( 48)  0.1228 ( 68)  0.1701 ( 69)  0.1230 ( 71) -0.1597 ( 76)
           0.1597 ( 80) -0.1700 ( 83) -0.1225 ( 86) -0.1233 ( 87)  0.1025 ( 93)
           0.1036 ( 94)  0.1605 ( 98)  0.1540 (101) -0.1037 (102) -0.1025 (104)
          -0.1540 (108) -0.1605 (109) -0.1518 (112)  0.1518 (114) -0.1719 (116)
           0.1158 (117)  0.1155 (118) -0.1466 (119)  0.1719 (120) -0.1160 (121)
          -0.1152 (122)  0.1465 (123)  0.1831 (126) -0.1831 (127) -0.1401 (128)
          -0.1783 (129)  0.1401 (130)  0.1783 (131)
 CRD 57=   0.1513 (  3)  0.1512 (  4) -0.2818 (  7) -0.2818 ( 10)  0.2407 ( 14)
           0.2401 ( 15) -0.1170 ( 27) -0.1169 ( 34)  0.2534 ( 38)  0.1935 ( 53)
           0.1935 ( 54) -0.3445 ( 67) -0.2003 ( 68)  0.1996 ( 71)  0.2001 ( 86)
          -0.1998 ( 87)  0.1997 (117) -0.2002 (118) -0.1998 (121)  0.2000 (122)
 CRD 58=   0.1138 ( 69) -0.2059 ( 72) -0.1450 ( 74)  0.2058 ( 79) -0.1137 ( 83)
           0.1449 ( 85) -0.2124 ( 91) -0.1956 ( 92)  0.1676 ( 94)  0.1348 ( 98)
          -0.1471 ( 99)  0.1520 (100) -0.1676 (102)  0.2123 (106)  0.1957 (107)
          -0.1348 (109)  0.1473 (110) -0.1518 (111)  0.1298 (112) -0.1298 (114)
          -0.1621 (124)  0.1621 (125) -0.1029 (126)  0.1033 (127)  0.3015 (128)
          -0.2065 (129) -0.3014 (130)  0.2062 (131)
 CRD 59=  -0.1003 ( 69)  0.2292 ( 70) -0.1417 ( 73)  0.1058 ( 78)  0.1059 ( 81)
          -0.1418 ( 82) -0.1003 ( 83)  0.2288 ( 84) -0.1239 ( 90)  0.1337 ( 91)
           0.1139 ( 95) -0.1308 ( 96) -0.2764 (100)  0.1138 (103) -0.1239 (105)
           0.1338 (106) -0.2764 (111)  0.1209 (119)  0.1208 (123) -0.2647 (126)
          -0.2643 (127) -0.1367 (128)  0.3121 (129) -0.1369 (130)  0.3122 (131)
 CRD 60=   0.1067 ( 14) -0.1065 ( 15) -0.2642 ( 70)  0.1720 ( 72)  0.1072 ( 75)
          -0.1719 ( 79)  0.2644 ( 84) -0.1072 ( 88)  0.1660 ( 92)  0.2322 (100)
          -0.1363 (101) -0.1661 (107)  0.1364 (108) -0.2325 (111)  0.1186 (112)
           0.1288 (113) -0.1187 (114) -0.1290 (115) -0.1356 (117) -0.1358 (118)
          -0.1030 (119)  0.1358 (121)  0.1359 (122)  0.1031 (123)  0.2761 (126)
          -0.2764 (127) -0.2332 (129)  0.2336 (131)
 CRD 61=  -0.2077 ( 72) -0.1978 ( 76)  0.1728 ( 77) -0.2078 ( 79) -0.1976 ( 80)
           0.1729 ( 89)  0.2224 ( 91) -0.1805 ( 93)  0.1162 ( 94)  0.2522 ( 97)
          -0.1007 (100) -0.1040 (101)  0.1162 (102) -0.1805 (104)  0.2224 (106)
          -0.1039 (108) -0.1007 (111)  0.2698 (113)  0.2695 (115) -0.1587 (117)
          -0.1587 (118) -0.1586 (121) -0.1586 (122) -0.2194 (128) -0.2193 (130)
 CRD 62=   0.1020 ( 70)  0.1965 ( 75) -0.2214 ( 76) -0.1103 ( 77)  0.1291 ( 78)
           0.2214 ( 80) -0.1291 ( 81) -0.1019 ( 84) -0.1965 ( 88)  0.1102 ( 89)
           0.1757 ( 91) -0.1486 ( 92)  0.1176 ( 94)  0.2140 ( 98) -0.1178 (100)
          -0.1177 (102) -0.1758 (106)  0.1486 (107) -0.2140 (109)  0.1179 (111)
           0.2707 (113) -0.2708 (115) -0.2121 (117) -0.2123 (118)  0.2123 (121)
           0.2124 (122) -0.1363 (128)  0.1363 (130)
 CRD 63=   0.1533 ( 70)  0.2868 ( 72)  0.1084 ( 73) -0.1680 ( 76) -0.1811 ( 78)
           0.2869 ( 79) -0.1680 ( 80) -0.1811 ( 81)  0.1084 ( 82)  0.1532 ( 84)
           0.1022 ( 91) -0.2198 ( 92)  0.2239 ( 96) -0.3694 ( 97)  0.2332 ( 98)
           0.1023 (106) -0.2198 (107)  0.2332 (109)  0.1231 (113)  0.1232 (115)
          -0.1082 (126) -0.1081 (127)

 THE DETERMINANT OF THE G MATRIX IS 10**(   -29)


                     --------------------
                     INTERNAL COORDINATES
                     --------------------

                 - - ATOMS - -         COORDINATE      COORDINATE
 NO.   TYPE    I  J  K  L  M  N        (BOHR,RAD)       (ANG,DEG)
 ----------------------------------------------------------------
   1 STRETCH   1  2                     2.7613222       1.4612289
   2 STRETCH   1  4                     2.6161061       1.3843839
   3 STRETCH   1  3                     2.6749769       1.4155369
   4 STRETCH   2  5                     2.6749909       1.4155443
   5 STRETCH   2  6                     2.6161813       1.3844236
   6 STRETCH   3  8                     2.6117188       1.3820622
   7 STRETCH   3  7                     2.8405926       1.5031770
   8 STRETCH   4  9                     2.6391331       1.3965692
   9 STRETCH   4 14                     2.0684617       1.0945829
  10 STRETCH   5  7                     2.8406524       1.5032086
  11 STRETCH   5 10                     2.6117396       1.3820732
  12 STRETCH   6 11                     2.6390698       1.3965357
  13 STRETCH   6 15                     2.0683947       1.0945474
  14 STRETCH   7 17                     2.0890591       1.1054826
  15 STRETCH   7 16                     2.0894364       1.1056822
  16 STRETCH   8 12                     2.6412786       1.3977045
  17 STRETCH   8 18                     2.0672906       1.0939632
  18 STRETCH   9 12                     2.6272300       1.3902703
  19 STRETCH   9 19                     2.0690291       1.0948831
  20 STRETCH  10 13                     2.6407560       1.3974280
  21 STRETCH  10 20                     2.0681364       1.0944107
  22 STRETCH  11 13                     2.6272910       1.3903026
  23 STRETCH  11 21                     2.0690794       1.0949097
  24 STRETCH  12 22                     2.0693839       1.0950709
  25 STRETCH  13 23                     2.0689823       1.0948584
  26 BEND      1  4 14                  2.1069555     120.7196550
  27 BEND      1  3  7                  1.9250236     110.2957299
  28 BEND      1  3  8                  2.1040367     120.5524241
  29 BEND      1  4  9                  2.0631343     118.2088877
  30 BEND      1  2  5                  1.8900975     108.2946100
  31 BEND      1  2  6                  2.2828956     130.8002852
  32 BEND      2  6 15                  2.1070362     120.7242814
  33 BEND      2  5 10                  2.1038005     120.5388884
  34 BEND      2  5  7                  1.9249955     110.2941177
  35 BEND      2  6 11                  2.0627902     118.1891745
  36 BEND      2  1  3                  1.8900889     108.2941154
  37 BEND      2  1  4                  2.2831707     130.8160460
  38 BEND      3  7  5                  1.7945724     102.8214268
  39 BEND      3  7 17                  1.9503035     111.7441572
  40 BEND      3  8 18                  2.1099368     120.8904716
  41 BEND      3  8 12                  2.0660980     118.3786981
  42 BEND      3  1  4                  2.1099257     120.8898376
  43 BEND      3  7 16                  1.9515472     111.8154203
  44 BEND      4  9 19                  2.0841077     119.4105779
  45 BEND      4  9 12                  2.1108696     120.9439204
  46 BEND      5 10 20                  2.1097834     120.8816864
  47 BEND      5  7 16                  1.9509963     111.7838516
  48 BEND      5  7 17                  1.9508201     111.7737570
  49 BEND      5 10 13                  2.0662478     118.3872794
  50 BEND      5  2  6                  2.1101921     120.9051035
  51 BEND      6 11 13                  2.1110305     120.9531408
  52 BEND      6 11 21                  2.0837208     119.3884097
  53 BEND      7  3  8                  2.2541249     129.1518443
  54 BEND      7  5 10                  2.2543893     129.1669936
  55 BEND      8 12 22                  2.0829622     119.3449409
  56 BEND      8 12  9                  2.1123062     121.0262316
  57 BEND      9  4 14                  2.1130955     121.0714562
  58 BEND      9 12 22                  2.0879169     119.6288267
  59 BEND     10 13 23                  2.0828379     119.3378205
  60 BEND     10 13 11                  2.1123094     121.0264120
  61 BEND     11  6 15                  2.1133589     121.0865431
  62 BEND     11 13 23                  2.0880380     119.6357657
  63 BEND     12  9 19                  2.0882079     119.6455015
  64 BEND     12  8 18                  2.1071505     120.7308299
  65 BEND     13 11 21                  2.0884339     119.6584483
  66 BEND     13 10 20                  2.1071541     120.7310342
  67 BEND     16  7 17                  1.8674166     106.9950905
  68 TORSION   1  3  7 16              -2.0956542    -120.0721430
  69 TORSION   1  4  9 19              -3.1415007    -179.9947299
  70 TORSION   1  4  9 12               0.0000155       0.0008895
  71 TORSION   1  3  7 17               2.0947476     120.0201943
  72 TORSION   1  2  6 15              -0.0000869      -0.0049802
  73 TORSION   1  2  6 11              -3.1414867    -179.9939283
  74 TORSION   1  3  8 18               3.1415909     179.9998972
  75 TORSION   1  3  7  5              -0.0000417      -0.0023911
  76 TORSION   1  3  8 12              -0.0001206      -0.0069080
  77 TORSION   1  2  5 10              -3.1415669    -179.9985233
  78 TORSION   1  2  5  7              -0.0000582      -0.0033369
  79 TORSION   2  1  4 14              -0.0000248      -0.0014218
  80 TORSION   2  5 10 13              -0.0002191      -0.0125523
  81 TORSION   2  1  3  7               0.0000091       0.0005236
  82 TORSION   2  1  4  9               3.1413571     179.9865061
  83 TORSION   2  6 11 21               3.1414379     179.9911338
  84 TORSION   2  6 11 13               0.0000716       0.0041027
  85 TORSION   2  5 10 20               3.1414263     179.9904677
  86 TORSION   2  5  7 16               2.0960538     120.0950358
  87 TORSION   2  5  7 17              -2.0943715    -119.9986469
  88 TORSION   2  5  7  3               0.0000608       0.0034854
  89 TORSION   2  1  3  8              -3.1413490    -179.9860411
  90 TORSION   3  8 12 22               3.1415450     179.9972685
  91 TORSION   3  8 12  9               0.0001296       0.0074247
  92 TORSION   3  1  4  9              -0.0000071      -0.0004069
  93 TORSION   3  7  5 10               3.1415602     179.9981379
  94 TORSION   3  1  2  6               3.1413897     179.9883744
  95 TORSION   3  1  4 14              -3.1413891    -179.9883347
  96 TORSION   3  1  2  5               0.0000303       0.0017385
  97 TORSION   4  1  2  6               0.0000035       0.0002030
  98 TORSION   4  1  3  8               0.0000616       0.0035272
  99 TORSION   4  9 12 22              -3.1414931    -179.9942970
 100 TORSION   4  9 12  8              -0.0000782      -0.0044817
 101 TORSION   4  1  3  7               3.1414197     179.9900919
 102 TORSION   4  1  2  5              -3.1413559    -179.9864329
 103 TORSION   5  2  6 15               3.1412476     179.9802315
 104 TORSION   5  7  3  8               3.1412905     179.9826890
 105 TORSION   5 10 13 23               3.1414697     179.9929573
 106 TORSION   5 10 13 11               0.0001396       0.0079966
 107 TORSION   5  2  6 11              -0.0001521      -0.0087166
 108 TORSION   6  2  5  7              -3.1414451    -179.9915464
 109 TORSION   6  2  5 10               0.0002316       0.0132673
 110 TORSION   6 11 13 23              -3.1413961    -179.9887389
 111 TORSION   6 11 13 10              -0.0000667      -0.0038225
 112 TORSION   7  3  8 12              -3.1414296    -179.9906584
 113 TORSION   7  3  8 18               0.0002818       0.0161468
 114 TORSION   7  5 10 13               3.1414752     179.9932710
 115 TORSION   7  5 10 20              -0.0000647      -0.0037090
 116 TORSION   8 12  9 19               3.1414378     179.9911275
 117 TORSION   8  3  7 17              -1.0471055     -59.9947256
 118 TORSION   8  3  7 16               1.0456780      59.9129371
 119 TORSION   9 12  8 18              -3.1415816    -179.9993692
 120 TORSION  10 13 11 21              -3.1414324    -179.9908189
 121 TORSION  10  5  7 17               1.0471278      59.9960056
 122 TORSION  10  5  7 16              -1.0456322     -59.9103117
 123 TORSION  11 13 10 20              -3.1415057    -179.9950187
 124 TORSION  12  9  4 14               3.1413967     179.9887729
 125 TORSION  13 11  6 15              -3.1413274    -179.9848034
 126 TORSION  14  4  9 19              -0.0001195      -0.0068464
 127 TORSION  15  6 11 21               0.0000389       0.0022276
 128 TORSION  18  8 12 22              -0.0001662      -0.0095254
 129 TORSION  19  9 12 22               0.0000229       0.0013122
 130 TORSION  20 10 13 23              -0.0001755      -0.0100580
 131 TORSION  21 11 13 23               0.0004235       0.0242647

     ------------------------------------------
     THE POINT GROUP IS C1 , NAXIS= 1, ORDER= 1
     ------------------------------------------

     DIMENSIONS OF THE SYMMETRY SUBSPACES ARE
 A   =  307

 ..... DONE SETTING UP THE RUN .....
 STEP CPU TIME =     0.02 TOTAL CPU TIME =        0.0 (    0.0 MIN)
 TOTAL WALL CLOCK TIME=        0.0 SECONDS, CPU UTILIZATION IS 100.00%


          -----------------------------
          STATIONARY POINT LOCATION RUN
          -----------------------------

 OBTAINING INITIAL HESSIAN, HESS=GUESS   
 DIAGONAL GUESS HESSIAN IN INTERNAL COORDS IS
     1  0.4197     2  0.4873     3  0.4587     4  0.4587     5  0.4873
     6  0.4895     7  0.3868     8  0.4759     9  0.3433    10  0.3868
    11  0.4895    12  0.4759    13  0.3433    14  0.3361    15  0.3360
    16  0.4749    17  0.3437    18  0.4818    19  0.3431    20  0.4751
    21  0.3434    22  0.4817    23  0.3431    24  0.3430    25  0.3431
    26  0.2327    27  0.2587    28  0.2680    29  0.2693    30  0.2619
    31  0.2643    32  0.2327    33  0.2680    34  0.2587    35  0.2693
    36  0.2619    37  0.2643    38  0.2523    39  0.2248    40  0.2329
    41  0.2694    42  0.2678    43  0.2247    44  0.2319    45  0.2689
    46  0.2329    47  0.2247    48  0.2248    49  0.2694    50  0.2678
    51  0.2689    52  0.2319    53  0.2612    54  0.2612    55  0.2319
    56  0.2688    57  0.2320    58  0.2323    59  0.2319    60  0.2688
    61  0.2320    62  0.2323    63  0.2323    64  0.2319    65  0.2323
    66  0.2319    67  0.2018    68  0.2500    69  0.2500    70  0.2500
    71  0.2500    72  0.2500    73  0.2500    74  0.2500    75  0.2500
    76  0.2500    77  0.2500    78  0.2500    79  0.2500    80  0.2500
    81  0.2500    82  0.2500    83  0.2500    84  0.2500    85  0.2500
    86  0.2500    87  0.2500    88  0.2500    89  0.2500    90  0.2500
    91  0.2500    92  0.2500    93  0.2500    94  0.2500    95  0.2500
    96  0.2500    97  0.2500    98  0.2500    99  0.2500   100  0.2500
   101  0.2500   102  0.2500   103  0.2500   104  0.2500   105  0.2500
   106  0.2500   107  0.2500   108  0.2500   109  0.2500   110  0.2500
   111  0.2500   112  0.2500   113  0.2500   114  0.2500   115  0.2500
   116  0.2500   117  0.2500   118  0.2500   119  0.2500   120  0.2500
   121  0.2500   122  0.2500   123  0.2500   124  0.2500   125  0.2500
   126  0.2500   127  0.2500   128  0.2500   129  0.2500   130  0.2500
   131  0.2500
 TRANSFORMING HESSIAN TO SYMMETRY COORDINATES

          PARAMETERS CONTROLLING GEOMETRY SEARCH ARE
          METHOD =QA                  UPHESS =BFGS    
          NNEG   =         0          NFRZ   =         3
          NSTEP  =        50          IFOLOW =         1
          HESS   =GUESS               RESTAR =         F
          IHREP  =         0          HSSEND =         F
          NPRT   =         0          NPUN   =         0
          OPTTOL = 5.000E-04          RMIN   = 1.500E-03
          RMAX   = 1.000E-01          RLIM   = 7.000E-02
          DXMAX  = 3.000E-01          PURIFY =         F
          MOVIE  =         F          TRUPD  =         T
          TRMAX  = 5.000E-01          TRMIN  = 5.000E-02
          ITBMAT =         5          STPT   =         F
          STSTEP = 1.000E-02          PROJCT=          F
          FROZEN COORD(S)=   1   2   3


      ***** EQUILIBRIUM GEOMETRY LOCATED *****
            (SUBJECT TO   3 CONSTRAINT(S))
 COORDINATES OF ALL ATOMS ARE (ANGS)
   ATOM   CHARGE       X              Y              Z
 ------------------------------------------------------------
 C           6.0   3.2898214672   1.4281815164   2.7775724910
 C           6.0   4.4282551394   1.4661917070   3.7131485747
 C           6.0   2.3114779415   2.3091863547   3.2393477616
 C           6.0   3.0960285250   0.6979180295   1.6158833820
 C           6.0   4.1292228869   2.3698537912   4.7332137319
 C           6.0   5.6336548467   0.7826394579   3.7013442604
 C           6.0   2.7627411202   2.9790816850   4.5171279797
 C           6.0   1.1293268384   2.4687711378   2.5440218816
 C           6.0   1.9071228192   0.8605290141   0.9193642490
 C           6.0   5.0327395535   2.5991761650   5.7517913195
 C           6.0   6.5394872807   1.0152262728   4.7262543449
 C           6.0   0.9320031822   1.7379592378   1.3787114206
 C           6.0   6.2423780443   1.9153214843   5.7427686829
 H           1.0   3.8470818649   0.0171844938   1.2555518116
 H           1.0   5.8691238623   0.0846697349   2.9173118523
 H           1.0   2.0901332842   2.7692694075   5.3441006612
 H           1.0   2.8130702176   4.0592517026   4.4119924607
 H           1.0   0.3716976943   3.1470325079   2.8960601187
 H           1.0   1.7391587018   0.3021691162   0.0158212853
 H           1.0   4.8068025512   3.2952229764   6.5407420342
 H           1.0   7.4799378169   0.4938207878   4.7336862235
 H           1.0   0.0157510620   1.8530950213   0.8279436733
 H           1.0   6.9546768569   2.0850132555   6.5301401745


                     --------------------
                     INTERNAL COORDINATES
                     --------------------

                 - - ATOMS - -         COORDINATE      COORDINATE
 NO.   TYPE    I  J  K  L  M  N        (BOHR,RAD)       (ANG,DEG)
 ----------------------------------------------------------------
   1 STRETCH   1  2                     2.7855219       1.4740348
   2 STRETCH   1  4                     2.6187280       1.3857713
   3 STRETCH   1  3                     2.6365314       1.3951925
   4 STRETCH   2  5                     2.6365290       1.3951912
   5 STRETCH   2  6                     2.6187344       1.3857747
   6 STRETCH   3  8                     2.6092091       1.3807341
   7 STRETCH   3  7                     2.8566260       1.5116615
   8 STRETCH   4  9                     2.6219415       1.3874718
   9 STRETCH   4 14                     2.0329430       1.0757872
  10 STRETCH   5  7                     2.8566283       1.5116627
  11 STRETCH   5 10                     2.6092124       1.3807358
  12 STRETCH   6 11                     2.6219359       1.3874688
  13 STRETCH   6 15                     2.0329396       1.0757854
  14 STRETCH   7 17                     2.0530755       1.0864409
  15 STRETCH   7 16                     2.0530343       1.0864190
  16 STRETCH   8 12                     2.6259517       1.3895939
  17 STRETCH   8 18                     2.0335167       1.0760908
  18 STRETCH   9 12                     2.6264757       1.3898712
  19 STRETCH   9 19                     2.0321080       1.0753453
  20 STRETCH  10 13                     2.6259467       1.3895913
  21 STRETCH  10 20                     2.0335172       1.0760910
  22 STRETCH  11 13                     2.6264789       1.3898729
  23 STRETCH  11 21                     2.0321067       1.0753447
  24 STRETCH  12 22                     2.0318899       1.0752299
  25 STRETCH  13 23                     2.0318894       1.0752296
  26 BEND      1  4 14                  2.1136830     121.1051151
  27 BEND      1  3  7                  1.9286546     110.5037703
  28 BEND      1  3  8                  2.1021243     120.4428477
  29 BEND      1  4  9                  2.0701984     118.6136325
  30 BEND      1  2  5                  1.8914846     108.3740838
  31 BEND      1  2  6                  2.2832222     130.8189946
  32 BEND      2  6 15                  2.1137051     121.1063791
  33 BEND      2  5 10                  2.1021266     120.4429837
  34 BEND      2  5  7                  1.9286541     110.5037384
  35 BEND      2  6 11                  2.0702073     118.6141388
  36 BEND      2  1  3                  1.8914831     108.3739958
  37 BEND      2  1  4                  2.2832143     130.8185446
  38 BEND      3  7  5                  1.7845016     102.2444107
  39 BEND      3  7 17                  1.9526317     111.8775580
  40 BEND      3  8 18                  2.1070264     120.7237189
  41 BEND      3  8 12                  2.0749917     118.8882683
  42 BEND      3  1  4                  2.1084879     120.8074590
  43 BEND      3  7 16                  1.9530608     111.9021393
  44 BEND      4  9 19                  2.0883900     119.6559352
  45 BEND      4  9 12                  2.1051213     120.6145652
  46 BEND      5 10 20                  2.1070237     120.7235663
  47 BEND      5  7 16                  1.9530420     111.9010653
  48 BEND      5  7 17                  1.9526588     111.8791101
  49 BEND      5 10 13                  2.0749948     118.8884465
  50 BEND      5  2  6                  2.1084785     120.8069207
  51 BEND      6 11 13                  2.1051182     120.6143857
  52 BEND      6 11 21                  2.0883936     119.6561395
  53 BEND      7  3  8                  2.2524064     129.0533819
  54 BEND      7  5 10                  2.2524046     129.0532778
  55 BEND      8 12 22                  2.0877650     119.6201244
  56 BEND      8 12  9                  2.1054470     120.6332272
  57 BEND      9  4 14                  2.0993039     120.2812520
  58 BEND      9 12 22                  2.0899733     119.7466482
  59 BEND     10 13 23                  2.0877696     119.6203847
  60 BEND     10 13 11                  2.1054452     120.6331243
  61 BEND     11  6 15                  2.0992730     120.2794818
  62 BEND     11 13 23                  2.0899705     119.7464902
  63 BEND     12  9 19                  2.0896740     119.7294996
  64 BEND     12  8 18                  2.1011672     120.3880125
  65 BEND     13 11 21                  2.0896735     119.7294743
  66 BEND     13 10 20                  2.1011668     120.3879872
  67 BEND     16  7 17                  1.8695705     107.1185003
  68 TORSION   1  3  7 16              -2.0929860    -119.9192634
  69 TORSION   1  4  9 19              -3.1415766    -179.9990827
  70 TORSION   1  4  9 12              -0.0000302      -0.0017288
  71 TORSION   1  3  7 17               2.0919848     119.8618986
  72 TORSION   1  2  6 15               0.0000070       0.0004034
  73 TORSION   1  2  6 11              -3.1414804    -179.9935706
  74 TORSION   1  3  8 18              -3.1415717    -179.9987982
  75 TORSION   1  3  7  5              -0.0001712      -0.0098107
  76 TORSION   1  3  8 12              -0.0001000      -0.0057287
  77 TORSION   1  2  5 10               3.1415308     179.9964576
  78 TORSION   1  2  5  7              -0.0001369      -0.0078423
  79 TORSION   2  1  4 14              -0.0000189      -0.0010852
  80 TORSION   2  5 10 13              -0.0000651      -0.0037286
  81 TORSION   2  1  3  7               0.0000994       0.0056960
  82 TORSION   2  1  4  9               3.1414403     179.9912705
  83 TORSION   2  6 11 21               3.1415038     179.9949078
  84 TORSION   2  6 11 13               0.0000527       0.0030197
  85 TORSION   2  5 10 20               3.1414986     179.9946104
  86 TORSION   2  5  7 16               2.0930139     119.9208624
  87 TORSION   2  5  7 17              -2.0919510    -119.8599651
  88 TORSION   2  5  7  3               0.0001860       0.0106591
  89 TORSION   2  1  3  8              -3.1414092    -179.9894913
  90 TORSION   3  8 12 22               3.1415875     179.9997062
  91 TORSION   3  8 12  9               0.0000897       0.0051370
  92 TORSION   3  1  4  9               0.0000197       0.0011280
  93 TORSION   3  7  5 10              -3.1414899    -179.9941146
  94 TORSION   3  1  2  6               3.1414260     179.9904491
  95 TORSION   3  1  4 14              -3.1414395    -179.9912276
  96 TORSION   3  1  2  5               0.0000233       0.0013370
  97 TORSION   4  1  2  6              -0.0000110      -0.0006295
  98 TORSION   4  1  3  8               0.0000462       0.0026479
  99 TORSION   4  9 12 22              -3.1415225    -179.9959801
 100 TORSION   4  9 12  8              -0.0000247      -0.0014178
 101 TORSION   4  1  3  7               3.1415549     179.9978352
 102 TORSION   4  1  2  5              -3.1414136    -179.9897416
 103 TORSION   5  2  6 15               3.1413897     179.9883731
 104 TORSION   5  7  3  8               3.1413282     179.9848463
 105 TORSION   5 10 13 23               3.1414426     179.9914003
 106 TORSION   5 10 13 11               0.0000204       0.0011663
 107 TORSION   5  2  6 11              -0.0000978      -0.0056010
 108 TORSION   6  2  5  7              -3.1415621    -179.9982489
 109 TORSION   6  2  5 10               0.0001056       0.0060509
 110 TORSION   6 11 13 23              -3.1414366    -179.9910597
 111 TORSION   6 11 13 10              -0.0000146      -0.0008379
 112 TORSION   7  3  8 12              -3.1415913    -179.9999238
 113 TORSION   7  3  8 18               0.0001223       0.0070066
 114 TORSION   7  5 10 13              -3.1415672    -179.9985424
 115 TORSION   7  5 10 20              -0.0000035      -0.0002033
 116 TORSION   8 12  9 19               3.1415217     179.9959342
 117 TORSION   8  3  7 17              -1.0497011     -60.1434445
 118 TORSION   8  3  7 16               1.0485134      60.0753935
 119 TORSION   9 12  8 18               3.1415618     179.9982305
 120 TORSION  10 13 11 21              -3.1414656    -179.9927200
 121 TORSION  10  5  7 17               1.0495583      60.1352613
 122 TORSION  10  5  7 16              -1.0486621     -60.0839112
 123 TORSION  11 13 10 20              -3.1415434    -179.9971785
 124 TORSION  12  9  4 14               3.1414302     179.9906918
 125 TORSION  13 11  6 15              -3.1414357    -179.9910057
 126 TORSION  14  4  9 19              -0.0001163      -0.0066621
 127 TORSION  15  6 11 21               0.0000154       0.0008823
 128 TORSION  18  8 12 22              -0.0001257      -0.0072004
 129 TORSION  19  9 12 22               0.0000239       0.0013719
 130 TORSION  20 10 13 23              -0.0001212      -0.0069444
 131 TORSION  21 11 13 23               0.0002977       0.0170582

          INTERNUCLEAR DISTANCES (ANGS.)


 =====================================================
   GAMESS/COSab RESULTS
 =====================================================

   Dielectric Constant                  = INFTY
   Basic Grid Size                      =                 1082
   Number of Segments                   =                   92
   Number of Segments located on spheres=                  362
   Number of Segments of the cavity     =                  933
   Solvent Radius (rsolv)               = 1.40
   Outlying Charge Error Method         = double cavity

 =====================================================

  Total solvated Energy (a.u.)          =  -498.2436644009
  Total Energy corrected (a.u.)         =  -498.2438526326

  Outlying charge effect (a.u.)         =    -0.0001882317
  Outlying charge effect (kcal/mol)     =    -0.1181172631

  Dielectric Energy (a.u.)              =    -0.0115646634
  Dielectric energy corr. (a.u.)        =    -0.0117528950

  Sum of polarization charges           =     0.0281865958
  Sum of polarization charges(cor.)     =    -0.0281865958

  Total surface area of cavity (A**2)   =  202.88
  Total volume of cavity (A**3)         =  209.92

 =====================================================
 NPS=                   933
NR.  ATOM  (X, Y, Z)(a.u.)                  CHARGE(e)  AREA(A**2) SIGMA(e/A**2)
   1   1   8.635431   4.526046   2.991361   0.000789   0.139368   0.005660
   2   1   7.858045   5.778924   3.798314   0.000726   0.139368   0.005212
   3   1   8.214830   5.227023   3.273792   0.000967   0.232280   0.004165
   4   1   7.660140   5.236436   2.848434   0.000692   0.139368   0.004964
   5   1   4.071803   0.059286   6.896742   0.002626   0.371649   0.007065
   6   1   4.854014   0.183755   7.718884   0.001132   0.232280   0.004872
   7   1   5.286300  -0.547292   6.946122   0.001541   0.371649   0.004147
   8   1   7.168413   5.670886   3.116727   0.001556   0.232280   0.006700
   9   2   7.104905  -0.671670   7.932536   0.000667   0.139368   0.004783
  10   2   6.270319   0.327726   8.995494   0.000639   0.139368   0.004587
  11   2   6.721515  -0.249369   8.582701   0.001115   0.232280   0.004800
  12   2   7.241500  -0.210556   9.048328   0.000684   0.139368   0.004910
  13   2  10.342512   5.649771   5.568654   0.002638   0.371649   0.007099
  14   2   9.399701   5.750140   4.932812   0.001091   0.232280   0.004696
  15   2  10.060986   4.953097   4.436944   0.001544   0.371649   0.004153
  16   2   7.077101   0.271708   9.541195   0.001556   0.232280   0.006701
  17   3   2.147249   2.342811   8.416742   0.000685   0.139368   0.004916
  18   3   3.370697   1.546337   8.434898   0.000512   0.139368   0.003677
  19   3   2.723647   1.899598   8.468457   0.000717   0.185824   0.003858
  20   3   2.426203   1.622734   7.853669   0.000511   0.139368   0.003669
  21   3   5.829034   6.724199   3.556736   0.002559   0.371649   0.006887
  22   3   6.352958   7.132624   4.485151   0.000811   0.232280   0.003492
  23   3   5.311997   7.615336   4.442132   0.001461   0.371649   0.003931
  24   3   2.948380   1.200707   7.626186   0.001715   0.232280   0.007382
  25   4   6.697654   4.588072   1.356776   0.000984   0.139368   0.007061
  26   4   7.379919   1.956903  -0.343246   0.001090   0.325193   0.003352
  27   4   5.412319  -2.280655   4.119193   0.000990   0.278737   0.003552
  28   4   6.272580  -2.411976   3.485986   0.000686   0.278737   0.002461
  29   4   7.959591   1.317604  -0.082743   0.000439   0.278737   0.001576
  30   4   6.014522  -1.645057   0.714249  -0.000348   0.092912  -0.003750
  31   4   7.194289   0.664289  -0.417777   0.000011   0.185824   0.000059
  32   4   8.178381   2.386878   0.274157   0.001130   0.325193   0.003475
  33   4   8.913404   2.608864   1.253688   0.000790   0.278737   0.002833
  34   4   6.218861  -2.054210   4.718209   0.001052   0.325193   0.003234
  35   4   5.185641  -2.399778   2.936716   0.001349   0.371649   0.003631
  36   4   5.655560  -2.139521   1.541733   0.000305   0.185824   0.001641
  37   4   7.476780   3.199681   0.207101   0.002051   0.325193   0.006309
  38   4   7.166658   4.052904   0.800272   0.001230   0.232280   0.005297
  39   4   7.633777   4.187940   1.358556   0.001779   0.232280   0.007660
  40   4   8.624768   3.502934   1.705130   0.001245   0.278737   0.004466
  41   4   5.020306  -1.690715   5.183653   0.002448   0.418105   0.005855
  42   4   4.427076  -2.035967   4.054970   0.002113   0.418105   0.005055
  43   4   6.932325  -2.147040   4.103175   0.000145   0.232280   0.000626
  44   4   8.915815   1.856832   0.908933   0.000454   0.278737   0.001630
  45   4   6.847110  -0.039432  -0.329651  -0.000010   0.092912  -0.000103
  46   4   5.803814  -2.399330   2.377559   0.000318   0.232280   0.001368
  47   4   3.883103  -1.146961   5.135107   0.003219   0.418105   0.007698
  48   4   8.212693   3.364505   0.927477   0.001218   0.278737   0.004371
  49   4   5.876246  -1.539356   5.526261   0.000673   0.185824   0.003622
  50   5   9.066056   7.838469   7.761675   0.000685   0.139368   0.004916
  51   5   8.920071   7.129780   6.493616   0.000512   0.139368   0.003673
  52   5   9.018189   7.543369   7.096865   0.000716   0.185824   0.003853
  53   5   9.689045   7.298298   7.278481   0.000511   0.139368   0.003667
  54   5   6.871005   1.377842  10.894376   0.002559   0.371649   0.006886
  55   5   5.824251   1.700234  10.572454   0.000810   0.232280   0.003489
  56   5   6.090125   2.300266  11.514651   0.001461   0.371649   0.003932
  57   5   9.807063   6.825889   6.763286   0.001714   0.232280   0.007378
  58   6   8.983174  -0.650036   9.637683   0.000985   0.139368   0.007065
  59   6  11.246635  -2.135694   7.920657   0.001090   0.325193   0.003350
  60   6  12.645857   2.896318   4.117666   0.000989   0.278737   0.003549
  61   6  12.612947   1.871362   3.791128   0.000685   0.278737   0.002457
  62   6  11.211749  -2.257751   7.028206   0.000439   0.278737   0.001574
  63   6  13.748135  -0.121459   5.545352  -0.000348   0.092912  -0.003751
  64   6  12.226605  -1.953208   7.073768   0.000010   0.185824   0.000056
  65   6  10.206876  -2.228431   7.583153   0.001130   0.325193   0.003474
  66   6   9.140847  -1.987794   6.987591   0.000789   0.278737   0.002831
  67   6  11.744040   2.803040   3.629167   0.001049   0.325193   0.003227
  68   6  13.482690   2.162690   4.592351   0.001349   0.371649   0.003629
  69   6  13.815022   0.781214   5.056696   0.000305   0.185824   0.001640
  70   6  10.089749  -1.897027   8.599932   0.002051   0.325193   0.006308
  71   6   9.380684  -1.325875   9.189022   0.001228   0.232280   0.005289
  72   6   8.741792  -1.220835   8.829996   0.001779   0.232280   0.007659
  73   6   8.470221  -1.541240   7.648894   0.001244   0.278737   0.004462
  74   6  11.897428   3.900224   4.376133   0.002445   0.418105   0.005849
  75   6  13.048277   3.466149   4.857972   0.002114   0.418105   0.005055
  76   6  11.754795   1.883725   3.404089   0.000141   0.232280   0.000608
  77   6   9.814601  -2.180740   6.547999   0.000453   0.278737   0.001625
  78   6  12.822272  -1.596758   6.697408  -0.000010   0.092912  -0.000106
  79   6  13.453596   1.338964   4.468161   0.000317   0.232280   0.001364
  80   6  12.178191   4.553381   5.418157   0.003219   0.418105   0.007698
  81   6   9.200273  -1.847219   8.057690   0.001218   0.278737   0.004371
  82   6  11.156396   3.588286   3.900225   0.000671   0.185824   0.003609
  83   7   2.708631   8.275477   9.522371   0.000324   0.371649   0.000871
  84   7   7.177387   7.730534   6.078008  -0.000058   0.139368  -0.000417
  85   7   2.725043   7.756052  10.415941   0.000237   0.232280   0.001020
  86   7   4.591487   7.320998  11.856898  -0.000070   0.185824  -0.000379
  87   7   3.717705   2.492787  10.014320  -0.000102   0.139368  -0.000729
  88   7   4.860597   8.208572  11.275400   0.000240   0.325193   0.000737
  89   7   3.514023   8.319925  10.569217   0.000645   0.325193   0.001985
  90   7   2.127245   7.649414   9.332698  -0.000013   0.185824  -0.000071
  91   7   5.548926   8.430797  11.052104  -0.000144   0.139368  -0.001032
  92   7   2.748728   8.463946   8.162385  -0.000199   0.046456  -0.004294
  93   7   6.765504   8.054713   6.083124  -0.000029   0.046456  -0.000615
  94   7   1.944026   7.046005   9.777396  -0.000116   0.139368  -0.000836
  95   7   4.001035   7.882784  11.314566   0.000323   0.278737   0.001160
  96   7   4.150815   2.503716  10.371326  -0.000022   0.046456  -0.000470
  97   8   1.379702   1.375642   6.508479   0.000659   0.092912   0.007097
  98   8  -1.260311   3.266407   5.704884   0.001077   0.325193   0.003311
  99   8   2.261722   8.168550   3.394998   0.001186   0.325193   0.003646
 100   8   1.402127   8.275547   3.962194   0.000658   0.325193   0.002022
 101   8  -0.142617   4.678935   7.824233   0.000090   0.139368   0.000647
 102   8  -1.388915   4.089613   6.048944   0.000472   0.278737   0.001692
 103   8  -0.852068   6.478412   3.365423  -0.000258   0.092912  -0.002782
 104   8  -1.623460   4.335320   5.044268   0.000006   0.185824   0.000031
 105   8  -0.842553   3.332287   6.717181   0.001106   0.325193   0.003402
 106   8   0.060066   3.716044   7.821070   0.001066   0.325193   0.003278
 107   8   2.717434   8.379013   4.417241   0.001240   0.371649   0.003337
 108   8   1.220177   7.740344   2.809243   0.001353   0.371649   0.003641
 109   8  -0.122953   7.123903   3.034045   0.000250   0.185824   0.001346
 110   8  -0.451536   2.392876   6.367897   0.002019   0.325193   0.006209
 111   8   0.581024   1.629013   6.436364   0.001342   0.232280   0.005779
 112   8   0.918616   1.950171   7.138805   0.001507   0.185824   0.008110
 113   8   0.490031   2.857000   7.690451   0.001148   0.232280   0.004944
 114   8   3.533629   7.932421   3.522402   0.002908   0.511017   0.005690
 115   8   2.578528   7.621214   2.494655   0.002098   0.418105   0.005017
 116   8   1.839823   8.430841   4.942954   0.000286   0.232280   0.001230
 117   8  -0.678830   4.110233   7.269938   0.000675   0.278737   0.002421
 118   8  -1.624786   4.897002   4.489261   0.000015   0.092912   0.000166
 119   8   0.513618   7.703768   3.249960   0.000398   0.232280   0.001715
 120   8   3.977342   7.080846   2.559875   0.003289   0.418105   0.007868
 121   8   0.063752   2.488735   7.101081   0.001582   0.325193   0.004863
 122   9   5.208614   4.831717   0.539945   0.001073   0.139368   0.007701
 123   9   3.089384   3.465769  -1.523847   0.000968   0.278737   0.003474
 124   9   5.791984   1.889946  -1.333019   0.001043   0.278737   0.003744
 125   9   1.855846  -1.697351   2.164677   0.001509   0.371649   0.004060
 126   9   1.930319  -1.694700   1.062771   0.000896   0.371649   0.002412
 127   9   4.455918  -1.861264   0.555752   0.000056   0.092912   0.000599
 128   9   5.645903   0.938609  -1.367793   0.000379   0.278737   0.001360
 129   9   3.180173   2.711416  -1.858057   0.000569   0.278737   0.002042
 130   9   0.626163   0.196532  -0.099291  -0.000046   0.092912  -0.000499
 131   9   2.153444   2.628512  -1.605652   0.000123   0.185824   0.000660
 132   9   4.153313   3.272593  -1.619996   0.001271   0.325193   0.003907
 133   9   5.324154   2.667390  -1.462807   0.000871   0.232280   0.003748
 134   9   3.933564  -2.068787   1.014249   0.000218   0.185824   0.001175
 135   9   3.038873  -2.104456   1.954957   0.001741   0.418105   0.004164
 136   9   0.870665  -0.978073   1.560231   0.001496   0.371649   0.004025
 137   9   0.559449  -0.292528   0.582392   0.000475   0.185824   0.002559
 138   9   4.205250   4.154812  -1.006496   0.002152   0.325193   0.006618
 139   9   4.860774   4.581486  -0.255328   0.001278   0.232280   0.005500
 140   9   5.512821   4.232196  -0.224560   0.002009   0.232280   0.008650
 141   9   5.856819   3.204467  -0.854521   0.001236   0.278737   0.004435
 142   9   2.512353  -1.680735   3.206037   0.003213   0.511017   0.006288
 143   9   1.240819  -1.082099   2.905756   0.002145   0.418105   0.005131
 144   9   3.082316  -2.062447   1.099976   0.000502   0.232280   0.002162
 145   9   4.626155   2.343734  -1.829787   0.000909   0.325193   0.002794
 146   9   1.564772   2.142984  -1.402552  -0.000004   0.092912  -0.000040
 147   9   1.025874  -0.929112   0.684563   0.000265   0.185824   0.001429
 148   9   2.091492  -0.828230   4.181250   0.003539   0.464561   0.007617
 149   9   5.118900   3.655681  -1.068050   0.001359   0.278737   0.004876
 150  10  11.135463   6.986067   8.159891   0.000660   0.092912   0.007101
 151  10  11.751074   7.923120  11.311618   0.001076   0.325193   0.003310
 152  10   7.926154   3.442905  13.970370   0.001185   0.325193   0.003645
 153  10   8.010152   4.419777  14.303128   0.000657   0.325193   0.002021
 154  10   9.091250   8.666192  10.981022   0.000090   0.139368   0.000647
 155  10  11.098830   8.191001  11.873225   0.000471   0.278737   0.001691
 156  10  10.706237   5.599241  14.388081  -0.000258   0.092912  -0.002781
 157  10  11.606558   7.563102  12.560764   0.000006   0.185824   0.000030
 158  10  10.938631   8.409181  10.757282   0.001106   0.325193   0.003401
 159  10   9.610783   8.620091  10.146630   0.001066   0.325193   0.003278
 160  10   6.994024   3.898578  13.500856   0.001239   0.371649   0.003335
 161  10   9.077618   3.717234  14.428801   0.001353   0.371649   0.003640
 162  10  10.075395   4.816280  14.605080   0.000250   0.185824   0.001344
 163  10  11.528953   7.977403   9.968310   0.002019   0.325193   0.006208
 164  10  11.436658   7.427679   8.809155   0.001341   0.232280   0.005773
 165  10  10.668258   7.708766   8.606458   0.001507   0.185824   0.008109
 166  10  10.010024   8.320600   9.315487   0.001148   0.232280   0.004944
 167  10   7.330874   2.733803  13.057927   0.002907   0.511017   0.005688
 168  10   8.598519   2.607816  13.723160   0.002098   0.418105   0.005018
 169  10   7.145918   4.860913  13.817246   0.000284   0.232280   0.001225
 170  10  10.046903   8.648610  11.048897   0.000674   0.278737   0.002419
 171  10  11.541458   7.093927  13.192554   0.000015   0.092912   0.000164
 172  10   9.241404   4.512340  14.617944   0.000398   0.232280   0.001715
 173  10   8.166791   1.797125  12.536011   0.003290   0.418105   0.007868
 174  10  10.795470   8.186770   9.488272   0.001581   0.325193   0.004863
 175  11  10.061203  -0.320791  10.930171   0.001073   0.139368   0.007700
 176  11  13.196303  -0.375189  11.815817   0.000968   0.278737   0.003472
 177  11  12.672947  -1.844156   9.097011   0.001043   0.278737   0.003742
 178  11  15.223391   3.680873   7.208876   0.001508   0.371649   0.004058
 179  11  15.776400   2.800983   7.582675   0.000896   0.371649   0.002412
 180  11  14.807760   0.791904   6.283139   0.000056   0.092912   0.000598
 181  11  13.388501  -1.688513   8.471431   0.000379   0.278737   0.001360
 182  11  13.818657  -0.617407  11.322874   0.000569   0.278737   0.002041
[...]
 674   7   2.233342   8.244289   8.026366  -0.000274   0.327319  -0.000838
 675  20   7.412245   8.209754  12.219610  -0.001196   0.229223  -0.005216
 676  20   6.874825   7.342323  12.897975  -0.003031   0.461375  -0.006570
 677   7   5.945559   8.020654  11.585821  -0.001068   0.647230  -0.001650
 678   7   5.393706   6.951443  12.310287  -0.000325   0.327322  -0.000994
 679   8  -1.499162   5.145217   3.534544  -0.000090   0.006701  -0.013489
 680  12  -1.602768   4.921322   3.155433  -0.000109   0.006701  -0.016236
 681  22  -1.692998   4.835148   2.885744  -0.000094   0.006701  -0.014018
 682   8  -1.112172   5.836787   3.035309  -0.000083   0.006701  -0.012386
 683  12  -1.210776   5.621829   2.649746  -0.000094   0.006701  -0.014018
 684  22  -1.336407   5.472392   2.425726  -0.000093   0.006701  -0.013944
 685  12   1.135869   0.847492   5.418047   0.001791   0.200829   0.008920
 686  12  -0.563466   1.896048   5.048210   0.002547   0.410795   0.006200
 687  12  -1.565949   3.877493   3.975331  -0.000890   0.410795  -0.002165
 688   8   0.546084   1.552412   5.850029   0.003478   0.410795   0.008465
 689   8  -1.174430   3.165774   5.129571   0.000832   0.410795   0.002024
 690   8  -1.569912   4.882722   4.119783  -0.000621   0.200829  -0.003092
 691  12  -0.833017   6.022886   2.505777  -0.000622   0.200832  -0.003095
 692  12   0.919825   6.731550   1.764543   0.001018   0.410801   0.002479
 693  12   3.354653   6.394620   1.563555   0.003353   0.410801   0.008163
 694   8  -0.096300   6.680490   2.742818  -0.000917   0.410801  -0.002233
 695   8   2.245473   7.092341   2.088001   0.002399   0.410801   0.005839
 696   8   4.167292   6.441314   2.170862   0.001429   0.200832   0.007115
 697   8   0.553679   5.435173   8.215292  -0.000244   0.076190  -0.003208
 698  16   1.230755   5.493163   9.057457  -0.000341   0.076190  -0.004469
 699  18   0.412419   5.663076   8.082132  -0.000461   0.076190  -0.006055
 700  16   1.384672   5.056416   9.798709  -0.001120   0.302617  -0.003701
 701  16   1.742235   3.914959   9.798514  -0.000836   0.302617  -0.002762
 702   8   0.783676   4.241653   8.444274   0.000826   0.854069   0.000967
 703   8   2.125460   8.242381   6.188683  -0.000244   0.076145  -0.003207
 704  17   2.907286   8.486819   6.895819  -0.000337   0.076145  -0.004424
 705  18   1.834707   8.203214   6.248276  -0.000458   0.076145  -0.006015
 706  17   4.533552   8.900369   6.198013  -0.000941   0.302701  -0.003110
 707  17   3.601781   9.015779   6.939624  -0.001171   0.302701  -0.003869
 708   8   3.105959   8.389906   5.448935   0.000787   0.854300   0.000921
 709   8  -1.208181   5.867457   3.477457  -0.000102   0.007932  -0.012814
 710  18  -1.225807   6.027476   3.727057  -0.000125   0.007932  -0.015782
 711  22  -1.336535   5.463394   2.867106  -0.000119   0.007932  -0.015037
 712   8  -1.386092   5.549629   3.706932  -0.000099   0.007932  -0.012441
 713  18  -1.385374   5.742419   3.932871  -0.000132   0.007932  -0.016596
 714  22  -1.492946   5.183975   3.068850  -0.000123   0.007932  -0.015451
 715  18   1.229955   8.330295   5.704383  -0.000432   0.073072  -0.005908
 716  18   0.637933   8.200849   4.679673  -0.000997   0.165524  -0.006021
 717  18  -0.357614   7.462860   3.959007  -0.001103   0.165524  -0.006665
 718  18  -1.144650   6.570027   3.985432  -0.000496   0.073072  -0.006787
 719   8   1.392340   8.299250   5.112963  -0.000770   0.157059  -0.004905
 720   8   0.427294   7.847252   3.906916  -0.000701   0.157059  -0.004465
 721   8  -0.703753   6.745439   3.595624  -0.001075   0.157059  -0.006848
 722  18  -1.549176   5.847377   4.507179  -0.000544   0.073064  -0.007440
 723  18  -1.587496   5.265859   5.545133  -0.001136   0.165501  -0.006862
 724  18  -1.064993   5.158938   6.875643  -0.000859   0.165501  -0.005188
 725  18  -0.302863   5.592339   7.680815  -0.000430   0.073064  -0.005887
 726   8  -1.537683   5.255727   4.671148  -0.001140   0.157045  -0.007259
 727   8  -1.328300   4.711202   6.170919  -0.000692   0.157045  -0.004409
 728   8  -0.437554   5.030603   7.472539  -0.000729   0.157045  -0.004644
 729  22  -1.769746   4.872262   2.693681  -0.000295   0.045629  -0.006457
 730   8  -1.520242   5.406856   3.634283  -0.000165   0.064394  -0.002555
 731  22  -1.517575   5.334146   2.364335  -0.000301   0.045494  -0.006615
 732   8  -1.220151   5.932788   3.250864  -0.000155   0.064203  -0.002418
 733   9   1.066754   1.611775  -1.066407  -0.000053   0.006148  -0.008614
 734  12   0.772472   1.901885  -0.882280  -0.000087   0.006148  -0.014116
 735  19   1.207438   1.385131  -1.197450  -0.000111   0.006148  -0.018054
 736   9   0.706811   0.968669  -0.602073  -0.000059   0.006148  -0.009582
 737  12   0.417131   1.267000  -0.423882  -0.000088   0.006148  -0.014301
 738  19   0.880010   0.800120  -0.775061  -0.000101   0.006148  -0.016480
 739  12   4.386934   5.472391   1.008581   0.001650   0.202838   0.008135
 740  12   3.096881   4.792017  -0.430366   0.002532   0.415266   0.006097
 741  12   1.334220   3.136392  -1.009699  -0.000907   0.415266  -0.002183
 742   9   4.366989   4.842238   0.205103   0.003574   0.415266   0.008607
 743   9   2.654519   3.644870  -1.143027   0.000982   0.415266   0.002364
 744   9   1.273308   2.132207  -1.185683  -0.000610   0.202838  -0.003007
 745  12   0.017139   1.111782   0.061677  -0.000604   0.202830  -0.002979
 746  12   0.022444   0.166195   1.879158   0.000983   0.415248   0.002367
 747  12   1.013321   0.074397   4.157975   0.003569   0.415248   0.008595
 748   9   0.433236   0.302695   0.525637  -0.000911   0.415248  -0.002194
 749   9   0.838892  -0.466134   2.855361   0.002533   0.415248   0.006099
 750   9   1.907077  -0.182096   4.580384   0.001636   0.202830   0.008068
 751  19   4.625292  -1.435771  -0.416874  -0.000479   0.071001  -0.006753
 752  19   3.605884  -1.802293  -0.000875  -0.000920   0.159801  -0.005759
 753  19   2.229750  -1.576404   0.115340  -0.000871   0.159801  -0.005448
 754  19   1.251209  -0.654315  -0.272588  -0.000923   0.159801  -0.005779
 755  19   1.003292   0.330068  -0.834828  -0.000453   0.071001  -0.006383
 756   9   4.437383  -1.627758   0.125663  -0.000949   0.153522  -0.006181
 757   9   2.934066  -1.835325   0.533385  -0.000605   0.153522  -0.003939
 758   9   1.529131  -1.150375   0.371265  -0.000546   0.153522  -0.003558
 759   9   0.866069   0.113369  -0.286442  -0.000934   0.153522  -0.006081
 760  19   1.549107   1.305257  -1.538933  -0.000471   0.071004  -0.006639
 761  19   2.560741   1.685303  -1.961844  -0.000957   0.159809  -0.005991
 762  19   3.938678   1.476669  -2.089058  -0.000736   0.159809  -0.004605
 763  19   4.931451   0.565802  -1.710710  -0.000956   0.159809  -0.005980
 764  19   5.195717  -0.416752  -1.152640  -0.000456   0.071004  -0.006428
 765   9   1.832584   1.840177  -1.533233  -0.000948   0.153528  -0.006177
 766   9   3.330120   2.067225  -1.951919  -0.000536   0.153528  -0.003494
 767   9   4.744629   1.399262  -1.802077  -0.000578   0.153528  -0.003762
 768   9   5.428182   0.142257  -1.152343  -0.001011   0.153528  -0.006582
 769  10  11.828217   6.269822  13.668449  -0.000090   0.006704  -0.013488
 770  13  12.233811   6.071701  13.697239  -0.000109   0.006704  -0.016233
 771  23  12.483633   5.934806  13.781792  -0.000094   0.006704  -0.014015
 772  10  11.440846   5.578027  14.167977  -0.000083   0.006704  -0.012385
 773  13  11.841434   5.370965  14.203223  -0.000094   0.006704  -0.014016
 774  23  12.126691   5.297353  14.242080  -0.000093   0.006704  -0.013941
 775  13  11.456344   4.980048  14.355542  -0.000622   0.200839  -0.003095
 776  13  10.458332   3.216486  14.220603   0.001018   0.410818   0.002479
 777  13   9.484076   1.512876  12.726865   0.003354   0.410818   0.008163
 778  10  10.506877   4.619702  14.365091  -0.000917   0.410818  -0.002233
 779  10   9.340359   2.565655  13.655977   0.002400   0.410818   0.005841
 780  10   8.691471   1.438442  12.096259   0.001430   0.200839   0.007119
 781  13  12.197429   6.370806   8.300931   0.001791   0.200806   0.008918
 782  13  12.623706   7.100467  10.147289   0.002546   0.410745   0.006199
 783  13  12.450325   6.761635  12.583710  -0.000889   0.410745  -0.002165
 784  10  11.821212   7.015499   8.989457   0.003476   0.410745   0.008463
 785  10  12.080807   7.442826  11.404207   0.000831   0.410745   0.002024
 786  10  11.720856   6.781243  13.289916  -0.000621   0.200806  -0.003092
 787  10   6.443878   5.631952  13.055732  -0.000245   0.076194  -0.003214
 788  16   5.485229   5.635296  12.553685  -0.000338   0.076194  -0.004432
 789  20   6.592605   5.869550  13.160880  -0.000459   0.076194  -0.006023
 790  16   4.722874   4.014761  12.248090  -0.000941   0.302569  -0.003110
 791  16   4.746205   5.168780  12.561161  -0.001172   0.302569  -0.003874
 792  10   6.222558   4.423513  12.913952   0.000785   0.853938   0.000919
 793  10   8.015615   8.439196  11.028959  -0.000244   0.076151  -0.003210
 794  17   7.161704   8.628989  10.391902  -0.000340   0.076151  -0.004468
 795  20   8.014854   8.409725  11.326882  -0.000462   0.076151  -0.006062
 796  17   6.963661   9.128102   9.702170  -0.001120   0.302725  -0.003699
 797  17   7.515488   8.999903   8.648229  -0.000836   0.302725  -0.002763
 798  10   8.545750   8.571586   9.918989   0.000826   0.854367   0.000966
 799  10  11.233640   5.971240  14.077631  -0.000102   0.007940  -0.012812
 800  20  11.004309   6.156354  14.114516  -0.000125   0.007940  -0.015777
 801  23  11.894428   5.631282  14.070340  -0.000119   0.007940  -0.015034
 802  10  11.411755   6.289372  13.847973  -0.000099   0.007940  -0.012439
 803  20  11.164059   6.441684  13.908539  -0.000132   0.007940  -0.016593
 804  23  12.051019   5.910968  13.868435  -0.000123   0.007940  -0.015447
 805  20  10.873418   6.971791  13.861414  -0.000544   0.073068  -0.007440
 806  20  10.711733   7.832825  13.055475  -0.001136   0.165509  -0.006863
 807  20   9.783660   8.506440  12.195401  -0.000859   0.165509  -0.005189
 808  20   8.659716   8.578544  11.809905  -0.000431   0.073068  -0.005892
 809  10  11.163457   7.142138  13.347658  -0.001140   0.157053  -0.007259
 810  10  10.595981   8.187064  12.263270  -0.000693   0.157053  -0.004409
 811  10   9.209405   8.560432  11.536775  -0.000730   0.157053  -0.004646
 812  20   7.126920   5.840568  13.786473  -0.000436   0.073065  -0.005964
 813  20   8.080657   5.464504  14.391387  -0.000997   0.165502  -0.006024
 814  20   9.481646   5.635680  14.641593  -0.001103   0.165502  -0.006666
 815  20  10.468678   6.248874  14.383285  -0.000496   0.073065  -0.006788
 816  10   7.379494   5.291766  13.896447  -0.000771   0.157048  -0.004912
 817  10   8.840219   5.050932  14.527250  -0.000701   0.157048  -0.004466
 818  10  10.329284   5.652179  14.423256  -0.001075   0.157048  -0.006848
 819  23  12.604193   5.836439  13.923019  -0.000295   0.045624  -0.006457
 820  10  11.615535   6.334846  13.839864  -0.000165   0.064387  -0.002555
 821  23  12.346604   5.381524  14.258559  -0.000301   0.045509  -0.006615
 822  10  11.319829   5.802063  14.218090  -0.000155   0.064224  -0.002419
 823  11  15.236507   1.453666  11.338764  -0.000053   0.006150  -0.008670
 824  13  15.105835   1.757319  11.647611  -0.000087   0.006150  -0.014115
 825  21  15.379396   1.284104  11.140871  -0.000111   0.006150  -0.018058
 826  11  15.596803   2.096928  10.874472  -0.000059   0.006150  -0.009562
 827  13  15.461525   2.392358  11.189254  -0.000088   0.006150  -0.014304
 828  21  15.707145   1.869257  10.718520  -0.000101   0.006150  -0.016475
 829  13  15.514354   3.032886  11.106657  -0.000605   0.202840  -0.002981
 830  13  15.145763   4.487108   9.711236   0.000982   0.415271   0.002365
 831  13  13.445889   5.570527   8.255050   0.003569   0.415271   0.008594
 832  11  15.567707   3.186476  10.098369  -0.000912   0.415271  -0.002195
 833  11  14.593642   4.750706   8.428571   0.002533   0.415271   0.006100
 834  11  12.906833   5.331677   7.421114   0.001637   0.202840   0.008072
 835  13   9.831194   0.507786  11.681536   0.001650   0.202819   0.008136
 836  13  11.739749   0.323123  12.402879   0.002532   0.415224   0.006097
 837  13  14.071399   1.183203  12.322780  -0.000906   0.415224  -0.002181
 838  11  10.685169  -0.027702  11.517419   0.003573   0.415224   0.008604
 839  11  13.106764   0.177964  12.043082   0.000981   0.415224   0.002364
 840  11  14.851960   1.181850  11.664238  -0.000610   0.202819  -0.003007
 841  21  15.432905   0.811722  11.023777  -0.000471   0.070999  -0.006641
 842  21  14.873027  -0.199588  10.922149  -0.000958   0.159796  -0.005992
 843  21  14.340607  -1.172082  10.068336  -0.000736   0.159796  -0.004607
 844  21  14.198030  -1.448676   8.704011  -0.000956   0.159796  -0.005981
 845  21  14.394607  -1.109656   7.611784  -0.000457   0.070999  -0.006430
 846  11  14.930366   0.582850  11.271928  -0.000948   0.153519  -0.006178
 847  11  14.207916  -0.727096  10.790986  -0.000537   0.153519  -0.003495
 848  11  13.805174  -1.472373   9.467520  -0.000578   0.153519  -0.003764
 849  11  13.906601  -1.311636   7.907688  -0.001011   0.153519  -0.006584
 850  21  14.965237  -0.090871   6.876285  -0.000480   0.071005  -0.006754
 851  21  15.524281   0.919173   6.994654  -0.000920   0.159811  -0.005759
 852  21  16.050569   1.880834   7.864544  -0.000871   0.159811  -0.005448
 853  21  16.183465   2.140030   9.233351  -0.000924   0.159811  -0.005779
 854  21  15.979181   1.787029  10.319809  -0.000453   0.071005  -0.006383
 855  11  14.897847   0.458105   6.630078  -0.000949   0.153528  -0.006182
 856  11  15.616757   1.761973   7.132697  -0.000605   0.153528  -0.003940
 857  11  16.010067   2.490412   8.468443  -0.000546   0.153528  -0.003559
 858  11  15.897610   2.309740  10.025441  -0.000934   0.153528  -0.006082
 859  12   0.161472   1.507290  -0.339666  -0.000144   0.014848  -0.009706
 860  19   0.692684   1.070835  -0.623535  -0.000139   0.014848  -0.009379
 861  22  -0.058214   1.705030  -0.313805  -0.000175   0.014848  -0.011783
 862  12   0.494544   2.102412  -0.769363  -0.000156   0.014848  -0.010525
 863  19   0.985602   1.594211  -1.001429  -0.000137   0.014848  -0.009221
 864  22   0.240619   2.238975  -0.699330  -0.000163   0.014848  -0.011010
 865  22  -1.361878   5.487975   1.935416  -0.000477   0.070997  -0.006723
 866  22  -0.754552   5.684017   0.966053  -0.000923   0.159805  -0.005776
 867  22  -0.139641   5.144720  -0.169636  -0.000870   0.159805  -0.005447
 868  22   0.080969   3.911906  -0.794336  -0.000922   0.159805  -0.005771
 869  22  -0.076771   2.762310  -0.772220  -0.000456   0.070997  -0.006424
 870  12  -0.862699   5.806463   1.809404  -0.000950   0.153501  -0.006191
 871  12  -0.061750   5.724148   0.459749  -0.000608   0.153501  -0.003962
 872  12   0.436784   4.666776  -0.590629  -0.000545   0.153501  -0.003551
 873  12   0.404461   3.118864  -0.860418  -0.000933   0.153501  -0.006081
 874  22  -0.618631   1.794120  -0.073167  -0.000474   0.070992  -0.006681
 875  22  -1.225876   1.576777   0.891608  -0.000956   0.159791  -0.005982
 876  22  -1.848128   2.091814   2.034437  -0.000735   0.159791  -0.004602
 877  22  -2.081857   3.312166   2.678356  -0.000956   0.159791  -0.005983
 878  22  -1.935238   4.463368   2.675078  -0.000451   0.070992  -0.006350
 879  12  -0.558113   1.398918   0.381391  -0.000947   0.153493  -0.006169
 880  12  -1.362381   1.451894   1.730437  -0.000536   0.153493  -0.003491
 881  12  -1.873118   2.487348   2.796534  -0.000580   0.153493  -0.003777
 882  12  -1.856321   4.030867   3.091232  -0.001010   0.153493  -0.006578
 883  13  15.396625   2.600357  11.476796  -0.000144   0.014843  -0.009706
 884  21  15.549590   2.080808  10.966970  -0.000139   0.014843  -0.009379
 885  23  15.371554   2.744617  11.734853  -0.000175   0.014843  -0.011784
 886  13  15.063546   2.005469  11.906323  -0.000156   0.014843  -0.010530
 887  21  15.256666   1.557637  11.344715  -0.000137   0.014843  -0.009233
 888  23  15.072715   2.210882  12.120226  -0.000163   0.014843  -0.011013
 889  23  12.394823   4.942646  14.450852  -0.000477   0.070995  -0.006723
 890  23  12.465866   3.798712  14.633125  -0.000923   0.159798  -0.005775
 891  23  13.100745   2.591717  14.318922  -0.000870   0.159798  -0.005446
 892  23  14.121570   2.089948  13.503585  -0.000922   0.159798  -0.005771
 893  23  14.941476   2.314380  12.713496  -0.000456   0.070995  -0.006425
 894  13  11.988859   4.493914  14.468640  -0.000950   0.153498  -0.006190
 895  13  12.342632   2.962750  14.478601  -0.000608   0.153498  -0.003961
 896  13  13.330543   1.943179  13.804637  -0.000545   0.153498  -0.003551
 897  13  14.499936   1.902364  12.755555  -0.000934   0.153498  -0.006082
 898  23  15.483426   3.282311  12.014617  -0.000474   0.070993  -0.006682
 899  23  15.428837   4.424707  11.817789  -0.000956   0.159793  -0.005983
 900  23  14.809931   5.644238  12.114841  -0.000736   0.159793  -0.004603
 901  23  13.793852   6.170382  12.920631  -0.000956   0.159793  -0.005983
 902  23  12.968616   5.967374  13.710924  -0.000451   0.070993  -0.006350
 903  13  15.462759   3.621966  11.513936  -0.000947   0.153495  -0.006171
 904  13  15.130370   5.157611  11.483664  -0.000536   0.153495  -0.003493
 905  13  14.154824   6.199202  12.141696  -0.000580   0.153495  -0.003777
 906  13  12.983089   6.269510  13.186541  -0.001010   0.153495  -0.006578
 907  15   9.682522  -1.967992   4.659255  -0.000959   0.269520  -0.003557
 908  15  10.404390  -1.685886   3.769423  -0.003472   0.538897  -0.006442
 909  15  10.997397  -0.626975   3.004838  -0.003497   0.538897  -0.006489
 910  15  11.086644   0.539296   2.848873  -0.000889   0.269520  -0.003298
 911  14   8.745236  -1.932491   3.311281  -0.002992   0.538897  -0.005552
 912  14   9.545223  -1.285832   2.311585  -0.003601   0.538897  -0.006683
 913  14   9.853989   0.047369   1.881727  -0.002992   0.538897  -0.005553
 914  19   5.335526  -1.013600  -0.664073  -0.000197   0.159442  -0.001237
 915  14   6.560289  -1.253971   0.129351  -0.000288   0.159442  -0.001809
 916  21  14.444159  -0.777792   6.903842  -0.000198   0.159552  -0.001239
 917  15  13.517448  -0.953504   5.764705  -0.000289   0.159552  -0.001813
 918  18   0.219653   6.040170   8.191708  -0.000170   0.245659  -0.000692
 919  16   1.304585   5.922605   9.696412  -0.000064   0.245659  -0.000262
 920  20   6.499030   6.363852  13.327762  -0.000291   0.245610  -0.001184
 921  16   4.835742   5.926562  12.622517  -0.000092   0.245610  -0.000375
 922  18   1.474229   8.345426   6.607572  -0.000243   0.244234  -0.000993
 923  17   3.028829   8.934935   7.439079  -0.000081   0.244234  -0.000333
 924  20   7.814515   8.583717  11.673567  -0.000167   0.244326  -0.000682
 925  17   6.499612   9.024435  10.435658  -0.000061   0.244326  -0.000251
 926  22  -1.701899   5.224705   2.680554  -0.000106   0.130581  -0.000815
 927  18  -1.456632   6.057414   3.879433  -0.000169   0.130581  -0.001293
 928  22  -0.072922   2.045773  -0.667028  -0.000496   0.244567  -0.002027
 929  19   0.900421   1.009573  -1.076849  -0.000514   0.244567  -0.002102
 930  23  12.345763   5.750091  14.157190  -0.000107   0.130705  -0.000817
 931  20  11.026083   6.418726  14.204668  -0.000169   0.130705  -0.001295
 932  23  15.348528   2.456684  12.131756  -0.000496   0.244487  -0.002027
 933  21  15.723024   1.609484  10.978044  -0.000514   0.244487  -0.002102
 =====================================================

              7826336  WORDS OF DYNAMIC MEMORY USED
 EXECUTION OF GAMESS TERMINATED NORMALLY Thu Nov 24 05:18:32 2016
 DDI: 263640 bytes (0.3 MB / 0 MWords) used by master data server.

 ----------------------------------------
 CPU timing information for all processes
 ========================================
 0: 1661.752 + 0.412 = 1662.164
 ----------------------------------------
 ddikick.x: exited gracefully.
