----- GAMESS execution script -----

          ******************************************************
          *         GAMESS VERSION =  5 DEC 2014 (R1)          *
          *             FROM IOWA STATE UNIVERSITY             *
          * M.W.SCHMIDT, K.K.BALDRIDGE, J.A.BOATZ, S.T.ELBERT, *
          *   M.S.GORDON, J.H.JENSEN, S.KOSEKI, N.MATSUNAGA,   *
          *          K.A.NGUYEN, S.J.SU, T.L.WINDUS,           *
          *       TOGETHER WITH M.DUPUIS, J.A.MONTGOMERY       *
          *         J.COMPUT.CHEM.  14, 1347-1363(1993)        *
          **************** 64 BIT LINUX VERSION ****************

 EXECUTION OF GAMESS BEGUN Thu Nov 24 05:49:04 2016

            ECHO OF THE FIRST FEW INPUT CARDS -
 INPUT CARD>! SELECT RESTRICTED HARTREE-FOCK AS DEFAULT                                     
 INPUT CARD>$contrl scftyp=rhf $end                                                         
 INPUT CARD>                                                                                
 INPUT CARD>! THEORY: HF OR DFT                                                             
 INPUT CARD> $contrl mplevl=0 $end                                                          
 INPUT CARD>                                                                                
 INPUT CARD> $system timlim=10000 mwords=20 $end                                            
 INPUT CARD> $SCF DIRSCF=.TRUE. $end                                                        
 INPUT CARD>                                                                                
 INPUT CARD>                                                                                
 INPUT CARD>! BASIS SETS                                                                    
 INPUT CARD>! 6-311G(d,p)                                                                   
 INPUT CARD> $BASIS GBASIS=N311 NGAUSS=6 NDFUNC=1 NPFUNC=1 $END                             
 INPUT CARD>                                                                                
 INPUT CARD>! One of the following                                                          
 INPUT CARD> $guess guess=HUCKEL $end                                                       
 INPUT CARD>                                                                                
 INPUT CARD> $statpt projct=.FALSE. $end                                                    
 INPUT CARD> $STATPT IFREEZ(1)=1,2,3 $END                                                   
 INPUT CARD>                                                                                
 INPUT CARD>! Optimize the geometry with COSMO effects                                      
 INPUT CARD> $statpt opttol=0.0005 nstep=50 $end                                            
 INPUT CARD> $contrl nzvar=1 $end                                                           
 INPUT CARD> $zmat dlc=.t. auto=.t. $end                                                    
 INPUT CARD> $contrl runtyp=OPTIMIZE maxit=200 $end                                         
 INPUT CARD>                                                                                
 INPUT CARD>! Run COSMO on perfect conductor                                                
 INPUT CARD> $COSGMS PRFCND=.TRUE. $end                                                     
 INPUT CARD>                                                                                
 INPUT CARD>! Specifying RSOLV                                                              
 INPUT CARD> $COSGMS COSRAD = 1.4 $end                                                      
 INPUT CARD>                                                                                
 INPUT CARD>! available memory                                                              
 INPUT CARD> $SYSTEM MWORDS=40 $END                                                         
 INPUT CARD>                                                                                
 INPUT CARD> $DATA                                                                          
 INPUT CARD>http://cactus.nci.nih.gov/chemical/structure/glycerol/file?format=sdf&get3d=True
 INPUT CARD>C1                                                                              
 INPUT CARD>O      8.0      1.3749000000    2.3198000000   -0.0631000000                    
 INPUT CARD>C      6.0      1.1785000000    0.9696000000   -0.4877000000                    
 INPUT CARD>C      6.0     -0.0842000000    0.4145000000    0.1708000000                    
 INPUT CARD>O      8.0      0.0339000000    0.5433000000    1.6003000000                    
 INPUT CARD>C      6.0     -1.3486000000    1.1620000000   -0.2619000000                    
 INPUT CARD>O      8.0     -2.4866000000    0.5615000000    0.3596000000                    
 INPUT CARD>H      1.0      2.1966000000    2.6308000000   -0.4845000000                    
 INPUT CARD>H      1.0      1.1042000000    0.9436000000   -1.5786000000                    
 INPUT CARD>H      1.0      2.0533000000    0.3967000000   -0.1672000000                    
 INPUT CARD>H      1.0     -0.1909000000   -0.6537000000   -0.0455000000                    
 INPUT CARD>H      1.0      0.4141000000    1.4349000000    1.7416000000                    
 INPUT CARD>H      1.0     -1.3249000000    2.2097000000    0.0532000000                    
   40000000 WORDS OF MEMORY AVAILABLE

     BASIS OPTIONS
     -------------
     GBASIS=N311         IGAUSS=       6      POLAR=POPN311 
     NDFUNC=       1     NFFUNC=       0     DIFFSP=       F
     NPFUNC=       1      DIFFS=       F     BASNAM=        


     RUN TITLE
     ---------
 http://cactus.nci.nih.gov/chemical/structure/glycerol/file?format=sdf&get3d=True

 THE POINT GROUP OF THE MOLECULE IS C1      
 THE ORDER OF THE PRINCIPAL AXIS IS     0

 ATOM      ATOMIC                      COORDINATES (BOHR)
           CHARGE         X                   Y                   Z
 O           8.0     2.5981842605        4.3837863463       -0.1192417098
 C           6.0     2.2270420765        1.8322783177       -0.9216193642
 C           6.0    -0.1591149282        0.7832914219        0.3227651987
 O           8.0     0.0640617110        1.0266881291        3.0241284982
 C           6.0    -2.5484844670        2.1958615977       -0.4949192362
 O           8.0    -4.6989926411        1.0610811421        0.6795454652
 H           1.0     4.1509721046        4.9714911285       -0.9155722411
 H           1.0     2.0866354356        1.7831454420       -2.9831214442
 H           1.0     3.8801743706        0.7496542993       -0.3159621851
 H           1.0    -0.3607486911       -1.2353138782       -0.0859825324
 H           1.0     0.7825355315        2.7115678198        3.2911467802
 H           1.0    -2.5036979611        4.1757275151        0.1005334225
 H           1.0    -2.8105894615        2.1117687913       -2.5431932343
 H           1.0    -4.1917901860        0.7519219705        2.4296207024

          INTERNUCLEAR DISTANCES (ANGS.)




     $CONTRL OPTIONS
     ---------------
 SCFTYP=RHF          RUNTYP=OPTIMIZE     EXETYP=RUN     
 MPLEVL=       0     CITYP =NONE         CCTYP =NONE         VBTYP =NONE    
 DFTTYP=NONE         TDDFT =NONE    
 MULT  =       1     ICHARG=       0     NZVAR =       1     COORD =UNIQUE  
 PP    =NONE         RELWFN=NONE         LOCAL =NONE         NUMGRD=       F
 ISPHER=      -1     NOSYM =       0     MAXIT =     200     UNITS =ANGS    
 PLTORB=       F     MOLPLT=       F     AIMPAC=       F     FRIEND=        
 NPRINT=       7     IREST =       0     GEOM  =INPUT   
 NORMF =       0     NORMP =       0     ITOL  =      20     ICUT  =       9
 INTTYP=BEST         GRDTYP=BEST         QMTTOL= 1.0E-06

     $SYSTEM OPTIONS
     ---------------
  REPLICATED MEMORY=    40000000 WORDS (ON EVERY NODE).
 DISTRIBUTED MEMDDI=           0 MILLION WORDS IN AGGREGATE,
 MEMDDI DISTRIBUTED OVER   1 PROCESSORS IS           0 WORDS/PROCESSOR.
 TOTAL MEMORY REQUESTED ON EACH PROCESSOR=    40000000 WORDS.
 TIMLIM=       10000.00 MINUTES, OR       6.9 DAYS.
 PARALL= F  BALTYP=  DLB     KDIAG=    0  COREFL= F
 MXSEQ2=     300 MXSEQ3=     150  mem10=         0

     $COSGMS OPTIONS
     ---------------
     EPSI  =   INFTY     NSPA  =      92     COSRAD=    1.40
     DISEX =   10.00     OUTCHG=DBLCAV       COSBUG=       F
     COSWRT=       F     DCOSMO=       F

     SYMMETRY COORDINATES WILL NOT BE USED FOR 
     THE COSMO CALCULATION, EVEN IF SPECIFIED:
         -- SWITCHING TO C1 POINT GROUP --


     DEFINITION OF CAVITY
     ---------------------------
     ATOM         COORDINATES           RADIUS 
     1    2.5982    4.3838   -0.1192    1.7200
     2    2.2270    1.8323   -0.9216    2.0000
     3   -0.1591    0.7833    0.3228    2.0000
     4    0.0641    1.0267    3.0241    1.7200
     5   -2.5485    2.1959   -0.4949    2.0000
     6   -4.6990    1.0611    0.6795    1.7200
     7    4.1510    4.9715   -0.9156    1.3000
     8    2.0866    1.7831   -2.9831    1.3000
     9    3.8802    0.7497   -0.3160    1.3000
    10   -0.3607   -1.2353   -0.0860    1.3000
    11    0.7825    2.7116    3.2911    1.3000
    12   -2.5037    4.1757    0.1005    1.3000
    13   -2.8106    2.1118   -2.5432    1.3000
    14   -4.1918    0.7519    2.4296    1.3000

          ----------------
          PROPERTIES INPUT
          ----------------

     MOMENTS            FIELD           POTENTIAL          DENSITY
 IEMOM =       1   IEFLD =       0   IEPOT =       0   IEDEN =       0
 WHERE =COMASS     WHERE =NUCLEI     WHERE =NUCLEI     WHERE =NUCLEI  
 OUTPUT=BOTH       OUTPUT=BOTH       OUTPUT=BOTH       OUTPUT=BOTH    
 IEMINT=       0   IEFINT=       0                     IEDINT=       0
                                                       MORB  =       0
          EXTRAPOLATION IN EFFECT
          SOSCF IN EFFECT
 ORBITAL PRINTING OPTION: NPREO=     1   162     2     1

     -------------------------------
     INTEGRAL TRANSFORMATION OPTIONS
     -------------------------------
     NWORD  =            0
     CUTOFF = 1.0E-09     MPTRAN =       0
     DIRTRF =       T     AOINTS =DUP     

          ----------------------
          INTEGRAL INPUT OPTIONS
          ----------------------
 NOPK  =       1 NORDER=       0 SCHWRZ=       T


 -----------------------------------------------
  STATISTICS ON AUTOMATIC COORDINATE GENERATION 
 -----------------------------------------------
  NUMBER OF USER SPECIFIED BONDS                             0
  NUMBER OF BONDS                                           13
  NUMBER OF ANGLES                                          21
  NUMBER OF TORSIONS                                        27
  NUMBER OF EXTRA COORD.                                     0
  NUMBER OF EXTRA COORD. FOR CONSTRAINTS                     0
  NUMBER OF CONSTRAINED COORD.                               0

  TOTAL NUMBER OF PRIMITIVES                                61
 -----------------------------------------------

   --- ENCODED Z MATRIX ---
 COORD  TYPE   I   J   K   L   M   N
    1      1    1   2
    2      1    1   7
    3      1    2   8
    4      1    2   3
    5      1    2   9
    6      1    3   4
    7      1    3  10
    8      1    3   5
    9      1    4  11
   10      1    5  13
   11      1    5  12
   12      1    5   6
   13      1    6  14
   14      2    1   2   9
   15      2    1   2   8
   16      2    1   2   3
   17      2    2   3  10
   18      2    2   3   5
   19      2    2   3   4
   20      2    2   1   7
   21      2    3   2   8
   22      2    3   4  11
   23      2    3   5  13
   24      2    3   5   6
   25      2    3   5  12
   26      2    3   2   9
   27      2    4   3   5
   28      2    4   3  10
   29      2    5   3  10
   30      2    5   6  14
   31      2    6   5  12
   32      2    6   5  13
   33      2    8   2   9
   34      2   12   5  13
   35      3    1   2   3   5
   36      3    1   2   3  10
   37      3    1   2   3   4
   38      3    2   3   5   6
   39      3    2   3   5  12
   40      3    2   3   5  13
   41      3    2   3   4  11
   42      3    3   2   1   7
   43      3    3   5   6  14
   44      3    4   3   5  13
   45      3    4   3   5  12
   46      3    4   3   2   9
   47      3    4   3   2   8
   48      3    4   3   5   6
   49      3    5   3   4  11
   50      3    5   3   2   9
   51      3    5   3   2   8
   52      3    6   5   3  10
   53      3    7   1   2   9
   54      3    7   1   2   8
   55      3    8   2   3  10
   56      3    9   2   3  10
   57      3   10   3   5  13
   58      3   10   3   4  11
   59      3   10   3   5  12
   60      3   12   5   6  14
   61      3   13   5   6  14

          INDEP./SYM. INTERNAL COORDINATES
          --------------------------------
 CRD  1=   0.1446 (  4) -0.1245 ( 14)  0.3306 ( 16) -0.1924 ( 17)  0.5567 ( 18)
          -0.1137 ( 19)  0.1516 ( 23) -0.3270 ( 24) -0.1510 ( 26) -0.2561 ( 27)
           0.1451 ( 28) -0.1603 ( 29)  0.2493 ( 41) -0.1117 ( 42) -0.2024 ( 49)
 CRD  2=  -0.1098 (  2) -0.2417 (  4) -0.1173 (  6) -0.1232 ( 12)  0.1714 ( 14)
           0.2005 ( 15) -0.5298 ( 16)  0.1220 ( 18) -0.2348 ( 19)  0.1481 ( 20)
           0.1794 ( 21) -0.1737 ( 22)  0.1064 ( 23) -0.3411 ( 24) -0.2204 ( 30)
           0.1485 ( 32)  0.2087 ( 38)  0.1189 ( 39)  0.1791 ( 40)
 CRD  3=   0.2877 (  8)  0.2011 ( 12)  0.2394 ( 18) -0.3783 ( 19)  0.1172 ( 21)
          -0.1778 ( 22) -0.1246 ( 23)  0.4421 ( 24)  0.1695 ( 27) -0.1598 ( 29)
           0.2742 ( 30) -0.1728 ( 31) -0.1905 ( 32)  0.1162 ( 35)  0.1037 ( 36)
           0.1356 ( 39) -0.1019 ( 42) -0.1121 ( 44) -0.1397 ( 48) -0.1356 ( 49)
 CRD  4=  -0.1177 (  4)  0.1999 (  6)  0.1310 (  8) -0.1415 ( 12)  0.2029 ( 16)
           0.1543 ( 17) -0.2017 ( 19)  0.2704 ( 22) -0.2024 ( 24)  0.2748 ( 25)
           0.4272 ( 27) -0.1926 ( 29) -0.2195 ( 30)  0.2322 ( 35) -0.1114 ( 37)
          -0.1014 ( 41)  0.1234 ( 43) -0.1312 ( 46) -0.1425 ( 47) -0.1342 ( 49)
           0.2124 ( 50)  0.2011 ( 51)
 CRD  5=  -0.1288 (  1) -0.4518 (  4) -0.1824 (  6) -0.2546 (  8)  0.2091 ( 16)
          -0.1407 ( 19) -0.2519 ( 20) -0.1641 ( 21) -0.3606 ( 22) -0.1438 ( 25)
          -0.1187 ( 26)  0.1255 ( 27)  0.1374 ( 30)  0.1911 ( 31)  0.1357 ( 33)
          -0.1382 ( 38) -0.2015 ( 44) -0.1511 ( 45) -0.2772 ( 48) -0.1032 ( 52)
          -0.1304 ( 61)
 CRD  6=   0.1754 (  1)  0.1269 (  2)  0.1640 (  4) -0.3169 (  6) -0.2737 (  8)
          -0.1602 (  9) -0.1425 ( 14)  0.2675 ( 16)  0.1475 ( 17) -0.3801 ( 22)
          -0.2594 ( 23) -0.1915 ( 30) -0.1605 ( 31)  0.1863 ( 32)  0.2303 ( 38)
           0.1245 ( 39)  0.1083 ( 40)  0.1554 ( 43)  0.1789 ( 48)  0.1299 ( 52)
           0.1236 ( 60)
 CRD  7=  -0.4822 (  1) -0.1997 (  2)  0.1409 (  8) -0.6278 ( 20)  0.1561 ( 21)
           0.1158 ( 24)  0.1047 ( 25)  0.1346 ( 26) -0.1622 ( 30) -0.1920 ( 31)
           0.1008 ( 38) -0.1104 ( 50)  0.1168 ( 52)
 CRD  8=  -0.1070 (  1)  0.1338 (  3)  0.1716 (  6) -0.4534 (  8)  0.1125 (  9)
           0.2298 ( 12)  0.1330 ( 13) -0.1305 ( 16)  0.1444 ( 21)  0.2588 ( 22)
          -0.3203 ( 23) -0.1393 ( 29)  0.3252 ( 30)  0.1620 ( 32)  0.1916 ( 35)
           0.1761 ( 37) -0.1524 ( 42)  0.1401 ( 43)  0.1085 ( 47)  0.1112 ( 50)
           0.1240 ( 51)  0.1213 ( 58) -0.1554 ( 61)
 CRD  9=   0.2263 (  4) -0.1832 (  8) -0.1100 ( 11) -0.2933 ( 15)  0.2238 ( 17)
          -0.1288 ( 19) -0.1570 ( 20)  0.3695 ( 21)  0.1292 ( 22)  0.2320 ( 23)
          -0.3647 ( 25) -0.1782 ( 26)  0.1036 ( 27)  0.1836 ( 31) -0.1073 ( 32)
           0.1505 ( 38)  0.1595 ( 39)  0.1350 ( 40) -0.1358 ( 41) -0.1401 ( 42)
          -0.2128 ( 43) -0.1020 ( 46) -0.1013 ( 50)  0.1763 ( 54)  0.1132 ( 60)
 CRD 10=  -0.3528 (  4) -0.1152 (  5) -0.1669 ( 12)  0.2124 ( 14) -0.2116 ( 17)
           0.1022 ( 18)  0.1191 ( 20)  0.1133 ( 21)  0.2060 ( 22)  0.2701 ( 24)
          -0.4526 ( 26)  0.1296 ( 29) -0.2400 ( 30) -0.1769 ( 31)  0.1129 ( 33)
           0.1029 ( 34)  0.1315 ( 41) -0.1915 ( 42) -0.1016 ( 51)  0.1465 ( 52)
           0.1855 ( 53)
 CRD 11=   0.1638 (  6)  0.1863 (  9) -0.1588 ( 11) -0.2447 ( 12) -0.2033 ( 13)
          -0.2374 ( 14)  0.2121 ( 15) -0.1864 ( 21)  0.1293 ( 23)  0.1887 ( 24)
          -0.2597 ( 25)  0.2389 ( 26)  0.1025 ( 28) -0.3097 ( 30) -0.2193 ( 32)
           0.1076 ( 34)  0.2311 ( 35)  0.1574 ( 36)  0.2757 ( 37) -0.1226 ( 43)
           0.1230 ( 46)  0.1341 ( 47) -0.1653 ( 53) -0.1205 ( 54)  0.1114 ( 58)
 CRD 12=  -0.2529 (  4)  0.1592 (  8)  0.2990 ( 10)  0.2633 ( 12)  0.2559 ( 13)
          -0.1641 ( 14)  0.1405 ( 15)  0.1103 ( 16) -0.2103 ( 21)  0.1526 ( 22)
           0.2107 ( 23) -0.1538 ( 25)  0.1189 ( 29)  0.2443 ( 30)  0.1097 ( 33)
           0.1732 ( 36)  0.1094 ( 37)  0.2456 ( 38)  0.1592 ( 39)  0.1122 ( 45)
           0.1986 ( 48)  0.1028 ( 49)  0.2215 ( 52) -0.1420 ( 54)  0.1352 ( 59)
           0.1029 ( 60)  0.1573 ( 61)
 CRD 13=  -0.3394 (  3)  0.3050 (  5) -0.1811 (  7) -0.2072 (  8) -0.2107 ( 11)
           0.2067 ( 18) -0.1186 ( 19) -0.2208 ( 21)  0.2244 ( 22)  0.1121 ( 24)
          -0.1184 ( 25)  0.1792 ( 26)  0.1180 ( 28) -0.1996 ( 29)  0.1102 ( 34)
          -0.1734 ( 35) -0.2744 ( 36) -0.1941 ( 37)  0.1205 ( 38)  0.3139 ( 42)
          -0.1680 ( 49)  0.1039 ( 52) -0.1001 ( 56)  0.1311 ( 60)
 CRD 14=  -0.1456 (  3)  0.2266 (  6)  0.6688 (  7)  0.3681 (  9) -0.1178 ( 15)
           0.1007 ( 25)  0.1749 ( 28)  0.1469 ( 32) -0.1053 ( 35) -0.2081 ( 44)
          -0.1744 ( 45)  0.1369 ( 46)  0.1637 ( 47) -0.1143 ( 48)  0.1181 ( 49)
 CRD 15=  -0.1959 (  3)  0.3028 (  5)  0.1197 (  6) -0.1587 (  7)  0.1009 (  8)
           0.1464 ( 10) -0.1397 ( 11)  0.2468 ( 14) -0.2111 ( 15)  0.1061 ( 21)
          -0.2376 ( 22)  0.1242 ( 23) -0.1304 ( 26)  0.1009 ( 41)  0.2738 ( 46)
           0.2599 ( 47)  0.1199 ( 49)  0.3133 ( 50)  0.2994 ( 51)  0.2147 ( 55)
           0.2286 ( 56)  0.1270 ( 58)
 CRD 16=  -0.2857 (  3) -0.1130 (  4) -0.1002 (  5) -0.1474 (  6)  0.1807 (  7)
          -0.6192 ( 10) -0.1813 ( 12)  0.1939 ( 22)  0.1319 ( 23)  0.1520 ( 25)
           0.2501 ( 30) -0.1872 ( 32) -0.1662 ( 34)  0.1897 ( 39)  0.1779 ( 40)
           0.1480 ( 44)  0.1598 ( 45)  0.1110 ( 57)  0.1228 ( 59) -0.1467 ( 60)
           0.1116 ( 61)
 CRD 17=   0.3407 (  3)  0.1224 (  5) -0.1676 ( 10) -0.6920 ( 11) -0.1087 ( 22)
           0.1389 ( 23)  0.1415 ( 25)  0.1449 ( 30) -0.1269 ( 31) -0.2275 ( 34)
          -0.1635 ( 40) -0.1668 ( 44) -0.1565 ( 57)  0.1870 ( 61)
 CRD 18=  -0.4825 (  3) -0.5933 (  5) -0.1357 (  7)  0.1053 ( 10) -0.2654 ( 11)
           0.1729 ( 20)  0.1382 ( 21) -0.1024 ( 22)  0.1147 ( 26) -0.2562 ( 33)
          -0.1075 ( 39) -0.1329 ( 40) -0.1456 ( 53)  0.1522 ( 54)
 CRD 19=  -0.1426 (  8)  0.3988 ( 10)  0.1013 ( 11) -0.5476 ( 12)  0.1119 ( 25)
           0.4667 ( 30) -0.2157 ( 31) -0.1405 ( 32)  0.1237 ( 34) -0.1685 ( 39)
           0.1359 ( 40)  0.1428 ( 44) -0.1616 ( 45) -0.2137 ( 59)
 CRD 20=   0.6406 (  1) -0.1641 (  2)  0.1668 ( 14)  0.1603 ( 15) -0.5565 ( 20)
          -0.2174 ( 33)  0.1463 ( 46) -0.1478 ( 47)  0.1563 ( 50) -0.1378 ( 51)
          -0.1414 ( 55)  0.1527 ( 56)
 CRD 21=  -0.6270 (  6)  0.1656 (  9)  0.1268 ( 10) -0.1369 ( 11)  0.4224 ( 22)
          -0.1400 ( 28)  0.1688 ( 36) -0.1720 ( 52)  0.1904 ( 55)  0.1859 ( 56)
          -0.2282 ( 57) -0.2126 ( 59)
 CRD 22=   0.1330 (  1)  0.7060 (  2)  0.1051 (  5) -0.3010 (  7)  0.3895 (  9)
           0.1136 ( 11) -0.1282 ( 12)  0.2357 ( 13) -0.1570 ( 20)  0.1215 ( 21)
           0.1219 ( 26) -0.1025 ( 33)
 CRD 23=   0.3284 (  3) -0.3781 (  5) -0.1622 (  6) -0.1080 (  7)  0.2739 (  9)
           0.1640 ( 12) -0.2336 ( 13) -0.1188 ( 29)  0.3800 ( 42)  0.1199 ( 43)
           0.3596 ( 53)  0.3147 ( 54)  0.1514 ( 58)  0.1945 ( 61)
 CRD 24=   0.4858 (  2) -0.1235 (  4)  0.1667 (  7) -0.3728 (  9)  0.1614 ( 10)
          -0.1039 ( 11)  0.1619 ( 12) -0.6521 ( 13) -0.1005 ( 16) -0.1005 ( 20)
 CRD 25=   0.2676 (  2)  0.1699 (  3) -0.1452 (  5)  0.2266 (  7) -0.4977 (  9)
          -0.1101 ( 11)  0.4271 ( 13)  0.1006 ( 22)  0.2307 ( 42) -0.1624 ( 43)
           0.2106 ( 53)  0.1855 ( 54) -0.1385 ( 60) -0.2169 ( 61)
 CRD 26=   0.1589 (  7) -0.1243 ( 17)  0.1134 ( 19) -0.4318 ( 41)  0.1767 ( 43)
           0.1027 ( 46)  0.1094 ( 47) -0.4698 ( 49)  0.1103 ( 55)  0.1035 ( 56)
          -0.5163 ( 58)  0.2100 ( 60)  0.1688 ( 61)
 CRD 27=  -0.1008 (  2)  0.1342 (  9) -0.1567 ( 11) -0.2863 ( 13) -0.1606 ( 23)
           0.1124 ( 29)  0.1462 ( 30)  0.1168 ( 32)  0.1314 ( 38) -0.1275 ( 41)
           0.1150 ( 42) -0.3512 ( 43)  0.1203 ( 48) -0.1206 ( 49)  0.1552 ( 52)
           0.1204 ( 54)  0.1202 ( 57) -0.2252 ( 58)  0.1177 ( 59) -0.3461 ( 60)
          -0.4845 ( 61)
 CRD 28=  -0.1591 (  2)  0.1362 (  3)  0.1234 (  5) -0.2847 ( 12) -0.1300 ( 14)
          -0.2044 ( 17) -0.1446 ( 19)  0.1456 ( 20)  0.1144 ( 21) -0.1054 ( 23)
          -0.1387 ( 24) -0.1499 ( 25)  0.1641 ( 26)  0.1463 ( 27)  0.1440 ( 29)
           0.1478 ( 30)  0.2242 ( 31)  0.1475 ( 32) -0.1857 ( 33)  0.2030 ( 41)
           0.1360 ( 42)  0.1723 ( 43) -0.1403 ( 44) -0.1116 ( 47) -0.1128 ( 48)
           0.1682 ( 49)  0.2938 ( 54)  0.1908 ( 59)  0.2987 ( 60)
 CRD 29=   0.2951 (  1) -0.1952 (  2) -0.2730 (  4) -0.1975 (  7) -0.1573 (  8)
          -0.2446 (  9)  0.2004 ( 11)  0.1218 ( 12) -0.1987 ( 14) -0.2362 ( 15)
           0.1419 ( 16)  0.1221 ( 20)  0.1790 ( 21)  0.1392 ( 22)  0.1376 ( 23)
           0.1434 ( 25)  0.1725 ( 26)  0.1269 ( 28) -0.1658 ( 31) -0.1544 ( 34)
           0.1142 ( 37) -0.1071 ( 41) -0.1459 ( 44) -0.1473 ( 45)  0.2012 ( 47)
          -0.1853 ( 53)  0.1462 ( 54) -0.1918 ( 60)  0.1078 ( 61)
 CRD 30=  -0.1863 (  3)  0.1411 (  4)  0.2520 (  6) -0.2499 (  7)  0.1478 (  8)
          -0.1551 (  9) -0.2827 ( 10)  0.1767 ( 11) -0.1118 ( 12) -0.1042 ( 20)
          -0.1127 ( 25)  0.1636 ( 30)  0.2250 ( 32)  0.2014 ( 33)  0.1674 ( 36)
           0.1409 ( 37)  0.1402 ( 38) -0.1906 ( 44) -0.1605 ( 45)  0.1589 ( 47)
           0.2412 ( 53)  0.1853 ( 55) -0.2236 ( 57) -0.1935 ( 59)  0.2115 ( 60)
 CRD 31=  -0.1819 (  1) -0.1243 (  3)  0.3255 (  4)  0.1298 (  5) -0.4498 (  8)
           0.1149 ( 10)  0.2170 ( 11)  0.2126 ( 15) -0.1089 ( 17)  0.1437 ( 23)
           0.1049 ( 24)  0.1068 ( 25) -0.1052 ( 26)  0.1027 ( 27)  0.1307 ( 29)
          -0.2392 ( 34)  0.1793 ( 36) -0.1013 ( 43) -0.1312 ( 44) -0.1613 ( 47)
          -0.1066 ( 51)  0.1022 ( 52)  0.2297 ( 53)  0.1306 ( 54)  0.1181 ( 56)
          -0.1554 ( 58)  0.1130 ( 59) -0.2314 ( 60)  0.1175 ( 61)
 CRD 32=  -0.2626 (  4)  0.2307 (  5)  0.1878 (  6)  0.1539 (  7) -0.1196 (  8)
          -0.1755 ( 10)  0.2766 ( 12) -0.1482 ( 14) -0.1421 ( 22) -0.2373 ( 28)
          -0.1475 ( 31) -0.1185 ( 33)  0.1951 ( 34)  0.1129 ( 35)  0.2257 ( 36)
          -0.1785 ( 39)  0.1134 ( 40)  0.2129 ( 44) -0.1172 ( 46) -0.1751 ( 47)
           0.1187 ( 48) -0.1040 ( 52)  0.1039 ( 53)  0.2893 ( 54)  0.1006 ( 56)
          -0.3017 ( 59)
 CRD 33=   0.2428 (  1) -0.3045 (  3)  0.2646 ( 10) -0.2129 ( 11) -0.2050 ( 14)
          -0.1032 ( 16)  0.1152 ( 21) -0.1305 ( 23)  0.1168 ( 25) -0.1074 ( 30)
           0.1614 ( 31) -0.1318 ( 32)  0.2026 ( 33)  0.1015 ( 36)  0.1166 ( 37)
          -0.2128 ( 38)  0.2110 ( 43)  0.1152 ( 45) -0.2261 ( 46) -0.1738 ( 48)
          -0.2942 ( 50) -0.2055 ( 52)  0.2408 ( 53) -0.2413 ( 56)
 CRD 34=   0.1169 (  1)  0.2473 (  4) -0.2369 (  5) -0.1950 (  8) -0.1281 ( 11)
           0.2439 ( 12) -0.1136 ( 15) -0.1728 ( 17) -0.1281 ( 19) -0.1282 ( 24)
           0.1087 ( 25)  0.1001 ( 26)  0.1208 ( 27)  0.1877 ( 29) -0.1299 ( 32)
           0.1504 ( 33)  0.1520 ( 34) -0.1246 ( 35) -0.1812 ( 37) -0.1512 ( 39)
           0.1723 ( 40)  0.1805 ( 41) -0.2384 ( 45) -0.1046 ( 46) -0.1157 ( 48)
           0.1999 ( 49)  0.1452 ( 51) -0.2003 ( 54)  0.2512 ( 55)  0.2673 ( 57)
 CRD 35=  -0.1166 (  1)  0.1488 (  4)  0.1690 (  5) -0.1622 (  6) -0.1810 (  7)
           0.1901 (  8) -0.1106 ( 11)  0.1476 ( 12)  0.1314 ( 15) -0.2498 ( 18)
           0.1204 ( 22) -0.1583 ( 24) -0.1741 ( 26)  0.2254 ( 28)  0.1489 ( 34)
           0.2413 ( 37) -0.1084 ( 39)  0.1543 ( 40) -0.1842 ( 41) -0.2481 ( 45)
           0.1529 ( 46) -0.1318 ( 48)  0.1135 ( 49) -0.1649 ( 51)  0.1408 ( 52)
           0.1125 ( 54) -0.3107 ( 55) -0.1447 ( 56)  0.2871 ( 57)
 CRD 36=  -0.1519 (  1)  0.1440 (  3)  0.2321 (  6) -0.1843 (  7)  0.1405 ( 10)
          -0.1395 ( 11)  0.1411 ( 16)  0.1576 ( 17) -0.1459 ( 19) -0.1397 ( 21)
          -0.1438 ( 23)  0.1429 ( 25) -0.1430 ( 27)  0.1539 ( 29) -0.1175 ( 33)
          -0.2563 ( 35)  0.2758 ( 39)  0.2739 ( 40)  0.2017 ( 43)  0.2184 ( 46)
          -0.1853 ( 48) -0.2828 ( 51) -0.2491 ( 52)  0.2814 ( 56)

 THE DETERMINANT OF THE G MATRIX IS 10**(   -16)


                     --------------------
                     INTERNAL COORDINATES
                     --------------------

                 - - ATOMS - -         COORDINATE      COORDINATE
 NO.   TYPE    I  J  K  L  M  N        (BOHR,RAD)       (ANG,DEG)
 ----------------------------------------------------------------
   1 STRETCH   1  2                     2.7003240       1.4289500
   2 STRETCH   1  7                     1.8413824       0.9744177
   3 STRETCH   2  8                     2.0668621       1.0937364
   4 STRETCH   2  3                     2.8883580       1.5284533
   5 STRETCH   2  9                     2.0668192       1.0937137
   6 STRETCH   3  4                     2.7214727       1.4401414
   7 STRETCH   3 10                     2.0694198       1.0950899
   8 STRETCH   3  5                     2.8936221       1.5312390
   9 STRETCH   4 11                     1.8510329       0.9795245
  10 STRETCH   5 13                     2.0666874       1.0936440
  11 STRETCH   5 12                     2.0679552       1.0943148
  12 STRETCH   5  6                     2.7003295       1.4289529
  13 STRETCH   6 14                     1.8481334       0.9779901
  14 BEND      1  2  9                  1.8733272     107.3337394
  15 BEND      1  2  8                  1.9051611     109.1576900
  16 BEND      1  2  3                  1.9057148     109.1894172
  17 BEND      2  3 10                  1.9280017     110.4663613
  18 BEND      2  3  5                  1.9639787     112.5276907
  19 BEND      2  3  4                  1.9043636     109.1119990
  20 BEND      2  1  7                  1.8639527     106.7966235
  21 BEND      3  2  8                  1.9443821     111.4048882
  22 BEND      3  4 11                  1.8301189     104.8580874
  23 BEND      3  5 13                  1.9443470     111.4028786
  24 BEND      3  5  6                  1.9066293     109.2418094
  25 BEND      3  5 12                  1.9477842     111.5998162
  26 BEND      3  2  9                  1.9222773     110.1383748
  27 BEND      4  3  5                  1.8802615     107.7310496
  28 BEND      4  3 10                  1.8663696     106.9351036
  29 BEND      5  3 10                  1.9176168     109.8713493
  30 BEND      5  6 14                  1.8375429     105.2834518
  31 BEND      6  5 12                  1.8695700     107.1184694
  32 BEND      6  5 13                  1.8891029     108.2376207
  33 BEND      8  2  9                  1.9115119     109.5215662
  34 BEND     12  5 13                  1.9040086     109.0916582
  35 TORSION   1  2  3  5               1.1076608      63.4642914
  36 TORSION   1  2  3 10              -3.0252533    -173.3342453
  37 TORSION   1  2  3  4              -0.9782897     -56.0518691
  38 TORSION   2  3  5  6               3.1100202     178.1910300
  39 TORSION   2  3  5 12              -1.1090966     -63.5465515
  40 TORSION   2  3  5 13               1.0238706      58.6634622
  41 TORSION   2  3  4 11               0.7422490      42.5277325
  42 TORSION   3  2  1  7               3.1183155     178.6663158
  43 TORSION   3  5  6 14               0.7558578      43.3074615
  44 TORSION   4  3  5 13               3.1237733     178.9790259
  45 TORSION   4  3  5 12               0.9908062      56.7690122
  46 TORSION   4  3  2  9               1.0745973      61.5698920
  47 TORSION   4  3  2  8              -3.0838575    -176.6920200
  48 TORSION   4  3  5  6              -1.0732624     -61.4934063
  49 TORSION   5  3  4 11              -1.3948272     -79.9177097
  50 TORSION   5  3  2  9              -3.1226375    -178.9139475
  51 TORSION   5  3  2  8              -0.9979070     -57.1758595
  52 TORSION   6  5  3 10               0.9539568      54.6576984
  53 TORSION   7  1  2  9               1.0348432      59.2921453
  54 TORSION   7  1  2  8              -1.0354831     -59.3288140
  55 TORSION   8  2  3 10               1.1523642      66.0256038
  56 TORSION   9  2  3 10              -0.9723663     -55.7124843
  57 TORSION  10  3  5 13              -1.1321928     -64.8698694
  58 TORSION  10  3  4 11               2.8278224     162.0222874
  59 TORSION  10  3  5 12               3.0180254     172.9201169
  60 TORSION  12  5  6 14              -1.3565107     -77.7223361
  61 TORSION  13  5  6 14               2.8758203     164.7723681

     ------------------------------------------
     THE POINT GROUP IS C1 , NAXIS= 1, ORDER= 1
     ------------------------------------------

     DIMENSIONS OF THE SYMMETRY SUBSPACES ARE
 A   =  162

 ..... DONE SETTING UP THE RUN .....
 STEP CPU TIME =     0.01 TOTAL CPU TIME =        0.0 (    0.0 MIN)
 TOTAL WALL CLOCK TIME=        0.0 SECONDS, CPU UTILIZATION IS  50.00%


          -----------------------------
          STATIONARY POINT LOCATION RUN
          -----------------------------

 OBTAINING INITIAL HESSIAN, HESS=GUESS   
 DIAGONAL GUESS HESSIAN IN INTERNAL COORDS IS
     1  0.3608     2  0.3501     3  0.3439     4  0.3683     5  0.3439
     6  0.3531     7  0.3430     8  0.3663     9  0.3467    10  0.3439
    11  0.3435    12  0.3608    13  0.3477    14  0.2192    15  0.2192
    16  0.2431    17  0.2239    18  0.2485    19  0.2423    20  0.2139
    21  0.2239    22  0.2130    23  0.2238    24  0.2429    25  0.2237
    26  0.2239    27  0.2422    28  0.2185    29  0.2237    30  0.2137
    31  0.2192    32  0.2192    33  0.2030    34  0.2030    35  0.2500
    36  0.2500    37  0.2500    38  0.2500    39  0.2500    40  0.2500
    41  0.2500    42  0.2500    43  0.2500    44  0.2500    45  0.2500
    46  0.2500    47  0.2500    48  0.2500    49  0.2500    50  0.2500
    51  0.2500    52  0.2500    53  0.2500    54  0.2500    55  0.2500
    56  0.2500    57  0.2500    58  0.2500    59  0.2500    60  0.2500
    61  0.2500
 TRANSFORMING HESSIAN TO SYMMETRY COORDINATES

          PARAMETERS CONTROLLING GEOMETRY SEARCH ARE
          METHOD =QA                  UPHESS =BFGS    
          NNEG   =         0          NFRZ   =         3
          NSTEP  =        50          IFOLOW =         1
          HESS   =GUESS               RESTAR =         F
          IHREP  =         0          HSSEND =         F
          NPRT   =         0          NPUN   =         0
          OPTTOL = 5.000E-04          RMIN   = 1.500E-03
          RMAX   = 1.000E-01          RLIM   = 7.000E-02
          DXMAX  = 3.000E-01          PURIFY =         F
          MOVIE  =         F          TRUPD  =         T
          TRMAX  = 5.000E-01          TRMIN  = 5.000E-02
          ITBMAT =         5          STPT   =         F
          STSTEP = 1.000E-02          PROJCT=          F
          FROZEN COORD(S)=   1   2   3


      ***** EQUILIBRIUM GEOMETRY LOCATED *****
            (SUBJECT TO   3 CONSTRAINT(S))
 COORDINATES OF ALL ATOMS ARE (ANGS)
   ATOM   CHARGE       X              Y              Z
 ------------------------------------------------------------
 O           8.0   1.3708758989   2.3168953843  -0.0811090457
 C           6.0   1.1801533654   0.9794982430  -0.4827064200
 C           6.0  -0.0769029979   0.4510430752   0.1797394901
 O           8.0   0.0327347408   0.5215999685   1.5873900619
 C           6.0  -1.3552118810   1.1485104784  -0.2601489978
 O           8.0  -2.4717506977   0.5643731200   0.3676295374
 H           1.0   2.2357022511   2.5957654291  -0.3321969183
 H           1.0   1.0887562289   0.9084071017  -1.5631011851
 H           1.0   2.0195658603   0.3678156342  -0.1671853594
 H           1.0  -0.1684725697  -0.6022830673  -0.0587488935
 H           1.0   0.2743266940   1.4041956543   1.8227034364
 H           1.0  -1.3025972693   2.2094431582  -0.0290202725
 H           1.0  -1.4963278323   1.0390808796  -1.3284479916
 H           1.0  -2.2852075722   0.5075188189   1.2914216466


                     --------------------
                     INTERNAL COORDINATES
                     --------------------

                 - - ATOMS - -         COORDINATE      COORDINATE
 NO.   TYPE    I  J  K  L  M  N        (BOHR,RAD)       (ANG,DEG)
 ----------------------------------------------------------------
   1 STRETCH   1  2                     2.6632982       1.4093568
   2 STRETCH   1  7                     1.7814998       0.9427291
   3 STRETCH   2  8                     2.0533421       1.0865819
   4 STRETCH   2  3                     2.8648459       1.5160113
   5 STRETCH   2  9                     2.0513082       1.0855056
   6 STRETCH   3  4                     2.6714596       1.4136756
   7 STRETCH   3 10                     2.0482029       1.0838624
   8 STRETCH   3  5                     2.8746430       1.5211957
   9 STRETCH   4 11                     1.7854803       0.9448355
  10 STRETCH   5 13                     2.0468021       1.0831211
  11 STRETCH   5 12                     2.0543042       1.0870910
  12 STRETCH   5  6                     2.6604102       1.4078286
  13 STRETCH   6 14                     1.7841882       0.9441518
  14 BEND      1  2  9                  1.9254401     110.3195930
  15 BEND      1  2  8                  1.9356332     110.9036153
  16 BEND      1  2  3                  1.8949230     108.5710900
  17 BEND      2  3 10                  1.8887959     108.2200329
  18 BEND      2  3  5                  1.9939172     114.2430393
  19 BEND      2  3  4                  1.9319979     110.6953249
  20 BEND      2  1  7                  1.9059949     109.2054654
  21 BEND      3  2  8                  1.9197611     109.9942110
  22 BEND      3  4 11                  1.8906670     108.3272424
  23 BEND      3  5 13                  1.9266348     110.3880423
  24 BEND      3  5  6                  1.9254570     110.3205620
  25 BEND      3  5 12                  1.9233691     110.2009330
  26 BEND      3  2  9                  1.8941677     108.5278131
  27 BEND      4  3  5                  1.9073421     109.2826496
  28 BEND      4  3 10                  1.8485064     105.9116148
  29 BEND      5  3 10                  1.8869978     108.1170080
  30 BEND      5  6 14                  1.8803064     107.7336227
  31 BEND      6  5 12                  1.9267816     110.3964520
  32 BEND      6  5 13                  1.8697999     107.1316409
  33 BEND      8  2  9                  1.8935607     108.4930372
  34 BEND     12  5 13                  1.8908411     108.3372126
  35 TORSION   1  2  3  5               1.1287650      64.6734721
  36 TORSION   1  2  3 10              -3.0516132    -174.8445591
  37 TORSION   1  2  3  4              -1.0331246     -59.1936808
  38 TORSION   2  3  5  6               3.1057445     177.9460496
  39 TORSION   2  3  5 12              -1.0453761     -59.8956398
  40 TORSION   2  3  5 13               1.0425471      59.7335496
  41 TORSION   2  3  4 11               0.9172286      52.5533294
  42 TORSION   3  2  1  7               2.9310089     167.9344379
  43 TORSION   3  5  6 14               0.8606002      49.3087600
  44 TORSION   4  3  5 13              -3.0655732    -175.6444064
  45 TORSION   4  3  5 12               1.1296889      64.7264041
  46 TORSION   4  3  2  9               1.0600628      60.7371271
  47 TORSION   4  3  2  8               3.1291504     179.2871106
  48 TORSION   4  3  5  6              -1.0023759     -57.4319064
  49 TORSION   5  3  4 11              -1.2935543     -74.1152021
  50 TORSION   5  3  2  9              -3.0612328    -175.3957200
  51 TORSION   5  3  2  8              -0.9921453     -56.8457365
  52 TORSION   6  5  3 10               1.0019360      57.4067069
  53 TORSION   7  1  2  9               0.8574171      49.1263831
  54 TORSION   7  1  2  8              -1.2410231     -71.1053879
  55 TORSION   8  2  3 10               1.1106618      63.6362322
  56 TORSION   9  2  3 10              -0.9584258     -54.9137512
  57 TORSION  10  3  5 13              -1.0612613     -60.8057930
  58 TORSION  10  3  4 11               2.9606726     169.6340458
  59 TORSION  10  3  5 12               3.1340008     179.5650175
  60 TORSION  12  5  6 14              -1.2694524     -72.7342661
  61 TORSION  13  5  6 14               2.9583405     169.5004227

          INTERNUCLEAR DISTANCES (ANGS.)


 =====================================================
   GAMESS/COSab RESULTS
 =====================================================

   Dielectric Constant                  = INFTY
   Basic Grid Size                      =                 1082
   Number of Segments                   =                   92
   Number of Segments located on spheres=                  221
   Number of Segments of the cavity     =                  515
   Solvent Radius (rsolv)               = 1.40
   Outlying Charge Error Method         = double cavity

 =====================================================

  Total solvated Energy (a.u.)          =  -342.9471577274
  Total Energy corrected (a.u.)         =  -342.9471657800

  Outlying charge effect (a.u.)         =    -0.0000080526
  Outlying charge effect (kcal/mol)     =    -0.0050530729

  Dielectric Energy (a.u.)              =    -0.0217146575
  Dielectric energy corr. (a.u.)        =    -0.0217227101

  Sum of polarization charges           =     0.0147243111
  Sum of polarization charges(cor.)     =    -0.0147243111

  Total surface area of cavity (A**2)   =  122.80
  Total volume of cavity (A**3)         =  111.46

 =====================================================
 NPS=                   515
NR.  ATOM  (X, Y, Z)(a.u.)                  CHARGE(e)  AREA(A**2) SIGMA(e/A**2)
   1   1   1.315935   6.456317   1.996533   0.003365   0.171795   0.019589
   2   1   3.024738   7.599245  -0.113204   0.001393   0.274871   0.005069
   3   1   4.605978   5.443477   2.163658   0.001912   0.274871   0.006957
   4   1   2.886794   5.791547  -3.065259   0.001598   0.240512   0.006643
   5   1   0.931551   7.169494  -0.006904   0.003194   0.171795   0.018591
   6   1   0.988239   6.854672   1.212242   0.003861   0.206154   0.018727
   7   1   3.601531   7.308276   0.825400   0.000475   0.274871   0.001729
   8   1   4.129674   6.506427   1.761627   0.001426   0.309230   0.004610
   9   1   4.808841   4.427016   2.221924   0.002092   0.240512   0.008697
  10   1   5.161447   3.736359   1.729064   0.000555   0.137436   0.004037
  11   1   2.835095   6.787288  -2.321597   0.002453   0.309230   0.007934
  12   1   2.895546   7.405287  -1.297369   0.001792   0.309230   0.005794
  13   1   0.985558   7.133911  -0.781837   0.004959   0.274871   0.018042
  14   1   2.013310   7.557913  -0.501699   0.004534   0.377948   0.011998
  15   1   2.420776   7.465808   0.848237   0.005099   0.481025   0.010601
  16   1   1.827615   7.002892   1.605689   0.003987   0.274871   0.014506
  17   1   2.354552   6.296268   2.460200   0.005697   0.343589   0.016582
  18   1   3.478964   5.839877   2.610626   0.006471   0.446666   0.014488
  19   1   4.116205   4.784011   2.687934   0.004114   0.274871   0.014967
  20   1   2.104451   5.732745  -3.067689   0.002593   0.240512   0.010780
  21   1   1.929034   6.467683  -2.553580   0.003827   0.274871   0.013924
  22   1   0.988317   6.563706  -1.948091   0.007371   0.343589   0.021453
  23   1   1.253255   7.257413   0.544457   0.004141   0.240512   0.017219
  24   1   1.216551   5.799294  -2.733480   0.003837   0.206154   0.018611
  25   1   3.105003   6.899835   1.832122   0.004180   0.412307   0.010137
  26   1   4.530239   3.686506   2.361437   0.002209   0.171795   0.012856
  27   1   1.832832   7.186647  -1.603656   0.005429   0.377948   0.014364
  28   2   5.304117   2.282613  -3.068291  -0.000864   0.325193  -0.002656
  29   2   3.871168  -1.043720  -2.704428  -0.000056   0.418105  -0.000135
  30   2   4.490124   1.694097   2.113080  -0.000069   0.046456  -0.001481
  31   2   3.579341  -0.561925  -3.489377  -0.000090   0.278737  -0.000322
  32   2   4.764595   1.744843  -3.713914  -0.000081   0.232280  -0.000351
  33   2   1.468580   4.201561  -3.772079   0.000099   0.046456   0.002125
  34   2   3.108080   4.151479  -3.779452  -0.000019   0.046456  -0.000399
  35   2   4.538617   2.895398  -3.716559  -0.000534   0.232280  -0.002301
  36   2   5.419439   1.319940  -2.869434   0.000017   0.325193   0.000053
  37   2   4.618798  -0.113887  -3.084289   0.000340   0.278737   0.001218
  38   2   2.754029  -1.334613  -2.877350  -0.000569   0.325193  -0.001750
  39   2   1.970603  -1.287316  -3.002168  -0.000316   0.139368  -0.002269
  40   2   5.859057   2.004918  -1.957044  -0.000358   0.325193  -0.001102
  41   2   3.178482  -1.701432  -1.787042  -0.001069   0.371649  -0.002875
  42   2   4.676924   2.178250   1.949724   0.000177   0.092912   0.001902
  43   2   1.687677  -0.956683  -3.383427  -0.000686   0.185824  -0.003691
  44   2   4.730307   0.685769  -3.495956   0.000268   0.278737   0.000960
  45   2   3.704988   3.733355  -3.838927  -0.000522   0.092912  -0.005613
  46   2   0.883943   4.083030  -3.648949  -0.000167   0.092912  -0.001802
  47   2   5.289922   0.451831  -2.633977   0.000198   0.185824   0.001065
  48   3   2.154432  -1.900167   1.530902   0.000033   0.046456   0.000713
  49   3  -1.648518  -2.214305   1.958422  -0.000031   0.046456  -0.000675
  50   3   1.715155  -2.268738   1.379720  -0.000331   0.278737  -0.001189
  51   3  -0.822987  -1.112786  -2.816810  -0.000705   0.139368  -0.005060
  52   3  -0.264834  -1.152636  -2.861907  -0.000202   0.046456  -0.004353
  53   4   0.707285  -1.333440   5.183712   0.006160   0.343589   0.017928
  54   4  -0.400870   1.711625   6.133994   0.001446   0.274871   0.005261
  55   4   2.722589   1.197626   4.854515   0.002996   0.309230   0.009690
  56   4  -1.365397  -1.882011   3.551047   0.002887   0.206154   0.014005
  57   4  -1.679573  -1.415165   4.329409   0.002850   0.171795   0.016587
  58   4  -0.286949  -2.192608   3.584078   0.003119   0.240512   0.012969
  59   4   0.098426  -1.937350   4.420721   0.005852   0.343589   0.017033
  60   4  -1.497881  -0.886892   5.150403   0.005388   0.274871   0.019603
  61   4  -0.479565  -1.269405   5.277041   0.006713   0.377948   0.017760
  62   4   1.476969  -1.549470   4.460934   0.007695   0.412307   0.018663
  63   4   2.151323  -1.453507   3.498837   0.007280   0.377948   0.019263
  64   4   0.734092   1.612033   6.117500   0.000548   0.274871   0.001993
  65   4   1.957281   1.411483   5.605634   0.001509   0.309230   0.004881
  66   4   3.068967   1.434730   4.148759   0.001865   0.206154   0.009045
  67   4  -1.695311   2.624954   5.188306   0.001060   0.137436   0.007710
  68   4  -1.192802   2.218595   5.732948   0.001002   0.206154   0.004859
  69   4  -1.729389   0.142690   5.577622   0.005060   0.274871   0.018407
  70   4  -1.156533   1.022357   6.012853   0.003369   0.274871   0.012255
  71   4   0.030456   0.657568   6.233315   0.005123   0.481025   0.010651
  72   4   0.363841  -0.463218   5.893550   0.005861   0.377948   0.015507
  73   4   1.556030  -0.537890   5.451434   0.006814   0.412307   0.016525
  74   4   2.357300   0.221788   5.170459   0.005497   0.377948   0.014545
  75   4   3.030497   0.406731   4.189948   0.003797   0.240512   0.015788
  76   4   2.803497  -0.539795   3.848817   0.004191   0.206154   0.020328
  77   4  -0.995960  -1.779510   4.341155   0.004446   0.274871   0.016176
  78   4   0.949825  -2.096516   3.525283   0.005619   0.377948   0.014867
  79   4  -0.853205  -0.241521   5.867020   0.006025   0.377948   0.015942
  80   4   2.386523  -0.734949   4.482969   0.005682   0.309230   0.018375
  81   4   1.326788   0.585913   5.967023   0.004235   0.412307   0.010271
  82   4  -1.729330   1.526662   5.657495   0.003122   0.240512   0.012979
  83   5  -4.064243   4.640310  -2.925516   0.000450   0.325193   0.001383
  84   5  -3.024117  -0.758115  -2.835468  -0.000055   0.139368  -0.000391
  85   5  -3.439713  -1.135230  -2.099411   0.000191   0.139368   0.001368
  86   5  -5.123641   4.853301   0.228779   0.000722   0.185824   0.003887
  87   5  -3.548639   5.299205  -2.367573   0.000367   0.278737   0.001318
  88   5  -3.452454   4.396649   2.429566  -0.000318   0.092912  -0.003425
  89   5  -1.828713   4.818775  -3.086613  -0.000178   0.185824  -0.000958
  90   5  -3.030443   4.791985  -3.173221   0.000388   0.278737   0.001391
  91   5  -4.832750   4.790275  -1.994761   0.000189   0.464561   0.000406
  92   5  -5.437203   4.575327  -0.968924   0.000129   0.278737   0.000461
  93   5  -4.970777   3.854953  -2.866340  -0.000054   0.371649  -0.000146
  94   5  -5.586397   2.531030  -2.727910  -0.000208   0.232280  -0.000894
  95   5  -3.765485  -0.697071  -2.638967  -0.000212   0.185824  -0.001139
  96   5  -4.857131   5.137030  -0.950887   0.000003   0.185824   0.000015
  97   5  -2.259322   5.209428  -2.718140   0.000088   0.185824   0.000473
  98   5  -4.300917   4.544705   1.878931  -0.000093   0.092912  -0.001006
  99   5  -1.947501   4.378883  -3.496673  -0.000233   0.185824  -0.001252
 100   5  -5.634140   3.712299  -2.060822   0.000350   0.371649   0.000943
 101   6  -7.535582   2.358525  -0.135389   0.006606   0.343589   0.019227
 102   6  -6.959062  -0.934744  -0.455952   0.006231   0.343589   0.018134
 103   6  -7.282010   0.549464   2.560055   0.001490   0.274871   0.005420
 104   6  -4.999498  -1.914681   1.947369   0.002970   0.309230   0.009603
 105   6  -5.601670   3.578864   2.534938   0.001934   0.240512   0.008041
 106   6  -6.686493   1.555156  -1.807957   0.002932   0.206154   0.014225
 107   6  -7.100558   2.100176  -1.200824   0.005597   0.343589   0.016291
 108   6  -6.332567   0.435037  -2.026469   0.004130   0.309230   0.013356
 109   6  -6.774441  -0.283597  -1.383041   0.005940   0.343589   0.017287
 110   6  -7.747992   1.263711  -0.333586   0.007051   0.377948   0.018656
 111   6  -7.537229   0.106973  -0.500364   0.006856   0.377948   0.018140
 112   6  -6.087880  -1.387137  -0.897918   0.008478   0.446666   0.018980
 113   6  -4.946497  -1.647575  -1.072327   0.007113   0.377948   0.018819
 114   6  -6.898531   3.102129  -0.513042   0.005659   0.343589   0.016472
 115   6  -6.802471  -0.483497   2.596972   0.000770   0.274871   0.002801
 116   6  -5.899281  -1.444392   2.353360   0.001618   0.309230   0.005233
 117   6  -4.178891  -1.903707   1.919590   0.002012   0.206154   0.009759
 118   6  -6.539286   2.784019   2.725480   0.002612   0.309230   0.008446
 119   6  -7.108189   1.730097   2.740198   0.002042   0.309230   0.006603
 120   6  -7.851182   1.728629   0.805091   0.006641   0.377948   0.017571
 121   6  -7.710796   1.230573   1.833518   0.004693   0.377948   0.012418
 122   6  -7.509741  -0.161168   1.693981   0.005226   0.481025   0.010865
 123   6  -7.431920  -0.644675   0.579122   0.005939   0.377948   0.015715
 124   6  -6.561234  -1.568392   0.474191   0.006862   0.412307   0.016642
 125   6  -5.733751  -1.971889   1.145423   0.005605   0.377948   0.014829
 126   6  -4.555240  -2.167535   0.998332   0.003601   0.240512   0.014971
 127   6  -4.666660  -2.103125  -0.025020   0.004513   0.206154   0.021893
 128   6  -5.956598   3.845911   1.784032   0.003751   0.274871   0.013647
 129   6  -6.661404   3.364048   1.845342   0.004516   0.309230   0.014605
 130   6  -7.285487   2.990566   0.858133   0.007832   0.412307   0.018995
 131   6  -7.176612   0.870937  -1.366335   0.005748   0.343589   0.016728
 132   6  -5.588410  -0.771910  -1.823832   0.005868   0.377948   0.015525
 133   6  -7.872620   0.510589   0.626062   0.006159   0.377948   0.016296
 134   6  -5.444672  -2.013821   0.003706   0.005783   0.309230   0.018701
 135   6  -6.564621   3.706588   0.602268   0.005606   0.343589   0.016317
 136   6  -6.740460  -1.240224   1.674816   0.004251   0.412307   0.010311
 137   6  -7.411145   2.368178   1.861536   0.005514   0.377948   0.014591
 138   7   6.434776   5.685427  -1.364493  -0.009138   0.471065  -0.019399
 139   7   5.771110   6.010732   0.928578  -0.006347   0.451437  -0.014059
 140   7   4.877675   7.249735  -0.963106  -0.007119   0.471065  -0.015113
 141   7   4.729545   5.789116  -2.863659  -0.006652   0.471065  -0.014121
 142   7   6.265573   4.502926  -1.934950  -0.006090   0.353299  -0.017239
 143   7   6.455952   4.237085   0.153825  -0.005599   0.333671  -0.016779
 144   7   6.047115   6.538528  -0.410965  -0.008976   0.490692  -0.018293
 145   7   5.639222   6.480198  -1.874489  -0.008839   0.490692  -0.018014
 146   7   5.682095   5.126924  -2.593079  -0.008474   0.471065  -0.017988
 147   7   6.582287   4.289141  -0.940893  -0.008061   0.412182  -0.019558
 148   7   6.556448   5.378992  -0.015862  -0.008149   0.451437  -0.018051
 149   7   5.145921   6.993023   0.282221  -0.005604   0.412182  -0.013596
 150   7   4.506039   6.848090  -2.104759  -0.004777   0.372926  -0.012809
 151   7   6.029196   4.703203   1.027127  -0.004802   0.392554  -0.012232
 152   8   2.257663   1.617020  -5.400267  -0.003128   0.451437  -0.006929
 153   8   1.491546   3.349153  -4.700178  -0.001792   0.372926  -0.004804
 154   8   1.174624   0.056002  -4.534335  -0.002187   0.353299  -0.006191
 155   8   3.102570   0.275806  -4.646988  -0.001594   0.372926  -0.004274
 156   8   3.572963   2.259924  -4.809391  -0.001797   0.412182  -0.004359
 157   8   1.301401   2.383838  -5.193990  -0.002866   0.412182  -0.006954
 158   8   1.145219   1.132815  -5.158840  -0.003066   0.412182  -0.007439
 159   8   2.083033   0.142142  -4.839401  -0.002323   0.412182  -0.005635
 160   8   3.338347   1.195126  -4.984194  -0.002292   0.431809  -0.005308
 161   8   2.647712   3.010162  -4.957189  -0.002563   0.510320  -0.005022
 162   9   5.789130  -0.645191   0.273308  -0.004113   0.588831  -0.006985
 163   9   5.305945   0.735766   1.637210  -0.001724   0.353299  -0.004879
 164   9   6.244722   1.029180  -0.152074  -0.002040   0.353299  -0.005775
 165   9   5.615413  -0.459531  -1.526560  -0.001455   0.372926  -0.003901
 166   9   4.379077  -1.683508  -0.562582  -0.002238   0.412182  -0.005431
 167   9   5.052591  -0.532952   1.415807  -0.003250   0.510320  -0.006370
 168   9   5.971095   0.745321   0.863036  -0.002691   0.471065  -0.005713
 169   9   6.174732   0.238044  -0.830332  -0.002287   0.471065  -0.004855
 170   9   5.230771  -1.213458  -0.942199  -0.002480   0.451437  -0.005493
 171   9   4.547558  -1.454851   0.621261  -0.002952   0.471065  -0.006267
 172  10  -0.438157  -3.528736  -0.664069  -0.003733   0.510320  -0.007316
 173  10   0.625003  -2.803876  -1.650683  -0.001575   0.274788  -0.005730
 174  10  -1.092447  -2.373931  -2.088081  -0.001863   0.353299  -0.005274
 175  10  -1.067520  -3.131703   1.113557  -0.002482   0.412182  -0.006021
 176  10   1.121146  -3.064283   0.391911  -0.001797   0.353299  -0.005087
 177  10  -0.231189  -2.770062  -1.945251  -0.002777   0.451437  -0.006151
 178  10  -1.595363  -2.967489  -1.139563  -0.003032   0.451437  -0.006717
 179  10  -1.449246  -3.306074   0.126255  -0.003138   0.451437  -0.006952
 180  10   0.115039  -3.393631   0.760798  -0.003140   0.510320  -0.006153
 181  10   0.830548  -3.235639  -0.672870  -0.002494   0.451437  -0.005524
 182  11   1.115392   4.741857   4.592290  -0.006686   0.333671  -0.020038
 183  11   2.088351   3.056053   5.290581  -0.003857   0.294415  -0.013102
 184  11   0.138233   3.555685   5.697570  -0.005011   0.333671  -0.015018
 185  11  -1.041184   4.308318   4.374203  -0.004903   0.294415  -0.016652
 186  11   1.152290   4.027251   5.379923  -0.005780   0.333671  -0.017322
 187  11   0.014609   4.508309   4.974486  -0.005663   0.333671  -0.016973
 188  11  -0.057459   4.945888   4.114201  -0.006388   0.294415  -0.021697
 189  11   2.060113   3.953155   4.847699  -0.005413   0.294415  -0.018387
 190  11   1.137273   3.108949   5.777802  -0.003820   0.294415  -0.012976
 191  11  -0.771501   3.812590   5.184490  -0.003816   0.294415  -0.012960
 192  11   2.689060   2.971597   4.549929  -0.003362   0.215905  -0.015572
 193  12  -2.450265   6.614173   0.239492  -0.003826   0.529948  -0.007219
 194  12  -3.190120   5.463854   1.905725  -0.001589   0.333671  -0.004762
 195  12  -4.145474   5.899005   0.422861  -0.001242   0.353299  -0.003515
 196  12  -3.043174   6.209195  -1.303791  -0.001065   0.294415  -0.003617
 197  12  -2.273611   6.123277   1.430078  -0.002916   0.412182  -0.007075
 198  12  -3.531250   6.024092   1.158689  -0.002064   0.412182  -0.005009
 199  12  -3.641071   6.290876  -0.464684  -0.002139   0.471065  -0.004542
 200  12  -2.160983   6.355940  -1.145407  -0.002084   0.392554  -0.005308
 201  13  -3.469704   2.073820  -4.879104  -0.002961   0.412182  -0.007184
 202  13  -4.139044   0.389525  -3.866020  -0.001715   0.392554  -0.004368
 203  13  -2.727792   0.087896  -4.093746  -0.002706   0.471065  -0.005744
 204  13  -2.690807   3.526375  -4.400927  -0.001926   0.392554  -0.004907
 205  13  -4.600779   2.654393  -4.064070  -0.001672   0.372926  -0.004485
 206  13  -3.537292   0.937499  -4.626695  -0.002327   0.353299  -0.006586
 207  13  -2.411042   1.106663  -4.774753  -0.003379   0.431809  -0.007824
 208  13  -2.363414   2.567113  -4.846080  -0.003551   0.451437  -0.007865
 209  13  -3.792868   3.235113  -4.377666  -0.001928   0.392554  -0.004913
 210  13  -4.606353   1.558252  -4.155705  -0.002955   0.471065  -0.006272
 211  14  -4.519283   0.904387   4.888246  -0.006476   0.333671  -0.019408
 212  14  -5.057311  -0.994424   3.733894  -0.003991   0.294415  -0.013555
 213  14  -6.085640   0.816117   4.140908  -0.005842   0.412182  -0.014174
 214  14  -4.761083   2.835748   3.962673  -0.006295   0.412182  -0.015271
 215  14  -5.127129   0.037201   4.569114  -0.006517   0.372926  -0.017475
 216  14  -5.283066   1.515699   4.630122  -0.005475   0.333671  -0.016410
 217  14  -4.383949   2.123962   4.602339  -0.005039   0.294415  -0.017114
 218  14  -4.364896  -0.535658   4.389477  -0.005218   0.294415  -0.017723
 219  14  -5.867228  -0.307836   3.865661  -0.003558   0.294415  -0.012083
 220  14  -5.815798   2.104332   4.015657  -0.003843   0.333671  -0.011519
 221  14  -4.197544  -1.286140   3.430163  -0.002764   0.215905  -0.012804
 222   1   3.870002   2.798318   2.551705   0.000963   0.111015   0.008678
 223   2   3.873894   2.326347   2.517090   0.000301   0.111015   0.002716
 224   4   3.350183   2.146176   3.129470   0.000214   0.111015   0.001929
 225   1   0.576140   4.882160  -2.828153   0.001149   0.113658   0.010109
 226   2   0.459248   4.486832  -3.060857   0.000218   0.113658   0.001920
 227   5  -0.373118   4.493540  -2.926368  -0.000268   0.113658  -0.002354
 228   1   3.595420   4.924146  -3.212140  -0.000194   0.038462  -0.005049
 229   2   3.550863   4.496095  -3.401753  -0.000181   0.038462  -0.004709
 230   7   3.899894   4.994853  -3.135307  -0.000499   0.038462  -0.012963
 231   1   5.382315   3.347129   1.191041  -0.000192   0.038462  -0.004983
 232   2   5.371899   2.888947   1.085556  -0.000216   0.038462  -0.005626
 233   7   5.576891   3.514825   0.997069  -0.000449   0.038462  -0.011662
 234   2   4.886443   2.520123   1.646000   0.000015   0.262822   0.000058
 235   1   4.655501   3.156192   1.967875   0.001750   0.240281   0.007282
 236   2   1.325837   4.543230  -3.400390   0.001069   0.215500   0.004959
 237   2   2.872551   4.391743  -3.630468  -0.000048   0.215500  -0.000223
 238   1   2.209777   5.041828  -3.150183   0.003898   0.417109   0.009345
 239   1   3.506229   2.983604   2.946595   0.000503   0.083936   0.005987
 240   4   3.077536   2.329856   3.591319  -0.000301   0.083936  -0.003585
 241  11   3.034744   2.647259   3.646217  -0.000618   0.083936  -0.007362
 242   4   3.281810   2.122167   3.599772   0.000141   0.046566   0.003018
 243   1   3.964574   3.073686   2.750153   0.000421   0.046566   0.009043
 244   1  -0.246799   5.731757  -1.829343   0.001395   0.091172   0.015305
 245   5  -1.225356   5.465049  -2.001419  -0.000151   0.091172  -0.001656
 246  12  -1.274002   5.658389  -1.768342  -0.000206   0.091172  -0.002257
 247   5  -1.023532   5.171233  -2.569205   0.000075   0.435596   0.000173
 248   1   0.437014   5.494646  -2.534481   0.004503   0.389227   0.011568
 249   7   4.004116   5.535840  -2.987893  -0.000621   0.083927  -0.007398
 250   7   3.871426   6.566734  -2.299960  -0.001843   0.182543  -0.010097
 251   7   4.035879   7.257071  -0.966800  -0.002227   0.182543  -0.012198
 252   7   4.523141   7.014381   0.441960  -0.002254   0.182543  -0.012345
 253   7   5.123762   5.942986   1.320761  -0.001961   0.182543  -0.010744
 254   7   5.579563   4.503425   1.291850  -0.001821   0.182543  -0.009975
 255   1   3.489647   5.899391  -2.800467  -0.000719   0.179477  -0.004004
 256   1   3.452664   7.054195  -1.645262  -0.000909   0.179477  -0.005063
 257   1   3.825801   7.310494  -0.075383  -0.001481   0.179477  -0.008253
 258   1   4.448665   6.558118   1.234353  -0.001286   0.179477  -0.007164
 259   1   5.053517   5.120477   1.720955  -0.000749   0.179477  -0.004172
 260   1   5.376733   3.859976   1.434246  -0.000369   0.096094  -0.003844
 261   1   0.138536   5.610442   1.932484   0.003226   0.265165   0.012167
 262  11  -0.217143   5.121983   2.624248  -0.003195   0.265165  -0.012049
 263  12  -0.883449   5.442921   1.827741  -0.000804   0.265165  -0.003031
 264  11   3.042216   3.070856   3.836709  -0.001519   0.212374  -0.007151
 265  11   2.488848   4.123594   4.022670  -0.005386   0.427865  -0.012588
 266  11   1.347537   5.013591   3.791971  -0.006067   0.427865  -0.014179
 267  11   0.279622   5.225131   3.278291  -0.003121   0.212374  -0.014696
 268   1   3.632081   4.023287   3.018917   0.005807   0.518680   0.011196
 269   1   2.660432   5.304254   3.073372   0.006128   0.518680   0.011814
 270   1   1.255366   5.876653   2.538499   0.006326   0.518680   0.012195
 271  12  -1.265389   6.021780   1.385238  -0.000469   0.229752  -0.002039
 272  12  -1.303547   6.443882   0.297578  -0.000943   0.461602  -0.002043
 273  12  -1.322170   6.225765  -1.107955  -0.000556   0.461602  -0.001204
 274   1   0.184397   6.471476   1.057436   0.008017   0.568857   0.014092
 275   1   0.143850   6.731951  -0.486117   0.008246   0.568857   0.014496
 276   1   0.138143   6.293831  -1.682625   0.004022   0.286298   0.014048
 277   2   0.781025  -0.595795  -3.413060  -0.000263   0.027083  -0.009718
 278   3   0.378805  -0.741310  -3.165415  -0.000302   0.027083  -0.011153
 279   8   0.851316  -0.415811  -3.646490  -0.000230   0.027083  -0.008478
 280   2   0.771825  -1.167050  -2.874156  -0.000322   0.028964  -0.011112
 281   3   0.358539  -1.365557  -2.689398  -0.000292   0.028964  -0.010096
 282  10   0.293729  -1.615461  -2.533076  -0.000275   0.028964  -0.009489
 283   3   0.242971  -1.089549  -2.939971  -0.000429   0.075732  -0.005662
 284   2   0.880274  -0.905406  -3.205192  -0.000387   0.075732  -0.005110
 285   2   4.100392   1.215002   2.348225  -0.000016   0.059249  -0.000273
 286   4   3.562584   1.065101   2.953896   0.000582   0.059249   0.009820
 287   9   4.266580   0.998939   2.214677  -0.000186   0.059249  -0.003140
 288   4   3.367630   1.396573   3.484234   0.001561   0.203749   0.007661
 289   2   4.025485   1.785107   2.567788   0.000372   0.225073   0.001651
 290   2   0.375016   3.713525  -3.682263  -0.000299   0.066867  -0.004466
 291   5  -0.454438   3.718400  -3.540181  -0.000490   0.066867  -0.007332
 292   8   0.463149   3.513517  -3.894471  -0.000419   0.066867  -0.006273
 293   5  -0.850402   4.264259  -3.332989  -0.000459   0.178109  -0.002578
 294   2   0.330049   4.084811  -3.516678  -0.000104   0.178109  -0.000582
 295   2   5.512569   2.474671   0.879930  -0.000230   0.026824  -0.008561
 296   7   5.642522   3.113026   0.755607  -0.000388   0.026824  -0.014464
 297   9   5.579137   2.182188   0.843743  -0.000226   0.026824  -0.008424
 298   2   5.987493   2.311603  -0.699670  -0.000432   0.026824  -0.016099
 299   7   6.064201   2.968241  -0.646899  -0.000695   0.026824  -0.025899
 300   9   6.006879   2.035321  -0.578925  -0.000288   0.026824  -0.010736
 301   7   5.768417   3.546270   0.908468  -0.000286   0.035142  -0.008136
 302   2   5.513483   2.640137   1.006711  -0.000083   0.042934  -0.001928
 303   7   6.242412   3.414132  -0.996749  -0.002899   0.177563  -0.016325
 304   7   5.804575   3.809146  -2.168031  -0.006844   0.366955  -0.018651
 305   7   4.723203   4.594740  -3.020383  -0.005367   0.366955  -0.014625
 306   2   5.861629   2.659186  -1.639440  -0.004282   0.421359  -0.010163
 307   2   4.991694   3.356627  -3.027984  -0.004001   0.421359  -0.009495
 308   2   3.883975   4.128601  -3.549310  -0.000879   0.216932  -0.004053
 309   8   1.086940   3.610074  -4.184800  -0.000379   0.066820  -0.005666
 310   8   2.155199   3.722551  -4.282578  -0.000834   0.147317  -0.005662
 311   8   3.348276   3.195336  -4.348825  -0.000929   0.147317  -0.006309
 312   8   4.002675   2.065214  -4.329829  -0.000802   0.147317  -0.005444
 313   8   3.864837   0.770072  -4.232950  -0.000690   0.147317  -0.004681
 314   8   2.988170  -0.188259  -4.095725  -0.000932   0.147317  -0.006324
 315   8   1.712356  -0.438457  -3.971326  -0.001019   0.147317  -0.006918
 316   2   1.468859   3.958898  -3.902923  -0.000692   0.147474  -0.004695
 317   2   2.924690   3.812732  -4.016472  -0.000763   0.147474  -0.005172
 318   2   4.016897   2.832933  -4.044406  -0.000839   0.147474  -0.005692
 319   2   4.322282   1.399144  -3.975902  -0.000609   0.147474  -0.004133
 320   2   3.722518   0.066917  -3.837503  -0.000595   0.147474  -0.004035
 321   2   2.449995  -0.647552  -3.682834  -0.000854   0.147474  -0.005789
 322   2   1.263679  -0.648156  -3.582429  -0.000470   0.081635  -0.005760
 323   2   2.838638  -1.869903  -0.466853  -0.000263   0.033369  -0.007881
 324   9   3.113876  -1.800939  -0.362820  -0.000317   0.033369  -0.009488
 325  10   2.180508  -2.167305  -0.317146  -0.000312   0.033369  -0.009353
 326   9   5.480758   1.658426   1.198069  -0.000436   0.080632  -0.005413
 327   9   4.880236   1.164292   1.837759  -0.000428   0.080632  -0.005303
 328   2   4.970796   1.750733   1.583205  -0.001001   0.170578  -0.005869
 329   9   3.693579  -1.737319  -0.630336  -0.000485   0.070013  -0.006924
 330   9   4.306393  -1.340238  -1.490871  -0.000939   0.155956  -0.006023
 331   9   5.170916  -0.399954  -1.967999  -0.000816   0.155956  -0.005232
 332   9   5.848391   0.722690  -1.593986  -0.000842   0.155956  -0.005399
 333   9   6.095618   1.476194  -0.790963  -0.000442   0.070013  -0.006309
 334   2   3.561767  -1.621620  -1.205876  -0.001038   0.152985  -0.006787
 335   2   4.481266  -0.850780  -2.157741  -0.000691   0.152985  -0.004515
 336   2   5.397497   0.374978  -2.219010  -0.000642   0.152985  -0.004194
 337   2   5.919815   1.533040  -1.363562  -0.000986   0.152985  -0.006447
 338  10   0.518063  -1.969869  -2.295671  -0.001375   0.204856  -0.006713
 339  10   1.395560  -2.413367  -1.159003  -0.003627   0.421050  -0.008613
 340   2   1.686221  -1.597630  -2.348137  -0.003168   0.559812  -0.005658
 341   2   2.595502  -2.000469  -0.958665  -0.001075   0.288870  -0.003721
 342   3  -2.193339  -1.734944   2.289039   0.000004   0.111134   0.000036
 343   4  -2.095546  -1.607506   2.735814   0.000632   0.111134   0.005687
 344   6  -2.996308  -1.552113   2.277616   0.000029   0.111134   0.000263
 345   3   2.553812  -1.391880   1.828684   0.000209   0.092128   0.002264
 346   4   2.501337  -1.266542   2.282164   0.000915   0.092128   0.009937
 347   9   3.201881  -1.175847   1.540778  -0.000208   0.092128  -0.002262
 348   3  -1.131385  -2.309222   2.168324  -0.000023   0.015933  -0.001414
 349   4  -1.050435  -2.162310   2.608579   0.000169   0.015933   0.010612
 350  10  -1.078675  -2.474882   1.922091  -0.000077   0.015933  -0.004864
 351   3   0.650947  -2.434139   2.035768   0.000030   0.015933   0.001897
 352   4   0.656859  -2.281968   2.481604   0.000226   0.015933   0.014214
 353  10   0.540098  -2.588336   1.801699  -0.000055   0.015933  -0.003459
 354   4   1.343625  -1.917806   2.763384   0.003206   0.266848   0.012015
 355   3   1.666226  -1.911062   2.068806   0.001205   0.291840   0.004129
 356   4  -1.472307  -1.906062   2.982116   0.001087   0.113351   0.009592
 357   3  -1.451804  -2.133008   2.322781   0.000199   0.124024   0.001601
 358   3  -1.458672  -1.243787  -2.529189  -0.000215   0.029140  -0.007371
 359   5  -1.869926  -0.990190  -2.641436  -0.000219   0.029140  -0.007508
 360  10  -1.401297  -1.501869  -2.383610  -0.000314   0.029140  -0.010785
 361   3  -1.557394  -0.707399  -2.928403  -0.000213   0.026367  -0.008086
 362   5  -1.976591  -0.508452  -3.103478  -0.000200   0.026367  -0.007573
 363  13  -2.069812  -0.326782  -3.325100  -0.000241   0.026367  -0.009123
 364   5  -1.995959  -0.710052  -2.959510  -0.000196   0.052930  -0.003696
 365   3  -1.432562  -1.074497  -2.715990  -0.000187   0.052930  -0.003540
 366   3  -2.232135  -2.094420   1.567746  -0.000121   0.061478  -0.001972
 367   6  -3.029726  -1.896580   1.562448   0.000430   0.061478   0.006996
 368  10  -2.120336  -2.273696   1.350619  -0.000252   0.061478  -0.004104
 369   6  -3.477201  -1.849725   1.918387   0.000698   0.114321   0.006105
 370   3  -2.304460  -1.997921   1.969293   0.000105   0.126277   0.000834
 371   3  -0.540091  -0.163319  -3.355620  -0.001335   0.165952  -0.008042
 372   8  -0.010400   0.175324  -3.769936  -0.001396   0.165952  -0.008413
 373  13  -1.102746   0.230827  -3.670492  -0.001309   0.165952  -0.007888
 374   8   0.730327  -0.206369  -3.885461  -0.000864   0.123350  -0.007004
 375   3  -0.101978  -0.629276  -3.265703  -0.000703   0.173955  -0.004041
 376   3   2.231885  -2.105908   0.222234  -0.000238   0.034015  -0.006989
 377   9   2.899918  -1.826672   0.071118  -0.000318   0.034015  -0.009349
 378  10   2.001950  -2.272402   0.120807  -0.000283   0.034015  -0.008308
 379   9   3.554165  -1.472388   0.786862  -0.001910   0.277416  -0.006885
 380   3   2.499860  -1.880132   0.850386  -0.000933   0.390688  -0.002388
 381  10   1.507324  -2.649875   0.465148  -0.000511   0.089534  -0.005705
 382  10   0.791577  -2.779387   1.311924  -0.000399   0.089534  -0.004453
 383   3   1.341285  -2.434857   1.093477  -0.001192   0.183934  -0.006482
 384  10  -1.364808  -2.640219   1.525143  -0.000410   0.070275  -0.005831
 385   3  -1.601947  -2.331285   1.765984  -0.000357   0.085856  -0.004163
 386  10  -0.715169  -1.812500  -2.379901  -0.000933   0.124524  -0.007494
 387   3  -0.433020  -1.447055  -2.588000  -0.001131   0.152133  -0.007436
 388  13  -1.834300  -0.023621  -3.675734  -0.000955   0.150016  -0.006367
 389   3  -1.137309  -0.690956  -3.093402  -0.000757   0.211470  -0.003578
 390   4  -2.512098  -1.407329   2.952184   0.000257   0.081240   0.003158
 391   6  -3.428494  -1.454841   2.528110  -0.000312   0.081240  -0.003840
 392  14  -3.393184  -1.351379   2.833591  -0.000633   0.081240  -0.007789
 393   6  -3.422117  -1.681859   2.398916   0.000088   0.025650   0.003446
 394   4  -2.131221  -1.698695   3.043823   0.000195   0.025650   0.007588
 395   9   4.417589   0.562896   2.230477  -0.000335   0.257324  -0.001300
 396   9   3.998789  -0.615132   1.859487  -0.001304   0.517979  -0.002518
 397   4   3.324265   0.109962   3.241149   0.007131   0.635659   0.011218
 398   4   2.795489  -1.116359   2.749859   0.003086   0.320339   0.009634
 399  10   0.195889  -2.759147   1.771128  -0.000501   0.187797  -0.002668
 400  10  -0.769777  -2.691467   1.842946  -0.000568   0.187797  -0.003022
 401   4  -0.182856  -2.291377   2.797666   0.002955   0.452080   0.006536
 402   4  -2.134168   3.048894   4.292329   0.000135   0.044410   0.003046
 403  11  -1.898911   3.268392   4.283978  -0.000136   0.044410  -0.003072
 404  14  -2.954197   2.841809   4.018861  -0.000298   0.044410  -0.006718
 405  11  -1.389388   3.478665   4.751841  -0.000759   0.080604  -0.009421
 406  11  -0.585075   3.051273   5.529085  -0.002054   0.173960  -0.011805
 407  11   0.766298   2.602994   5.823004  -0.002206   0.173960  -0.012681
 408  11   2.081221   2.399201   5.237343  -0.001960   0.173960  -0.011266
 409  11   2.814144   2.450645   4.291897  -0.000661   0.080604  -0.008199
 410   4  -1.354117   2.932977   5.093159  -0.000777   0.173201  -0.004485
 411   4  -0.097239   2.383603   5.863275  -0.001312   0.173201  -0.007575
 412   4   1.422266   2.011992   5.697013  -0.001260   0.173201  -0.007277
 413   4   2.604257   1.964913   4.660040  -0.000853   0.173201  -0.004927
 414  14  -3.430870  -1.309190   3.295924  -0.001588   0.211784  -0.007498
 415  14  -3.560072  -0.590341   4.273571  -0.005091   0.426964  -0.011924
 416  14  -3.642985   0.772106   4.858073  -0.005777   0.426964  -0.013530
 417  14  -3.606451   2.213500   4.503351  -0.005539   0.426964  -0.012972
 418   4  -2.239487  -1.248800   3.960490   0.005403   0.516243   0.010465
 419   4  -2.385017  -0.039663   5.042683   0.006626   0.516243   0.012835
 420   4  -2.411873   1.583886   5.175736   0.005166   0.516243   0.010007
 421   4  -2.347078   2.782949   4.611218   0.001422   0.260420   0.005459
 422   5  -3.233736  -1.450537  -1.486638   0.000203   0.093267   0.002172
 423   6  -3.604804  -1.531747  -1.207316   0.000884   0.093267   0.009477
 424  10  -2.651422  -1.853400  -1.269375  -0.000244   0.093267  -0.002619
 425   5  -5.427507   1.341356  -2.815814  -0.000005   0.012267  -0.000398
 426   6  -5.720545   1.159271  -2.498081   0.000099   0.012267   0.008046
 427  13  -5.245000   1.359676  -3.054463  -0.000085   0.012267  -0.006889
 428   5  -4.764673   0.115293  -2.777772   0.000045   0.012267   0.003667
 429   6  -5.085738  -0.014950  -2.461648   0.000201   0.012267   0.016403
 430  13  -4.643151   0.246419  -3.019921  -0.000038   0.012267  -0.003122
 431   5  -4.177524   3.826639   2.602226  -0.000153   0.039001  -0.003924
 432   6  -4.545194   3.586458   2.769015  -0.000162   0.039001  -0.004155
 433  14  -4.461482   3.414243   3.028546  -0.000456   0.039001  -0.011685
 434   6  -4.867429   3.859130   2.329158   0.000701   0.180648   0.003879
 435   6  -5.807054   3.975730   0.766470   0.005406   0.378133   0.014295
 436   6  -6.346841   2.970307  -1.129119   0.005016   0.378133   0.013266
 437   6  -6.146450   1.476788  -2.162428   0.001656   0.180648   0.009170
 438   5  -4.754219   4.344834   1.495019   0.001540   0.387988   0.003969
 439   5  -5.737420   4.011647  -0.563697   0.002932   0.387988   0.007556
 440   5  -5.805718   2.386281  -2.197568   0.001470   0.387988   0.003790
 441   6  -5.093103  -0.496966  -2.125557   0.001704   0.161242   0.010565
 442   6  -4.330491  -1.296745  -1.513395   0.002238   0.161242   0.013880
 443   5  -4.193963  -0.687629  -2.191227   0.001594   0.346468   0.004600
 444   5  -1.022065   3.546829  -3.736229  -0.000564   0.088204  -0.006390
 445   8  -0.088925   3.247934  -3.955163  -0.000589   0.088204  -0.006676
 446  13  -1.176834   3.362671  -3.922832  -0.000629   0.088204  -0.007137
 447   8   0.481609   3.413723  -4.157522  -0.000137   0.044980  -0.003049
 448   5  -0.878259   3.821986  -3.732668   0.000016   0.063930   0.000248
 449  10  -1.901184  -1.974346  -1.762446  -0.002108   0.293758  -0.007177
 450   5  -2.496396  -1.189434  -2.325174  -0.001061   0.413603  -0.002566
 451   5  -2.524986   4.374304   2.647087  -0.000530   0.081479  -0.006508
 452  11  -1.770625   4.246029   3.216677  -0.000965   0.081479  -0.011843
 453  12  -2.468835   4.631573   2.491600  -0.000525   0.081479  -0.006442
 454   5  -2.901584   3.637815   3.073595  -0.001343   0.188851  -0.007111
 455  11  -2.133461   3.544385   3.639152  -0.000799   0.188851  -0.004231
 456  14  -3.237070   3.198586   3.441100  -0.002251   0.188851  -0.011919
 457  11  -1.597408   4.095279   3.823326  -0.001078   0.107719  -0.010012
 458   5  -2.719091   4.136356   2.967820  -0.000212   0.152377  -0.001394
 459  12  -2.002316   5.758892  -1.876170  -0.000292   0.068758  -0.004249
 460  12  -3.099085   5.780719  -1.726704  -0.000642   0.152418  -0.004213
 461  12  -4.152364   5.654957  -0.909678  -0.000613   0.152418  -0.004021
 462  12  -4.491102   5.395279   0.359405  -0.000691   0.152418  -0.004535
 463  12  -3.976825   5.107837   1.561754  -0.000665   0.152418  -0.004364
 464  12  -3.089992   4.925072   2.198810  -0.000407   0.068758  -0.005918
 465   5  -2.451535   5.502043  -2.173402  -0.000476   0.150959  -0.003153
 466   5  -3.868701   5.462800  -1.670684  -0.000405   0.150959  -0.002685
 467   5  -4.693924   5.234302  -0.433987  -0.000466   0.150959  -0.003089
 468   5  -4.589860   4.909955   1.031140  -0.000420   0.150959  -0.002781
 469   5  -3.599049   4.622350   2.125764  -0.000687   0.150959  -0.004550
 470  13  -2.597175  -0.257579  -3.519681  -0.000381   0.076322  -0.004987
 471  13  -3.795613  -0.032950  -3.384393  -0.001069   0.173843  -0.006147
 472   5  -3.038376  -0.427081  -3.106780  -0.000991   0.163312  -0.006067
 473   5  -4.333453  -0.056533  -2.973674  -0.000214   0.093244  -0.002295
 474  13  -5.104513   1.725051  -3.391588  -0.000361   0.073092  -0.004936
 475  13  -4.792447   2.850908  -3.548138  -0.000927   0.164695  -0.005629
 476  13  -3.738406   3.774215  -3.781945  -0.000820   0.164695  -0.004980
 477  13  -2.330397   3.793178  -3.969868  -0.001102   0.164695  -0.006689
 478   5  -5.225237   2.247336  -3.091883  -0.000795   0.157967  -0.005033
 479   5  -4.472159   3.632584  -3.333257  -0.000704   0.157967  -0.004459
 480   5  -3.001152   4.195565  -3.585229  -0.000622   0.157967  -0.003940
 481   5  -1.733709   3.939337  -3.726395  -0.000497   0.089298  -0.005562
 482  14  -4.035365   3.299861   3.387427  -0.001873   0.154530  -0.012120
 483   5  -3.730057   3.924920   2.743273  -0.000734   0.188792  -0.003886
 484  10  -2.204535  -2.575786   0.974955  -0.000559   0.277102  -0.002017
 485  10  -2.421083  -2.494502  -0.417242  -0.001909   0.558984  -0.003416
 486   6  -3.665775  -2.140990   0.706268   0.007528   0.682596   0.011029
 487   6  -3.833513  -1.918984  -0.807297   0.003639   0.344373   0.010566
 488  13  -4.859347   0.692349  -3.206294  -0.001026   0.291538  -0.003520
 489   6  -5.670970   0.567888  -2.433253   0.002412   0.355306   0.006790
 490  14  -4.904466   3.170238   3.318171  -0.000562   0.087859  -0.006400
 491  14  -5.919209   2.375936   3.474180  -0.001828   0.192610  -0.009488
 492  14  -6.447633   0.898368   3.489936  -0.002328   0.192610  -0.012087
 493  14  -5.924116  -0.567993   3.293970  -0.002389   0.192610  -0.012401
 494  14  -4.593450  -1.337490   2.977916  -0.001850   0.192610  -0.009603
 495   6  -5.493781   3.079470   3.007154  -0.000581   0.187070  -0.003104
 496   6  -6.565117   1.770042   3.142884  -0.000883   0.187070  -0.004719
 497   6  -6.567941   0.075928   3.039181  -0.001432   0.187070  -0.007653
 498   6  -5.500933  -1.210720   2.744533  -0.001109   0.187070  -0.005930
 499   6  -4.206032  -1.618699   2.457952  -0.000307   0.100596  -0.003053
 500   9   6.131744   1.940288  -0.222368  -0.000855   0.233396  -0.003663
 501   9   5.872869   2.029174   0.638649  -0.000796   0.233396  -0.003410
 502   7   6.105312   3.313998   0.101886  -0.005388   0.467081  -0.011536
 503  13  -1.249769   3.169845  -4.327076  -0.000623   0.247271  -0.002521
 504  13  -1.334177   2.134367  -4.680332  -0.002227   0.494350  -0.004504
 505  13  -1.374685   0.825213  -4.397525  -0.002047   0.494350  -0.004140
 506   8   0.273530   2.705418  -4.629569  -0.001816   0.494350  -0.003673
 507   8   0.191821   1.377642  -4.790311  -0.002037   0.494350  -0.004121
 508   8   0.181802   0.375787  -4.342748  -0.000694   0.247271  -0.002807
 509  10   1.982069  -2.505885  -0.112966  -0.000147   0.108021  -0.001359
 510   9   3.292534  -1.921547  -0.112331  -0.000192   0.108021  -0.001780
 511  12  -2.296856   5.059489   2.472490  -0.000615   0.260083  -0.002363
 512  12  -1.631834   5.526240   2.109134  -0.000837   0.260083  -0.003217
 513  11  -1.008673   4.786401   3.389322  -0.005755   0.520074  -0.011065
 514  14  -3.456819   3.062336   3.961156  -0.000751   0.135036  -0.005565
 515  11  -1.906285   3.647966   4.225904  -0.000178   0.135036  -0.001314
 =====================================================

              2351670  WORDS OF DYNAMIC MEMORY USED
 EXECUTION OF GAMESS TERMINATED NORMALLY Thu Nov 24 06:04:51 2016
 DDI: 263640 bytes (0.3 MB / 0 MWords) used by master data server.

 ----------------------------------------
 CPU timing information for all processes
 ========================================
 0: 945.708 + 0.488 = 946.196
 ----------------------------------------
 ddikick.x: exited gracefully.
