----- GAMESS execution script -----

          ******************************************************
          *         GAMESS VERSION =  5 DEC 2014 (R1)          *
          *             FROM IOWA STATE UNIVERSITY             *
          * M.W.SCHMIDT, K.K.BALDRIDGE, J.A.BOATZ, S.T.ELBERT, *
          *   M.S.GORDON, J.H.JENSEN, S.KOSEKI, N.MATSUNAGA,   *
          *          K.A.NGUYEN, S.J.SU, T.L.WINDUS,           *
          *       TOGETHER WITH M.DUPUIS, J.A.MONTGOMERY       *
          *         J.COMPUT.CHEM.  14, 1347-1363(1993)        *
          **************** 64 BIT LINUX VERSION ****************

 EXECUTION OF GAMESS BEGUN Thu Nov 24 07:21:00 2016

            ECHO OF THE FIRST FEW INPUT CARDS -
 INPUT CARD>! SELECT RESTRICTED HARTREE-FOCK AS DEFAULT                                     
 INPUT CARD>$contrl scftyp=rhf $end                                                         
 INPUT CARD>                                                                                
 INPUT CARD>! THEORY: HF OR DFT                                                             
 INPUT CARD> $contrl mplevl=0 $end                                                          
 INPUT CARD>                                                                                
 INPUT CARD> $system timlim=10000 mwords=20 $end                                            
 INPUT CARD> $SCF DIRSCF=.TRUE. $end                                                        
 INPUT CARD>                                                                                
 INPUT CARD>                                                                                
 INPUT CARD>! BASIS SETS                                                                    
 INPUT CARD>! 6-311G(d,p)                                                                   
 INPUT CARD> $BASIS GBASIS=N311 NGAUSS=6 NDFUNC=1 NPFUNC=1 $END                             
 INPUT CARD>                                                                                
 INPUT CARD>! One of the following                                                          
 INPUT CARD> $guess guess=HUCKEL $end                                                       
 INPUT CARD>                                                                                
 INPUT CARD> $statpt projct=.FALSE. $end                                                    
 INPUT CARD> $STATPT IFREEZ(1)=1,2,3 $END                                                   
 INPUT CARD>                                                                                
 INPUT CARD>! Optimize the geometry with COSMO effects                                      
 INPUT CARD> $statpt opttol=0.0005 nstep=50 $end                                            
 INPUT CARD> $contrl nzvar=1 $end                                                           
 INPUT CARD> $zmat dlc=.t. auto=.t. $end                                                    
 INPUT CARD> $contrl runtyp=OPTIMIZE maxit=200 $end                                         
 INPUT CARD>                                                                                
 INPUT CARD>! Run COSMO on perfect conductor                                                
 INPUT CARD> $COSGMS PRFCND=.TRUE. $end                                                     
 INPUT CARD>                                                                                
 INPUT CARD>! Specifying RSOLV                                                              
 INPUT CARD> $COSGMS COSRAD = 1.4 $end                                                      
 INPUT CARD>                                                                                
 INPUT CARD>! available memory                                                              
 INPUT CARD> $SYSTEM MWORDS=40 $END                                                         
 INPUT CARD>                                                                                
 INPUT CARD> $DATA                                                                          
 INPUT CARD>http://cactus.nci.nih.gov/chemical/structure/HEXAFLUOROISOPROPANOL/file?format=s
 INPUT CARD>C1                                                                              
 INPUT CARD>F      9.0     -1.3465000000   -1.5596000000   -0.0982000000                    
 INPUT CARD>C      6.0     -1.3130000000   -0.2856000000    0.4789000000                    
 INPUT CARD>C      6.0     -0.1837000000    0.5309000000   -0.1526000000                    
 INPUT CARD>C      6.0      1.1525000000   -0.1741000000    0.0897000000                    
 INPUT CARD>F      9.0      1.1190000000   -1.4480000000   -0.4874000000                    
 INPUT CARD>F      9.0      2.1851000000    0.5725000000   -0.4877000000                    
 INPUT CARD>F      9.0      1.3750000000   -0.2912000000    1.4660000000                    
 INPUT CARD>O      8.0     -0.4110000000    0.6506000000   -1.5583000000                    
 INPUT CARD>F      9.0     -0.1502000000    1.8049000000    0.4245000000                    
 INPUT CARD>F      9.0     -2.5347000000    0.3590000000    0.2573000000                    
 INPUT CARD>H      1.0     -1.1396000000   -0.3769000000    1.5511000000                    
 INPUT CARD>H      1.0     -0.4462000000   -0.1959000000   -2.0245000000                    
   40000000 WORDS OF MEMORY AVAILABLE

     BASIS OPTIONS
     -------------
     GBASIS=N311         IGAUSS=       6      POLAR=POPN311 
     NDFUNC=       1     NFFUNC=       0     DIFFSP=       F
     NPFUNC=       1      DIFFS=       F     BASNAM=        


     RUN TITLE
     ---------
 http://cactus.nci.nih.gov/chemical/structure/HEXAFLUOROISOPROPANOL/file?format=s

 THE POINT GROUP OF THE MOLECULE IS C1      
 THE ORDER OF THE PRINCIPAL AXIS IS     0

 ATOM      ATOMIC                      COORDINATES (BOHR)
           CHARGE         X                   Y                   Z
 F           9.0    -2.5445160425       -2.9472166505       -0.1855710920
 C           6.0    -2.4812102219       -0.5397057421        0.9049897755
 C           6.0    -0.3471426639        1.0032555269       -0.2883721857
 C           6.0     2.1779092008       -0.3290012945        0.1695084211
 F           9.0     2.1146033803       -2.7363232302       -0.9210524464
 F           9.0     4.1292402558        1.0818681280       -0.9216193642
 F           9.0     2.5983732331       -0.5502882076        2.7703382980
 O           8.0    -0.7766773810        1.2294557276       -2.9447600067
 F           9.0    -0.2838368434        3.4107664352        0.8021886818
 F           9.0    -4.7898884611        0.6784116296        0.4862264966
 H           1.0    -2.1535317356       -0.7122377248        2.9311539796
 H           1.0    -0.8431957357       -0.3701973210       -3.8257502621

          INTERNUCLEAR DISTANCES (ANGS.)




     $CONTRL OPTIONS
     ---------------
 SCFTYP=RHF          RUNTYP=OPTIMIZE     EXETYP=RUN     
 MPLEVL=       0     CITYP =NONE         CCTYP =NONE         VBTYP =NONE    
 DFTTYP=NONE         TDDFT =NONE    
 MULT  =       1     ICHARG=       0     NZVAR =       1     COORD =UNIQUE  
 PP    =NONE         RELWFN=NONE         LOCAL =NONE         NUMGRD=       F
 ISPHER=      -1     NOSYM =       0     MAXIT =     200     UNITS =ANGS    
 PLTORB=       F     MOLPLT=       F     AIMPAC=       F     FRIEND=        
 NPRINT=       7     IREST =       0     GEOM  =INPUT   
 NORMF =       0     NORMP =       0     ITOL  =      20     ICUT  =       9
 INTTYP=BEST         GRDTYP=BEST         QMTTOL= 1.0E-06

     $SYSTEM OPTIONS
     ---------------
  REPLICATED MEMORY=    40000000 WORDS (ON EVERY NODE).
 DISTRIBUTED MEMDDI=           0 MILLION WORDS IN AGGREGATE,
 MEMDDI DISTRIBUTED OVER   1 PROCESSORS IS           0 WORDS/PROCESSOR.
 TOTAL MEMORY REQUESTED ON EACH PROCESSOR=    40000000 WORDS.
 TIMLIM=       10000.00 MINUTES, OR       6.9 DAYS.
 PARALL= F  BALTYP=  DLB     KDIAG=    0  COREFL= F
 MXSEQ2=     300 MXSEQ3=     150  mem10=         0

     $COSGMS OPTIONS
     ---------------
     EPSI  =   INFTY     NSPA  =      92     COSRAD=    1.40
     DISEX =   10.00     OUTCHG=DBLCAV       COSBUG=       F
     COSWRT=       F     DCOSMO=       F

     SYMMETRY COORDINATES WILL NOT BE USED FOR 
     THE COSMO CALCULATION, EVEN IF SPECIFIED:
         -- SWITCHING TO C1 POINT GROUP --


     DEFINITION OF CAVITY
     ---------------------------
     ATOM         COORDINATES           RADIUS 
     1   -2.5445   -2.9472   -0.1856    1.7200
     2   -2.4812   -0.5397    0.9050    2.0000
     3   -0.3471    1.0033   -0.2884    2.0000
     4    2.1779   -0.3290    0.1695    2.0000
     5    2.1146   -2.7363   -0.9211    1.7200
     6    4.1292    1.0819   -0.9216    1.7200
     7    2.5984   -0.5503    2.7703    1.7200
     8   -0.7767    1.2295   -2.9448    1.7200
     9   -0.2838    3.4108    0.8022    1.7200
    10   -4.7899    0.6784    0.4862    1.7200
    11   -2.1535   -0.7122    2.9312    1.3000
    12   -0.8432   -0.3702   -3.8258    1.3000

          ----------------
          PROPERTIES INPUT
          ----------------

     MOMENTS            FIELD           POTENTIAL          DENSITY
 IEMOM =       1   IEFLD =       0   IEPOT =       0   IEDEN =       0
 WHERE =COMASS     WHERE =NUCLEI     WHERE =NUCLEI     WHERE =NUCLEI  
 OUTPUT=BOTH       OUTPUT=BOTH       OUTPUT=BOTH       OUTPUT=BOTH    
 IEMINT=       0   IEFINT=       0                     IEDINT=       0
                                                       MORB  =       0
          EXTRAPOLATION IN EFFECT
          SOSCF IN EFFECT
 ORBITAL PRINTING OPTION: NPREO=     1   202     2     1

     -------------------------------
     INTEGRAL TRANSFORMATION OPTIONS
     -------------------------------
     NWORD  =            0
     CUTOFF = 1.0E-09     MPTRAN =       0
     DIRTRF =       T     AOINTS =DUP     

          ----------------------
          INTEGRAL INPUT OPTIONS
          ----------------------
 NOPK  =       1 NORDER=       0 SCHWRZ=       T


 -----------------------------------------------
  STATISTICS ON AUTOMATIC COORDINATE GENERATION 
 -----------------------------------------------
  NUMBER OF USER SPECIFIED BONDS                             0
  NUMBER OF BONDS                                           11
  NUMBER OF ANGLES                                          19
  NUMBER OF TORSIONS                                        21
  NUMBER OF EXTRA COORD.                                     0
  NUMBER OF EXTRA COORD. FOR CONSTRAINTS                     0
  NUMBER OF CONSTRAINED COORD.                               0

  TOTAL NUMBER OF PRIMITIVES                                51
 -----------------------------------------------

   --- ENCODED Z MATRIX ---
 COORD  TYPE   I   J   K   L   M   N
    1      1    1   2
    2      1    2  10
    3      1    2  11
    4      1    2   3
    5      1    3   4
    6      1    3   8
    7      1    3   9
    8      1    4   7
    9      1    4   6
   10      1    4   5
   11      1    8  12
   12      2    1   2  10
   13      2    1   2   3
   14      2    1   2  11
   15      2    2   3   4
   16      2    2   3   9
   17      2    2   3   8
   18      2    3   4   5
   19      2    3   4   7
   20      2    3   2  11
   21      2    3   2  10
   22      2    3   8  12
   23      2    3   4   6
   24      2    4   3   9
   25      2    4   3   8
   26      2    5   4   6
   27      2    5   4   7
   28      2    6   4   7
   29      2    8   3   9
   30      2   10   2  11
   31      3    1   2   3   9
   32      3    1   2   3   4
   33      3    1   2   3   8
   34      3    2   3   4   7
   35      3    2   3   4   5
   36      3    2   3   8  12
   37      3    2   3   4   6
   38      3    4   3   8  12
   39      3    4   3   2  11
   40      3    4   3   2  10
   41      3    5   4   3   9
   42      3    5   4   3   8
   43      3    6   4   3   9
   44      3    6   4   3   8
   45      3    7   4   3   9
   46      3    7   4   3   8
   47      3    8   3   2  11
   48      3    8   3   2  10
   49      3    9   3   8  12
   50      3    9   3   2  11
   51      3    9   3   2  10

          INDEP./SYM. INTERNAL COORDINATES
          --------------------------------
 CRD  1=   0.1182 (  4)  0.1276 (  5)  0.1588 ( 13)  0.6206 ( 15) -0.1746 ( 16)
          -0.2226 ( 17)  0.1463 ( 18)  0.1956 ( 19)  0.1325 ( 20) -0.2039 ( 21)
          -0.1150 ( 22) -0.2136 ( 23) -0.1649 ( 24) -0.2372 ( 25)  0.1787 ( 29)
          -0.2419 ( 36)  0.2366 ( 38)
 CRD  2=  -0.1652 (  4)  0.1766 (  5) -0.2181 ( 13)  0.2038 ( 16) -0.4186 ( 17)
           0.2809 ( 18) -0.1745 ( 19)  0.1178 ( 20) -0.2279 ( 24)  0.4213 ( 25)
          -0.1083 ( 26) -0.1998 ( 32) -0.1715 ( 34) -0.1794 ( 35)  0.1029 ( 36)
           0.1270 ( 38) -0.1762 ( 39) -0.1182 ( 40)  0.1553 ( 44)  0.1527 ( 48)
           0.1078 ( 49)
 CRD  3=  -0.2598 (  4) -0.2016 (  5) -0.2510 (  6)  0.1570 ( 12) -0.3991 ( 13)
           0.1204 ( 14) -0.1549 ( 17) -0.3709 ( 18)  0.1950 ( 19)  0.1388 ( 20)
          -0.3867 ( 22)  0.1479 ( 26)  0.1034 ( 32) -0.1026 ( 33) -0.1100 ( 34)
          -0.1217 ( 35) -0.1973 ( 37)  0.1857 ( 40)  0.1200 ( 42)  0.1317 ( 46)
          -0.1145 ( 47)
 CRD  4=  -0.2997 (  4) -0.4513 (  5)  0.1256 ( 12)  0.1686 ( 13)  0.1571 ( 18)
          -0.3615 ( 19) -0.1149 ( 20) -0.3647 ( 21) -0.3360 ( 23)  0.1245 ( 26)
           0.1148 ( 27)  0.3011 ( 28)  0.1874 ( 30)  0.1129 ( 37) -0.1094 ( 40)
 CRD  5=   0.3137 (  4) -0.1455 (  5) -0.2240 (  6) -0.1718 ( 12)  0.1406 ( 18)
          -0.4640 ( 19)  0.4009 ( 21) -0.3478 ( 22)  0.1362 ( 23) -0.1368 ( 24)
          -0.1082 ( 25) -0.1121 ( 26)  0.1657 ( 27)  0.1336 ( 28) -0.1977 ( 30)
          -0.1284 ( 33) -0.1481 ( 47) -0.1232 ( 48) -0.1387 ( 49)
 CRD  6=  -0.1011 (  6)  0.1120 (  9)  0.3875 ( 13) -0.1516 ( 14) -0.3344 ( 18)
          -0.1965 ( 19) -0.3418 ( 21) -0.1569 ( 22)  0.5625 ( 23)  0.2223 ( 27)
          -0.1542 ( 28)  0.1354 ( 30)  0.1221 ( 46)  0.1072 ( 49)
 CRD  7=   0.3487 (  4) -0.2833 (  5)  0.1840 (  6) -0.2093 ( 14)  0.2168 ( 16)
          -0.2967 ( 18)  0.4252 ( 20) -0.1483 ( 21)  0.3057 ( 22) -0.1741 ( 24)
           0.1985 ( 26)  0.1587 ( 27) -0.1460 ( 34) -0.1302 ( 35) -0.1287 ( 37)
          -0.1109 ( 42) -0.1094 ( 44) -0.1266 ( 46) -0.1422 ( 49)
 CRD  8=   0.1685 (  3) -0.1053 (  8)  0.3014 ( 12) -0.3803 ( 13) -0.1937 ( 16)
           0.1595 ( 17)  0.1998 ( 18) -0.2729 ( 19)  0.4357 ( 20) -0.2446 ( 21)
           0.1410 ( 22)  0.1984 ( 23)  0.1892 ( 24) -0.1827 ( 25) -0.2187 ( 26)
          -0.1040 ( 36)  0.1027 ( 39)  0.1015 ( 40)
 CRD  9=  -0.1469 (  4)  0.3480 (  6)  0.3171 ( 11) -0.2107 ( 13)  0.1965 ( 14)
           0.2114 ( 15) -0.1598 ( 16) -0.2604 ( 18) -0.1634 ( 20)  0.2035 ( 21)
           0.2697 ( 22)  0.1483 ( 23) -0.1591 ( 24)  0.1794 ( 27)  0.2325 ( 29)
          -0.1090 ( 32)  0.1146 ( 35)  0.1469 ( 37) -0.1477 ( 40)  0.1074 ( 42)
           0.1397 ( 44) -0.1256 ( 48)
 CRD 10=  -0.1308 (  1)  0.1158 (  4) -0.1450 ( 14)  0.1552 ( 20) -0.1206 ( 23)
           0.1053 ( 28)  0.2190 ( 31)  0.1901 ( 32)  0.2055 ( 33)  0.2356 ( 34)
           0.2197 ( 35)  0.1541 ( 36)  0.1927 ( 37)  0.1063 ( 38)  0.1111 ( 39)
           0.1414 ( 40)  0.2465 ( 41)  0.2782 ( 42)  0.2196 ( 43)  0.2512 ( 44)
           0.2624 ( 45)  0.2941 ( 46)  0.1265 ( 47)  0.1568 ( 48)  0.1114 ( 49)
           0.1400 ( 50)  0.1704 ( 51)
 CRD 11=  -0.1345 (  2)  0.2120 (  6)  0.1948 (  7) -0.1243 (  9) -0.1435 ( 10)
           0.2352 ( 11) -0.1056 ( 14) -0.1695 ( 15)  0.1160 ( 18)  0.2059 ( 19)
           0.1921 ( 20) -0.1209 ( 21) -0.3146 ( 22) -0.2169 ( 27) -0.1331 ( 28)
          -0.1132 ( 30) -0.1232 ( 31) -0.1833 ( 32) -0.2247 ( 33)  0.1011 ( 34)
           0.1330 ( 37) -0.1071 ( 38) -0.1531 ( 39) -0.2481 ( 40)  0.1520 ( 44)
           0.1202 ( 46) -0.1946 ( 47) -0.2896 ( 48) -0.1880 ( 51)
 CRD 12=   0.1200 (  2) -0.1872 (  6) -0.6115 (  7) -0.2561 ( 11)  0.2019 ( 12)
          -0.1407 ( 13)  0.1034 ( 17) -0.1021 ( 18) -0.1421 ( 22)  0.1559 ( 26)
          -0.1762 ( 28) -0.1525 ( 29) -0.1168 ( 30)  0.1118 ( 33)  0.1189 ( 35)
           0.2493 ( 37) -0.2154 ( 40)  0.2158 ( 43) -0.1042 ( 46) -0.1594 ( 51)
 CRD 13=   0.1417 (  1)  0.1936 (  2)  0.1326 (  3) -0.2869 (  5) -0.3769 (  8)
          -0.4258 (  9) -0.3930 ( 10)  0.1565 ( 18)  0.1350 ( 19) -0.1315 ( 20)
           0.1945 ( 23) -0.1255 ( 24) -0.2240 ( 26) -0.1715 ( 28)  0.1341 ( 30)
           0.1601 ( 31)  0.1046 ( 50)  0.1526 ( 51)
 CRD 14=   0.5011 (  1)  0.4557 (  2)  0.3216 (  3)  0.2472 (  4)  0.1403 (  5)
           0.2375 (  7)  0.1713 (  8)  0.1941 (  9)  0.1423 ( 10)  0.1823 ( 12)
          -0.1072 ( 13)  0.1321 ( 14) -0.2154 ( 20) -0.1555 ( 21)  0.1636 ( 30)
 CRD 15=   0.2281 (  3) -0.1075 (  7) -0.3697 (  8)  0.4945 (  9) -0.2528 ( 10)
          -0.1112 ( 12)  0.1960 ( 26) -0.3391 ( 27)  0.1244 ( 28)  0.1887 ( 34)
          -0.2183 ( 35) -0.2461 ( 41) -0.2240 ( 42)  0.1610 ( 45)  0.1831 ( 46)
 CRD 16=   0.1164 (  1)  0.1048 (  2) -0.3636 (  3) -0.1295 (  7)  0.3063 (  8)
           0.1533 (  9) -0.4929 ( 10)  0.1916 ( 12) -0.1062 ( 14) -0.1858 ( 26)
           0.2799 ( 28) -0.1268 ( 30)  0.1145 ( 31)  0.1204 ( 33)  0.1504 ( 34)
          -0.1964 ( 37) -0.1443 ( 40) -0.2031 ( 43) -0.2022 ( 44)  0.1437 ( 45)
           0.1446 ( 46) -0.1219 ( 48) -0.1278 ( 51)
 CRD 17=  -0.1054 (  1) -0.1967 (  2)  0.5040 (  3) -0.1940 (  7)  0.3764 (  8)
          -0.2351 ( 10) -0.2300 ( 12)  0.1811 ( 14) -0.1866 ( 26)  0.1248 ( 28)
          -0.2441 ( 31) -0.2233 ( 32) -0.1821 ( 33)  0.1663 ( 35)  0.1851 ( 41)
           0.1268 ( 42) -0.1139 ( 44)  0.1001 ( 45)  0.1192 ( 48)
 CRD 18=   0.5439 (  1) -0.5068 (  2) -0.1062 (  8)  0.2815 ( 14)  0.1321 ( 22)
          -0.2826 ( 30)  0.2715 ( 39)  0.2640 ( 47)  0.2203 ( 50)
 CRD 19=   0.1221 (  1) -0.1095 (  2)  0.5020 (  6) -0.1850 (  7) -0.1400 ( 11)
          -0.4908 ( 22)  0.1395 ( 29)  0.2319 ( 31) -0.2186 ( 41) -0.2133 ( 43)
          -0.2182 ( 45)  0.1084 ( 47)  0.2508 ( 50)  0.2198 ( 51)
 CRD 20=  -0.1385 (  1) -0.3022 (  2) -0.1388 (  3)  0.2057 (  8)  0.3741 (  9)
           0.2038 ( 10)  0.1290 ( 12)  0.2143 ( 16)  0.1017 ( 17)  0.1316 ( 18)
           0.1292 ( 19) -0.1348 ( 20) -0.1639 ( 21)  0.1952 ( 23) -0.2140 ( 24)
          -0.1031 ( 25) -0.1732 ( 26) -0.1084 ( 27) -0.1744 ( 28)  0.1694 ( 30)
           0.1526 ( 31)  0.1468 ( 41)  0.1349 ( 43)  0.1199 ( 45) -0.3668 ( 49)
           0.1237 ( 50)  0.1482 ( 51)
 CRD 21=   0.2429 (  1) -0.1074 (  5) -0.1744 (  6) -0.4276 (  7)  0.2462 ( 10)
           0.6946 ( 11) -0.1125 ( 12)  0.1306 ( 13) -0.1343 ( 14)  0.1137 ( 18)
           0.1059 ( 20) -0.1064 ( 27)
 CRD 22=  -0.1142 (  1) -0.1646 (  2) -0.2770 (  3)  0.2833 (  4)  0.3505 (  5)
           0.1400 (  6) -0.1446 (  7) -0.2788 (  8) -0.1406 (  9) -0.1245 ( 10)
           0.3798 ( 11) -0.1163 ( 13)  0.1709 ( 14) -0.1180 ( 18) -0.1483 ( 19)
          -0.1932 ( 20) -0.1443 ( 21) -0.1703 ( 22) -0.1275 ( 23)  0.1506 ( 27)
           0.1574 ( 28) -0.1401 ( 29)  0.1946 ( 30)
 CRD 23=  -0.1246 (  2)  0.2571 (  4) -0.2263 (  5)  0.1693 (  9) -0.1105 ( 20)
          -0.1053 ( 28)  0.1180 ( 30)  0.4432 ( 36)  0.4438 ( 38) -0.1140 ( 45)
          -0.1285 ( 46)  0.5030 ( 49) -0.1003 ( 50)
 CRD 24=   0.1801 (  1)  0.1657 (  2) -0.3136 (  3) -0.1838 (  5)  0.4189 (  6)
          -0.2228 (  7) -0.2378 (  8)  0.2943 ( 10) -0.2609 ( 11) -0.1717 ( 12)
          -0.1780 ( 26) -0.2372 ( 31) -0.1783 ( 33) -0.1264 ( 37)  0.1109 ( 40)
           0.1779 ( 41)  0.1502 ( 42)  0.1632 ( 45)  0.1355 ( 46) -0.1415 ( 50)
 CRD 25=  -0.1519 (  1) -0.1499 (  3)  0.4289 (  4) -0.2277 (  5) -0.1011 (  6)
           0.2692 (  8) -0.3813 (  9)  0.2475 ( 10)  0.1701 ( 14) -0.1039 ( 16)
          -0.1023 ( 17)  0.1235 ( 23) -0.2582 ( 27)  0.1697 ( 34) -0.1524 ( 35)
          -0.1174 ( 36) -0.1030 ( 38) -0.2395 ( 41)  0.2389 ( 46)
 CRD 26=  -0.1545 (  1)  0.3449 (  2) -0.1724 (  3) -0.3118 (  5)  0.2192 (  7)
           0.1112 (  8)  0.2057 (  9) -0.1679 ( 10)  0.1800 ( 11)  0.2178 ( 14)
          -0.1920 ( 22)  0.1144 ( 25) -0.1560 ( 28) -0.1873 ( 29) -0.1426 ( 30)
          -0.1938 ( 31) -0.1156 ( 32) -0.1503 ( 36)  0.1929 ( 39) -0.1706 ( 46)
           0.3368 ( 47)  0.1734 ( 48)  0.1147 ( 50)
 CRD 27=   0.3294 (  1) -0.3039 (  3)  0.1375 (  5)  0.3073 (  8) -0.2732 ( 10)
          -0.1781 ( 12)  0.1166 ( 17) -0.1535 ( 19)  0.1577 ( 20) -0.1531 ( 25)
           0.1890 ( 26) -0.1193 ( 28)  0.1761 ( 30) -0.1404 ( 33)  0.2455 ( 37)
           0.2648 ( 40)  0.2142 ( 43)  0.1995 ( 44) -0.1546 ( 47)  0.1456 ( 48)
           0.2431 ( 51)
 CRD 28=   0.1156 (  1) -0.2030 (  2)  0.3168 (  4) -0.1815 (  5)  0.2390 (  9)
          -0.1335 ( 10) -0.1566 ( 16) -0.1618 ( 17)  0.1176 ( 18) -0.1529 ( 23)
           0.1581 ( 24)  0.1507 ( 25)  0.1066 ( 27)  0.1364 ( 30)  0.1289 ( 33)
          -0.1249 ( 34)  0.1263 ( 35) -0.2637 ( 36) -0.3502 ( 38) -0.1227 ( 39)
           0.2721 ( 42)  0.1828 ( 44) -0.2597 ( 45) -0.1806 ( 50)
 CRD 29=  -0.2102 (  2)  0.1598 (  3) -0.1376 (  4) -0.2307 (  5)  0.2762 (  6)
           0.1502 (  8) -0.1016 (  9) -0.1518 ( 14)  0.2510 ( 15) -0.1009 ( 19)
          -0.1286 ( 20)  0.1863 ( 21) -0.1268 ( 22)  0.1331 ( 23) -0.2084 ( 29)
           0.2252 ( 32)  0.2728 ( 33) -0.1741 ( 35) -0.1739 ( 36) -0.1866 ( 42)
           0.2039 ( 43)  0.1947 ( 45) -0.3194 ( 50) -0.2167 ( 51)
 CRD 30=  -0.1924 (  1)  0.1160 (  3)  0.1753 (  6) -0.2822 (  7)  0.1177 (  8)
          -0.1582 ( 10)  0.1659 ( 13)  0.1669 ( 16) -0.1456 ( 17)  0.1492 ( 18)
          -0.1213 ( 19) -0.1250 ( 20)  0.1092 ( 22)  0.1468 ( 24) -0.1564 ( 25)
          -0.1174 ( 30)  0.2176 ( 32) -0.1100 ( 33) -0.2789 ( 34) -0.2352 ( 35)
           0.1547 ( 36) -0.1240 ( 38)  0.3228 ( 39)  0.1656 ( 43)  0.2391 ( 44)
          -0.2605 ( 48) -0.1680 ( 51)

 THE DETERMINANT OF THE G MATRIX IS 10**(   -31)

 THE DETERMINANT OF THE G MATRIX IS 10**(   -31)
 * * * WARNING * * *
 YOUR B MATRIX HAS A SMALL DETERMINANT.
 THIS SUGGESTS YOU MAY HAVE BADLY CHOSEN COORDINATES.


                     --------------------
                     INTERNAL COORDINATES
                     --------------------

                 - - ATOMS - -         COORDINATE      COORDINATE
 NO.   TYPE    I  J  K  L  M  N        (BOHR,RAD)       (ANG,DEG)
 ----------------------------------------------------------------
   1 STRETCH   1  2                     2.6437548       1.3990149
   2 STRETCH   2 10                     2.6437034       1.3989877
   3 STRETCH   2 11                     2.0597286       1.0899615
   4 STRETCH   2  3                     2.8912085       1.5299618
   5 STRETCH   3  4                     2.8914442       1.5300865
   6 STRETCH   3  8                     2.7003820       1.4289807
   7 STRETCH   3  9                     2.6437548       1.3990149
   8 STRETCH   4  7                     2.6438748       1.3990784
   9 STRETCH   4  6                     2.6436349       1.3989514
  10 STRETCH   4  5                     2.6435827       1.3989238
  11 STRETCH   8 12                     1.8274185       0.9670283
  12 BEND      1  2 10                  1.9106368     109.4714239
  13 BEND      1  2  3                  1.9106997     109.4750292
  14 BEND      1  2 11                  1.9106113     109.4699663
  15 BEND      2  3  4                  1.9106337     109.4712490
  16 BEND      2  3  9                  1.9106997     109.4750292
  17 BEND      2  3  8                  1.9106249     109.4707415
  18 BEND      3  4  5                  1.9106402     109.4716175
  19 BEND      3  4  7                  1.9105179     109.4646109
  20 BEND      3  2 11                  1.9106038     109.4695317
  21 BEND      3  2 10                  1.9106053     109.4696196
  22 BEND      3  8 12                  1.9896414     113.9980578
  23 BEND      3  4  6                  1.9106320     109.4711506
  24 BEND      4  3  9                  1.9106521     109.4723004
  25 BEND      4  3  8                  1.9105782     109.4680660
  26 BEND      5  4  6                  1.9107016     109.4751378
  27 BEND      5  4  7                  1.9107099     109.4756119
  28 BEND      6  4  7                  1.9105979     109.4691945
  29 BEND      8  3  9                  1.9106108     109.4699375
  30 BEND     10  2 11                  1.9106425     109.4717532
  31 TORSION   1  2  3  9               3.1415927     180.0000000
  32 TORSION   1  2  3  4              -1.0471335     -59.9963278
  33 TORSION   1  2  3  8               1.0471894      59.9995326
  34 TORSION   2  3  4  7              -1.0472896     -60.0052744
  35 TORSION   2  3  4  5               1.0471330      59.9962992
  36 TORSION   2  3  8 12              -1.0472700     -60.0041502
  37 TORSION   2  3  4  6              -3.1415700    -179.9987031
  38 TORSION   4  3  8 12               1.0470869      59.9936594
  39 TORSION   4  3  2 11               1.0472575      60.0034339
  40 TORSION   4  3  2 10              -3.1415565    -179.9979284
  41 TORSION   5  4  3  9              -3.1415640    -179.9983576
  42 TORSION   5  4  3  8              -1.0472185     -60.0011996
  43 TORSION   6  4  3  9              -1.0470817     -59.9933599
  44 TORSION   6  4  3  8               1.0472638      60.0037981
  45 TORSION   7  4  3  9               1.0471988      60.0000687
  46 TORSION   7  4  3  8               3.1415443     179.9972267
  47 TORSION   8  3  2 11               3.1415803     179.9992943
  48 TORSION   8  3  2 10              -1.0472336     -60.0020680
  49 TORSION   9  3  8 12               3.1414576     179.9922645
  50 TORSION   9  3  2 11              -1.0472017     -60.0002383
  51 TORSION   9  3  2 10               1.0471696      59.9983993

     ------------------------------------------
     THE POINT GROUP IS C1 , NAXIS= 1, ORDER= 1
     ------------------------------------------

     DIMENSIONS OF THE SYMMETRY SUBSPACES ARE
 A   =  202

 ..... DONE SETTING UP THE RUN .....
 STEP CPU TIME =     0.01 TOTAL CPU TIME =        0.0 (    0.0 MIN)
 TOTAL WALL CLOCK TIME=        0.0 SECONDS, CPU UTILIZATION IS 100.00%


          -----------------------------
          STATIONARY POINT LOCATION RUN
          -----------------------------

 OBTAINING INITIAL HESSIAN, HESS=GUESS   
 DIAGONAL GUESS HESSIAN IN INTERNAL COORDS IS
     1  0.3274     2  0.3274     3  0.3464     4  0.3672     5  0.3671
     6  0.3608     7  0.3274     8  0.3273     9  0.3274    10  0.3274
    11  0.3552    12  0.2246    13  0.2360    14  0.2135    15  0.2485
    16  0.2360    17  0.2430    18  0.2360    19  0.2360    20  0.2241
    21  0.2360    22  0.2143    23  0.2360    24  0.2360    25  0.2430
    26  0.2246    27  0.2246    28  0.2246    29  0.2310    30  0.2135
    31  0.2500    32  0.2500    33  0.2500    34  0.2500    35  0.2500
    36  0.2500    37  0.2500    38  0.2500    39  0.2500    40  0.2500
    41  0.2500    42  0.2500    43  0.2500    44  0.2500    45  0.2500
    46  0.2500    47  0.2500    48  0.2500    49  0.2500    50  0.2500
    51  0.2500
 TRANSFORMING HESSIAN TO SYMMETRY COORDINATES

          PARAMETERS CONTROLLING GEOMETRY SEARCH ARE
          METHOD =QA                  UPHESS =BFGS    
          NNEG   =         0          NFRZ   =         3
          NSTEP  =        50          IFOLOW =         1
          HESS   =GUESS               RESTAR =         F
          IHREP  =         0          HSSEND =         F
          NPRT   =         0          NPUN   =         0
          OPTTOL = 5.000E-04          RMIN   = 1.500E-03
          RMAX   = 1.000E-01          RLIM   = 7.000E-02
          DXMAX  = 3.000E-01          PURIFY =         F
          MOVIE  =         F          TRUPD  =         T
          TRMAX  = 5.000E-01          TRMIN  = 5.000E-02
          ITBMAT =         5          STPT   =         F
          STSTEP = 1.000E-02          PROJCT=          F
          FROZEN COORD(S)=   1   2   3


      ***** EQUILIBRIUM GEOMETRY LOCATED *****
            (SUBJECT TO   3 CONSTRAINT(S))
 COORDINATES OF ALL ATOMS ARE (ANGS)
   ATOM   CHARGE       X              Y              Z
 ------------------------------------------------------------
 F           9.0  -1.3771097064  -1.4777189942  -0.0688565699
 C           6.0  -1.3064676679  -0.2718140116   0.5127472210
 C           6.0  -0.1980291157   0.5023365553  -0.1988054818
 C           6.0   1.1517355210  -0.1644620310   0.0873337187
 F           9.0   1.1812354779  -1.3357485289  -0.5112110728
 F           9.0   2.1466420847   0.5539163247  -0.3618092099
 F           9.0   1.3208027383  -0.3531416506   1.3772168721
 O           8.0  -0.3961019956   0.6200911452  -1.5346545912
 F           9.0  -0.1602618635   1.7418115617   0.3071263118
 F           9.0  -2.4697144457   0.3398537179   0.3163167281
 H           1.0  -1.1259928789  -0.3888884510   1.5667567744
 H           1.0  -0.4792135471  -0.2299173026  -1.9438255247


                     --------------------
                     INTERNAL COORDINATES
                     --------------------

                 - - ATOMS - -         COORDINATE      COORDINATE
 NO.   TYPE    I  J  K  L  M  N        (BOHR,RAD)       (ANG,DEG)
 ----------------------------------------------------------------
   1 STRETCH   1  2                     2.5335441       1.3406939
   2 STRETCH   2 10                     2.5111788       1.3288587
   3 STRETCH   2 11                     2.0328513       1.0757387
   4 STRETCH   2  3                     2.8871726       1.5278260
   5 STRETCH   3  4                     2.8958844       1.5324362
   6 STRETCH   3  8                     2.5616711       1.3555781
   7 STRETCH   3  9                     2.5308868       1.3392877
   8 STRETCH   4  7                     2.4840966       1.3145274
   9 STRETCH   4  6                     2.4694286       1.3067654
  10 STRETCH   4  5                     2.4862921       1.3156892
  11 STRETCH   8 12                     1.7896042       0.9470178
  12 BEND      1  2 10                  1.8794434     107.6841761
  13 BEND      1  2  3                  1.8670602     106.9746693
  14 BEND      1  2 11                  1.9134579     109.6330645
  15 BEND      2  3  4                  1.9087735     109.3646683
  16 BEND      2  3  9                  1.8896331     108.2679999
  17 BEND      2  3  8                  1.9789967     113.3881603
  18 BEND      3  4  5                  1.8988175     108.7942308
  19 BEND      3  4  7                  1.9379491     111.0363046
  20 BEND      3  2 11                  1.9711571     112.9389845
  21 BEND      3  2 10                  1.9102880     109.4514376
  22 BEND      3  8 12                  1.9397390     111.1388554
  23 BEND      3  4  6                  1.9468082     111.5438962
  24 BEND      4  3  9                  1.8831723     107.8978277
  25 BEND      4  3  8                  1.9289026     110.5179771
  26 BEND      5  4  6                  1.8922744     108.4193348
  27 BEND      5  4  7                  1.8920280     108.4052180
  28 BEND      6  4  7                  1.8946768     108.5569850
  29 BEND      8  3  9                  1.8712897     107.2170044
  30 BEND     10  2 11                  1.9196147     109.9858222
  31 TORSION   1  2  3  9               3.0759846     176.2409362
  32 TORSION   1  2  3  4              -1.1594728     -66.4328971
  33 TORSION   1  2  3  8               1.0018304      57.4006551
  34 TORSION   2  3  4  7              -0.8882291     -50.8917792
  35 TORSION   2  3  4  5               1.1926111      68.3315802
  36 TORSION   2  3  8 12              -1.0029699     -57.4659425
  37 TORSION   2  3  4  6              -3.0040255    -172.1179845
  38 TORSION   4  3  8 12               1.1473068      65.7358347
  39 TORSION   4  3  2 11               0.9472670      54.2744007
  40 TORSION   4  3  2 10               3.0921501     177.1671475
  41 TORSION   5  4  3  9              -3.0387840    -174.1094963
  42 TORSION   5  4  3  8              -0.9978893     -57.1748434
  43 TORSION   6  4  3  9              -0.9522353     -54.5590611
  44 TORSION   6  4  3  8               1.0886595      62.3755919
  45 TORSION   7  4  3  9               1.1635612      66.6671442
  46 TORSION   7  4  3  8              -3.0787294    -176.3982028
  47 TORSION   8  3  2 11               3.1085702     178.1079529
  48 TORSION   8  3  2 10              -1.0297320     -58.9993004
  49 TORSION   9  3  8 12              -3.0876509    -176.9093642
  50 TORSION   9  3  2 11              -1.1004609     -63.0517659
  51 TORSION   9  3  2 10               1.0444221      59.8409808

          INTERNUCLEAR DISTANCES (ANGS.)


 =====================================================
   GAMESS/COSab RESULTS
 =====================================================

   Dielectric Constant                  = INFTY
   Basic Grid Size                      =                 1082
   Number of Segments                   =                   92
   Number of Segments located on spheres=                  278
   Number of Segments of the cavity     =                  457
   Solvent Radius (rsolv)               = 1.40
   Outlying Charge Error Method         = double cavity

 =====================================================

  Total solvated Energy (a.u.)          =  -786.4916319879
  Total Energy corrected (a.u.)         =  -786.4916228889

  Outlying charge effect (a.u.)         =     0.0000090990
  Outlying charge effect (kcal/mol)     =     0.0057097276

  Dielectric Energy (a.u.)              =    -0.0126261994
  Dielectric energy corr. (a.u.)        =    -0.0126171004

  Sum of polarization charges           =     0.0027612720
  Sum of polarization charges(cor.)     =    -0.0027612720

  Total surface area of cavity (A**2)   =  139.29
  Total volume of cavity (A**3)         =  136.68

 =====================================================
 NPS=                   457
NR.  ATOM  (X, Y, Z)(a.u.)                  CHARGE(e)  AREA(A**2) SIGMA(e/A**2)
   1   1  -2.868015  -5.675126  -1.608125   0.001022   0.343589   0.002975
   2   1  -4.222553  -3.178214  -2.921331   0.001262   0.240512   0.005249
   3   1  -5.476416  -4.309502  -0.185580   0.001720   0.309230   0.005563
   4   1  -3.015469  -5.414974   1.745117   0.001955   0.343589   0.005689
   5   1  -1.964357  -5.298191  -2.099662   0.001124   0.343589   0.003271
   6   1  -2.043250  -4.617480  -2.760994   0.000864   0.206154   0.004191
   7   1  -3.307868  -4.970449  -2.437374   0.001424   0.412307   0.003453
   8   1  -3.726522  -4.009843  -2.926365   0.001770   0.343589   0.005153
   9   1  -3.950088  -5.527349  -1.256539   0.001531   0.412307   0.003714
  10   1  -4.820892  -5.124662  -0.581459   0.001933   0.377948   0.005114
  11   1  -2.961061  -6.003216  -0.486787   0.001354   0.377948   0.003583
  12   1  -3.077830  -5.898658   0.700702   0.001916   0.377948   0.005069
  13   1  -1.831508  -5.831277  -0.988154   0.001515   0.412307   0.003674
  14   1  -1.284521  -5.761673  -0.021006   0.001127   0.206154   0.005465
  15   1  -4.792100  -3.661799  -2.369315   0.001363   0.274871   0.004957
  16   1  -5.371685  -4.005764  -1.323196   0.002127   0.377948   0.005627
  17   1  -4.948138  -4.884278   0.698337   0.002433   0.412307   0.005902
  18   1  -4.078921  -5.273925   1.362140   0.002176   0.377948   0.005757
  19   1  -2.041965  -5.490825   1.593121   0.001731   0.309230   0.005597
  20   1  -1.252731  -5.473413   1.117190   0.001248   0.240512   0.005189
  21   1  -4.689356  -2.635057  -2.616949   0.000989   0.206154   0.004795
  22   1  -5.739933  -3.555383  -0.501915   0.001035   0.206154   0.005020
  23   1  -5.525933  -3.878804   0.784882   0.001229   0.274871   0.004471
  24   1  -5.074552  -4.007877   1.594894   0.000771   0.240512   0.003206
  25   1  -3.519768  -4.592734   2.415870   0.001344   0.343589   0.003912
  26   1  -2.382475  -4.663636   2.518474   0.001592   0.377948   0.004213
  27   1  -2.685037  -4.296358  -3.010439   0.000917   0.206154   0.004450
  28   1  -4.527357  -4.690797  -1.934410   0.002260   0.481025   0.004699
  29   1  -4.044794  -5.693463   0.131327   0.001866   0.377948   0.004938
  30   1  -1.999420  -5.939107   0.417509   0.001632   0.343589   0.004750
  31   1  -5.350253  -3.116422  -1.835636   0.001124   0.206154   0.005450
  32   1  -4.411596  -4.407050   2.034236   0.001535   0.309230   0.004965
  33   1  -1.292788  -4.778525   2.084671   0.001269   0.343589   0.003693
  34   2  -4.570240  -2.707183   3.217713  -0.002672   0.232280  -0.011502
  35   2  -1.432391  -3.333115   3.262563  -0.000768   0.046456  -0.016524
  36   2  -4.061931  -2.602733   3.685965  -0.001325   0.139368  -0.009508
  37   2  -3.666263   1.109902   4.164965  -0.000892   0.046456  -0.019205
  38   2  -4.715665  -1.907693   3.669470  -0.002502   0.232280  -0.010772
  39   2  -5.228263  -2.485219   2.637163  -0.001826   0.185824  -0.009825
  40   2  -3.511047  -3.101255   3.518944  -0.001355   0.139368  -0.009726
  41   2  -4.779239  -1.215133   3.876587  -0.001640   0.139368  -0.011770
  42   2  -3.098105   1.689001   3.975038  -0.002143   0.185824  -0.011535
  43   4   5.415543  -2.078216   0.982822  -0.000544   0.046456  -0.011709
  44   5   2.238289  -5.448696  -2.384447   0.000453   0.377948   0.001199
  45   5   4.067491  -4.871470   0.332665   0.001162   0.309230   0.003757
  46   5   4.909899  -3.455223  -2.555951   0.001121   0.309230   0.003624
  47   5   2.545053  -2.857852  -4.184033   0.000544   0.171795   0.003166
  48   5   1.182286  -5.065957  -2.698591   0.000730   0.377948   0.001930
  49   5   1.593195  -5.660620  -1.530935   0.000679   0.343589   0.001976
  50   5   1.392905  -5.646475  -0.632081   0.000809   0.274871   0.002944
  51   5   2.989745  -5.646908  -1.455334   0.000824   0.412307   0.001998
  52   5   3.769193  -5.367690  -0.624257   0.001269   0.377948   0.003359
  53   5   3.348430  -5.089561  -2.620603   0.000714   0.377948   0.001889
  54   5   4.219831  -4.368850  -2.758036   0.001092   0.343589   0.003179
  55   5   2.340660  -4.706437  -3.372428   0.000848   0.481025   0.001764
  56   5   2.200705  -3.726820  -3.985537   0.001094   0.377948   0.002895
  57   5   1.705589  -5.346593   0.557548   0.001220   0.309230   0.003946
  58   5   2.987159  -5.273693   0.594374   0.001411   0.377948   0.003734
  59   5   4.763636  -4.520494  -0.552182   0.001624   0.412307   0.003940
  60   5   4.993117  -4.092257  -1.661170   0.001345   0.343589   0.003915
  61   5   4.264482  -3.207971  -3.408781   0.001122   0.309230   0.003628
  62   5   3.304638  -3.112224  -3.977483   0.000898   0.274871   0.003268
  63   5   3.639727  -4.654309   1.045450   0.000650   0.206154   0.003152
  64   5   4.679782  -4.102870   0.476795   0.000631   0.240512   0.002623
  65   5   5.177862  -3.403670   0.089552  -0.000181   0.171795  -0.001056
  66   5   5.331195  -3.072655  -1.778522   0.000897   0.274871   0.003265
  67   5   4.703013  -2.651005  -3.074052   0.000421   0.137436   0.003067
  68   5   3.009076  -2.007729  -4.079628   0.000214   0.206154   0.001038
  69   5   2.481811  -5.711871  -0.382080   0.001227   0.412307   0.002977
  70   5   4.223057  -4.979762  -1.721909   0.001278   0.412307   0.003099
  71   5   3.496088  -4.052365  -3.541300   0.001094   0.377948   0.002895
  72   5   1.091277  -4.252249  -3.471384   0.000651   0.309230   0.002104
  73   5   2.134153  -4.943711   1.202116   0.000678   0.240512   0.002819
  74   5   5.325332  -3.495744  -0.735147   0.000689   0.309230   0.002228
  75   5   3.858332  -2.270358  -3.768891   0.000683   0.274871   0.002486
  76   6   6.494932   2.909281  -1.756131   0.000479   0.377948   0.001268
  77   6   5.927604   2.496674   1.543739   0.001187   0.343589   0.003455
  78   6   4.526499   4.245851  -0.352699   0.000673   0.206154   0.003267
  79   6   4.076953   2.711661  -3.475200   0.000667   0.171795   0.003881
  80   6   5.601743   0.143177  -3.396780   0.001128   0.309230   0.003649
  81   6   7.016320  -0.233985  -0.278448   0.001080   0.309230   0.003494
  82   6   6.725619   2.898354  -0.572311   0.000793   0.412307   0.001922
  83   6   6.452692   2.825704   0.604132   0.001221   0.377948   0.003232
  84   6   5.862343   3.676291  -1.307725   0.000632   0.343589   0.001839
  85   6   5.035156   4.137190  -0.920825   0.000889   0.309230   0.002875
  86   6   5.683383   3.154149  -2.548405   0.000705   0.377948   0.001865
  87   6   4.770509   2.985375  -3.193048   0.001136   0.377948   0.003005
  88   6   6.457740   2.084006  -2.613276   0.000675   0.377948   0.001786
  89   6   6.213476   1.090836  -3.114876   0.001054   0.343589   0.003068
  90   6   7.098986   1.860117  -1.487975   0.000907   0.481025   0.001886
  91   6   7.289870   0.809303  -0.916235   0.001333   0.412307   0.003232
  92   6   5.419823   3.402529   1.092928   0.001038   0.309230   0.003356
  93   6   4.773675   3.997354   0.475735   0.001032   0.274871   0.003756
  94   6   4.148642   4.150354  -1.644887   0.000828   0.240512   0.003443
  95   6   3.946777   3.705127  -2.550714   0.001104   0.309230   0.003569
  96   6   4.421563   1.876375  -3.805131   0.000937   0.240512   0.003895
  97   6   5.128538   1.053960  -3.752195   0.000946   0.274871   0.003440
  98   6   6.351487  -0.149400  -2.650258   0.001109   0.309230   0.003585
  99   6   6.927356  -0.284585  -1.425883   0.001279   0.343589   0.003721
 100   6   7.151841   0.644406   0.222956   0.001144   0.309230   0.003699
 101   6   6.775887   1.636951   0.996046   0.001242   0.343589   0.003616
 102   6   5.031949   2.925685   1.782623   0.000310   0.171795   0.001806
 103   6   4.698116  -0.029844  -3.682730   0.000625   0.274871   0.002275
 104   6   5.783170  -0.649981  -2.852739   0.000403   0.137436   0.002935
 105   6   6.540978  -1.044513  -0.545935   0.000412   0.309230   0.001331
 106   6   6.589448  -0.561872   0.565878   0.000291   0.309230   0.000940
 107   6   6.248723   1.594932   1.652640   0.000516   0.171795   0.003002
 108   6   5.810470   3.697740  -0.004937   0.001196   0.412307   0.002901
 109   6   4.938922   3.841012  -2.090222   0.000902   0.343589   0.002625
 110   6   5.503353   2.008858  -3.430696   0.001196   0.412307   0.002900
 111   6   6.900351   0.710793  -2.221490   0.001376   0.446666   0.003080
 112   6   7.145182   1.827046  -0.038526   0.001233   0.412307   0.002990
 113   6   4.587896   3.428734   1.463012   0.000314   0.171795   0.001830
 114   6   4.271905   0.883119  -3.922787   0.000542   0.240512   0.002255
 115   6   6.380506  -0.866924  -1.909217   0.000746   0.240512   0.003100
 116   6   6.719897   0.548731   1.111633   0.000984   0.274871   0.003581
 117   7   2.923164  -1.039847   5.803087   0.000433   0.377948   0.001147
 118   7   3.610567   1.754655   4.461639   0.000615   0.206154   0.002985
 119   7   5.532380  -0.798733   3.754740   0.001110   0.309230   0.003591
 120   7   3.621571  -3.519551   3.680790   0.001109   0.309230   0.003587
 121   7   1.890225  -0.421085   5.786437   0.000681   0.377948   0.001803
 122   7   1.171739   0.352350   5.390263   0.000632   0.274871   0.002301
 123   7   3.158319   0.121213   5.685429   0.000764   0.412307   0.001852
 124   7   3.322820   1.143989   5.171603   0.001050   0.343589   0.003057
 125   7   4.073150  -0.980334   5.427298   0.000786   0.412307   0.001907
 126   7   4.965167  -1.090639   4.673422   0.001233   0.377948   0.003263
 127   7   3.320603  -2.089560   5.406471   0.000670   0.377948   0.001773
 128   7   3.465656  -2.962797   4.689483   0.001015   0.343589   0.002953
 129   7   2.212081  -1.892871   5.599583   0.000482   0.343589   0.001401
 130   7   1.300522  -2.333367   5.124455   0.001012   0.377948   0.002678
 131   7   1.466542   1.276196   4.995793   0.000805   0.274871   0.002930
 132   7   2.462371   1.715851   4.812505   0.000905   0.274871   0.003293
 133   7   4.350969   1.183608   4.525455   0.001074   0.309230   0.003473
 134   7   5.189283   0.252573   4.172393   0.001400   0.377948   0.003704
 135   7   5.263149  -1.946623   3.729837   0.001590   0.412307   0.003856
 136   7   4.521597  -2.899586   3.818517   0.001276   0.343589   0.003715
 137   7   2.682055  -3.551468   4.089795   0.000912   0.274871   0.003316
 138   7   1.296860  -3.269424   4.137491   0.000964   0.343589   0.002806
 139   7   3.185535   2.166858   4.036569   0.000481   0.240512   0.002001
 140   7   4.224729   1.827224   3.765782   0.000542   0.206154   0.002629
 141   7   5.609543  -0.064816   3.314723   0.000622   0.206154   0.003019
 142   7   5.667541  -1.307393   2.912472   0.000406   0.240512   0.001690
 143   7   5.427937  -2.054241   2.391195  -0.000050   0.171795  -0.000293
 144   7   4.205549  -3.413249   2.921900   0.000620   0.274871   0.002255
 145   7   2.803976  -3.838187   3.247196   0.000343   0.137436   0.002496
 146   7   2.205187   0.739135   5.518359   0.000845   0.343589   0.002460
 147   7   4.380819   0.160756   5.117748   0.001414   0.481025   0.002939
 148   7   4.391664  -2.197856   4.753952   0.001217   0.412307   0.002953
 149   7   2.251153  -2.985865   4.867333   0.001150   0.412307   0.002789
 150   7   1.293546  -1.198669   5.575192   0.000563   0.274871   0.002050
 151   7   4.934150   1.151680   3.747542   0.000651   0.206154   0.003157
 152   7   5.046006  -2.670968   2.820298   0.000624   0.309230   0.002019
 153   7   1.935472  -3.741844   3.495858   0.000564   0.240512   0.002346
 154   8  -3.093370   3.277812  -3.694480   0.003552   0.274871   0.012922
 155   8   0.199874   3.645901  -4.782614   0.004401   0.343589   0.012808
 156   8  -2.030099   1.241230  -5.886269  -0.000079   0.274871  -0.000289
 157   8   1.232909   0.635779  -5.420226   0.000289   0.206154   0.001400
 158   8  -2.574997   3.834509  -3.272425   0.002521   0.206154   0.012226
 159   8  -0.261883   4.196078  -3.987060   0.002876   0.240512   0.011957
 160   8  -2.133701   3.807100  -4.204347   0.004365   0.343589   0.012704
 161   8  -0.966046   3.833473  -4.752854   0.004287   0.343589   0.012476
 162   8   1.150295   3.348311  -4.390666   0.003917   0.274871   0.014250
 163   8  -0.937714   1.042567  -6.142311  -0.001297   0.274871  -0.004720
 164   8   0.367244   0.816057  -5.932083  -0.000172   0.309230  -0.000558
 165   8   1.408053   0.118431  -5.091911  -0.000204   0.103077  -0.001982
 166   8  -3.530246   0.536882  -4.456856   0.000250   0.206154   0.001212
 167   8  -2.981003   0.869105  -5.242948  -0.000236   0.309230  -0.000765
 168   8  -2.756324   2.951845  -4.734421   0.004114   0.343589   0.011973
 169   8  -2.636891   2.003995  -5.411281   0.002454   0.377948   0.006492
 170   8  -1.336070   2.147822  -5.944212   0.002504   0.481025   0.005206
 171   8  -0.624795   3.053141  -5.547685   0.003924   0.377948   0.010383
 172   8   0.555631   2.716509  -5.445192   0.004088   0.377948   0.010816
 173   8   1.005902   1.680980  -5.588436   0.001726   0.240512   0.007176
 174   8   1.577668   1.322127  -5.165199   0.001536   0.171795   0.008943
 175   8  -3.444611   2.464387  -4.174831   0.003236   0.240512   0.013453
 176   8  -1.318481   4.235330  -3.824504   0.003517   0.274871   0.012795
 177   8   0.759221   3.893994  -3.838667   0.002460   0.206154   0.011934
 178   8  -1.821179   3.148560  -5.246658   0.004128   0.377948   0.010923
 179   8   1.439335   2.471205  -4.922296   0.003749   0.309230   0.012124
 180   8  -0.050670   1.830776  -6.005445   0.002010   0.412307   0.004874
 181   8  -3.450509   1.635675  -4.646145   0.003175   0.343589   0.009242
 182   9  -0.213249   6.262472   1.895782   0.000971   0.377948   0.002570
 183   9   2.108486   4.392040   2.461613   0.000723   0.171795   0.004208
 184   9  -1.187773   3.731857   3.676784   0.001173   0.274871   0.004267
 185   9  -2.786439   5.145629   1.559591   0.001314   0.240512   0.005465
 186   9  -1.387181   5.790428  -1.192892   0.001639   0.309230   0.005299
 187   9   1.613035   5.617434  -0.637937   0.001297   0.240512   0.005394
 188   9   0.860393   5.833267   2.239061   0.001320   0.412307   0.003201
 189   9   1.566497   4.989451   2.626680   0.001282   0.309230   0.004145
 190   9  -0.401338   5.599760   2.866677   0.001347   0.412307   0.003267
 191   9  -0.593017   4.660864   3.513887   0.001473   0.343589   0.004288
 192   9  -1.354918   6.057482   1.924800   0.001216   0.377948   0.003218
 193   9  -2.271096   5.679321   1.574985   0.001325   0.309230   0.004285
 194   9  -0.727259   6.502820   0.849271   0.001215   0.377948   0.003215
 195   9  -1.036279   6.350853  -0.236578   0.001559   0.343589   0.004538
 196   9   0.578941   6.397895   0.951521   0.001561   0.481025   0.003246
 197   9   1.361187   6.052066   0.161815   0.001717   0.377948   0.004542
 198   9   1.213539   4.283202   3.278872   0.001142   0.240512   0.004748
 199   9   0.304908   3.974628   3.699468   0.001116   0.240512   0.004638
 200   9  -1.809510   4.203979   3.312069   0.001378   0.309230   0.004458
 201   9  -2.366961   4.732236   2.636724   0.001416   0.309230   0.004579
 202   9  -2.802185   5.353164   0.320098   0.001390   0.274871   0.005056
 203   9  -2.143707   5.779105  -0.413592   0.001401   0.274871   0.005097
 204   9  -0.305684   5.958049  -1.278230   0.001650   0.309230   0.005337
 205   9   0.764112   5.954628  -0.947449   0.001385   0.274871   0.005039
 206   9   2.118052   5.459106   0.505631   0.001040   0.206154   0.005044
 207   9   2.110004   5.100683   1.792748   0.000973   0.206154   0.004720
 208   9  -0.399815   3.481531   3.823708   0.000778   0.206154   0.003774
 209   9  -2.082226   5.156166  -1.399942   0.001339   0.274871   0.004870
 210   9  -0.671257   5.487407  -1.787559   0.000452   0.137436   0.003287
 211   9   1.332604   5.221275  -1.460720   0.000753   0.171795   0.004381
 212   9   0.543008   5.033091   3.191173   0.001364   0.343589   0.003969
 213   9  -1.575220   5.307728   2.789631   0.001503   0.377948   0.003976
 214   9  -1.895931   6.124698   0.573753   0.001788   0.412307   0.004336
 215   9   0.073819   6.401030  -0.287908   0.001657   0.377948   0.004385
 216   9   1.721056   5.711209   1.363784   0.001401   0.343589   0.004076
 217   9  -2.616021   5.188841  -0.690127   0.000876   0.171795   0.005098
 218   9   0.464114   5.442499  -1.732589   0.001293   0.240512   0.005377
 219  10  -7.490697   2.146806   0.024999   0.001138   0.377948   0.003012
 220  10  -6.693756  -0.734748  -1.537939   0.001863   0.343589   0.005423
 221  10  -5.783416   1.990468  -2.140992   0.001038   0.206154   0.005037
 222  10  -5.276814   3.833640   0.509751   0.001413   0.240512   0.005874
 223  10  -6.061888   2.194427   3.089691   0.001940   0.343589   0.005645
 224  10  -7.268499  -0.832738   1.871201   0.001704   0.309230   0.005509
 225  10  -7.657639   1.118605  -0.583028   0.001512   0.412307   0.003667
 226  10  -7.320181   0.141717  -1.211994   0.001893   0.377948   0.005009
 227  10  -7.013169   2.277745  -0.946784   0.001230   0.343589   0.003580
 228  10  -6.284122   2.327686  -1.662573   0.001488   0.309230   0.004811
 229  10  -6.787261   3.062590   0.138079   0.001354   0.377948   0.003582
 230  10  -5.984779   3.612822   0.535605   0.001424   0.309230   0.004606
 231  10  -7.321289   2.429257   1.168976   0.001350   0.377948   0.003571
 232  10  -6.897529   2.358337   2.223989   0.001685   0.343589   0.004904
 233  10  -7.847086   1.273365   0.829749   0.001774   0.481025   0.003688
 234  10  -7.785315   0.209922   1.406643   0.002100   0.412307   0.005093
 235  10  -6.461588   0.166604  -2.070242   0.001444   0.274871   0.005252
 236  10  -5.970962   1.193326  -2.328143   0.001292   0.240512   0.005373
 237  10  -5.397692   3.080794  -1.423206   0.001608   0.274871   0.005848
 238  10  -5.225403   3.595962  -0.638526   0.001348   0.274871   0.004906
 239  10  -5.282730   3.619168   1.748149   0.001451   0.274871   0.005280
 240  10  -5.772215   3.028613   2.507838   0.001855   0.343589   0.005398
 241  10  -6.663672   1.281363   3.081638   0.002158   0.377948   0.005710
 242  10  -7.168757   0.132542   2.609318   0.002397   0.412307   0.005813
 243  10  -7.561933  -0.805713   0.894211   0.001717   0.309230   0.005553
 244  10  -7.367092  -0.865472  -0.402947   0.001909   0.343589   0.005556
 245  10  -5.898147  -0.567758  -2.156351   0.000775   0.171795   0.004510
 246  10  -4.895338   2.356928   3.349530   0.001415   0.377948   0.003745
 247  10  -5.448533   1.283184   3.686938   0.001610   0.377948   0.004260
 248  10  -6.199508  -0.380386   3.275529   0.001203   0.274871   0.004377
 249  10  -6.562300  -1.073590   2.604910   0.001385   0.343589   0.004031
 250  10  -6.729628  -1.678057   1.560438   0.001233   0.343589   0.003590
 251  10  -6.812424  -1.353488  -0.809107   0.000829   0.171795   0.004826
 252  10  -6.905383   1.211264  -1.689353   0.001959   0.412307   0.004752
 253  10  -6.183166   3.160173  -0.790081   0.001501   0.343589   0.004368
 254  10  -6.412228   3.218355   1.537232   0.001922   0.412307   0.004661
 255  10  -7.445998   1.305863   2.147519   0.002221   0.446666   0.004972
 256  10  -7.816649   0.040553   0.065956   0.001959   0.412307   0.004751
 257  10  -5.775172   0.287960  -2.437262   0.000933   0.171795   0.005428
 258  10  -4.827814   3.126291   2.687773   0.001075   0.240512   0.004471
 259  10  -6.142554   0.416839   3.485093   0.001427   0.309230   0.004616
 260  10  -7.077971  -1.530361   0.418666   0.001579   0.274871   0.005745
 261  11  -1.938282  -0.815659   5.408736  -0.005477   0.353299  -0.015502
 262  11  -3.211277   0.155869   4.977614  -0.004405   0.372926  -0.011813
 263  11  -2.028840   0.826671   4.854630  -0.005246   0.333671  -0.015723
 264  11  -1.817328  -2.715593   4.380448  -0.003946   0.255160  -0.015466
 265  11  -3.339122  -2.000276   4.683152  -0.003379   0.294415  -0.011476
 266  11  -2.030235   0.065779   5.281197  -0.004499   0.333671  -0.013483
 267  11  -1.771534  -1.813294   5.139101  -0.004752   0.333671  -0.014243
 268  11  -2.540221  -2.296670   4.811667  -0.003852   0.314043  -0.012265
 269  11  -3.274361  -1.005271   5.116541  -0.006594   0.510320  -0.012921
 270  12  -1.049505  -2.473723  -5.035587  -0.011209   0.392554  -0.028554
 271  12   0.388070  -0.966825  -5.692735  -0.007516   0.372926  -0.020154
 272  12  -1.886435  -0.742645  -5.904452  -0.008229   0.412182  -0.019965
 273  12  -2.983338  -1.213939  -4.727089  -0.005981   0.255160  -0.023441
 274  12  -1.092241  -1.593876  -5.831080  -0.007841   0.353299  -0.022194
 275  12  -2.132464  -1.905874  -5.211100  -0.008982   0.392554  -0.022881
 276  12  -0.054431  -1.886195  -5.463022  -0.008209   0.353299  -0.023236
 277  12  -0.676484  -0.600453  -6.113592  -0.005791   0.333671  -0.017356
 278  12  -2.749130  -0.765394  -5.262929  -0.004122   0.235532  -0.017502
 279   1  -0.971845  -3.648416   2.752388  -0.001500   0.116348  -0.012890
 280   2  -0.906150  -3.322365   3.053990  -0.002173   0.116348  -0.018676
 281   7   0.019479  -3.183369   3.235792  -0.001853   0.116348  -0.015922
 282   1  -5.439741  -2.918606   1.654552  -0.000399   0.046747  -0.008544
 283   2  -5.521376  -2.559576   1.906716  -0.000548   0.046747  -0.011721
 284  10  -5.832151  -2.266414   1.792952  -0.000468   0.046747  -0.010003
 285   2  -5.100233  -2.895560   2.284237  -0.001592   0.176440  -0.009024
 286   2  -3.549797  -3.356151   3.050918  -0.003836   0.345676  -0.011097
 287   2  -1.770738  -3.515860   3.165981  -0.001967   0.176440  -0.011149
 288   1  -4.492386  -3.611548   2.253080  -0.001336   0.347546  -0.003843
 289   1  -2.489753  -3.984647   2.783433  -0.001635   0.347546  -0.004705
 290   1   0.048779  -4.211240   1.765058  -0.001470   0.218358  -0.006734
 291   5   0.987768  -4.222202   1.654877  -0.001269   0.218358  -0.005813
 292   7   1.044874  -3.822288   2.313279  -0.002242   0.218358  -0.010268
 293   1  -1.050541  -3.706844  -3.068021  -0.001135   0.228240  -0.004971
 294   5  -0.118162  -3.653648  -3.227397  -0.001436   0.228240  -0.006293
 295  12  -0.725660  -3.105994  -3.706349  -0.005681   0.228240  -0.024892
 296   5   0.917194  -4.815823   1.193793   0.000289   0.281843   0.001026
 297   5   0.723582  -5.381806  -0.107629   0.001921   0.563918   0.003407
 298   5   0.416709  -5.197724  -1.823357   0.001738   0.563918   0.003081
 299   5   0.173133  -4.369488  -2.966256   0.000438   0.281843   0.001554
 300   1  -0.471693  -5.136677   0.939399   0.002078   0.563918   0.003684
 301   1  -0.744103  -5.501291  -0.753123   0.002550   0.563918   0.004521
 302   1  -1.055190  -4.786659  -2.322934   0.001928   0.563918   0.003419
 303   7   0.690720  -3.584946   3.227377  -0.001366   0.414708  -0.003293
 304   1  -0.611001  -4.274529   2.319305  -0.001264   0.414708  -0.003048
 305   1  -4.166169  -1.432532  -2.774774  -0.001644   0.217656  -0.007552
 306  10  -4.532985  -0.768832  -2.590194  -0.001519   0.217656  -0.006979
 307  12  -3.633579  -0.948324  -3.368329  -0.003718   0.217656  -0.017084
 308  10  -5.390232  -0.947823  -2.259433   0.000150   0.265402   0.000564
 309  10  -6.204130  -1.684766  -1.090654   0.001449   0.532544   0.002721
 310  10  -6.324403  -2.157824   0.800464   0.000053   0.532544   0.000100
 311   1  -5.172140  -2.172170  -2.037884   0.000762   0.532544   0.001430
 312   1  -5.850425  -2.932970  -0.371843   0.001199   0.532544   0.002251
 313   1  -5.652879  -3.148357   1.204908  -0.000422   0.265402  -0.001591
 314  12  -1.325377  -2.936814  -4.186956  -0.005402   0.236222  -0.022867
 315  12  -2.460889  -2.304894  -4.310185  -0.010997   0.476541  -0.023076
 316  12  -3.300407  -1.335377  -4.066992  -0.004211   0.236222  -0.017828
 317   1  -2.310707  -3.569894  -3.374306  -0.001160   0.577382  -0.002009
 318   1  -3.658025  -2.477433  -3.292469  -0.001336   0.577382  -0.002313
 319   2  -0.921583  -2.999101   3.476776  -0.001635   0.080828  -0.020228
 320   7   0.002809  -2.891983   3.686027  -0.001082   0.080828  -0.013382
 321  11  -0.934182  -2.841557   3.732564  -0.001428   0.080828  -0.017668
 322   7   0.440641  -3.162553   3.739749  -0.000108   0.048052  -0.002240
 323   2  -0.871666  -3.262907   3.365885  -0.000035   0.053510  -0.000645
 324   2  -3.160427   2.456701   3.280678  -0.001561   0.099394  -0.015704
 325   9  -2.705499   3.077027   3.079799  -0.000894   0.099394  -0.008995
 326  10  -3.553134   2.587597   3.118679  -0.000862   0.099394  -0.008677
 327   2  -2.038418   1.819787   3.943313  -0.001078   0.047553  -0.022671
 328   9  -1.620383   2.450709   3.706183  -0.000840   0.047553  -0.017661
 329  11  -1.978009   1.582220   4.113074  -0.001210   0.047553  -0.025440
 330   9  -2.024414   3.217913   3.435272  -0.000501   0.281418  -0.001779
 331   2  -2.449880   2.187574   3.760682  -0.003574   0.310331  -0.011516
 332  10  -6.017836  -1.781927   2.286636  -0.000520   0.171959  -0.003023
 333  10  -5.509413  -0.454193   3.410263  -0.001405   0.364068  -0.003860
 334  10  -4.518802   1.493890   3.610156  -0.001554   0.364068  -0.004267
 335   2  -5.351769  -1.653142   2.933971  -0.003940   0.359309  -0.010966
 336   2  -4.526971   0.230567   3.915333  -0.004296   0.359309  -0.011957
 337   2  -3.631744   1.855792   3.674727  -0.002018   0.183486  -0.010996
 338  11  -2.411529   1.192393   4.455647  -0.001299   0.068137  -0.019071
 339  11  -3.347205   0.591197   4.549079  -0.002643   0.151883  -0.017398
 340  11  -3.951674  -0.614129   4.518697  -0.002657   0.151883  -0.017495
 341  11  -3.700962  -1.925877   4.330068  -0.002522   0.151883  -0.016607
 342  11  -2.700873  -2.790461   4.062797  -0.002655   0.151883  -0.017481
 343  11  -1.617340  -2.962860   3.858123  -0.001310   0.068137  -0.019231
 344   2  -2.953652   1.250871   4.221110  -0.002857   0.148696  -0.019213
 345   2  -4.027935   0.184581   4.286614  -0.002464   0.148696  -0.016569
 346   2  -4.238012  -1.310176   4.156555  -0.002775   0.148696  -0.018659
 347   2  -3.495227  -2.602585   3.885820  -0.002604   0.148696  -0.017514
 348   2  -2.113049  -3.147223   3.588665  -0.003059   0.148696  -0.020571
 349   4   5.546617  -2.046704   0.233785  -0.000847   0.044430  -0.019075
 350   5   5.436933  -2.404316   0.006997  -0.000744   0.044430  -0.016737
 351   6   5.783504  -1.726493   0.060650  -0.000649   0.044430  -0.014610
 352   4   5.144424  -2.487111   1.076947  -0.000832   0.044735  -0.018609
 353   5   5.042671  -2.835904   0.833338  -0.000741   0.044735  -0.016571
 354   7   5.092777  -2.483366   1.510902  -0.000667   0.044735  -0.014906
 355   5   5.272847  -2.866741   0.220839  -0.000700   0.095637  -0.007314
 356   4   5.326254  -2.399540   0.656132  -0.001394   0.102048  -0.013657
 357   4   5.614791  -1.569313   1.149639  -0.000847   0.044291  -0.019118
 358   6   5.850248  -1.258578   0.958263  -0.000751   0.044291  -0.016951
 359   7   5.553776  -1.583894   1.582135  -0.000654   0.044291  -0.014771
 360   6   6.056055  -1.288021   0.464129  -0.000731   0.095156  -0.007682
 361   4   5.667930  -1.775364   0.594474  -0.001416   0.101535  -0.013943
 362   7   5.330523  -2.138836   1.847234  -0.000647   0.095727  -0.006756
 363   4   5.427922  -1.987769   1.232709  -0.001198   0.102144  -0.011729
 364   5   2.857848  -0.811646  -3.841029  -0.002467   0.211409  -0.011671
 365   6   3.205907  -0.126897  -3.780831  -0.002184   0.211409  -0.010332
 366   8   2.263254  -0.095871  -4.175409  -0.002167   0.211409  -0.010249
 367   6   6.035958  -1.635149  -0.421196  -0.001277   0.268542  -0.004757
 368   6   5.768817  -1.372415  -2.018134  -0.000533   0.539154  -0.000988
 369   6   4.550778  -0.639441  -3.418194  -0.001001   0.539154  -0.001857
 370   5   5.478963  -2.520946  -1.118922  -0.001871   0.539154  -0.003469
 371   5   4.780577  -2.021750  -2.920060  -0.000286   0.539154  -0.000531
 372   5   3.571092  -1.335082  -3.789679  -0.000852   0.268542  -0.003173
 373   7   1.914746  -3.956423   2.696499  -0.000528   0.278936  -0.001893
 374   7   3.573848  -3.720638   2.451194  -0.000703   0.560389  -0.001254
 375   7   4.921951  -2.855382   1.901343  -0.001336   0.278936  -0.004791
 376   5   2.488785  -4.411040   1.657174  -0.000586   0.560389  -0.001046
 377   5   4.362402  -3.725044   1.161757  -0.001922   0.560389  -0.003430
 378   5   2.047105  -1.236115  -4.236845  -0.001543   0.088508  -0.017437
 379   8   1.514774  -0.532808  -4.670688  -0.001366   0.088508  -0.015438
 380  12   1.368951  -0.817368  -4.735767  -0.001728   0.088508  -0.019522
 381   8   1.849535  -0.244762  -4.674887  -0.000524   0.138066  -0.003792
 382   5   2.610896  -1.315146  -4.175628  -0.000480   0.138066  -0.003474
 383  12   1.228270  -1.229090  -4.923548  -0.003837   0.221278  -0.017341
 384  12   0.500830  -2.197851  -4.828202  -0.009926   0.445585  -0.022276
 385  12  -0.375405  -2.887221  -4.344736  -0.004903   0.221278  -0.022155
 386   5   1.980239  -2.285322  -4.316269  -0.001907   0.542129  -0.003518
 387   5   0.885184  -3.417562  -3.921032  -0.001820   0.542129  -0.003358
 388   6   3.609799   2.986152   2.075401  -0.002165   0.208454  -0.010386
 389   7   3.308296   2.652355   2.701145  -0.002345   0.208454  -0.011250
 390   9   2.749887   3.393629   2.292198  -0.001707   0.208454  -0.008187
 391   7   5.728377  -1.288128   2.019477  -0.001276   0.271778  -0.004695
 392   7   5.622485   0.198732   2.744726  -0.000595   0.545766  -0.001091
 393   7   4.503032   1.842288   3.070378  -0.001165   0.545766  -0.002134
 394   6   6.152694  -0.259674   1.424591  -0.001843   0.545766  -0.003377
 395   6   5.618368   1.555463   2.117609  -0.000332   0.545766  -0.000609
 396   6   4.451178   2.731110   2.176534  -0.000819   0.271778  -0.003015
 397   6   2.438134   3.684770  -2.322821  -0.000818   0.213177  -0.003839
 398   8   1.518420   3.735953  -2.766752   0.000014   0.213177   0.000065
 399   9   1.607643   4.148819  -2.103817  -0.000783   0.213177  -0.003671
 400   8   1.706152   3.491143  -3.503615   0.001908   0.342449   0.005573
 401   8   2.073367   2.192400  -4.373028   0.005156   0.685279   0.007524
 402   8   2.154981   0.611272  -4.639180   0.000693   0.342449   0.002025
 403   6   3.180209   2.985824  -3.261781   0.001148   0.685279   0.001675
 404   6   3.460028   1.190392  -3.969740  -0.000001   0.685279  -0.000002
 405   9   2.691243   4.166997   1.981485   0.000130   0.305736   0.000426
 406   9   2.654349   4.849685   0.641944   0.001384   0.611764   0.002262
 407   9   2.133001   4.827983  -1.117440   0.000943   0.611764   0.001542
 408   6   3.888602   3.844057   1.139310  -0.000353   0.611764  -0.000578
 409   6   3.650824   4.364233  -0.604418   0.000874   0.611764   0.001429
 410   6   3.101021   4.066793  -1.972278   0.000149   0.305736   0.000488
 411   7   0.203295   1.316503   4.264138  -0.002473   0.258559  -0.009564
 412   9  -0.335912   2.077393   3.857790  -0.003107   0.258559  -0.012018
 413  11  -0.737805   1.200431   4.226350  -0.005350   0.258559  -0.020691
 414   9   0.206076   2.833012   3.931647  -0.000363   0.371074  -0.000979
 415   9   1.653493   3.507911   3.249616  -0.000158   0.743280  -0.000213
 416   7   1.537817   2.035978   4.267754  -0.001099   0.743280  -0.001479
 417   7   2.952858   2.616175   3.445135  -0.001086   0.371074  -0.002927
 418  11  -0.930409  -2.666220   4.201348  -0.003284   0.252469  -0.013008
 419  11  -0.886256  -1.540293   4.983656  -0.007629   0.509806  -0.014964
 420  11  -0.910760   0.116360   4.979761  -0.007916   0.509806  -0.015527
 421   7   0.437419  -2.386216   4.596873  -0.001083   0.617472  -0.001754
 422   7   0.463685  -0.691173   5.255609  -0.000775   0.617472  -0.001255
 423   7   0.415911   0.761230   4.912805  -0.000512   0.311725  -0.001643
 424   8  -3.076940   3.538315  -2.066120   0.000473   0.214156   0.002207
 425   9  -2.995601   3.949393  -1.400982  -0.000574   0.214156  -0.002681
 426  10  -3.818144   3.408616  -1.377860  -0.000249   0.214156  -0.001161
 427   9   0.905047   4.708527  -2.197423   0.000521   0.288453   0.001805
 428   9  -0.792872   4.977503  -2.143819   0.002362   0.579586   0.004076
 429   9  -2.400535   4.569017  -1.689166   0.000474   0.288453   0.001643
 430   8   0.138284   4.279343  -3.146132   0.004082   0.579586   0.007044
 431   8  -1.920971   4.192434  -2.829507   0.004285   0.579586   0.007393
 432   8  -3.672581  -0.180976  -3.647554  -0.000694   0.085727  -0.008096
 433  10  -4.340637  -0.240744  -2.889681  -0.000681   0.085727  -0.007944
 434  12  -3.526927  -0.456728  -3.740299  -0.001331   0.085727  -0.015521
 435  10  -4.529738   3.123281  -1.764529   0.001016   0.346559   0.002931
 436  10  -5.024232   1.772113  -2.523071   0.002812   0.693604   0.004054
 437  10  -5.034313   0.165661  -2.777584   0.000412   0.346559   0.001189
 438   8  -3.672687   2.775874  -3.041329   0.005895   0.693604   0.008500
 439   8  -3.987222   0.932195  -3.672833   0.002966   0.693604   0.004277
 440  12  -3.208882  -0.481639  -4.506290  -0.001592   0.088963  -0.017892
 441  12  -2.415363  -0.094332  -5.472043  -0.004060   0.195238  -0.020793
 442  12  -0.929913   0.015976  -6.002911  -0.004088   0.195238  -0.020940
 443  12   0.541899  -0.345260  -5.551440  -0.003991   0.195238  -0.020440
 444   8  -3.057424   0.109307  -4.799189  -0.002657   0.189352  -0.014033
 445   8  -1.744602   0.477836  -5.831414  -0.003332   0.189352  -0.017597
 446   8  -0.041129   0.333293  -5.877149  -0.003113   0.189352  -0.016440
 447   8   1.123919  -0.091991  -5.230317  -0.001215   0.101860  -0.011933
 448  10  -3.932617   3.021583   2.941260  -0.000456   0.322190  -0.001415
 449  10  -4.406001   3.793006   1.662369   0.001637   0.644840   0.002539
 450  10  -4.456536   3.863771  -0.242690   0.001729   0.644840   0.002682
 451   9  -2.937983   4.070919   2.471856   0.000855   0.644840   0.001326
 452   9  -3.325283   4.697390   0.712781   0.001848   0.644840   0.002865
 453   9  -3.189109   4.462961  -0.830347   0.000371   0.322190   0.001150
 454  11  -1.499511   1.361945   4.402128  -0.003293   0.253832  -0.012974
 455   9  -1.115385   2.707357   3.891007  -0.000922   0.316019  -0.002918
 456  12  -3.586933  -0.717067  -3.900510  -0.000227   0.038634  -0.005864
 457  10  -4.888038  -0.435330  -2.783688   0.000035   0.049078   0.000719
 =====================================================


   1 warning(s) detected.
     A line exceeding 80 characters begins with "http://cactus.nci.ni".
 There may be a problem in your input file.

              3278923  WORDS OF DYNAMIC MEMORY USED
 EXECUTION OF GAMESS TERMINATED NORMALLY Thu Nov 24 07:33:25 2016
 DDI: 263640 bytes (0.3 MB / 0 MWords) used by master data server.

 ----------------------------------------
 CPU timing information for all processes
 ========================================
 0: 744.224 + 0.364 = 744.588
 ----------------------------------------
 ddikick.x: exited gracefully.
