----- GAMESS execution script -----

          ******************************************************
          *         GAMESS VERSION =  5 DEC 2014 (R1)          *
          *             FROM IOWA STATE UNIVERSITY             *
          * M.W.SCHMIDT, K.K.BALDRIDGE, J.A.BOATZ, S.T.ELBERT, *
          *   M.S.GORDON, J.H.JENSEN, S.KOSEKI, N.MATSUNAGA,   *
          *          K.A.NGUYEN, S.J.SU, T.L.WINDUS,           *
          *       TOGETHER WITH M.DUPUIS, J.A.MONTGOMERY       *
          *         J.COMPUT.CHEM.  14, 1347-1363(1993)        *
          **************** 64 BIT LINUX VERSION ****************

 EXECUTION OF GAMESS BEGUN Thu Nov 24 07:47:52 2016

            ECHO OF THE FIRST FEW INPUT CARDS -
 INPUT CARD>! SELECT RESTRICTED HARTREE-FOCK AS DEFAULT                                     
 INPUT CARD>$contrl scftyp=rhf $end                                                         
 INPUT CARD>                                                                                
 INPUT CARD>! THEORY: HF OR DFT                                                             
 INPUT CARD> $contrl mplevl=0 $end                                                          
 INPUT CARD>                                                                                
 INPUT CARD> $system timlim=10000 mwords=20 $end                                            
 INPUT CARD> $SCF DIRSCF=.TRUE. $end                                                        
 INPUT CARD>                                                                                
 INPUT CARD>                                                                                
 INPUT CARD>! BASIS SETS                                                                    
 INPUT CARD>! 6-311G(d,p)                                                                   
 INPUT CARD> $BASIS GBASIS=N311 NGAUSS=6 NDFUNC=1 NPFUNC=1 $END                             
 INPUT CARD>                                                                                
 INPUT CARD>! One of the following                                                          
 INPUT CARD> $guess guess=HUCKEL $end                                                       
 INPUT CARD>                                                                                
 INPUT CARD> $statpt projct=.FALSE. $end                                                    
 INPUT CARD> $STATPT IFREEZ(1)=1,2,3 $END                                                   
 INPUT CARD>                                                                                
 INPUT CARD>! Optimize the geometry with COSMO effects                                      
 INPUT CARD> $statpt opttol=0.0005 nstep=50 $end                                            
 INPUT CARD> $contrl nzvar=1 $end                                                           
 INPUT CARD> $zmat dlc=.t. auto=.t. $end                                                    
 INPUT CARD> $contrl runtyp=OPTIMIZE maxit=200 $end                                         
 INPUT CARD>                                                                                
 INPUT CARD>! Run COSMO on perfect conductor                                                
 INPUT CARD> $COSGMS PRFCND=.TRUE. $end                                                     
 INPUT CARD>                                                                                
 INPUT CARD>! Specifying RSOLV                                                              
 INPUT CARD> $COSGMS COSRAD = 1.4 $end                                                      
 INPUT CARD>                                                                                
 INPUT CARD>! available memory                                                              
 INPUT CARD> $SYSTEM MWORDS=40 $END                                                         
 INPUT CARD>                                                                                
 INPUT CARD> $DATA                                                                          
 INPUT CARD>                                                                                
 INPUT CARD>C1                                                                              
 INPUT CARD>S     16.0      0.1570000000    0.5026000000    0.0000000000                    
 INPUT CARD>H      1.0     -0.9162000000   -0.3038000000    0.0000000000                    
 INPUT CARD>H      1.0      1.0234000000   -0.5190000000    0.0000000000                    
 INPUT CARD> $END                                                                           
 INPUT CARD>                                                                                
 INPUT CARD>                                                                                
   40000000 WORDS OF MEMORY AVAILABLE

     BASIS OPTIONS
     -------------
     GBASIS=N311         IGAUSS=       6      POLAR=POPN311 
     NDFUNC=       1     NFFUNC=       0     DIFFSP=       F
     NPFUNC=       1      DIFFS=       F     BASNAM=        


     RUN TITLE
     ---------
                                                                                 

 THE POINT GROUP OF THE MOLECULE IS C1      
 THE ORDER OF THE PRINCIPAL AXIS IS     0

 ATOM      ATOMIC                      COORDINATES (BOHR)
           CHARGE         X                   Y                   Z
 S          16.0     0.2966869801        0.9497762814        0.0000000000
 H           1.0    -1.7313669500       -0.5740987551        0.0000000000
 H           1.0     1.9339455758       -0.9807677876        0.0000000000

          INTERNUCLEAR DISTANCES (ANGS.)




     $CONTRL OPTIONS
     ---------------
 SCFTYP=RHF          RUNTYP=OPTIMIZE     EXETYP=RUN     
 MPLEVL=       0     CITYP =NONE         CCTYP =NONE         VBTYP =NONE    
 DFTTYP=NONE         TDDFT =NONE    
 MULT  =       1     ICHARG=       0     NZVAR =       1     COORD =UNIQUE  
 PP    =NONE         RELWFN=NONE         LOCAL =NONE         NUMGRD=       F
 ISPHER=      -1     NOSYM =       0     MAXIT =     200     UNITS =ANGS    
 PLTORB=       F     MOLPLT=       F     AIMPAC=       F     FRIEND=        
 NPRINT=       7     IREST =       0     GEOM  =INPUT   
 NORMF =       0     NORMP =       0     ITOL  =      20     ICUT  =       9
 INTTYP=BEST         GRDTYP=BEST         QMTTOL= 1.0E-06

     $SYSTEM OPTIONS
     ---------------
  REPLICATED MEMORY=    40000000 WORDS (ON EVERY NODE).
 DISTRIBUTED MEMDDI=           0 MILLION WORDS IN AGGREGATE,
 MEMDDI DISTRIBUTED OVER   1 PROCESSORS IS           0 WORDS/PROCESSOR.
 TOTAL MEMORY REQUESTED ON EACH PROCESSOR=    40000000 WORDS.
 TIMLIM=       10000.00 MINUTES, OR       6.9 DAYS.
 PARALL= F  BALTYP=  DLB     KDIAG=    0  COREFL= F
 MXSEQ2=     300 MXSEQ3=     150  mem10=         0

     $COSGMS OPTIONS
     ---------------
     EPSI  =   INFTY     NSPA  =      92     COSRAD=    1.40
     DISEX =   10.00     OUTCHG=DBLCAV       COSBUG=       F
     COSWRT=       F     DCOSMO=       F

     SYMMETRY COORDINATES WILL NOT BE USED FOR 
     THE COSMO CALCULATION, EVEN IF SPECIFIED:
         -- SWITCHING TO C1 POINT GROUP --


     DEFINITION OF CAVITY
     ---------------------------
     ATOM         COORDINATES           RADIUS 
     1    0.2967    0.9498    0.0000    2.1600
     2   -1.7314   -0.5741    0.0000    1.3000
     3    1.9339   -0.9808    0.0000    1.3000

          ----------------
          PROPERTIES INPUT
          ----------------

     MOMENTS            FIELD           POTENTIAL          DENSITY
 IEMOM =       1   IEFLD =       0   IEPOT =       0   IEDEN =       0
 WHERE =COMASS     WHERE =NUCLEI     WHERE =NUCLEI     WHERE =NUCLEI  
 OUTPUT=BOTH       OUTPUT=BOTH       OUTPUT=BOTH       OUTPUT=BOTH    
 IEMINT=       0   IEFINT=       0                     IEDINT=       0
                                                       MORB  =       0
          EXTRAPOLATION IN EFFECT
          SOSCF IN EFFECT
 ORBITAL PRINTING OPTION: NPREO=     1    39     2     1

     -------------------------------
     INTEGRAL TRANSFORMATION OPTIONS
     -------------------------------
     NWORD  =            0
     CUTOFF = 1.0E-09     MPTRAN =       0
     DIRTRF =       T     AOINTS =DUP     

          ----------------------
          INTEGRAL INPUT OPTIONS
          ----------------------
 NOPK  =       1 NORDER=       0 SCHWRZ=       T


 -----------------------------------------------
  STATISTICS ON AUTOMATIC COORDINATE GENERATION 
 -----------------------------------------------
  NUMBER OF USER SPECIFIED BONDS                             0
  NUMBER OF BONDS                                            2
  NUMBER OF ANGLES                                           1
  NUMBER OF TORSIONS                                         0
  NUMBER OF EXTRA COORD.                                     0
  NUMBER OF EXTRA COORD. FOR CONSTRAINTS                     0
  NUMBER OF CONSTRAINED COORD.                               0

  TOTAL NUMBER OF PRIMITIVES                                 3
 -----------------------------------------------

   --- ENCODED Z MATRIX ---
 COORD  TYPE   I   J   K   L   M   N
    1      1    1   3
    2      1    1   2
    3      2    2   1   3

          INDEP./SYM. INTERNAL COORDINATES
          --------------------------------
 CRD  1=   0.2451 (  1)  0.2456 (  2)  0.9379 (  3)
 CRD  2=   0.7088 (  1) -0.7055 (  2)
 CRD  3=  -0.6615 (  1) -0.6648 (  2)  0.3470 (  3)

 THE DETERMINANT OF THE G MATRIX IS 10**(    -1)


                     --------------------
                     INTERNAL COORDINATES
                     --------------------

                 - - ATOMS - -         COORDINATE      COORDINATE
 NO.   TYPE    I  J  K  L  M  N        (BOHR,RAD)       (ANG,DEG)
 ----------------------------------------------------------------
   1 STRETCH   1  3                     2.5313269       1.3395206
   2 STRETCH   1  2                     2.5367692       1.3424005
   3 BEND      2  1  3                  1.6297805      93.3795432

     ------------------------------------------
     THE POINT GROUP IS C1 , NAXIS= 1, ORDER= 1
     ------------------------------------------

     DIMENSIONS OF THE SYMMETRY SUBSPACES ARE
 A   =   39

 ..... DONE SETTING UP THE RUN .....
 STEP CPU TIME =     0.00 TOTAL CPU TIME =        0.0 (    0.0 MIN)
 TOTAL WALL CLOCK TIME=        0.0 SECONDS, CPU UTILIZATION IS   0.00%


          -----------------------------
          STATIONARY POINT LOCATION RUN
          -----------------------------

 OBTAINING INITIAL HESSIAN, HESS=GUESS   
 DIAGONAL GUESS HESSIAN IN INTERNAL COORDS IS
     1  0.3604     2  0.3584     3  0.2295
 TRANSFORMING HESSIAN TO SYMMETRY COORDINATES

          PARAMETERS CONTROLLING GEOMETRY SEARCH ARE
          METHOD =QA                  UPHESS =BFGS    
          NNEG   =         0          NFRZ   =         3
          NSTEP  =        50          IFOLOW =         1
          HESS   =GUESS               RESTAR =         F
          IHREP  =         0          HSSEND =         F
          NPRT   =         0          NPUN   =         0
          OPTTOL = 5.000E-04          RMIN   = 1.500E-03
          RMAX   = 1.000E-01          RLIM   = 7.000E-02
          DXMAX  = 3.000E-01          PURIFY =         F
          MOVIE  =         F          TRUPD  =         T
          TRMAX  = 5.000E-01          TRMIN  = 5.000E-02
          ITBMAT =         5          STPT   =         F
          STSTEP = 1.000E-02          PROJCT=          F
          FROZEN COORD(S)=   1   2   3


      ***** EQUILIBRIUM GEOMETRY LOCATED *****
            (SUBJECT TO   3 CONSTRAINT(S))
 COORDINATES OF ALL ATOMS ARE (ANGS)
   ATOM   CHARGE       X              Y              Z
 ------------------------------------------------------------
 S          16.0   0.1570000000   0.5026000000   0.0000000000
 H           1.0  -0.9162000000  -0.3038000000   0.0000000000
 H           1.0   1.0234000000  -0.5190000000   0.0000000000


                     --------------------
                     INTERNAL COORDINATES
                     --------------------

                 - - ATOMS - -         COORDINATE      COORDINATE
 NO.   TYPE    I  J  K  L  M  N        (BOHR,RAD)       (ANG,DEG)
 ----------------------------------------------------------------
   1 STRETCH   1  3                     2.5313269       1.3395206
   2 STRETCH   1  2                     2.5367692       1.3424005
   3 BEND      2  1  3                  1.6297805      93.3795432

          INTERNUCLEAR DISTANCES (ANGS.)


 =====================================================
   GAMESS/COSab RESULTS
 =====================================================

   Dielectric Constant                  = INFTY
   Basic Grid Size                      =                 1082
   Number of Segments                   =                   92
   Number of Segments located on spheres=                  111
   Number of Segments of the cavity     =                  153
   Solvent Radius (rsolv)               = 1.40
   Outlying Charge Error Method         = double cavity

 =====================================================

  Total solvated Energy (a.u.)          =  -398.7340845592
  Total Energy corrected (a.u.)         =  -398.7341482697

  Outlying charge effect (a.u.)         =    -0.0000637105
  Outlying charge effect (kcal/mol)     =    -0.0399789808

  Dielectric Energy (a.u.)              =    -0.0050239149
  Dielectric energy corr. (a.u.)        =    -0.0050876254

  Sum of polarization charges           =     0.0186420555
  Sum of polarization charges(cor.)     =    -0.0186420555

  Total surface area of cavity (A**2)   =   62.27
  Total volume of cavity (A**3)         =   45.17

 =====================================================
 NPS=                   153
NR.  ATOM  (X, Y, Z)(a.u.)                  CHARGE(e)  AREA(A**2) SIGMA(e/A**2)
   1   1   3.487766   3.494927  -0.019767  -0.001525   0.596050  -0.002559
   2   1   0.325538   3.955156   2.761871   0.004630   0.541864   0.008544
   3   1  -0.280287   4.764368  -1.333087   0.002113   0.541864   0.003900
   4   1   1.889805   2.001888  -3.607806   0.005111   0.541864   0.009432
   5   1   2.879315   0.460428   3.122773   0.001872   0.487677   0.003838
   6   1  -3.194524   2.793936   1.035177  -0.001982   0.433491  -0.004572
   7   1  -2.285877   1.439541  -3.122767   0.001958   0.487677   0.004015
   8   1   0.316652  -1.928016  -2.894677   0.000920   0.433491   0.002123
   9   1   0.274326  -2.818166   1.569486  -0.000745   0.270932  -0.002750
  10   1  -1.109695  -0.031527   3.704081   0.003543   0.487677   0.007265
  11   1   2.773580   3.949399   1.236282   0.000791   0.650237   0.001217
  12   1   1.576088   4.179879   2.142583   0.003484   0.596050   0.005845
  13   1   2.396635   4.420530  -0.453033   0.000871   0.650237   0.001339
  14   1   1.071051   4.867981  -0.842119   0.002025   0.541864   0.003738
  15   1   3.314205   3.246391  -1.510411  -0.000357   0.650237  -0.000549
  16   1   2.916339   2.502385  -2.718097   0.002352   0.596050   0.003947
  17   1   4.146115   2.227021  -0.460162  -0.003392   0.596050  -0.005691
  18   1   4.298115   0.876576  -0.802770  -0.003632   0.596050  -0.006093
  19   1   3.881809   2.533531   1.140081  -0.002774   0.758609  -0.003657
  20   1   3.632880   1.550189   2.273868  -0.000276   0.650237  -0.000425
  21   1  -2.069349  -0.515508   2.985951   0.001458   0.487677   0.002991
  22   1  -0.321285  -2.959381   0.998888  -0.001430   0.325118  -0.004397
  23   1  -0.718880  -2.271818  -2.291545  -0.000156   0.541864  -0.000288
  24   1  -2.978728   0.740896  -2.426765  -0.000118   0.379305  -0.000311
  25   1  -3.642879   1.671438   0.787473  -0.003404   0.541864  -0.006282
  26   1   0.031955   4.701165   1.586845   0.002920   0.596050   0.004900
  27   1  -0.117320   5.008279   0.135120   0.001747   0.596050   0.002931
  28   1   0.452139   4.276862  -2.359555   0.005177   0.704423   0.007349
  29   1   1.296001   3.202792  -3.253690   0.006481   0.650237   0.009967
  30   1   2.909102   0.913385  -3.136114   0.002813   0.650237   0.004327
  31   1   3.572631   0.134523  -2.294516  -0.000406   0.487677  -0.000833
  32   1   3.680114   0.151159   2.139113  -0.000590   0.379305  -0.001555
  33   1   2.389468   1.654185   3.432956   0.005305   0.704423   0.007530
  34   1   1.405130   3.015917   3.341183   0.007145   0.704423   0.010144
  35   1  -3.393062   2.654534  -0.375038  -0.002629   0.433491  -0.006065
  36   1  -3.113315   2.081551  -1.937036  -0.001256   0.596050  -0.002108
  37   1  -1.739695   0.345994  -3.485656   0.003770   0.596050   0.006325
  38   1  -0.626278  -1.124362  -3.392244   0.002685   0.541864   0.004956
  39   1   0.211143  -2.722323  -1.780339  -0.000639   0.270932  -0.002357
  40   1  -0.141741  -3.104855  -0.170145  -0.000714   0.216746  -0.003296
  41   1   0.082170  -2.314455   2.441296   0.000289   0.541864   0.000534
  42   1  -0.655226  -1.219591   3.323976   0.002489   0.541864   0.004593
  43   1  -2.212076   1.020375   3.219035   0.002582   0.541864   0.004765
  44   1  -2.913089   2.037343   2.274994  -0.000332   0.541864  -0.000614
  45   1  -1.095101   3.973153   2.362876   0.002969   0.596050   0.004980
  46   1  -2.345337   3.412744   1.901200  -0.000164   0.596050  -0.000275
  47   1  -2.617220   3.801732   0.191253  -0.003024   0.758609  -0.003987
  48   1  -1.535427   4.549402  -0.589201   0.000051   0.596050   0.000085
  49   1  -1.350335   4.041788  -2.094736   0.002276   0.650237   0.003501
  50   1  -1.915341   2.825010  -2.872558   0.003215   0.704423   0.004563
  51   1  -0.987099   1.759071  -3.789213   0.005984   0.596050   0.010039
  52   1   0.452210   1.820095  -3.984919   0.008025   0.650237   0.012341
  53   1   1.512468   0.513087  -3.872006   0.006646   0.704423   0.009435
  54   1   0.956668  -0.796827  -3.629746   0.003583   0.541864   0.006612
  55   1   1.260481  -1.836760  -2.822688   0.000647   0.379305   0.001706
  56   1   1.332445  -1.859119   2.774611   0.000400   0.270932   0.001478
  57   1   2.482869  -0.753786   2.996604   0.001666   0.487677   0.003416
  58   1   1.580574   0.140539   3.789180   0.005030   0.596050   0.008438
  59   1   0.202717   0.089351   3.988976   0.005668   0.596050   0.009509
  60   1  -0.918796   1.386720   3.872047   0.007121   0.704423   0.010109
  61   1  -0.360997   2.850668   3.551778   0.007610   0.704423   0.010803
  62   1   1.418441   4.807311   0.722636   0.002288   0.650237   0.003519
  63   1   2.086902   3.985076  -2.059919   0.003650   0.758609   0.004811
  64   1   3.835197   1.617164  -1.922178  -0.001197   0.596050  -0.002009
  65   1   4.290713   0.879400   0.839044  -0.004045   0.704423  -0.005742
  66   1   2.777735   2.996932   2.512902   0.002461   0.650237   0.003785
  67   1  -1.067412  -1.883932   2.602010   0.000136   0.325118   0.000417
  68   1  -0.350218  -2.975289  -0.914655  -0.001125   0.216746  -0.005188
  69   1  -1.807405  -0.802977  -3.026856   0.001540   0.487677   0.003157
  70   1  -3.645565   1.564854  -0.861072  -0.002661   0.433491  -0.006139
  71   1  -3.092095   0.868431   2.273898  -0.000358   0.433491  -0.000826
  72   1  -1.364733   4.553690   0.955281   0.000536   0.596050   0.000899
  73   1  -0.354993   3.199944  -3.342640   0.007144   0.704423   0.010142
  74   1   2.408948  -0.720471  -3.067555   0.002192   0.596050   0.003677
  75   1   0.789395   1.639728   3.992779   0.008608   0.704423   0.012220
  76   1  -2.633024   3.408378  -1.425898  -0.001577   0.650237  -0.002426
  77   1  -0.195515   0.260058  -3.992901   0.006939   0.704423   0.009851
  78   1   0.892890  -1.207394   3.413545   0.003000   0.596050   0.005033
  79   1  -1.806967   2.658407   3.052257   0.003261   0.596050   0.005471
  80   2  -3.645927  -2.113190  -0.027920  -0.003515   0.333671  -0.010536
  81   2  -3.639400  -0.754531  -1.536868  -0.002695   0.353299  -0.007627
  82   2  -4.082783  -0.145019   0.567285  -0.003116   0.353299  -0.008820
  83   2  -2.963486  -1.680899   1.814380  -0.003064   0.392554  -0.007805
  84   2  -1.910117  -2.987679   0.421687  -0.002667   0.353299  -0.007550
  85   2  -2.556922  -2.390878  -1.432800  -0.002580   0.333671  -0.007732
  86   2  -4.118314  -1.081370  -0.283306  -0.003890   0.372926  -0.010430
  87   2  -3.860555  -1.387364   0.916655  -0.003950   0.392554  -0.010062
  88   2  -3.081784  -2.447130   0.838601  -0.003258   0.333671  -0.009765
  89   2  -2.841003  -2.745363  -0.299097  -0.003527   0.353299  -0.009983
  90   2  -3.589633  -1.790928  -1.049428  -0.003320   0.333671  -0.009949
  91   2  -4.061505  -0.108965  -0.623854  -0.002834   0.333671  -0.008495
  92   2  -3.618112  -0.683344   1.569503  -0.002221   0.294415  -0.007542
  93   2  -2.280226  -2.510497   1.408630  -0.002217   0.294415  -0.007530
  94   2  -1.950576  -2.886825  -0.798994  -0.002299   0.294415  -0.007809
  95   2  -2.933925  -1.599329  -1.880928  -0.001948   0.274788  -0.007088
  96   3   3.477575  -2.891852  -0.008852  -0.003296   0.314043  -0.010496
  97   3   3.774033  -1.617951   1.497724  -0.002860   0.353299  -0.008095
  98   3   4.322823  -1.147960  -0.548068  -0.003241   0.353299  -0.009173
  99   3   2.890738  -2.332697  -1.814367  -0.003061   0.392554  -0.007798
 100   3   1.660326  -3.388087  -0.406305  -0.002934   0.372926  -0.007866
 101   3   2.302793  -2.925837   1.454577  -0.002375   0.314043  -0.007563
 102   3   4.147445  -2.017499   0.246368  -0.003659   0.353299  -0.010356
 103   3   3.807037  -2.265491  -0.936004  -0.003744   0.372926  -0.010040
 104   3   2.836631  -3.106105  -0.838580  -0.003276   0.333671  -0.009819
 105   3   2.582662  -3.324076   0.351010  -0.003139   0.314043  -0.009994
 106   3   3.432443  -2.632970   1.029490  -0.003708   0.372926  -0.009942
 107   3   4.309249  -1.042532   0.623852  -0.002814   0.333671  -0.008435
 108   3   3.749793  -1.504637  -1.569500  -0.002212   0.294415  -0.007514
 109   3   2.040909  -2.990618  -1.408609  -0.002203   0.294415  -0.007483
 110   3   1.636189  -3.284690   0.799019  -0.002323   0.294415  -0.007890
 111   3   2.879956  -2.246570   1.880940  -0.001915   0.274788  -0.006969
 112   2  -2.751421  -1.010092   2.205140  -0.000480   0.082231  -0.005834
 113   2  -3.356665  -0.204602   1.750069  -0.001670   0.178331  -0.009364
 114   2  -3.828699   0.423603   0.668320  -0.002043   0.178331  -0.011454
 115   2  -3.828627   0.423502  -0.668706  -0.001999   0.178331  -0.011211
 116   2  -3.356476  -0.204864  -1.750310  -0.001550   0.178331  -0.008692
 117   2  -2.592592  -1.221483  -2.163356  -0.001437   0.178331  -0.008057
 118   2  -1.828754  -2.238039  -1.750074  -0.001537   0.178331  -0.008617
 119   2  -1.356720  -2.866243  -0.668325  -0.001886   0.178331  -0.010578
 120   2  -1.356792  -2.866143   0.668701  -0.001757   0.178331  -0.009854
 121   2  -1.828943  -2.237776   1.750304  -0.001594   0.178331  -0.008940
 122   2  -2.434237  -1.432218   2.205189  -0.000442   0.082231  -0.005378
 123   1  -2.725209  -0.363949   2.353780  -0.000973   0.190107  -0.005117
 124   1  -3.468541   0.625315   1.454573  -0.001722   0.190107  -0.009059
 125   1  -3.752409   1.003097  -0.000232  -0.002131   0.190107  -0.011211
 126   1  -3.468384   0.625097  -1.454950  -0.001730   0.190107  -0.009099
 127   1  -2.724954  -0.364302  -2.353928  -0.000947   0.190107  -0.004981
 128   1  -1.806084  -1.587183  -2.353787  -0.000939   0.190107  -0.004939
 129   1  -1.062751  -2.576447  -1.454580  -0.001519   0.190107  -0.007991
 130   1  -0.778884  -2.954228   0.000226  -0.001792   0.190107  -0.009429
 131   1  -1.062909  -2.576228   1.454944  -0.001481   0.190107  -0.007793
 132   1  -1.806339  -1.586829   2.353921  -0.000942   0.190107  -0.004957
 133   3   2.835236  -1.636906  -2.202147  -0.000477   0.081814  -0.005826
 134   3   3.602704  -0.986033  -1.748094  -0.001662   0.177488  -0.009362
 135   3   4.201463  -0.478234  -0.668156  -0.002153   0.177488  -0.012133
 136   3   4.201750  -0.477981   0.666999  -0.001974   0.177488  -0.011124
 137   3   3.603456  -0.985371   1.747386  -0.001636   0.177488  -0.009216
 138   3   2.635109  -1.806598   2.160336  -0.001408   0.177488  -0.007936
 139   3   1.666584  -2.627981   1.748114  -0.001536   0.177488  -0.008654
 140   3   1.067825  -3.135781   0.668177  -0.001900   0.177488  -0.010706
 141   3   1.067538  -3.136034  -0.666978  -0.001779   0.177488  -0.010021
 142   3   1.665832  -2.628644  -1.747366  -0.001595   0.177488  -0.008988
 143   3   2.433105  -1.977943  -2.201995  -0.000432   0.081814  -0.005284
 144   1   2.953374  -1.003065  -2.350771  -0.001021   0.189062  -0.005401
 145   1   3.896038  -0.203610  -1.453291  -0.001740   0.189062  -0.009201
 146   1   4.256343   0.101966  -0.000700  -0.002061   0.189062  -0.010899
 147   1   3.896663  -0.203059   1.452161  -0.001681   0.189062  -0.008892
 148   1   2.954385  -1.002174   2.350349  -0.001017   0.189062  -0.005380
 149   1   1.789427  -1.990145   2.350787  -0.000915   0.189062  -0.004838
 150   1   0.846762  -2.789600   1.453307  -0.001472   0.189062  -0.007784
 151   1   0.486458  -3.095175   0.000717  -0.001919   0.189062  -0.010148
 152   1   0.846137  -2.790151  -1.452144  -0.001565   0.189062  -0.008279
 153   1   1.788415  -1.991036  -2.350333  -0.000933   0.189062  -0.004934
 =====================================================

              1054920  WORDS OF DYNAMIC MEMORY USED
 EXECUTION OF GAMESS TERMINATED NORMALLY Thu Nov 24 07:47:54 2016
 DDI: 263640 bytes (0.3 MB / 0 MWords) used by master data server.

 ----------------------------------------
 CPU timing information for all processes
 ========================================
 0: 1.368 + 0.12 = 1.380
 ----------------------------------------
 ddikick.x: exited gracefully.
