----- GAMESS execution script -----

          ******************************************************
          *         GAMESS VERSION =  5 DEC 2014 (R1)          *
          *             FROM IOWA STATE UNIVERSITY             *
          * M.W.SCHMIDT, K.K.BALDRIDGE, J.A.BOATZ, S.T.ELBERT, *
          *   M.S.GORDON, J.H.JENSEN, S.KOSEKI, N.MATSUNAGA,   *
          *          K.A.NGUYEN, S.J.SU, T.L.WINDUS,           *
          *       TOGETHER WITH M.DUPUIS, J.A.MONTGOMERY       *
          *         J.COMPUT.CHEM.  14, 1347-1363(1993)        *
          **************** 64 BIT LINUX VERSION ****************

 EXECUTION OF GAMESS BEGUN Thu Nov 24 07:53:59 2016

            ECHO OF THE FIRST FEW INPUT CARDS -
 INPUT CARD>! SELECT RESTRICTED HARTREE-FOCK AS DEFAULT                                     
 INPUT CARD>$contrl scftyp=rhf $end                                                         
 INPUT CARD>                                                                                
 INPUT CARD>! THEORY: HF OR DFT                                                             
 INPUT CARD> $contrl mplevl=0 $end                                                          
 INPUT CARD>                                                                                
 INPUT CARD> $system timlim=10000 mwords=20 $end                                            
 INPUT CARD> $SCF DIRSCF=.TRUE. $end                                                        
 INPUT CARD>                                                                                
 INPUT CARD>                                                                                
 INPUT CARD>! BASIS SETS                                                                    
 INPUT CARD>! 6-311G(d,p)                                                                   
 INPUT CARD> $BASIS GBASIS=N311 NGAUSS=6 NDFUNC=1 NPFUNC=1 $END                             
 INPUT CARD>                                                                                
 INPUT CARD>! One of the following                                                          
 INPUT CARD> $guess guess=HUCKEL $end                                                       
 INPUT CARD>                                                                                
 INPUT CARD> $statpt projct=.FALSE. $end                                                    
 INPUT CARD> $STATPT IFREEZ(1)=1,2,3 $END                                                   
 INPUT CARD>                                                                                
 INPUT CARD>! Optimize the geometry with COSMO effects                                      
 INPUT CARD> $statpt opttol=0.0005 nstep=50 $end                                            
 INPUT CARD> $contrl nzvar=1 $end                                                           
 INPUT CARD> $zmat dlc=.t. auto=.t. $end                                                    
 INPUT CARD> $contrl runtyp=OPTIMIZE maxit=200 $end                                         
 INPUT CARD>                                                                                
 INPUT CARD>! Run COSMO on perfect conductor                                                
 INPUT CARD> $COSGMS PRFCND=.TRUE. $end                                                     
 INPUT CARD>                                                                                
 INPUT CARD>! Specifying RSOLV                                                              
 INPUT CARD> $COSGMS COSRAD = 1.4 $end                                                      
 INPUT CARD>                                                                                
 INPUT CARD>! available memory                                                              
 INPUT CARD> $SYSTEM MWORDS=40 $END                                                         
 INPUT CARD>                                                                                
 INPUT CARD> $DATA                                                                          
 INPUT CARD>Indane, ID: C496117                                                             
 INPUT CARD>C1                                                                              
 INPUT CARD>C      6.0      3.3423000000    3.2083000000    0.8883000000                    
 INPUT CARD>C      6.0      3.3466000000    1.8047000000    0.8881000000                    
 INPUT CARD>C      6.0      4.7320000000    3.7507000000    0.8881000000                    
 INPUT CARD>C      6.0      2.1496000000    3.9118000000    0.8889000000                    
 INPUT CARD>C      6.0      4.7395000000    1.2706000000    0.8865000000                    
 INPUT CARD>C      6.0      2.1581000000    1.0942000000    0.8888000000                    
 INPUT CARD>C      6.0      5.6459000000    2.5138000000    0.8915000000                    
 INPUT CARD>C      6.0      0.9520000000    3.1945000000    0.8895000000                    
 INPUT CARD>C      6.0      0.9562000000    1.8045000000    0.8896000000                    
 INPUT CARD>H      1.0      4.9053000000    4.3899000000    0.0029000000                    
 INPUT CARD>H      1.0      4.9044000000    4.3950000000    1.7699000000                    
 INPUT CARD>H      1.0      2.1467000000    5.0060000000    0.8893000000                    
   40000000 WORDS OF MEMORY AVAILABLE

     BASIS OPTIONS
     -------------
     GBASIS=N311         IGAUSS=       6      POLAR=POPN311 
     NDFUNC=       1     NFFUNC=       0     DIFFSP=       F
     NPFUNC=       1      DIFFS=       F     BASNAM=        


     RUN TITLE
     ---------
 Indane, ID: C496117                                                             

 THE POINT GROUP OF THE MOLECULE IS C1      
 THE ORDER OF THE PRINCIPAL AXIS IS     0

 ATOM      ATOMIC                      COORDINATES (BOHR)
           CHARGE         X                   Y                   Z
 C           6.0     6.3160311688        6.0628078864        1.6786435949
 C           6.0     6.3241569905        3.4103884900        1.6782656497
 C           6.0     8.9421833739        7.0877952621        1.6782656497
 C           6.0     4.0621549832        7.3922301188        1.6797774305
 C           6.0     8.9563563188        2.4010858400        1.6752420881
 C           6.0     4.0782176541        2.0677381758        1.6795884579
 C           6.0    10.6692039541        4.7503931879        1.6846907181
 C           6.0     1.7990191403        6.0367296678        1.6809112661
 C           6.0     1.8069559895        3.4100105448        1.6811002387
 H           1.0     9.2696728876        8.2957081135        0.0054802054
 H           1.0     9.2679721342        8.3053457160        3.3446260257
 H           1.0     4.0566747778        9.4599682945        1.6805333209
 H           1.0     9.2908378186        1.1827794957        3.3393347929
 H           1.0     9.2904598734        1.1978973036        0.0000000000
 H           1.0     4.0852096403        0.0000000000        1.6803443483
 H           1.0    11.9383439274        4.7549285303        0.0270230816
 H           1.0    11.9220922839        4.7530388043        3.3548305460
 H           1.0     0.0000000000        7.0579375915        1.6822340743
 H           1.0     0.0137949997        2.3778422104        1.6822340743

          INTERNUCLEAR DISTANCES (ANGS.)




     $CONTRL OPTIONS
     ---------------
 SCFTYP=RHF          RUNTYP=OPTIMIZE     EXETYP=RUN     
 MPLEVL=       0     CITYP =NONE         CCTYP =NONE         VBTYP =NONE    
 DFTTYP=NONE         TDDFT =NONE    
 MULT  =       1     ICHARG=       0     NZVAR =       1     COORD =UNIQUE  
 PP    =NONE         RELWFN=NONE         LOCAL =NONE         NUMGRD=       F
 ISPHER=      -1     NOSYM =       0     MAXIT =     200     UNITS =ANGS    
 PLTORB=       F     MOLPLT=       F     AIMPAC=       F     FRIEND=        
 NPRINT=       7     IREST =       0     GEOM  =INPUT   
 NORMF =       0     NORMP =       0     ITOL  =      20     ICUT  =       9
 INTTYP=BEST         GRDTYP=BEST         QMTTOL= 1.0E-06

     $SYSTEM OPTIONS
     ---------------
  REPLICATED MEMORY=    40000000 WORDS (ON EVERY NODE).
 DISTRIBUTED MEMDDI=           0 MILLION WORDS IN AGGREGATE,
 MEMDDI DISTRIBUTED OVER   1 PROCESSORS IS           0 WORDS/PROCESSOR.
 TOTAL MEMORY REQUESTED ON EACH PROCESSOR=    40000000 WORDS.
 TIMLIM=       10000.00 MINUTES, OR       6.9 DAYS.
 PARALL= F  BALTYP=  DLB     KDIAG=    0  COREFL= F
 MXSEQ2=     300 MXSEQ3=     150  mem10=         0

     $COSGMS OPTIONS
     ---------------
     EPSI  =   INFTY     NSPA  =      92     COSRAD=    1.40
     DISEX =   10.00     OUTCHG=DBLCAV       COSBUG=       F
     COSWRT=       F     DCOSMO=       F

     SYMMETRY COORDINATES WILL NOT BE USED FOR 
     THE COSMO CALCULATION, EVEN IF SPECIFIED:
         -- SWITCHING TO C1 POINT GROUP --


     DEFINITION OF CAVITY
     ---------------------------
     ATOM         COORDINATES           RADIUS 
     1    6.3160    6.0628    1.6786    2.0000
     2    6.3242    3.4104    1.6783    2.0000
     3    8.9422    7.0878    1.6783    2.0000
     4    4.0622    7.3922    1.6798    2.0000
     5    8.9564    2.4011    1.6752    2.0000
     6    4.0782    2.0677    1.6796    2.0000
     7   10.6692    4.7504    1.6847    2.0000
     8    1.7990    6.0367    1.6809    2.0000
     9    1.8070    3.4100    1.6811    2.0000
    10    9.2697    8.2957    0.0055    1.3000
    11    9.2680    8.3053    3.3446    1.3000
    12    4.0567    9.4600    1.6805    1.3000
    13    9.2908    1.1828    3.3393    1.3000
    14    9.2905    1.1979    0.0000    1.3000
    15    4.0852    0.0000    1.6803    1.3000
    16   11.9383    4.7549    0.0270    1.3000
    17   11.9221    4.7530    3.3548    1.3000
    18    0.0000    7.0579    1.6822    1.3000
    19    0.0138    2.3778    1.6822    1.3000

          ----------------
          PROPERTIES INPUT
          ----------------

     MOMENTS            FIELD           POTENTIAL          DENSITY
 IEMOM =       1   IEFLD =       0   IEPOT =       0   IEDEN =       0
 WHERE =COMASS     WHERE =NUCLEI     WHERE =NUCLEI     WHERE =NUCLEI  
 OUTPUT=BOTH       OUTPUT=BOTH       OUTPUT=BOTH       OUTPUT=BOTH    
 IEMINT=       0   IEFINT=       0                     IEDINT=       0
                                                       MORB  =       0
          EXTRAPOLATION IN EFFECT
          SOSCF IN EFFECT
 ORBITAL PRINTING OPTION: NPREO=     1   231     2     1

     -------------------------------
     INTEGRAL TRANSFORMATION OPTIONS
     -------------------------------
     NWORD  =            0
     CUTOFF = 1.0E-09     MPTRAN =       0
     DIRTRF =       T     AOINTS =DUP     

          ----------------------
          INTEGRAL INPUT OPTIONS
          ----------------------
 NOPK  =       1 NORDER=       0 SCHWRZ=       T


 -----------------------------------------------
  STATISTICS ON AUTOMATIC COORDINATE GENERATION 
 -----------------------------------------------
  NUMBER OF USER SPECIFIED BONDS                             0
  NUMBER OF BONDS                                           20
  NUMBER OF ANGLES                                          36
  NUMBER OF TORSIONS                                        54
  NUMBER OF EXTRA COORD.                                     0
  NUMBER OF EXTRA COORD. FOR CONSTRAINTS                     0
  NUMBER OF CONSTRAINED COORD.                               0

  TOTAL NUMBER OF PRIMITIVES                               110
 -----------------------------------------------

   --- ENCODED Z MATRIX ---
 COORD  TYPE   I   J   K   L   M   N
    1      1    1   3
    2      1    1   2
    3      1    1   4
    4      1    2   6
    5      1    2   5
    6      1    3   7
    7      1    3  11
    8      1    3  10
    9      1    4  12
   10      1    4   8
   11      1    5  13
   12      1    5   7
   13      1    5  14
   14      1    6   9
   15      1    6  15
   16      1    7  17
   17      1    7  16
   18      1    8   9
   19      1    8  18
   20      1    9  19
   21      2    1   3  11
   22      2    1   2   6
   23      2    1   3  10
   24      2    1   4   8
   25      2    1   4  12
   26      2    1   2   5
   27      2    1   3   7
   28      2    2   5  13
   29      2    2   1   4
   30      2    2   1   3
   31      2    2   5  14
   32      2    2   6   9
   33      2    2   5   7
   34      2    2   6  15
   35      2    3   7  16
   36      2    3   7  17
   37      2    3   7   5
   38      2    3   1   4
   39      2    4   8  18
   40      2    4   8   9
   41      2    5   7  16
   42      2    5   7  17
   43      2    5   2   6
   44      2    6   9  19
   45      2    6   9   8
   46      2    7   5  14
   47      2    7   5  13
   48      2    7   3  10
   49      2    7   3  11
   50      2    8   4  12
   51      2    8   9  19
   52      2    9   6  15
   53      2    9   8  18
   54      2   10   3  11
   55      2   13   5  14
   56      2   16   7  17
   57      3    1   2   6  15
   58      3    1   4   8  18
   59      3    1   3   7  16
   60      3    1   3   7  17
   61      3    1   4   8   9
   62      3    1   2   6   9
   63      3    1   2   5  14
   64      3    1   2   5   7
   65      3    1   2   5  13
   66      3    1   3   7   5
   67      3    2   1   3  10
   68      3    2   1   4  12
   69      3    2   1   3  11
   70      3    2   5   7  16
   71      3    2   5   7  17
   72      3    2   5   7   3
   73      3    2   1   4   8
   74      3    2   6   9  19
   75      3    2   6   9   8
   76      3    2   1   3   7
   77      3    3   7   5  14
   78      3    3   1   2   5
   79      3    3   7   5  13
   80      3    3   1   4  12
   81      3    3   1   2   6
   82      3    3   1   4   8
   83      3    4   1   3   7
   84      3    4   1   3  11
   85      3    4   1   2   6
   86      3    4   8   9  19
   87      3    4   8   9   6
   88      3    4   1   2   5
   89      3    4   1   3  10
   90      3    5   7   3  10
   91      3    5   7   3  11
   92      3    5   2   6  15
   93      3    5   2   6   9
   94      3    6   2   5  13
   95      3    6   9   8  18
   96      3    6   2   5   7
   97      3    6   2   5  14
   98      3    8   9   6  15
   99      3    9   8   4  12
  100      3   10   3   7  17
  101      3   10   3   7  16
  102      3   11   3   7  17
  103      3   11   3   7  16
  104      3   12   4   8  18
  105      3   13   5   7  17
  106      3   13   5   7  16
  107      3   14   5   7  17
  108      3   14   5   7  16
  109      3   15   6   9  19
  110      3   18   8   9  19

          INDEP./SYM. INTERNAL COORDINATES
          --------------------------------
 CRD  1=   0.2829 (  1)  0.2511 (  3) -0.2510 (  4) -0.2828 (  5)  0.1330 (  6)
           0.1966 ( 10) -0.1330 ( 12) -0.1966 ( 14)  0.2134 ( 22)  0.1190 ( 25)
           0.1830 ( 26) -0.2134 ( 29) -0.1830 ( 30) -0.1190 ( 34)  0.3965 ( 38)
          -0.3964 ( 43)  0.1027 ( 51) -0.1027 ( 53)
 CRD  2=   0.3682 (  1)  0.3700 (  3)  0.3701 (  4)  0.3682 (  5)  0.1378 ( 10)
           0.1378 ( 14) -0.1135 ( 22)  0.1350 ( 24)  0.1294 ( 27) -0.1135 ( 29)
           0.1350 ( 32)  0.1294 ( 33)  0.1954 ( 38)  0.1954 ( 43) -0.1940 ( 50)
          -0.1940 ( 52)
 CRD  3=   0.2567 (  1) -0.2913 (  3)  0.2912 (  4) -0.2568 (  5) -0.1235 (  6)
           0.1236 ( 12) -0.1101 ( 19)  0.1101 ( 20)  0.1238 ( 21)  0.2274 ( 22)
           0.1218 ( 23) -0.1686 ( 25) -0.2496 ( 26) -0.2122 ( 27) -0.1234 ( 28)
          -0.2274 ( 29)  0.2496 ( 30) -0.1224 ( 31)  0.2123 ( 33)  0.1686 ( 34)
           0.1689 ( 40) -0.1689 ( 45)
 CRD  4=  -0.1578 ( 35)  0.1585 ( 36)  0.1579 ( 41) -0.1584 ( 42)  0.1271 ( 46)
          -0.1271 ( 47) -0.1272 ( 48)  0.1269 ( 49)  0.1531 ( 57)  0.1266 ( 62)
           0.2071 ( 64)  0.1531 ( 68)  0.1267 ( 73)  0.2070 ( 76) -0.2672 ( 78)
           0.1757 ( 80) -0.2482 ( 81)  0.1494 ( 82)  0.1861 ( 83) -0.2291 ( 85)
          -0.1272 ( 86) -0.1731 ( 87) -0.2481 ( 88)  0.1756 ( 92)  0.1491 ( 93)
          -0.1272 ( 95)  0.1863 ( 96)
 CRD  5=  -0.1581 ( 21)  0.1644 ( 23) -0.1586 ( 28)  0.1641 ( 31) -0.2397 ( 58)
           0.1977 ( 59)  0.1973 ( 60) -0.1833 ( 61) -0.1832 ( 62)  0.1547 ( 66)
          -0.1977 ( 70) -0.1974 ( 71) -0.1546 ( 72)  0.1831 ( 73)  0.2397 ( 74)
           0.1833 ( 75)  0.1145 ( 80) -0.1054 ( 81)  0.3082 ( 82) -0.2135 ( 83)
          -0.1095 ( 84)  0.1056 ( 88) -0.1104 ( 89) -0.1146 ( 92) -0.3083 ( 93)
           0.1096 ( 94)  0.2133 ( 96)  0.1103 ( 97)
 CRD  6=   0.3555 (  2)  0.1057 (  6) -0.1674 ( 10)  0.1057 ( 12) -0.1674 ( 14)
          -0.2066 ( 18) -0.1247 ( 19) -0.1247 ( 20)  0.1058 ( 21)  0.1004 ( 23)
           0.2214 ( 25) -0.2464 ( 27)  0.1058 ( 28)  0.1003 ( 31) -0.2462 ( 33)
           0.2214 ( 34) -0.1192 ( 35) -0.1184 ( 36)  0.3488 ( 37)  0.1344 ( 40)
          -0.1192 ( 41) -0.1187 ( 42)  0.1343 ( 45) -0.1351 ( 50) -0.1348 ( 51)
          -0.1351 ( 52) -0.1348 ( 53) -0.1133 ( 54) -0.1133 ( 55)  0.1107 ( 56)
 CRD  7=  -0.1163 (  1) -0.1904 (  2) -0.1164 (  5)  0.1449 (  6) -0.1074 (  9)
          -0.2588 ( 10)  0.1450 ( 12) -0.2585 ( 14) -0.1073 ( 15) -0.4562 ( 18)
          -0.1839 ( 19) -0.1838 ( 20) -0.1111 ( 21) -0.1095 ( 23)  0.1444 ( 25)
           0.1437 ( 27) -0.1111 ( 28) -0.1094 ( 31)  0.1436 ( 33)  0.1441 ( 34)
           0.1053 ( 35)  0.1050 ( 36) -0.2905 ( 37)  0.1011 ( 39)  0.1054 ( 41)
           0.1051 ( 42)  0.1014 ( 44) -0.1239 ( 50) -0.1642 ( 51) -0.1235 ( 52)
          -0.1639 ( 53) -0.1166 ( 56)
 CRD  8=  -0.1115 (  9) -0.3639 ( 10)  0.3643 ( 14)  0.1116 ( 15)  0.2286 ( 25)
          -0.2290 ( 34) -0.3232 ( 39)  0.1174 ( 40)  0.3236 ( 44) -0.1174 ( 45)
          -0.3246 ( 50) -0.2062 ( 51)  0.3250 ( 52)  0.2058 ( 53)
 CRD  9=  -0.4940 (  6) -0.1026 (  7) -0.1018 (  8) -0.1046 ( 10) -0.1026 ( 11)
          -0.4941 ( 12) -0.1018 ( 13) -0.1050 ( 14) -0.1085 ( 16) -0.1092 ( 17)
          -0.1263 ( 24)  0.1422 ( 25) -0.1273 ( 26) -0.1272 ( 30) -0.1262 ( 32)
           0.1424 ( 34) -0.1452 ( 46) -0.1452 ( 47) -0.1451 ( 48) -0.1452 ( 49)
           0.1129 ( 54)  0.1130 ( 55)
 CRD 10=  -0.1411 (  2) -0.1445 (  9)  0.1738 ( 10)  0.1733 ( 14) -0.1446 ( 15)
          -0.3640 ( 18)  0.1203 ( 24) -0.2553 ( 25) -0.1126 ( 27)  0.1205 ( 32)
          -0.1126 ( 33) -0.2550 ( 34)  0.1381 ( 37)  0.3493 ( 39)  0.3490 ( 44)
           0.1349 ( 50) -0.2834 ( 51)  0.1345 ( 52) -0.2836 ( 53)
 CRD 11=  -0.2136 (  2) -0.3068 (  9) -0.2021 ( 10) -0.1034 ( 12) -0.2022 ( 14)
          -0.3066 ( 15) -0.1374 ( 22)  0.2741 ( 24) -0.1005 ( 27) -0.1371 ( 29)
           0.2740 ( 32)  0.1115 ( 37) -0.1479 ( 39) -0.1367 ( 40) -0.1480 ( 44)
          -0.1368 ( 45) -0.2319 ( 50)  0.2848 ( 51) -0.2326 ( 52)  0.2847 ( 53)
 CRD 12=   0.4621 (  6) -0.4604 ( 12) -0.1332 ( 27)  0.1348 ( 33)  0.1755 ( 35)
           0.1748 ( 36) -0.1748 ( 41) -0.1741 ( 42) -0.1589 ( 46) -0.1591 ( 47)
           0.1589 ( 48)  0.1592 ( 49) -0.1097 ( 59)  0.1092 ( 60) -0.1098 ( 70)
           0.1092 ( 71)  0.1556 (100) -0.1556 (103) -0.1555 (106)  0.1555 (107)
 CRD 13=   0.1856 (  1) -0.1856 (  5) -0.2352 (  9) -0.1016 ( 10)  0.1017 ( 14)
           0.2352 ( 15)  0.3737 ( 19) -0.3736 ( 20)  0.1772 ( 24) -0.1168 ( 25)
          -0.1772 ( 32)  0.1168 ( 34)  0.1665 ( 39) -0.3466 ( 40) -0.1665 ( 44)
           0.3466 ( 45) -0.1801 ( 51)  0.1801 ( 53)
 CRD 14=   0.1050 (  7) -0.1055 (  8) -0.1050 ( 11)  0.1056 ( 13)  0.2002 ( 21)
          -0.2003 ( 23) -0.2001 ( 28)  0.2002 ( 31)  0.2192 ( 35) -0.2196 ( 36)
          -0.2193 ( 41)  0.2197 ( 42) -0.1831 ( 46)  0.1833 ( 47)  0.1832 ( 48)
          -0.1833 ( 49)  0.1083 ( 57) -0.1433 ( 59) -0.1436 ( 60)  0.1277 ( 63)
           0.1277 ( 65)  0.1276 ( 67)  0.1083 ( 68)  0.1276 ( 69) -0.1433 ( 70)
          -0.1435 ( 71)  0.1354 ( 77)  0.1353 ( 79)  0.1756 ( 84) -0.1096 ( 85)
          -0.1072 ( 86) -0.1205 ( 87)  0.1756 ( 89)  0.1356 ( 90)  0.1354 ( 91)
           0.1756 ( 94) -0.1072 ( 95)  0.1757 ( 97)
 CRD 15=   0.1739 ( 21) -0.1743 ( 23)  0.1736 ( 28) -0.1742 ( 31)  0.1972 ( 46)
          -0.1977 ( 47)  0.1973 ( 48) -0.1979 ( 49) -0.1348 ( 58) -0.1218 ( 61)
          -0.1217 ( 62) -0.2318 ( 63) -0.2317 ( 65) -0.1411 ( 66)  0.2318 ( 67)
           0.2318 ( 69)  0.1411 ( 72)  0.1217 ( 73)  0.1349 ( 74)  0.1218 ( 75)
           0.1479 ( 80)  0.1904 ( 82)  0.1685 ( 84)  0.1685 ( 89) -0.1479 ( 92)
          -0.1904 ( 93) -0.1684 ( 94) -0.1684 ( 97)
 CRD 16=  -0.1453 (  7)  0.1440 (  8) -0.1454 ( 11)  0.1439 ( 13) -0.2239 ( 16)
           0.2247 ( 17)  0.1004 ( 46) -0.1003 ( 47)  0.1003 ( 48) -0.1004 ( 49)
           0.1767 ( 57)  0.1241 ( 58)  0.1395 ( 59)  0.1395 ( 60)  0.1853 ( 61)
           0.1851 ( 62) -0.1789 ( 63) -0.1787 ( 65)  0.1788 ( 67) -0.1768 ( 68)
           0.1788 ( 69) -0.1395 ( 70) -0.1394 ( 71) -0.1852 ( 73) -0.1241 ( 74)
          -0.1853 ( 75)  0.1704 ( 77)  0.1708 ( 79) -0.1049 ( 81)  0.1049 ( 88)
          -0.1704 ( 90) -0.1708 ( 91) -0.1768 ( 98)  0.1768 ( 99)  0.1157 (104)
          -0.1157 (109)
 CRD 17=  -0.2075 (  7)  0.2088 (  8) -0.2079 ( 11)  0.2094 ( 13)  0.4156 ( 16)
          -0.4136 ( 17)  0.1111 ( 21) -0.1106 ( 23)  0.1114 ( 28) -0.1107 ( 31)
           0.1769 ( 46) -0.1767 ( 47)  0.1763 ( 48) -0.1763 ( 49)  0.1440 ( 66)
          -0.1440 ( 72) -0.1809 ( 77) -0.1812 ( 79) -0.1098 ( 83)  0.1809 ( 90)
           0.1812 ( 91)  0.1098 ( 96)
 CRD 18=  -0.2773 (  7)  0.2781 (  8)  0.2766 ( 11) -0.2776 ( 13) -0.1954 ( 35)
           0.1950 ( 36)  0.1952 ( 41) -0.1949 ( 42) -0.1871 ( 46)  0.1868 ( 47)
           0.1874 ( 48) -0.1872 ( 49)  0.1309 ( 59)  0.1308 ( 60)  0.1673 ( 63)
           0.1671 ( 65)  0.1674 ( 67)  0.1672 ( 69)  0.1309 ( 70)  0.1307 ( 71)
           0.1622 ( 84)  0.1624 ( 89)  0.1622 ( 94)  0.1624 ( 97)  0.1012 (100)
           0.1013 (101)  0.1013 (102)  0.1014 (103)  0.1012 (105)  0.1014 (106)
           0.1010 (107)  0.1012 (108)
 CRD 19=  -0.2629 (  1)  0.1710 (  3)  0.1710 (  4) -0.2628 (  5) -0.2999 (  7)
          -0.2996 (  8)  0.1285 ( 10) -0.3002 ( 11) -0.2996 ( 13)  0.1284 ( 14)
          -0.1752 ( 16) -0.1773 ( 17)  0.2009 ( 19)  0.2008 ( 20)  0.1168 ( 25)
           0.1168 ( 34)  0.1091 ( 46)  0.1090 ( 47)  0.1091 ( 48)  0.1090 ( 49)
          -0.1865 ( 50) -0.1866 ( 52) -0.1056 ( 54) -0.1056 ( 55)
 CRD 20=   0.4453 (  7)  0.4448 (  8) -0.4454 ( 11) -0.4449 ( 13)  0.1620 ( 54)
          -0.1620 ( 55)
 CRD 21=   0.2270 (  7)  0.2278 (  8)  0.2268 ( 11)  0.2273 ( 13) -0.5261 ( 16)
          -0.5262 ( 17)  0.1045 ( 54)  0.1044 ( 55) -0.1819 ( 56)  0.1262 (101)
          -0.1263 (102)  0.1261 (105) -0.1263 (108)
 CRD 22=   0.2681 (  7) -0.2676 (  8) -0.2682 ( 11)  0.2681 ( 13) -0.1188 ( 35)
           0.1189 ( 36)  0.1188 ( 41) -0.1189 ( 42) -0.1466 ( 58) -0.1484 ( 61)
          -0.1468 ( 74) -0.1483 ( 75)  0.2100 ( 86)  0.2115 ( 87)  0.2097 ( 95)
          -0.1478 ( 98) -0.1481 ( 99)  0.1572 (100)  0.1571 (101)  0.1570 (102)
           0.1569 (103) -0.1463 (104)  0.1571 (105)  0.1570 (106)  0.1573 (107)
           0.1572 (108) -0.1463 (109)  0.2081 (110)
 CRD 23=   0.2727 (  1)  0.2728 (  5)  0.1063 (  6) -0.2156 (  7) -0.2159 (  8)
          -0.2155 ( 11)  0.1062 ( 12) -0.2158 ( 13) -0.2975 ( 16) -0.2980 ( 17)
          -0.2009 ( 19) -0.2008 ( 20) -0.1185 ( 25) -0.1184 ( 34)  0.1643 ( 50)
           0.1643 ( 52) -0.1288 ( 54) -0.1289 ( 55) -0.1612 ( 56) -0.1551 (100)
           0.1550 (103) -0.1549 (106)  0.1553 (107)
 CRD 24=  -0.1427 (  7)  0.1434 (  8)  0.1420 ( 11) -0.1431 ( 13)  0.1051 ( 35)
          -0.1048 ( 36) -0.1051 ( 41)  0.1048 ( 42) -0.1736 ( 58) -0.1701 ( 61)
          -0.1741 ( 74) -0.1699 ( 75)  0.1266 ( 80)  0.2322 ( 86)  0.2280 ( 87)
           0.1262 ( 92)  0.2315 ( 95) -0.1994 ( 98) -0.2002 ( 99) -0.1488 (100)
          -0.1489 (101) -0.1500 (102) -0.1501 (103) -0.2037 (104) -0.1501 (105)
          -0.1503 (106) -0.1488 (107) -0.1490 (108) -0.2036 (109)  0.2357 (110)
 CRD 25=  -0.1923 (  1) -0.2307 (  3)  0.2307 (  4)  0.1922 (  5) -0.4254 (  9)
           0.4254 ( 15) -0.1504 ( 25)  0.1764 ( 26)  0.1570 ( 27) -0.1764 ( 30)
          -0.1570 ( 33)  0.1505 ( 34)  0.2528 ( 38) -0.2528 ( 43)  0.1389 ( 54)
          -0.1388 ( 55)
 CRD 26=  -0.2634 (  7)  0.2633 (  8) -0.2635 ( 11)  0.2634 ( 13) -0.2794 ( 57)
           0.1605 ( 58)  0.2792 ( 68) -0.1599 ( 74)  0.1533 ( 80)  0.1061 ( 81)
           0.1215 ( 84)  0.2224 ( 86) -0.1060 ( 88)  0.1218 ( 89) -0.1537 ( 92)
          -0.1217 ( 94) -0.2232 ( 95) -0.1218 ( 97)  0.2799 ( 98) -0.2792 ( 99)
 CRD 27=  -0.3336 ( 16)  0.3333 ( 17)  0.1599 ( 59)  0.1598 ( 60)  0.1254 ( 66)
          -0.1598 ( 70) -0.1597 ( 71) -0.1253 ( 72) -0.1850 ( 77) -0.1854 ( 79)
           0.1851 ( 90)  0.1854 ( 91)  0.2196 (100)  0.2197 (101)  0.2198 (102)
           0.2200 (103) -0.2197 (105) -0.2199 (106) -0.2193 (107) -0.2194 (108)
 CRD 28=   0.2024 (  1) -0.2024 (  5) -0.1851 ( 10)  0.1851 ( 14) -0.2059 ( 19)
           0.2059 ( 20) -0.1871 ( 22) -0.2782 ( 25)  0.2236 ( 26)  0.1872 ( 29)
          -0.2236 ( 30)  0.2782 ( 34) -0.1539 ( 39)  0.1539 ( 44)  0.3025 ( 50)
          -0.1996 ( 51) -0.3025 ( 52)  0.1996 ( 53)
 CRD 29=   0.1591 (  3) -0.1589 (  4) -0.2494 (  9) -0.2030 ( 10)  0.2032 ( 14)
           0.2497 ( 15) -0.3928 ( 19)  0.3925 ( 20) -0.1077 ( 22)  0.1076 ( 29)
          -0.1230 ( 38)  0.3087 ( 39)  0.1231 ( 43) -0.3088 ( 44)  0.2501 ( 51)
          -0.2500 ( 53)
 CRD 30=   0.2459 (  2) -0.1956 (  3) -0.1958 (  4) -0.3657 (  9) -0.1371 ( 10)
          -0.1370 ( 14) -0.3654 ( 15)  0.2647 ( 18)  0.3811 ( 19)  0.3815 ( 20)
          -0.1119 ( 24)  0.1308 ( 25) -0.1119 ( 32)  0.1307 ( 34)  0.1087 ( 39)
           0.1084 ( 44) -0.1555 ( 51) -0.1557 ( 53)
 CRD 31=   0.1598 (  1) -0.3762 (  2) -0.2019 (  3) -0.2019 (  4)  0.1598 (  5)
           0.4007 (  9) -0.1509 ( 10) -0.1509 ( 14)  0.4007 ( 15) -0.2058 ( 18)
           0.3367 ( 19)  0.3367 ( 20)
 CRD 32=  -0.2769 (  7)  0.2775 (  8) -0.2769 ( 11)  0.2776 ( 13) -0.2653 ( 16)
           0.2648 ( 17) -0.2890 ( 58) -0.1104 ( 59) -0.1101 ( 60)  0.1105 ( 70)
           0.1101 ( 71)  0.2890 ( 74) -0.1469 ( 80) -0.2356 ( 86)  0.1469 ( 92)
           0.2357 ( 95) -0.1633 (104)  0.1633 (109)
 CRD 33=   0.3303 (  3) -0.3301 (  4) -0.1304 (  6) -0.1392 (  9)  0.1059 ( 10)
           0.1303 ( 12) -0.1062 ( 14)  0.1392 ( 15) -0.1767 ( 19)  0.1766 ( 20)
          -0.1139 ( 21)  0.1894 ( 22) -0.1137 ( 23) -0.1222 ( 25) -0.1196 ( 26)
           0.1138 ( 28) -0.1894 ( 29)  0.1196 ( 30)  0.1136 ( 31)  0.1222 ( 34)
          -0.1318 ( 39)  0.1319 ( 44) -0.1371 ( 46) -0.1372 ( 47)  0.1373 ( 48)
           0.1373 ( 49)  0.1258 ( 50) -0.2189 ( 51) -0.1257 ( 52)  0.2189 ( 53)
           0.1068 (101) -0.1070 (102) -0.1070 (105)  0.1069 (108)
 CRD 34=   0.1852 (  1) -0.4517 (  2)  0.2533 (  3)  0.2536 (  4)  0.1851 (  5)
          -0.1398 (  6) -0.1047 (  9) -0.2109 ( 10) -0.1399 ( 12) -0.2107 ( 14)
          -0.1048 ( 15)  0.3446 ( 18)  0.1116 ( 46)  0.1116 ( 47)  0.1115 ( 48)
           0.1115 ( 49) -0.1023 ( 51) -0.1026 ( 53)  0.1244 ( 56)
 CRD 35=  -0.2125 (  6) -0.1216 (  7) -0.1198 (  8)  0.1234 (  9)  0.1218 ( 11)
           0.2124 ( 12)  0.1196 ( 13) -0.1234 ( 15) -0.1121 ( 19)  0.1121 ( 20)
           0.1176 ( 22)  0.1018 ( 24) -0.1208 ( 26) -0.1177 ( 29)  0.1208 ( 30)
          -0.1018 ( 32)  0.2147 ( 35)  0.2145 ( 36) -0.2146 ( 41) -0.2146 ( 42)
           0.1961 ( 54) -0.1961 ( 55) -0.1346 ( 59)  0.1342 ( 60) -0.1062 ( 63)
           0.1054 ( 65) -0.1061 ( 67)  0.1055 ( 69) -0.1347 ( 70)  0.1341 ( 71)
           0.1055 ( 84) -0.1061 ( 89)  0.1054 ( 94) -0.1061 ( 97)  0.2143 (100)
          -0.2136 (103) -0.2136 (106)  0.2143 (107)
 CRD 36=  -0.2454 (  2) -0.1884 (  3) -0.1886 (  4)  0.3066 ( 10)  0.3064 ( 14)
           0.2203 ( 18) -0.2587 ( 19) -0.2587 ( 20)  0.1173 ( 22)  0.2692 ( 25)
           0.1174 ( 29)  0.2691 ( 34) -0.1500 ( 38)  0.1165 ( 39) -0.1499 ( 43)
           0.1166 ( 44) -0.2497 ( 50) -0.2498 ( 52)
 CRD 37=   0.1383 (  3) -0.1378 (  4) -0.3541 (  9)  0.1902 ( 10) -0.1908 ( 14)
           0.3543 ( 15)  0.1173 ( 19) -0.1172 ( 20) -0.1737 ( 22) -0.2664 ( 24)
           0.1489 ( 25)  0.1736 ( 29)  0.2665 ( 32) -0.1492 ( 34) -0.1875 ( 38)
          -0.1881 ( 39)  0.1497 ( 40)  0.1875 ( 43)  0.1882 ( 44) -0.1497 ( 45)
           0.1175 ( 50) -0.1173 ( 52)
 CRD 38=  -0.2490 (  1) -0.1375 (  2)  0.2197 (  3)  0.2199 (  4) -0.2487 (  5)
          -0.2321 ( 10) -0.2320 ( 14)  0.1078 ( 16)  0.1102 ( 17)  0.2931 ( 18)
           0.1472 ( 21)  0.1466 ( 23) -0.1026 ( 25)  0.1472 ( 28)  0.1466 ( 31)
          -0.1024 ( 34)  0.1167 ( 39)  0.1164 ( 44) -0.1088 ( 46) -0.1088 ( 47)
          -0.1086 ( 48) -0.1089 ( 49) -0.1841 ( 56)  0.1041 ( 63) -0.1035 ( 65)
          -0.1036 ( 67)  0.1038 ( 69)  0.1035 ( 84) -0.1038 ( 89) -0.1036 ( 94)
           0.1040 ( 97) -0.1486 (100)  0.1474 (103) -0.1474 (106)  0.1484 (107)
 CRD 39=  -0.3423 ( 57) -0.1393 ( 58)  0.1505 ( 63)  0.1186 ( 64)  0.1512 ( 65)
           0.1508 ( 67) -0.3423 ( 68)  0.1509 ( 69) -0.1393 ( 74)  0.1186 ( 76)
          -0.1531 ( 78) -0.2294 ( 80)  0.1491 ( 86) -0.2293 ( 92)  0.1490 ( 95)
           0.3237 ( 98)  0.3238 ( 99)  0.1761 (104)  0.1760 (109)  0.2972 (110)
 CRD 40=  -0.1450 (  1)  0.1451 (  5)  0.1643 (  6)  0.3339 ( 10) -0.1644 ( 12)
          -0.3338 ( 14) -0.2770 ( 19)  0.2770 ( 20)  0.1027 ( 21)  0.1030 ( 23)
           0.1107 ( 25) -0.1027 ( 28) -0.1029 ( 31) -0.1106 ( 34) -0.2584 ( 40)
           0.2585 ( 45) -0.1525 ( 50) -0.2590 ( 51)  0.1526 ( 52)  0.2591 ( 53)
 CRD 41=   0.2402 (  2) -0.2133 (  3) -0.2131 (  4)  0.2216 (  9) -0.1564 ( 10)
          -0.1566 ( 14)  0.2215 ( 15)  0.3957 ( 18) -0.1362 ( 19) -0.1360 ( 20)
           0.2106 ( 24)  0.2105 ( 32)  0.1177 ( 38)  0.2256 ( 39) -0.1285 ( 40)
           0.1177 ( 43)  0.2255 ( 44) -0.1284 ( 45) -0.1469 ( 50) -0.1468 ( 52)
           0.1046 ( 56)  0.1102 (100) -0.1096 (103)  0.1095 (106) -0.1103 (107)
 CRD 42=   0.2042 ( 16) -0.2029 ( 17) -0.1584 ( 58)  0.1593 ( 59)  0.1579 ( 60)
          -0.1589 ( 70) -0.1582 ( 71)  0.1585 ( 74) -0.2153 ( 82)  0.1227 ( 84)
          -0.2574 ( 86)  0.1197 ( 89)  0.2152 ( 93) -0.1208 ( 94)  0.2574 ( 95)
          -0.1215 ( 97) -0.3387 (104)  0.3388 (109)
 CRD 43=  -0.3066 (  1)  0.2789 (  3) -0.2789 (  4)  0.3066 (  5)  0.2159 (  6)
          -0.1672 ( 10) -0.2159 ( 12)  0.1672 ( 14)  0.1287 ( 21)  0.1901 ( 22)
           0.1279 ( 23) -0.1148 ( 25) -0.2174 ( 26) -0.1271 ( 28) -0.1901 ( 29)
           0.2173 ( 30) -0.1296 ( 31)  0.1147 ( 34)  0.1079 ( 40) -0.1079 ( 45)
           0.1031 ( 46)  0.1039 ( 47) -0.1027 ( 48) -0.1043 ( 49)  0.1094 ( 50)
          -0.1094 ( 52)
 CRD 44=   0.2346 (  7) -0.2357 (  8) -0.2350 ( 11)  0.2357 ( 13) -0.1030 ( 21)
           0.1014 ( 23)  0.1033 ( 28) -0.1014 ( 31) -0.1211 ( 46)  0.1200 ( 47)
           0.1209 ( 48) -0.1201 ( 49)  0.1334 ( 58) -0.1268 ( 62)  0.1448 ( 63)
           0.1443 ( 65)  0.1445 ( 67)  0.1445 ( 69) -0.1266 ( 73)  0.1332 ( 74)
          -0.1696 ( 77) -0.1712 ( 79)  0.1377 ( 81) -0.1275 ( 83)  0.2028 ( 85)
           0.1378 ( 88) -0.1696 ( 90) -0.1712 ( 91) -0.1274 ( 96) -0.1125 ( 98)
          -0.1123 ( 99) -0.1266 (100) -0.1277 (101) -0.1281 (102) -0.1292 (103)
          -0.1283 (105) -0.1291 (106) -0.1268 (107) -0.1276 (108) -0.2124 (110)
 CRD 45=  -0.1281 (  1)  0.2094 (  2) -0.1282 (  5) -0.2652 (  6)  0.1550 (  7)
           0.1532 (  8)  0.1547 ( 11) -0.2652 ( 12)  0.1536 ( 13)  0.1110 ( 16)
           0.1120 ( 17) -0.1055 ( 26)  0.1084 ( 27) -0.1055 ( 30)  0.1084 ( 33)
           0.1594 ( 38)  0.1594 ( 43) -0.2237 ( 54) -0.2236 ( 55) -0.1670 ( 56)
          -0.1545 ( 63)  0.1543 ( 65)  0.1548 ( 67) -0.1540 ( 69) -0.1541 ( 84)
           0.1547 ( 89)  0.1542 ( 94) -0.1546 ( 97) -0.1618 (100)  0.1606 (103)
          -0.1607 (106)  0.1615 (107)
 CRD 46=   0.1817 (  1) -0.1824 (  5)  0.2585 (  6) -0.1472 (  7) -0.1466 (  8)
           0.1476 ( 11) -0.2579 ( 12)  0.1468 ( 13) -0.1637 ( 27)  0.1641 ( 33)
          -0.1469 ( 35) -0.1464 ( 36)  0.1469 ( 41)  0.1464 ( 42)  0.2153 ( 54)
          -0.2157 ( 55) -0.1090 ( 63)  0.1089 ( 65) -0.1089 ( 67)  0.1089 ( 69)
           0.1450 ( 77) -0.1451 ( 79)  0.1088 ( 84) -0.1089 ( 89)  0.1445 ( 90)
          -0.1447 ( 91)  0.1088 ( 94) -0.1091 ( 97)  0.2362 (101) -0.2361 (102)
          -0.2370 (105)  0.2373 (108)
 CRD 47=  -0.1816 (  1) -0.1810 (  5)  0.1696 (  6)  0.1705 ( 12) -0.1796 ( 16)
          -0.1798 ( 17)  0.1365 ( 27)  0.1359 ( 33) -0.2470 ( 37) -0.1136 ( 54)
          -0.1129 ( 55)  0.2700 ( 56) -0.1650 ( 59)  0.1656 ( 60)  0.1645 ( 70)
          -0.1652 ( 71)  0.1305 ( 77) -0.1297 ( 79) -0.1310 ( 90)  0.1302 ( 91)
          -0.2962 (101)  0.2956 (102) -0.2947 (105)  0.2953 (108)
 CRD 48=  -0.2053 ( 16)  0.2050 ( 17) -0.1389 ( 35)  0.1388 ( 36) -0.1388 ( 41)
           0.1387 ( 42)  0.1124 ( 46) -0.1114 ( 47)  0.1124 ( 48) -0.1116 ( 49)
           0.1514 ( 61)  0.1515 ( 62)  0.1243 ( 64)  0.1959 ( 66) -0.1959 ( 72)
          -0.1516 ( 73) -0.1518 ( 75) -0.1242 ( 76)  0.1594 ( 80) -0.1896 ( 83)
          -0.1226 ( 86) -0.1593 ( 92)  0.1225 ( 95)  0.1894 ( 96) -0.1582 (100)
          -0.1584 (101) -0.1596 (102) -0.1598 (103) -0.2108 (104)  0.1597 (105)
           0.1599 (106)  0.1581 (107)  0.1583 (108)  0.2112 (109)
 CRD 49=   0.1123 ( 57) -0.1379 ( 58)  0.2777 ( 61) -0.1185 ( 64)  0.1124 ( 68)
          -0.1378 ( 74)  0.2775 ( 75) -0.1186 ( 76)  0.1530 ( 78) -0.1775 ( 82)
          -0.3989 ( 87) -0.1774 ( 93)  0.1183 ( 98)  0.1182 ( 99) -0.2973 (104)
          -0.2970 (109)  0.4340 (110)
 CRD 50=   0.1033 (  7) -0.1037 (  8)  0.1032 ( 11) -0.1038 ( 13) -0.1536 ( 61)
          -0.1536 ( 62)  0.1238 ( 64)  0.1951 ( 66) -0.1951 ( 72)  0.1535 ( 73)
           0.1537 ( 75) -0.1238 ( 76) -0.2980 ( 80)  0.1860 ( 81)  0.2284 ( 84)
          -0.1860 ( 88)  0.2279 ( 89)  0.2981 ( 92) -0.2285 ( 94) -0.2278 ( 97)
           0.1549 (104) -0.1549 (109)
 CRD 51=   0.1913 ( 61) -0.2793 ( 62)  0.1126 ( 63)  0.1794 ( 64)  0.1122 ( 65)
           0.1125 ( 67)  0.1122 ( 69) -0.2793 ( 73)  0.1913 ( 75)  0.1794 ( 76)
          -0.2315 ( 78)  0.2631 ( 80) -0.1279 ( 83) -0.1951 ( 84)  0.3306 ( 85)
          -0.1502 ( 87) -0.1948 ( 89)  0.2631 ( 92) -0.1951 ( 94) -0.1279 ( 96)
          -0.1947 ( 97) -0.1368 (104) -0.1368 (109)

 THE DETERMINANT OF THE G MATRIX IS 10**(   -17)


                     --------------------
                     INTERNAL COORDINATES
                     --------------------

                 - - ATOMS - -         COORDINATE      COORDINATE
 NO.   TYPE    I  J  K  L  M  N        (BOHR,RAD)       (ANG,DEG)
 ----------------------------------------------------------------
   1 STRETCH   1  3                     2.8190911       1.4917989
   2 STRETCH   1  2                     2.6524319       1.4036066
   3 STRETCH   1  4                     2.6167389       1.3847187
   4 STRETCH   2  6                     2.6166687       1.3846815
   5 STRETCH   2  5                     2.8190733       1.4917895
   6 STRETCH   3  7                     2.9062157       1.5379032
   7 STRETCH   3 11                     2.0893359       1.1056290
   8 STRETCH   3 10                     2.0891419       1.1055264
   9 STRETCH   4 12                     2.0677456       1.0942039
  10 STRETCH   4  8                     2.6380232       1.3959819
  11 STRETCH   5 13                     2.0893427       1.1056326
  12 STRETCH   5  7                     2.9074355       1.5385487
  13 STRETCH   5 14                     2.0894315       1.1056796
  14 STRETCH   6  9                     2.6382432       1.3960983
  15 STRETCH   6 15                     2.0677501       1.0942063
  16 STRETCH   7 17                     2.0878465       1.1048409
  17 STRETCH   7 16                     2.0877258       1.1047770
  18 STRETCH   8  9                     2.6267311       1.3900063
  19 STRETCH   8 18                     2.0686559       1.0946856
  20 STRETCH   9 19                     2.0690092       1.0948726
  21 BEND      1  3 11                  1.9358824     110.9178908
  22 BEND      1  2  6                  2.1065420     120.6959668
  23 BEND      1  3 10                  1.9351636     110.8767078
  24 BEND      1  4  8                  2.0690332     118.5468678
  25 BEND      1  4 12                  2.1063608     120.6855848
  26 BEND      1  2  5                  1.9400133     111.1545766
  27 BEND      1  3  7                  1.8350143     105.1385741
  28 BEND      2  5 13                  1.9362681     110.9399891
  29 BEND      2  1  4                  2.1067739     120.7092555
  30 BEND      2  1  3                  1.9398493     111.1451752
  31 BEND      2  5 14                  1.9351329     110.8749500
  32 BEND      2  6  9                  2.0690220     118.5462272
  33 BEND      2  5  7                  1.8346190     105.1159253
  34 BEND      2  6 15                  2.1062244     120.6777670
  35 BEND      3  7 16                  1.9366490     110.9618130
  36 BEND      3  7 17                  1.9362265     110.9376064
  37 BEND      3  7  5                  1.8752659     107.4448200
  38 BEND      3  1  4                  2.2365621     128.1455679
  39 BEND      4  8 18                  2.0856565     119.4993135
  40 BEND      4  8  9                  2.1074203     120.7462870
  41 BEND      5  7 16                  1.9361807     110.9349809
  42 BEND      5  7 17                  1.9360116     110.9252957
  43 BEND      5  2  6                  2.2366299     128.1494514
  44 BEND      6  9 19                  2.0855359     119.4924046
  45 BEND      6  9  8                  2.1075792     120.7553933
  46 BEND      7  5 14                  1.9537973     111.9443390
  47 BEND      7  5 13                  1.9544032     111.9790529
  48 BEND      7  3 10                  1.9537248     111.9401844
  49 BEND      7  3 11                  1.9543994     111.9788395
  50 BEND      8  4 12                  2.1077913     120.7675429
  51 BEND      8  9 19                  2.0900702     119.7522018
  52 BEND      9  6 15                  2.1079388     120.7759994
  53 BEND      9  8 18                  2.0901085     119.7543970
  54 BEND     10  3 11                  1.8517038     106.0948098
  55 BEND     13  5 14                  1.8516815     106.0935348
  56 BEND     16  7 17                  1.8445573     105.6853504
  57 TORSION   1  2  6 15              -3.1410017    -179.9661398
  58 TORSION   1  4  8 18               3.1413606     179.9867026
  59 TORSION   1  3  7 16               2.1242000     121.7076923
  60 TORSION   1  3  7 17              -2.1140614    -121.1267983
  61 TORSION   1  4  8  9               0.0000875       0.0050127
  62 TORSION   1  2  6  9               0.0000885       0.0050709
  63 TORSION   1  2  5 14              -2.1105786    -120.9272435
  64 TORSION   1  2  5  7               0.0039183       0.2244996
  65 TORSION   1  2  5 13               2.1197644     121.4535526
  66 TORSION   1  3  7  5               0.0048382       0.2772109
  67 TORSION   2  1  3 10               2.1121360     121.0164804
  68 TORSION   2  1  4 12               3.1413331     179.9851264
  69 TORSION   2  1  3 11              -2.1184031    -121.3755541
  70 TORSION   2  5  7 16              -2.1249824    -121.7525252
  71 TORSION   2  5  7 17               2.1137068     121.1064800
  72 TORSION   2  5  7  3              -0.0053275      -0.3052410
  73 TORSION   2  1  4  8               0.0001619       0.0092778
  74 TORSION   2  6  9 19              -3.1415509    -179.9976095
  75 TORSION   2  6  9  8               0.0001609       0.0092210
  76 TORSION   2  1  3  7              -0.0025312      -0.1450262
  77 TORSION   3  7  5 14               2.0968929     120.1431153
  78 TORSION   3  1  2  5              -0.0008960      -0.0513395
  79 TORSION   3  7  5 13              -2.1092562    -120.8514784
  80 TORSION   3  1  4 12               0.0000019       0.0001078
  81 TORSION   3  1  2  6               3.1411190     179.9728625
  82 TORSION   3  1  4  8              -3.1411692    -179.9757407
  83 TORSION   4  1  3  7               3.1388204     179.8411633
  84 TORSION   4  1  3 11               1.0229486      58.6106354
  85 TORSION   4  1  2  6              -0.0002532      -0.0145048
  86 TORSION   4  8  9 19               3.1414599     179.9923917
  87 TORSION   4  8  9  6              -0.0002523      -0.0144564
  88 TORSION   4  1  2  5               3.1409171     179.9612931
  89 TORSION   4  1  3 10              -1.0296977     -58.9973301
  90 TORSION   5  7  3 10              -2.0976269    -120.1851710
  91 TORSION   5  7  3 11               2.1085460     120.8107855
  92 TORSION   5  2  6 15               0.0010919       0.0625619
  93 TORSION   5  2  6  9              -3.1410032    -179.9662274
  94 TORSION   6  2  5 13              -1.0222902     -58.5729111
  95 TORSION   6  9  8 18              -3.1415246    -179.9960999
  96 TORSION   6  2  5  7              -3.1381363    -179.8019640
  97 TORSION   6  2  5 14               1.0305522      59.0462928
  98 TORSION   8  9  6 15               3.1412506     179.9804024
  99 TORSION   9  8  4 12              -3.1410833    -179.9708154
 100 TORSION  10  3  7 17               2.0666587     118.4108198
 101 TORSION  10  3  7 16               0.0217348       1.2453104
 102 TORSION  11  3  7 17              -0.0103537      -0.5932238
 103 TORSION  11  3  7 16              -2.0552776    -117.7587332
 104 TORSION  12  4  8 18               0.0001898       0.0108745
 105 TORSION  13  5  7 17               0.0097781       0.5602426
 106 TORSION  13  5  7 16               2.0542741     117.7012374
 107 TORSION  14  5  7 17              -2.0672581    -118.4451637
 108 TORSION  14  5  7 16              -0.0227620      -1.3041689
 109 TORSION  15  6  9 19              -0.0004613      -0.0264282
 110 TORSION  18  8  9 19               0.0001876       0.0107482

     ------------------------------------------
     THE POINT GROUP IS C1 , NAXIS= 1, ORDER= 1
     ------------------------------------------

     DIMENSIONS OF THE SYMMETRY SUBSPACES ARE
 A   =  231

 ..... DONE SETTING UP THE RUN .....
 STEP CPU TIME =     0.02 TOTAL CPU TIME =        0.0 (    0.0 MIN)
 TOTAL WALL CLOCK TIME=        0.0 SECONDS, CPU UTILIZATION IS 100.00%


          -----------------------------
          STATIONARY POINT LOCATION RUN
          -----------------------------

 OBTAINING INITIAL HESSIAN, HESS=GUESS   
 DIAGONAL GUESS HESSIAN IN INTERNAL COORDS IS
     1  0.3955     2  0.4694     3  0.4870     4  0.4870     5  0.3955
     6  0.3616     7  0.3360     8  0.3361     9  0.3435    10  0.4764
    11  0.3360    12  0.3611    13  0.3360    14  0.4763    15  0.3435
    16  0.3365    17  0.3366    18  0.4820    19  0.3432    20  0.3431
    21  0.2254    22  0.2687    23  0.2254    24  0.2693    25  0.2327
    26  0.2605    27  0.2506    28  0.2254    29  0.2687    30  0.2605
    31  0.2254    32  0.2693    33  0.2506    34  0.2327    35  0.2227
    36  0.2227    37  0.2473    38  0.2619    39  0.2320    40  0.2689
    41  0.2227    42  0.2227    43  0.2619    44  0.2320    45  0.2689
    46  0.2226    47  0.2226    48  0.2227    49  0.2227    50  0.2320
    51  0.2324    52  0.2320    53  0.2324    54  0.2018    55  0.2018
    56  0.2019    57  0.2500    58  0.2500    59  0.2500    60  0.2500
    61  0.2500    62  0.2500    63  0.2500    64  0.2500    65  0.2500
    66  0.2500    67  0.2500    68  0.2500    69  0.2500    70  0.2500
    71  0.2500    72  0.2500    73  0.2500    74  0.2500    75  0.2500
    76  0.2500    77  0.2500    78  0.2500    79  0.2500    80  0.2500
    81  0.2500    82  0.2500    83  0.2500    84  0.2500    85  0.2500
    86  0.2500    87  0.2500    88  0.2500    89  0.2500    90  0.2500
    91  0.2500    92  0.2500    93  0.2500    94  0.2500    95  0.2500
    96  0.2500    97  0.2500    98  0.2500    99  0.2500   100  0.2500
   101  0.2500   102  0.2500   103  0.2500   104  0.2500   105  0.2500
   106  0.2500   107  0.2500   108  0.2500   109  0.2500   110  0.2500
 TRANSFORMING HESSIAN TO SYMMETRY COORDINATES

          PARAMETERS CONTROLLING GEOMETRY SEARCH ARE
          METHOD =QA                  UPHESS =BFGS    
          NNEG   =         0          NFRZ   =         3
          NSTEP  =        50          IFOLOW =         1
          HESS   =GUESS               RESTAR =         F
          IHREP  =         0          HSSEND =         F
          NPRT   =         0          NPUN   =         0
          OPTTOL = 5.000E-04          RMIN   = 1.500E-03
          RMAX   = 1.000E-01          RLIM   = 7.000E-02
          DXMAX  = 3.000E-01          PURIFY =         F
          MOVIE  =         F          TRUPD  =         T
          TRMAX  = 5.000E-01          TRMIN  = 5.000E-02
          ITBMAT =         5          STPT   =         F
          STSTEP = 1.000E-02          PROJCT=          F
          FROZEN COORD(S)=   1   2   3


      ***** EQUILIBRIUM GEOMETRY LOCATED *****
            (SUBJECT TO   3 CONSTRAINT(S))
 COORDINATES OF ALL ATOMS ARE (ANGS)
   ATOM   CHARGE       X              Y              Z
 ------------------------------------------------------------
 C           6.0   3.3392983667   3.1982562109   0.8882379739
 C           6.0   3.3435192020   1.8147914801   0.8879929821
 C           6.0   4.7385035656   3.7618892890   0.8877160118
 C           6.0   2.1423431559   3.8982556438   0.8890186756
 C           6.0   4.7461962382   1.2596559309   0.8864423275
 C           6.0   2.1507250992   1.1077325955   0.8887036067
 C           6.0   5.6605332860   2.5135963010   0.8918094908
 C           6.0   0.9486227320   3.1952962006   0.8897141010
 C           6.0   0.9528300385   1.8035986021   0.8895826434
 H           1.0   4.9043190425   4.3854079080   0.0141024056
 H           1.0   4.9031675231   4.3902192711   1.7580474825
 H           1.0   2.1414219106   4.9750583910   0.8893090397
 H           1.0   4.9151948176   0.6309917255   1.7557135261
 H           1.0   4.9155885635   0.6384807718   0.0118252309
 H           1.0   2.1561923689   0.0309536907   0.8887881993
 H           1.0   6.3086233194   2.5160425299   0.0239887797
 H           1.0   6.2988145322   2.5151513127   1.7669077504
 H           1.0   0.0147616709   3.7284852926   0.8904974754
 H           1.0   0.0221906699   1.2648394744   0.8901986994


                     --------------------
                     INTERNAL COORDINATES
                     --------------------

                 - - ATOMS - -         COORDINATE      COORDINATE
 NO.   TYPE    I  J  K  L  M  N        (BOHR,RAD)       (ANG,DEG)
 ----------------------------------------------------------------
   1 STRETCH   1  3                     2.8505799       1.5084620
   2 STRETCH   1  2                     2.6143815       1.3834712
   3 STRETCH   1  4                     2.6203227       1.3866152
   4 STRETCH   2  6                     2.6203152       1.3866112
   5 STRETCH   2  5                     2.8507196       1.5085360
   6 STRETCH   3  7                     2.9326641       1.5518991
   7 STRETCH   3 11                     2.0522369       1.0859971
   8 STRETCH   3 10                     2.0523077       1.0860345
   9 STRETCH   4 12                     2.0348630       1.0768032
  10 STRETCH   4  8                     2.6178816       1.3853234
  11 STRETCH   5 13                     2.0522560       1.0860072
  12 STRETCH   5  7                     2.9326742       1.5519045
  13 STRETCH   5 14                     2.0523393       1.0860513
  14 STRETCH   6  9                     2.6179239       1.3853458
  15 STRETCH   6 15                     2.0348433       1.0767928
  16 STRETCH   7 17                     2.0468466       1.0831446
  17 STRETCH   7 16                     2.0467917       1.0831156
  18 STRETCH   8  9                     2.6299391       1.3917040
  19 STRETCH   8 18                     2.0321257       1.0753547
  20 STRETCH   9 19                     2.0320938       1.0753378
  21 BEND      1  3 11                  1.9353669     110.8883563
  22 BEND      1  2  6                  2.1028355     120.4836000
  23 BEND      1  3 10                  1.9352294     110.8804768
  24 BEND      1  4  8                  2.0802086     119.1871705
  25 BEND      1  4 12                  2.1008324     120.3688325
  26 BEND      1  2  5                  1.9507005     111.7669075
  27 BEND      1  3  7                  1.8240423     104.5099255
  28 BEND      2  5 13                  1.9357396     110.9097069
  29 BEND      2  1  4                  2.1030278     120.4946151
  30 BEND      2  1  3                  1.9506836     111.7659369
  31 BEND      2  5 14                  1.9351354     110.8750924
  32 BEND      2  6  9                  2.0802401     119.1889781
  33 BEND      2  5  7                  1.8239744     104.5060374
  34 BEND      2  6 15                  2.1008092     120.3675004
  35 BEND      3  7 16                  1.9300459     110.5834860
  36 BEND      3  7 17                  1.9295295     110.5538974
  37 BEND      3  7  5                  1.8753572     107.4500544
  38 BEND      3  1  4                  2.2294739     127.7394477
  39 BEND      4  8 18                  2.0906029     119.7827243
  40 BEND      4  8  9                  2.0999768     120.3198082
  41 BEND      5  7 16                  1.9300638     110.5845102
  42 BEND      5  7 17                  1.9295889     110.5573005
  43 BEND      5  2  6                  2.2296492     127.7494892
  44 BEND      6  9 19                  2.0905605     119.7802912
  45 BEND      6  9  8                  2.1000819     120.3258276
  46 BEND      7  5 14                  1.9530731     111.9028463
  47 BEND      7  5 13                  1.9533396     111.9181127
  48 BEND      7  3 10                  1.9532688     111.9140573
  49 BEND      7  3 11                  1.9532372     111.9122474
  50 BEND      8  4 12                  2.1021443     120.4439956
  51 BEND      8  9 19                  2.0925430     119.8938811
  52 BEND      9  6 15                  2.1021360     120.4435201
  53 BEND      9  8 18                  2.0926056     119.8974670
  54 BEND     10  3 11                  1.8643316     106.8183339
  55 BEND     13  5 14                  1.8642246     106.8122043
  56 BEND     16  7 17                  1.8699623     107.1409500
  57 TORSION   1  2  6 15              -3.1412947    -179.9829294
  58 TORSION   1  4  8 18               3.1414051     179.9892543
  59 TORSION   1  3  7 16               2.1134898     121.0940468
  60 TORSION   1  3  7 17              -2.1016173    -120.4138017
  61 TORSION   1  4  8  9              -0.0000385      -0.0022058
  62 TORSION   1  2  6  9               0.0000666       0.0038184
  63 TORSION   1  2  5 14              -2.1031525    -120.5017597
  64 TORSION   1  2  5  7               0.0040581       0.2325093
  65 TORSION   1  2  5 13               2.1119057     121.0032830
  66 TORSION   1  3  7  5               0.0054945       0.3148131
  67 TORSION   2  1  3 10               2.1043912     120.5727329
  68 TORSION   2  1  4 12               3.1414840     179.9937726
  69 TORSION   2  1  3 11              -2.1107122    -120.9348983
  70 TORSION   2  5  7 16              -2.1137927    -121.1114025
  71 TORSION   2  5  7 17               2.1012656     120.3936532
  72 TORSION   2  5  7  3              -0.0058087      -0.3328147
  73 TORSION   2  1  4  8               0.0001344       0.0077027
  74 TORSION   2  6  9 19              -3.1415283    -179.9963107
  75 TORSION   2  6  9  8               0.0000292       0.0016712
  76 TORSION   2  1  3  7              -0.0031430      -0.1800819
  77 TORSION   3  7  5 14               2.0894223     119.7150795
  78 TORSION   3  1  2  5              -0.0005928      -0.0339669
  79 TORSION   3  7  5 13              -2.1019076    -120.4304333
  80 TORSION   3  1  4 12               0.0000156       0.0008935
  81 TORSION   3  1  2  6               3.1413370     179.9853528
  82 TORSION   3  1  4  8              -3.1413339    -179.9851765
  83 TORSION   4  1  3  7               3.1383343     179.8133112
  84 TORSION   4  1  3 11               1.0307652      59.0584948
  85 TORSION   4  1  2  6              -0.0001498      -0.0085838
  86 TORSION   4  8  9 19               3.1415143     179.9955113
  87 TORSION   4  8  9  6              -0.0000431      -0.0024683
  88 TORSION   4  1  2  5               3.1411056     179.9720965
  89 TORSION   4  1  3 10              -1.0373168     -59.4338740
  90 TORSION   5  7  3 10              -2.0899952    -119.7479017
  91 TORSION   5  7  3 11               2.1011327     120.3860362
  92 TORSION   5  2  6 15               0.0006940       0.0397623
  93 TORSION   5  2  6  9              -3.1411300    -179.9734899
  94 TORSION   6  2  5 13              -1.0300545     -59.0177735
  95 TORSION   6  9  8 18              -3.1414865    -179.9939186
  96 TORSION   6  2  5  7              -3.1379021    -179.7885472
  97 TORSION   6  2  5 14               1.0380727      59.4771838
  98 TORSION   8  9  6 15               3.1413903     179.9884087
  99 TORSION   9  8  4 12              -3.1413878    -179.9882650
 100 TORSION  10  3  7 17               2.0860783     119.5234835
 101 TORSION  10  3  7 16               0.0180001       1.0313320
 102 TORSION  11  3  7 17              -0.0059791      -0.3425786
 103 TORSION  11  3  7 16              -2.0740573    -118.8347301
 104 TORSION  12  4  8 18               0.0000558       0.0031951
 105 TORSION  13  5  7 17               0.0051668       0.2960346
 106 TORSION  13  5  7 16               2.0732937     118.7909788
 107 TORSION  14  5  7 17              -2.0866886    -119.5584526
 108 TORSION  14  5  7 16              -0.0185617      -1.0635083
 109 TORSION  15  6  9 19              -0.0001671      -0.0095733
 110 TORSION  18  8  9 19               0.0000709       0.0040611

          INTERNUCLEAR DISTANCES (ANGS.)


 =====================================================
   GAMESS/COSab RESULTS
 =====================================================

   Dielectric Constant                  = INFTY
   Basic Grid Size                      =                 1082
   Number of Segments                   =                   92
   Number of Segments located on spheres=                  285
   Number of Segments of the cavity     =                  760
   Solvent Radius (rsolv)               = 1.40
   Outlying Charge Error Method         = double cavity

 =====================================================

  Total solvated Energy (a.u.)          =  -346.7256505522
  Total Energy corrected (a.u.)         =  -346.7256849197

  Outlying charge effect (a.u.)         =    -0.0000343675
  Outlying charge effect (kcal/mol)     =    -0.0215659637

  Dielectric Energy (a.u.)              =    -0.0064280923
  Dielectric energy corr. (a.u.)        =    -0.0064624598

  Sum of polarization charges           =     0.0266426429
  Sum of polarization charges(cor.)     =    -0.0266426429

  Total surface area of cavity (A**2)   =  161.63
  Total volume of cavity (A**3)         =  158.99

 =====================================================
 NPS=                   760
NR.  ATOM  (X, Y, Z)(a.u.)                  CHARGE(e)  AREA(A**2) SIGMA(e/A**2)
   1   1   6.327120   7.084100   5.311945   0.000789   0.139368   0.005659
   2   1   6.867431   5.730883   5.403568   0.000712   0.139368   0.005107
   3   1   6.599298   6.417969   5.428289   0.000886   0.185824   0.004769
   4   1   5.882684   6.246050   5.428244   0.000587   0.139368   0.004213
   5   1   5.720779   5.659849  -2.034865   0.002901   0.371649   0.007805
   6   1   6.844259   5.861078  -2.058570   0.001100   0.232280   0.004735
   7   1   6.299903   6.787517  -2.027028   0.001474   0.325193   0.004534
   8   1   5.911035   5.538190   5.402645   0.001732   0.232280   0.007455
   9   2   6.336878   2.389279  -1.955391   0.000789   0.139368   0.005663
  10   2   6.868811   3.745765  -2.047687   0.000702   0.139368   0.005035
  11   2   6.604842   3.057057  -2.072074   0.000902   0.185824   0.004854
  12   2   5.887194   3.224603  -2.071129   0.000548   0.139368   0.003933
  13   2   5.731078   3.809834   5.392179   0.002922   0.371649   0.007861
  14   2   6.855794   3.615460   5.414474   0.001141   0.232280   0.004912
  15   2   6.317058   2.685719   5.383611   0.001512   0.325193   0.004651
  16   2   5.911259   3.932622  -2.045563   0.002032   0.232280   0.008749
  17   3  11.064081  10.220511   2.067234   0.001241   0.371649   0.003339
  18   3   8.714565   6.239566   5.347818   0.000142   0.139368   0.001022
  19   3  11.926897   8.528380  -0.175584   0.000047   0.092912   0.000501
  20   3  10.664593  10.435502   1.135642   0.000922   0.278737   0.003309
  21   3   8.188046  10.725692   0.892752   0.000303   0.185824   0.001630
  22   3   9.145605   6.425235  -2.034636   0.000139   0.185824   0.000750
  23   3   8.543116   5.927202  -1.888765  -0.000034   0.046456  -0.000725
  24   3   8.467231  10.825864   2.158455   0.000764   0.278737   0.002741
  25   3   9.877361  10.768747   1.873195   0.001317   0.325193   0.004051
  26   3  11.672180   9.733039   1.566397   0.000651   0.278737   0.002336
  27   3  12.197948   8.838961   0.799431   0.000436   0.232280   0.001876
  28   3  11.909515   9.185903   2.790262   0.000355   0.232280   0.001530
  29   3  12.032821   8.573610   3.309327   0.000087   0.092912   0.000937
  30   3   9.118043   6.567490   5.414434   0.000043   0.046456   0.000931
  31   3  11.751427   9.425695   0.631657   0.000385   0.232280   0.001659
  32   3   9.039099  10.873509   1.353424   0.000990   0.278737   0.003551
  33   3   8.565795   6.626926  -2.050841   0.000056   0.046456   0.001195
  34   3  12.207295   9.019371   1.909034   0.000391   0.325193   0.001203
  35   4   4.152562   6.379850   5.326882   0.000734   0.092912   0.007895
  36   4   2.452177   9.166182   4.595121   0.001240   0.325193   0.003812
  37   4   3.858217   9.023571  -1.711543   0.001381   0.325193   0.004247
  38   4   3.799848   9.829788  -1.175745   0.000798   0.278737   0.002862
  39   4   5.089642   9.965269   4.219155   0.000146   0.139368   0.001050
  40   4   2.843243   9.888588   4.223934   0.000652   0.278737   0.002340
  41   4   1.631237  10.138289   0.808595  -0.000180   0.092912  -0.001934
  42   4   1.982597   9.879352   3.604290   0.000153   0.185824   0.000825
  43   4   3.499198   9.245554   4.913009   0.001304   0.325193   0.004010
  44   4   4.973948   9.214351   4.844444   0.001122   0.325193   0.003450
  45   4   4.909140   9.230036  -1.493500   0.001159   0.325193   0.003563
  46   4   2.696807   9.294240  -1.276627   0.001624   0.371649   0.004369
  47   4   1.948491   9.923930  -0.146119   0.000320   0.185824   0.001720
  48   4   3.227911   8.263549   5.258636   0.002283   0.325193   0.007019
  49   4   3.695332   7.077854   5.431836   0.001427   0.232280   0.006145
  50   4   4.515337   7.273097   5.429346   0.001621   0.185824   0.008724
  51   4   4.915006   8.327285   5.231133   0.001281   0.232280   0.005516
  52   4   4.636203   8.021664  -1.995545   0.003199   0.511017   0.006261
  53   4   3.207887   8.160494  -1.918256   0.002337   0.418105   0.005589
  54   4   4.884902   9.992994  -0.905877   0.000410   0.232280   0.001765
  55   4   4.211214   9.802160   4.565490   0.000864   0.278737   0.003100
  56   4   1.683174  10.052687   2.894485   0.000060   0.092912   0.000645
  57   4   2.623576   9.912607  -0.722502   0.000569   0.232280   0.002450
  58   4   3.989442   6.824800  -2.059934   0.003780   0.464561   0.008137
  59   4   4.120698   8.201768   5.365333   0.001752   0.325193   0.005388
  60   5  11.098508  -0.714966   1.265121   0.001239   0.371649   0.003334
  61   5   8.726736   3.274449  -1.989051   0.000140   0.139368   0.001002
  62   5  11.948755   0.966497   3.520727   0.000051   0.092912   0.000554
  63   5  10.699595  -0.939115   2.194799   0.000922   0.278737   0.003307
  64   5   8.224722  -1.246611   2.433409   0.000300   0.185824   0.001615
  65   5   9.152702   3.038765   5.392270   0.000132   0.185824   0.000711
  66   5   8.547211   3.534026   5.249422  -0.000032   0.046456  -0.000689
  67   5   8.505600  -1.335980   1.167272   0.000765   0.278737   0.002746
  68   5   9.915101  -1.272030   1.454186   0.001316   0.325193   0.004047
  69   5  11.703101  -0.227267   1.769966   0.000650   0.278737   0.002332
  70   5  12.222580   0.664600   2.543762   0.000439   0.232280   0.001891
  71   5  11.938019   0.330080   0.550249   0.000357   0.232280   0.001535
  72   5  12.057904   0.946830   0.035678   0.000085   0.092912   0.000912
  73   5   9.132327   2.949556  -2.057647   0.000047   0.046456   0.001011
  74   5  11.779622   0.073884   2.706946   0.000385   0.232280   0.001659
  75   5   9.077078  -1.385775   1.972451   0.000990   0.278737   0.003552
  76   5   8.574160   2.833319   5.406519   0.000057   0.046456   0.001225
  77   5  12.234000   0.492183   1.432908   0.000386   0.325193   0.001186
  78   6   4.158763   3.079397  -1.967927   0.000732   0.092912   0.007879
  79   6   2.475679   0.283304  -1.233408   0.001240   0.325193   0.003813
  80   6   3.887438   0.436494   5.071730   0.001382   0.325193   0.004250
  81   6   3.833286  -0.370247   4.536277   0.000798   0.278737   0.002862
  82   6   5.118223  -0.500012  -0.859922   0.000148   0.139368   0.001061
  83   6   2.871406  -0.436641  -0.862376   0.000653   0.278737   0.002342
  84   6   1.664469  -0.692296   2.554317  -0.000180   0.092912  -0.001941
  85   6   2.011368  -0.432282  -0.241835   0.000154   0.185824   0.000828
  86   6   3.522820   0.210021  -1.552364   0.001304   0.325193   0.004009
  87   6   4.997429   0.249984  -1.485353   0.001122   0.325193   0.003449
  88   6   4.939338   0.236179   4.852660   0.001160   0.325193   0.003566
  89   6   2.727199   0.158794   4.638125   0.001624   0.371649   0.004369
  90   6   1.981444  -0.475721   3.508623   0.000319   0.185824   0.001719
  91   6   3.245359   1.190278  -1.898051   0.002282   0.325193   0.007018
  92   6   3.705567   2.378659  -2.072157   0.001428   0.232280   0.006147
  93   6   4.526716   2.188277  -2.070457   0.001615   0.185824   0.008693
  94   6   4.932830   1.136546  -1.872292   0.001281   0.232280   0.005516
  95   6   4.659772   1.443092   5.354566   0.003202   0.511017   0.006265
  96   6   3.232224   1.295777   5.278821   0.002336   0.418105   0.005587
  97   6   4.919005  -0.527119   4.265330   0.000409   0.232280   0.001760
  98   6   4.238483  -0.342234  -1.205395   0.000864   0.278737   0.003098
  99   6   1.713719  -0.607134   0.468344   0.000060   0.092912   0.000646
 100   6   2.657052  -0.460194   4.084295   0.000569   0.232280   0.002451
 101   6   4.006000   2.636128   5.419211   0.003779   0.464561   0.008134
 102   6   4.137652   1.257309  -2.005704   0.001750   0.325193   0.005381
 103   7  13.451915   7.329056   1.479366   0.000474   0.278737   0.001699
 104   7  14.245597   3.514835   2.091591   0.001507   0.371649   0.004054
 105   7   9.756121   4.831505   5.344866   0.000047   0.185824   0.000252
 106   7  14.355081   3.958025   1.161391   0.001117   0.278737   0.004006
 107   7  13.932633   6.592862   1.038831   0.000951   0.325193   0.002925
 108   7  10.105522   4.395671  -2.030778   0.000191   0.185824   0.001027
 109   7   9.468012   4.848826  -1.887461  -0.000079   0.046456  -0.001695
 110   7  13.199549   7.278176   0.408900   0.000421   0.232280   0.001812
 111   7  14.129637   6.260847   2.151788   0.001152   0.325193   0.003541
 112   7  14.463417   4.868409   1.973859   0.001840   0.371649   0.004951
 113   7  13.854706   2.684760   1.468351   0.001328   0.464561   0.002858
 114   7  13.265088   2.116100   0.818647   0.000420   0.185824   0.002262
 115   7  13.531014   7.111765   2.506178   0.000776   0.325193   0.002386
 116   7  13.531148   2.522800   2.821342   0.000382   0.185824   0.002054
 117   7  12.898166   2.151321   3.323986   0.000088   0.092912   0.000942
 118   7  10.196122   4.445195   5.418986   0.000060   0.046456   0.001284
 119   7  13.406740   2.479122   0.349634   0.000287   0.185824   0.001543
 120   7  14.357248   5.641086   1.382315   0.001192   0.278737   0.004275
 121   7  10.150708   5.007929  -2.045605   0.000057   0.046456   0.001223
 122   7  13.025607   7.284555   3.246432   0.000230   0.139368   0.001651
 123   7  13.362047   2.146806   2.321215   0.000302   0.185824   0.001624
 124   8   2.555207   5.535223   5.348711   0.001148   0.139368   0.008237
 125   8  -0.561365   5.544781   4.596713   0.001259   0.325193   0.003870
 126   8   0.735762   8.420746   4.418280   0.001227   0.278737   0.004402
 127   8   0.319164   6.769474  -1.721386   0.001666   0.371649   0.004484
 128   8  -0.494812   7.183987  -1.100603   0.001062   0.371649   0.002857
 129   8   0.537561   9.228421   0.090176   0.000105   0.092912   0.001126
 130   8   0.397450   8.930499   3.674446   0.000470   0.278737   0.001686
 131   8  -0.994300   6.243146   4.225988   0.000683   0.278737   0.002451
 132   8  -1.706804   5.458620   0.376608   0.000027   0.092912   0.000290
 133   8  -1.413798   5.491847   3.606047   0.000204   0.185824   0.001095
 134   8  -0.110263   6.492839   4.914992   0.001385   0.325193   0.004258
 135   8   0.548047   7.644478   4.868056   0.000982   0.232280   0.004226
 136   8   0.541768   8.841584  -0.523402   0.000328   0.185824   0.001768
 137   8   0.746049   7.925752  -1.421286   0.001941   0.418105   0.004643
 138   8  -0.552375   5.823768  -1.274892   0.001644   0.371649   0.004423
 139   8  -1.331233   5.495498  -0.375661   0.000514   0.185824   0.002766
 140   8   0.607476   5.769545   5.260080   0.002282   0.325193   0.007018
 141   8   1.674512   5.711883   5.444808   0.001344   0.232280   0.005788
 142   8   1.994015   6.379723   5.439927   0.002176   0.232280   0.009368
 143   8   1.458771   7.478101   5.159770   0.001325   0.278737   0.004753
 144   8   1.515104   6.875599  -1.993733   0.003495   0.511017   0.006838
 145   8   0.685354   5.704728  -1.916865   0.002295   0.418105   0.005489
 146   8   0.115656   8.212088  -0.916053   0.000603   0.232280   0.002595
 147   8  -0.220041   7.480397   4.536774   0.001070   0.325193   0.003289
 148   8  -1.713099   5.318393   2.896220   0.000042   0.092912   0.000453
 149   8  -1.132312   6.190954  -0.707328   0.000359   0.185824   0.001934
 150   8   2.232797   5.719915  -2.058886   0.003761   0.464561   0.008096
 151   8   0.971370   6.746021   5.301937   0.001492   0.278737   0.005354
 152   9   2.554983   3.915326  -1.987459   0.001147   0.139368   0.008227
 153   9  -0.560415   3.887227  -1.231075   0.001259   0.325193   0.003871
 154   9   0.754154   1.019105  -1.054056   0.001227   0.278737   0.004403
 155   9   0.336314   2.668784   5.085954   0.001667   0.371649   0.004486
 156   9  -0.476038   2.249311   4.466376   0.001062   0.371649   0.002859
 157   9   0.566879   0.210913   3.274438   0.000105   0.092912   0.001128
 158   9   0.419946   0.507449  -0.309674   0.000470   0.278737   0.001686
 159   9  -0.988640   3.186339  -0.859641   0.000683   0.278737   0.002450
 160   9  -1.700413   3.967169   2.990626   0.000023   0.092912   0.000243
 161   9  -1.411756   3.935208  -0.239218   0.000204   0.185824   0.001097
 162   9  -0.104094   2.941839  -1.549853   0.001385   0.325193   0.004258
 163   9   0.561163   1.794168  -1.503679   0.000982   0.232280   0.004227
 164   9   0.569633   0.597861   3.887954   0.000329   0.185824   0.001769
 165   9   0.769691   1.515037   4.785419   0.001942   0.418105   0.004644
 166   9  -0.541498   3.609188   4.640552   0.001644   0.371649   0.004423
 167   9  -1.323570   3.932653   3.742371   0.000515   0.185824   0.002771
 168   9   0.608816   3.669363  -1.896054   0.002282   0.325193   0.007018
 169   9   1.675227   3.733384  -2.082292   0.001345   0.232280   0.005792
 170   9   1.998729   3.067469  -2.077765   0.002175   0.232280   0.009365
 171   9   1.470464   1.965949  -1.796698   0.001325   0.278737   0.004752
 172   9   1.533250   2.569861   5.356633   0.003495   0.511017   0.006839
 173   9   0.696398   3.735732   5.280765   0.002295   0.418105   0.005489
 174   9   0.140313   1.224856   4.281114   0.000603   0.232280   0.002596
 175   9  -0.207427   1.953698  -1.171339   0.001070   0.325193   0.003289
 176   9  -1.711091   4.106975   0.471005   0.000041   0.092912   0.000436
 177   9  -1.120023   3.238452   4.073856   0.000359   0.185824   0.001933
 178   9   2.244102   3.729829   5.420610   0.003762   0.464561   0.008098
 179   9   0.978490   2.695077  -1.938284   0.001492   0.278737   0.005353
 180  10   9.658836   9.621919  -1.998399  -0.002670   0.451437  -0.005915
 181  10   8.206034   8.831829  -2.120704  -0.001218   0.274788  -0.004433
 182  10   9.702035   7.813131  -2.344395  -0.001311   0.353299  -0.003710
 183  10  11.226150   9.110399  -1.207236  -0.001611   0.412182  -0.003908
 184  10   9.959702  10.623475  -0.286902  -0.000916   0.372926  -0.002456
 185  10   8.640660  10.581048  -0.589879  -0.001528   0.372926  -0.004096
 186  10   8.956633   8.412751  -2.406978  -0.001928   0.451437  -0.004270
 187  10  10.476617   8.755142  -2.060218  -0.002326   0.451437  -0.005151
 188  10  10.756816  10.026914  -0.863006  -0.001954   0.490692  -0.003982
 189  10   9.425092  10.397722  -1.220811  -0.001663   0.333671  -0.004984
 190  10   8.387123   9.849266  -1.652484  -0.002292   0.431809  -0.005308
 191  11   9.667080   9.979668   5.065858  -0.002886   0.490692  -0.005881
 192  11  10.000241   8.013671   5.649373  -0.001688   0.372926  -0.004527
 193  11   8.781822   7.971208   5.708724  -0.000989   0.314043  -0.003148
 194  11   8.341336   9.926772   4.910420  -0.001847   0.353299  -0.005227
 195  11   9.671135  10.689033   3.703697  -0.001074   0.372926  -0.002881
 196  11  11.233060   9.445375   4.240919  -0.001405   0.431809  -0.003253
 197  11   9.536184   8.983623   5.665201  -0.002045   0.392554  -0.005209
 198  11   8.320501   8.990152   5.481028  -0.001939   0.412182  -0.004705
 199  11   8.702376  10.556108   4.103973  -0.001737   0.412182  -0.004215
 200  11  10.545578  10.280966   3.998965  -0.001607   0.431809  -0.003722
 201  11  10.769689   8.992776   5.135479  -0.002161   0.431809  -0.005005
 202  12   3.930407  11.853507   1.584296  -0.004716   0.549575  -0.008580
 203  12   2.920538  11.098905   3.053765  -0.001888   0.372926  -0.005064
 204  12   2.373635  11.071486   1.011872  -0.002100   0.353299  -0.005943
 205  12   4.208840  11.093399  -0.093227  -0.001773   0.372926  -0.004755
 206  12   4.876413  11.167954   3.172643  -0.002400   0.353299  -0.006794
 207  12   2.598094  11.361273   1.990343  -0.003568   0.490692  -0.007272
 208  12   3.270921  11.360920   0.418030  -0.003207   0.490692  -0.006535
 209  12   4.993308  11.426531   0.661588  -0.003754   0.471065  -0.007968
 210  12   5.094795  11.600454   1.998692  -0.003740   0.431809  -0.008661
 211  12   3.896352  11.417654   3.076134  -0.003249   0.490692  -0.006621
 212  13   9.686077  -0.154245   5.333615  -0.002672   0.451437  -0.005920
 213  13   8.228224   0.625794   5.460264  -0.001223   0.274788  -0.004450
 214  13   9.717590   1.652262   5.692551  -0.001314   0.353299  -0.003719
 215  13  11.250805   0.372766   4.547517  -0.001609   0.412182  -0.003904
 216  13   9.994691  -1.141636   3.615281  -0.000918   0.372926  -0.002460
 217  13   8.675152  -1.109676   3.917379  -0.001533   0.372926  -0.004110
 218  13   8.975927   1.047531   5.750190  -0.001933   0.451437  -0.004281
 219  13  10.498329   0.717197   5.402347  -0.002329   0.451437  -0.005159
 220  13  10.787545  -0.544202   4.196337  -0.001956   0.490692  -0.003985
 221  13   9.457881  -0.925929   4.550301  -0.001664   0.333671  -0.004988
 222  13   8.416114  -0.387113   4.984955  -0.002294   0.431809  -0.005312
 223  14   9.702677  -0.461971  -1.732674  -0.002884   0.490692  -0.005878
 224  14  10.023959   1.510134  -2.302069  -0.001684   0.372926  -0.004517
 225  14   8.805350   1.545345  -2.362242  -0.000985   0.314043  -0.003136
 226  14   8.376490  -0.418512  -1.578089  -0.001845   0.353299  -0.005223
 227  14   9.710006  -1.180848  -0.375522  -0.001075   0.372926  -0.002882
 228  14  11.264537   0.076357  -0.902564  -0.001408   0.431809  -0.003261
 229  14   9.566035   0.537416  -2.325131  -0.002044   0.392554  -0.005207
 230  14   8.350257   0.521944  -2.142128  -0.001932   0.412182  -0.004688
 231  14   8.740780  -1.051213  -0.775747  -0.001730   0.412182  -0.004197
 232  14  10.582120  -0.765223  -0.667113  -0.001605   0.431809  -0.003717
 233  14  10.799109   0.532304  -1.794350  -0.002160   0.431809  -0.005003
 234  15   3.972947  -2.394110   1.776812  -0.004715   0.549575  -0.008580
 235  15   2.957092  -1.646028   0.308135  -0.001887   0.372926  -0.005060
 236  15   2.412169  -1.621119   2.350591  -0.002100   0.353299  -0.005945
 237  15   4.248626  -1.631767   3.453775  -0.001775   0.372926  -0.004759
 238  15   4.913216  -1.703533   0.187235  -0.002397   0.353299  -0.006784
 239  15   2.637318  -1.909921   1.371987  -0.003568   0.490692  -0.007271
 240  15   3.311774  -1.905021   2.943594  -0.003207   0.490692  -0.006536
 241  15   5.034264  -1.960516   2.698256  -0.003756   0.471065  -0.007974
 242  15   5.135382  -2.134312   1.361108  -0.003739   0.431809  -0.008660
 243  15   3.934752  -1.959000   0.284857  -0.003248   0.490692  -0.006619
 244  16  13.450721   4.771911  -1.877312  -0.003026   0.549575  -0.005507
 245  16  11.606713   4.264717  -2.341295  -0.001234   0.392554  -0.003143
 246  16  13.284929   3.107889  -1.164893  -0.001288   0.372926  -0.003454
 247  16  14.339523   4.444663  -0.258932  -0.000746   0.372926  -0.002000
 248  16  13.649733   6.304375  -0.758959  -0.001042   0.412182  -0.002528
 249  16  12.025778   5.310213  -2.345403  -0.002222   0.529948  -0.004194
 250  16  12.686236   3.740250  -2.057398  -0.002233   0.471065  -0.004740
 251  16  13.939651   3.735916  -0.916295  -0.001480   0.412182  -0.003592
 252  16  14.168135   5.354319  -0.747431  -0.001690   0.471065  -0.003588
 253  16  12.962383   6.108088  -1.721022  -0.002283   0.510320  -0.004474
 254  17  13.410450   4.745118   5.278751  -0.003024   0.549575  -0.005503
 255  17  11.558199   5.240798   5.721875  -0.001231   0.392554  -0.003137
 256  17  13.242346   6.408100   4.564448  -0.001291   0.372926  -0.003462
 257  17  14.315404   5.077953   3.670493  -0.000745   0.372926  -0.001999
 258  17  13.631615   3.213962   4.162769  -0.001042   0.412182  -0.002527
 259  17  11.983696   4.197933   5.730749  -0.002219   0.529948  -0.004187
 260  17  12.637569   5.771990   5.450161  -0.002227   0.471065  -0.004728
 261  17  13.903731   5.784173   4.323277  -0.001480   0.412182  -0.003592
 262  17  14.144184   4.167230   4.157060  -0.001688   0.471065  -0.003584
 263  17  12.932240   3.405929   5.117007  -0.002281   0.510320  -0.004471
 264  18  -2.129472   8.219663   1.628284  -0.005311   0.608459  -0.008729
 265  18  -2.029917   6.970145   3.022488  -0.002158   0.412182  -0.005235
 266  18  -2.252588   6.423237   1.014304  -0.002137   0.353299  -0.006049
 267  18  -1.394433   7.990592  -0.083417  -0.001594   0.353299  -0.004513
 268  18  -0.578030   9.396130   1.303291  -0.002230   0.333671  -0.006684
 269  18  -0.833840   8.823814   3.142680  -0.001422   0.333671  -0.004261
 270  18  -2.392439   6.761457   1.992983  -0.003481   0.490692  -0.007094
 271  18  -2.058381   7.346111   0.420899  -0.003102   0.490692  -0.006321
 272  18  -1.188586   8.864808   0.566293  -0.003286   0.510320  -0.006438
 273  18  -1.104365   9.169978   2.173773  -0.003552   0.490692  -0.007239
 274  18  -1.692057   8.033500   3.132401  -0.003552   0.549575  -0.006464
 275  19  -2.108281   1.203470   1.739940  -0.005311   0.608459  -0.008728
 276  19  -2.018168   2.453350   0.345419  -0.002158   0.412182  -0.005236
 277  19  -2.241285   2.999220   2.353836  -0.002139   0.353299  -0.006054
 278  19  -1.372219   1.437196   3.450572  -0.001594   0.353299  -0.004513
 279  19  -0.549369   0.036360   2.062918  -0.002230   0.333671  -0.006684
 280  19  -0.811186   0.606856   0.223809  -0.001422   0.333671  -0.004261
 281  19  -2.380485   2.660021   1.375403  -0.003483   0.490692  -0.007098
 282  19  -2.040723   2.077615   2.947099  -0.003101   0.490692  -0.006320
 283  19  -1.162057   0.564130   2.800699  -0.003285   0.510320  -0.006438
 284  19  -1.078272   0.259226   1.193145  -0.003552   0.490692  -0.007238
 285  19  -1.674104   1.392020   0.235182  -0.003552   0.549575  -0.006463
 286   1   7.829226   4.968753  -1.694130  -0.000006   0.098543  -0.000062
 287   2   7.830610   4.514943  -1.694210  -0.000031   0.098543  -0.000310
 288   7   8.594846   4.744174  -1.652728  -0.000433   0.098543  -0.004396
 289   1   7.818473   4.967537   5.055599  -0.000006   0.098543  -0.000059
 290   2   7.819857   4.513727   5.055520  -0.000024   0.098543  -0.000241
 291   7   8.584221   4.742972   5.016556  -0.000435   0.098543  -0.004416
 292   1   4.639638   5.073440  -1.634448   0.001007   0.102073   0.009861
 293   2   4.645468   4.620039  -1.615299   0.000982   0.102073   0.009616
 294   8   3.853180   5.080292  -1.575461   0.000855   0.102073   0.008378
 295   1   4.649141   4.843139   4.974083   0.001037   0.102074   0.010160
 296   2   4.646104   4.389710   4.993226   0.000967   0.102074   0.009477
 297   9   3.859613   4.378212   4.935262   0.000857   0.102074   0.008394
 298   2   5.483849   4.411539  -1.872178   0.001901   0.193006   0.009847
 299   2   6.990610   4.416139  -1.905172   0.001016   0.193006   0.005264
 300   1   6.236223   5.060202  -1.844561   0.002762   0.393708   0.007016
 301   2   6.982527   4.414857   5.263849   0.001057   0.191750   0.005514
 302   2   5.485215   4.410297   5.229666   0.001692   0.191750   0.008826
 303   1   6.232892   5.058956   5.203436   0.002785   0.390948   0.007124
 304   1   8.062048   5.343880   5.074218  -0.000139   0.067160  -0.002076
 305   3   8.520998   5.520907   5.107474  -0.000222   0.067160  -0.003303
 306   7   8.827799   5.118230   5.074083  -0.000290   0.067160  -0.004311
 307   1   8.067025   5.325328  -1.710732  -0.000129   0.067160  -0.001927
 308   3   8.526024   5.502172  -1.744281  -0.000212   0.067160  -0.003160
 309   7   8.832774   5.099686  -1.708239  -0.000285   0.067160  -0.004243
 310   1   7.478660   6.906327  -1.925805   0.000079   0.025834   0.003050
 311   3   7.932413   7.090988  -1.968282   0.000012   0.025834   0.000484
 312  10   8.073690   7.353745  -2.019698  -0.000033   0.025834  -0.001289
 313   1   7.473051   6.926902   5.279677   0.000064   0.025820   0.002481
 314   3   7.926736   7.111806   5.321813   0.000004   0.025820   0.000166
 315  11   8.068021   7.374779   5.371957  -0.000059   0.025820  -0.002275
 316   3   8.167192   6.188916  -1.897934  -0.000014   0.231999  -0.000062
 317   1   7.409128   6.184017  -1.930270   0.000457   0.231999   0.001970
 318   3   8.057525   6.467724   5.287802   0.000053   0.232164   0.000227
 319   1   7.507879   5.945436   5.257050   0.000441   0.232164   0.001901
 320   1   4.443983   5.436501  -1.669009   0.000574   0.048355   0.011874
 321   4   4.049506   5.654665  -1.704505   0.000581   0.048355   0.012005
 322   8   3.656105   5.435517  -1.668554   0.000564   0.048355   0.011671
 323   1   4.448147   5.436055   5.028281   0.000608   0.048355   0.012581
 324   4   4.053714   5.654214   5.064296   0.000665   0.048355   0.013750
 325   8   3.660269   5.435071   5.028805   0.000589   0.048355   0.012190
 326   1   6.472282   7.872426  -1.654678   0.000347   0.080356   0.004323
 327   4   6.076782   8.087228  -1.604207   0.000516   0.080356   0.006424
 328  10   7.136211   8.220864  -1.671590   0.000053   0.080356   0.000662
 329   1   6.476290   7.873615   5.011019   0.000380   0.080549   0.004723
[...]
 501  11   7.451297   8.819468   5.085106  -0.000304   0.300249  -0.001013
 502   4   5.927650   9.227627   4.538575   0.001549   0.845154   0.001833
 503   4   1.363825  10.038963   1.490787  -0.000082   0.007066  -0.011540
 504  12   1.587061  10.234401   1.510466  -0.000106   0.007066  -0.014952
 505  18   0.718101   9.673525   1.514329  -0.000094   0.007066  -0.013360
 506   4   1.364099  10.038861   1.874490  -0.000079   0.007066  -0.011233
 507  12   1.587307  10.234309   1.854596  -0.000108   0.007066  -0.015286
 508  18   0.718341   9.673435   1.851674  -0.000097   0.007066  -0.013762
 509  12   1.960027  10.604428   2.145181  -0.000479   0.071838  -0.006667
 510  12   2.578970  10.604692   3.138801  -0.000986   0.161961  -0.006090
 511  12   3.855488  10.605621   3.740142  -0.000711   0.161961  -0.004388
 512  12   5.015746  10.606653   3.584667  -0.000334   0.071838  -0.004652
 513   4   1.939401  10.276362   2.657742  -0.000985   0.155099  -0.006354
 514   4   3.056375  10.277016   3.781437  -0.000544   0.155099  -0.003506
 515   4   4.634061  10.278324   3.927140  -0.000566   0.155099  -0.003649
 516  12   5.018277  10.607671  -0.221523  -0.000413   0.071939  -0.005741
 517  12   3.856646  10.606721  -0.378214  -0.000820   0.162242  -0.005054
 518  12   2.578530  10.605470   0.223792  -0.000957   0.162242  -0.005900
 519  12   1.959539  10.604675   1.219174  -0.000439   0.071939  -0.006108
 520   4   4.636319  10.279525  -0.564616  -0.000601   0.155268  -0.003871
 521   4   3.056639  10.278138  -0.419605  -0.000565   0.155268  -0.003641
 522   4   1.938801  10.276883   0.705943  -0.000935   0.155268  -0.006021
 523  18   0.191186   9.550567   1.984807  -0.000252   0.041939  -0.006016
 524   4   1.195384  10.021255   1.986575  -0.000108   0.059191  -0.001830
 525  18   0.190403   9.555515   1.424667  -0.000258   0.041993  -0.006138
 526   4   1.195275  10.017017   1.339705  -0.000106   0.059267  -0.001785
 527   5  12.231649   1.797884  -0.362918   0.000029   0.026351   0.001115
 528   7  12.559332   2.182938  -0.384005   0.000011   0.026351   0.000421
 529  16  12.658079   2.394868  -0.574086  -0.000056   0.026351  -0.002144
 530   5  10.154684   3.318980  -1.909707   0.000022   0.026351   0.000817
 531   7  10.453693   3.725034  -1.952148  -0.000007   0.026351  -0.000269
 532  16  10.741846   3.798250  -2.001172  -0.000065   0.026351  -0.002467
 533   5  10.113185   3.318386   5.273561   0.000018   0.026392   0.000666
 534   7  10.411682   3.724438   5.319489  -0.000005   0.026392  -0.000191
 535  17  10.699357   3.797317   5.371803  -0.000066   0.026392  -0.002503
 536   5  12.209938   1.796009   3.746958   0.000031   0.026392   0.001156
 537   7  12.537369   2.181054   3.771820   0.000004   0.026392   0.000133
 538  17  12.633847   2.392753   3.963340  -0.000052   0.026392  -0.001980
 539   7   9.607762   4.162961   5.257774  -0.000212   0.233976  -0.000907
 540   5   9.401289   3.415661   5.285525  -0.000118   0.233976  -0.000505
 541   7  12.697050   1.919177   3.186905   0.000175   0.240213   0.000729
 542   7  12.794444   1.857387   1.029868  -0.000496   0.491932  -0.001008
 543   5  12.360085   1.270696   2.357592  -0.000628   0.491932  -0.001277
 544   5  12.285363   1.334413   0.199706   0.000136   0.240213   0.000565
 545   7   9.855387   4.013113  -1.921722  -0.000136   0.242165  -0.000561
 546   5   9.199292   3.593667  -1.893685  -0.000243   0.242165  -0.001003
 547   5   7.534431  -0.947541   2.906855  -0.000078   0.069764  -0.001122
 548  13   7.693300  -0.903190   3.161883  -0.000197   0.069764  -0.002828
 549  15   6.513683  -1.064316   2.761689  -0.000274   0.069764  -0.003927
 550   5  11.926430   1.526414   3.912223  -0.000014   0.051445  -0.000277
 551  13  11.745303   1.363774   4.093331  -0.000115   0.051445  -0.002242
 552  17  12.290161   2.176015   4.076764   0.000037   0.051445   0.000711
 553   5  10.014063   2.922527   5.293725  -0.000024   0.051445  -0.000472
 554  13  10.021005   2.622587   5.338971  -0.000085   0.051445  -0.001661
 555  17  10.601044   3.409145   5.296989   0.000007   0.051445   0.000144
 556  13   8.442785  -1.112796   3.293098  -0.000224   0.070385  -0.003179
 557  13   9.543985  -1.176810   3.032704  -0.000376   0.156914  -0.002394
 558  13  10.805461  -0.660595   3.160782  -0.000440   0.156914  -0.002803
 559  13  11.493960   0.357746   3.763407  -0.000560   0.156914  -0.003570
 560   5   8.737230  -1.177664   2.770665  -0.000247   0.153684  -0.001610
 561   5  10.255281  -0.994328   2.608114  -0.000118   0.153684  -0.000771
 562   5  11.414453  -0.082103   3.042484  -0.000286   0.153684  -0.001861
 563   5  11.815752   0.913559   3.684544  -0.000114   0.085991  -0.001327
 564  13   9.482626   2.250514   5.523341  -0.000181   0.072578  -0.002498
 565  13   8.604362   2.017253   5.525396  -0.000169   0.072578  -0.002322
 566   5   8.943031   2.511030   5.398387  -0.000458   0.157442  -0.002909
 567   5   7.526138  -0.932035   0.412988  -0.000074   0.068949  -0.001071
 568  14   7.686164  -0.885497   0.159127  -0.000205   0.068949  -0.002980
 569  15   6.506589  -1.050233   0.564991  -0.000279   0.068949  -0.004049
 570   5  10.031003   2.952063  -1.933977  -0.000017   0.051462  -0.000327
 571  14  10.036674   2.652516  -1.982076  -0.000117   0.051462  -0.002277
 572  16  10.620473   3.435869  -1.930316   0.000027   0.051462   0.000531
 573   5  11.931168   1.533348  -0.558337  -0.000022   0.051462  -0.000421
 574  14  11.749961   1.373329  -0.741727  -0.000087   0.051462  -0.001699
 575  16  12.298788   2.182792  -0.715286   0.000017   0.051462   0.000334
 576  14   8.611184   2.052541  -2.178737  -0.000185   0.073031  -0.002529
 577  14   9.495434   2.284379  -2.172140  -0.000223   0.073031  -0.003056
 578   5   8.953782   2.544377  -2.045926  -0.000474   0.158216  -0.002993
 579  14  11.599102   0.724128  -0.656563  -0.000199   0.070361  -0.002829
 580  14  11.242542  -0.184007  -0.080627  -0.000466   0.156844  -0.002968
 581  14  10.205799  -0.994771   0.294417  -0.000342   0.156844  -0.002181
 582  14   8.854602  -1.150711   0.143479  -0.000505   0.156844  -0.003220
 583   5  11.689059   0.536878  -0.090369  -0.000367   0.153648  -0.002390
 584   5  10.908116  -0.609264   0.572416  -0.000151   0.153648  -0.000980
 585   5   9.488663  -1.183898   0.705630  -0.000117   0.153648  -0.000762
 586   5   8.272302  -1.118378   0.423517  -0.000120   0.085961  -0.001396
 587  15   5.984099  -1.541003   1.041441  -0.001692   0.303357  -0.005579
 588  15   5.989016  -1.548999   2.281867  -0.001565   0.303357  -0.005160
 589   5   7.457923  -1.185919   1.658136  -0.000294   0.849593  -0.000346
 590  16  12.736984   2.485798  -0.739723  -0.000043   0.023656  -0.001830
 591   5  12.131377   1.559056  -0.485053   0.000101   0.033344   0.003023
 592   5  10.029517   3.117004  -2.023259   0.000038   0.007120   0.005286
 593  17  10.870096   3.826159   5.461433  -0.000022   0.012258  -0.001754
 594   5  10.004137   3.095436   5.384769   0.000066   0.017279   0.003795
 595  17  12.707640   2.483877   4.135117  -0.000016   0.017417  -0.000915
 596   5  12.127992   1.553377   3.838440   0.000084   0.024550   0.003416
 597   6   1.097516  -0.369851   1.255417  -0.000072   0.006064  -0.011812
 598   9   0.688547  -0.179999   1.250228  -0.000088   0.006064  -0.014535
 599  19   0.404804  -0.100716   1.289386  -0.000081   0.006064  -0.013314
 600   6   1.098111  -0.369909   2.107187  -0.000066   0.006064  -0.010945
 601   9   0.689150  -0.180058   2.112973  -0.000077   0.006064  -0.012663
 602  19   0.405352  -0.100770   2.074222  -0.000080   0.006064  -0.013162
 603   9   0.889439  -0.123037   2.645394  -0.000495   0.201950  -0.002452
 604   9   1.488286   0.905728   4.310373   0.001415   0.413467   0.003423
 605   9   2.656219   2.915144   5.187975   0.003844   0.413467   0.009298
 606   6   1.655128  -0.094365   3.317604  -0.000597   0.413467  -0.001443
 607   6   2.591706   1.515814   4.961426   0.002870   0.413467   0.006941
 608   6   3.610731   3.269659   5.234826   0.001635   0.201950   0.008099
 609   9   3.046300   3.595619  -1.874722   0.001991   0.201964   0.009856
 610   9   2.027581   1.841603  -1.600308   0.003019   0.413499   0.007301
 611   9   1.093202   0.231032   0.044606  -0.000590   0.413499  -0.001427
 612   6   3.211171   2.590812  -1.827486   0.003989   0.413499   0.009648
 613   6   2.044361   0.581098  -0.948650   0.001224   0.413499   0.002961
 614   6   1.447774  -0.448009   0.717089  -0.000495   0.201964  -0.002453
 615   6   5.914310  -0.629377   3.647559  -0.000120   0.078773  -0.001527
 616  13   6.965415  -0.494294   3.765689  -0.000098   0.078773  -0.001249
 617  15   5.794497  -0.832660   3.462252  -0.000376   0.078773  -0.004775
 618  13   7.477915   0.657170   5.081308  -0.000367   0.299825  -0.001225
 619  13   7.516671  -0.337508   4.410792  -0.000609   0.299825  -0.002032
 620   6   5.955956   0.241248   4.536182   0.001568   0.844009   0.001858
 621   6   5.917040  -0.627609  -0.288300  -0.000117   0.078455  -0.001488
 622  14   6.967968  -0.488608  -0.410841  -0.000097   0.078455  -0.001235
 623  15   5.796845  -0.830583  -0.102957  -0.000365   0.078455  -0.004651
 624  14   7.517473  -0.330944  -1.059636  -0.000616   0.301426  -0.002045
 625  14   7.473054   0.667283  -1.733896  -0.000308   0.301426  -0.001022
 626   6   5.953453   0.245571  -1.180604   0.001555   0.848535   0.001832
 627   6   1.395905  -0.594834   1.873909  -0.000082   0.007085  -0.011526
 628  15   1.620257  -0.788946   1.853926  -0.000106   0.007085  -0.014927
 629  19   0.747988  -0.233261   1.851095  -0.000095   0.007085  -0.013341
 630   6   1.395631  -0.594868   1.489151  -0.000079   0.007085  -0.011221
 631  15   1.620012  -0.788977   1.508850  -0.000108   0.007085  -0.015271
 632  19   0.747747  -0.233291   1.512821  -0.000097   0.007085  -0.013751
 633  15   1.994749  -1.156966   1.217476  -0.000479   0.071936  -0.006665
 634  15   2.613973  -1.153911   0.222247  -0.000988   0.162238  -0.006092
 635  15   3.892216  -1.147482  -0.379441  -0.000712   0.162238  -0.004389
 636  15   5.053788  -1.141579  -0.222459  -0.000337   0.071936  -0.004690
 637   6   1.972196  -0.829221   0.704302  -0.000987   0.155262  -0.006358
 638   6   3.090290  -0.823648  -0.420969  -0.000544   0.155262  -0.003506
 639   6   4.669980  -0.815652  -0.565584  -0.000568   0.155262  -0.003657
 640  15   5.051286  -1.141268   3.583177  -0.000412   0.071836  -0.005733
 641  15   3.891077  -1.147137   3.738960  -0.000817   0.161959  -0.005046
 642  15   2.614416  -1.153661   3.137940  -0.000955   0.161959  -0.005896
 643  15   1.995236  -1.156885   2.144463  -0.000439   0.071836  -0.006107
 644   6   4.667751  -0.815281   3.925809  -0.000599   0.155095  -0.003860
 645   6   3.090039  -0.823292   3.780515  -0.000565   0.155095  -0.003640
 646   6   1.972796  -0.829052   2.657090  -0.000933   0.155095  -0.006013
 647  19   0.219699  -0.113524   1.379993  -0.000253   0.042069  -0.006011
 648   6   1.226668  -0.578240   1.376962  -0.000109   0.059374  -0.001830
 649  19   0.219737  -0.118366   1.941333  -0.000257   0.041905  -0.006138
 650   6   1.227448  -0.573851   2.024983  -0.000105   0.059142  -0.001780
 651  16  10.957024   4.290153  -2.161376  -0.000157   0.073599  -0.002130
 652  16  10.954154   5.215350  -2.160907  -0.000172   0.073599  -0.002342
 653   7  10.568459   4.751487  -2.035091  -0.000427   0.158816  -0.002688
 654  16  13.091922   6.829831  -0.559857  -0.000124   0.066032  -0.001881
 655  16  13.812596   6.245043  -0.023307  -0.000321   0.145546  -0.002208
 656  16  14.289773   5.090375   0.329790  -0.000161   0.145546  -0.001107
 657  16  14.130456   3.807713   0.207190  -0.000283   0.145546  -0.001948
 658  16  13.395871   2.889989  -0.343991  -0.000377   0.145546  -0.002589
 659   7  13.278268   6.859379  -0.005446  -0.000237   0.145743  -0.001626
 660   7  14.110006   5.832550   0.612799   0.000003   0.145743   0.000023
 661   7  14.297844   4.392218   0.749011   0.000057   0.145743   0.000393
 662   7  13.769596   3.091907   0.350842  -0.000114   0.145743  -0.000780
 663   7  12.984370   2.430424  -0.237435  -0.000055   0.080673  -0.000683
 664  17  10.910148   5.209464   5.535004  -0.000149   0.073304  -0.002034
 665  17  10.913047   4.287911   5.534529  -0.000172   0.073304  -0.002341
 666   7  10.525620   4.747540   5.404546  -0.000402   0.158325  -0.002542
 667  17  13.080295   2.685319   3.956652  -0.000124   0.065999  -0.001884
 668  17  13.802761   3.274651   3.428657  -0.000306   0.145456  -0.002103
 669  17  14.276369   4.431767   3.081163  -0.000167   0.145456  -0.001148
 670  17  14.108049   5.712832   3.201652  -0.000278   0.145456  -0.001909
 671  17  13.362416   6.626072   3.743870  -0.000384   0.145456  -0.002639
 672   7  13.272920   2.657031   3.404463  -0.000215   0.145685  -0.001477
 673   7  14.104535   3.688823   2.796072   0.000040   0.145685   0.000272
 674   7  14.284933   5.129579   2.661931  -0.000064   0.145685  -0.000442
 675   7  13.744866   6.426225   3.053534  -0.000098   0.145685  -0.000675
 676   7  12.949745   7.083169   3.632304  -0.000057   0.080632  -0.000712
 677   9  -1.729385   4.387577   0.785040  -0.000571   0.205604  -0.002775
 678   9  -0.549224   4.391316  -0.917613   0.001084   0.421387   0.002572
 679   9   1.795498   4.398501  -1.820439   0.003966   0.421387   0.009411
 680   8  -1.327314   5.039090   0.097433  -0.000749   0.421387  -0.001777
 681   8   0.537404   5.044899  -1.586508   0.002796   0.421387   0.006635
 682   8   2.589555   5.051137  -1.870163   0.001853   0.205604   0.009014
 683   9   2.596022   4.400231   5.231559   0.001852   0.205584   0.009011
 684   9   0.543684   4.394047   4.950598   0.002794   0.421342   0.006631
 685   9  -1.323168   4.388562   3.269328  -0.000752   0.421342  -0.001785
 686   8   1.798039   5.048049   5.182869   0.003964   0.421342   0.009408
 687   8  -0.547684   5.041038   4.283219   0.001083   0.421342   0.002570
 688   8  -1.730092   5.037627   2.582346  -0.000555   0.205584  -0.002701
 689   8  -1.855156   5.052895   1.347227  -0.000133   0.012439  -0.010710
 690  18  -1.914749   5.341480   1.381986  -0.000141   0.012439  -0.011348
 691  19  -1.867022   4.308959   1.387839  -0.000144   0.012439  -0.011596
 692   8  -1.854642   5.052815   2.020760  -0.000121   0.012439  -0.009765
 693  18  -1.914287   5.341407   1.986161  -0.000144   0.012439  -0.011560
 694  19  -1.866570   4.308888   1.979988  -0.000151   0.012439  -0.012170
 695  18  -2.036552   5.866101   2.283383  -0.000443   0.072242  -0.006130
 696  18  -1.693389   6.465737   3.239032  -0.000909   0.163275  -0.005567
 697  18  -1.035311   7.617574   3.747713  -0.000669   0.163275  -0.004094
 698  18  -0.370647   8.782373   3.278653  -0.000907   0.163275  -0.005557
 699  18  -0.014748   9.407067   2.343943  -0.000425   0.072242  -0.005880
 700   8  -1.744278   5.718114   2.798664  -0.000897   0.155593  -0.005768
 701   8  -1.147678   6.761491   3.847457  -0.000463   0.155593  -0.002977
 702   8  -0.356818   8.146595   3.871146  -0.000494   0.155593  -0.003175
 703   8   0.253670   9.217299   2.858510  -0.000929   0.155593  -0.005971
 704  18  -0.015691   9.407341   1.022702  -0.000448   0.072248  -0.006199
 705  18  -0.372958   8.782974   0.088189  -0.000861   0.163291  -0.005275
 706  18  -1.038351   7.618265  -0.380350  -0.000814   0.163291  -0.004987
 707  18  -1.695716   6.466191   0.128986  -0.000879   0.163291  -0.005382
 708  18  -2.037462   5.866254   1.085057  -0.000432   0.072248  -0.005973
 709   8   0.251979   9.217762   0.507647  -0.000881   0.155602  -0.005659
 710   8  -0.360013   8.147374  -0.504582  -0.000530   0.155602  -0.003407
 711   8  -1.150891   6.762169  -0.480190  -0.000478   0.155602  -0.003073
 712   8  -1.745957   5.718421   0.569267  -0.000897   0.155602  -0.005765
 713  19   0.013309   0.028680   2.343212  -0.000448   0.072223  -0.006198
 714  19  -0.346331   0.650964   3.277760  -0.000860   0.163222  -0.005272
 715  19  -1.017825   1.811395   3.746999  -0.000814   0.163222  -0.004984
 716  19  -1.682671   2.959231   3.238922  -0.000878   0.163222  -0.005380
 717  19  -2.029459   3.557162   2.283844  -0.000439   0.072223  -0.006079
 718   9   0.280556   0.219927   2.857745  -0.000880   0.155559  -0.005656
 719   9  -0.336270   1.286546   3.870320  -0.000530   0.155559  -0.003404
 720   9  -1.135238   2.666606   3.847099  -0.000478   0.155559  -0.003071
 721   9  -1.738047   3.706668   2.799079  -0.000902   0.155559  -0.005796
 722  19  -2.030315   3.557274   1.083790  -0.000453   0.072225  -0.006269
 723  19  -1.684881   2.959505   0.128089  -0.000909   0.163227  -0.005567
 724  19  -1.020742   1.811733  -0.381136  -0.000668   0.163227  -0.004093
 725  19  -0.348574   0.651206   0.086984  -0.000907   0.163227  -0.005555
 726  19   0.012384   0.028773   1.020956  -0.000424   0.072225  -0.005876
 727   9  -1.739635   3.706870   0.568160  -0.000902   0.155562  -0.005797
 728   9  -1.138304   2.666974  -0.480922  -0.000463   0.155562  -0.002976
 729   9  -0.339354   1.286891  -0.505498  -0.000494   0.155562  -0.003173
 730   9   0.278906   0.220099   0.506068  -0.000929   0.155562  -0.005969
 731  12   5.907467  10.801315   0.232240  -0.000281   0.316663  -0.000888
 732  10   7.546564  10.371968  -0.432288   0.000125   0.316663   0.000396
 733  16  11.160438   6.061267  -2.114484   0.000125   0.280812   0.000444
 734  16  12.115676   6.782122  -1.497737  -0.000488   0.562369  -0.000868
 735  10  10.705347   7.466968  -1.920196  -0.000637   0.562369  -0.001133
 736  10  11.605237   8.146872  -1.185065   0.000038   0.280812   0.000135
 737  12   5.853124  10.737625   3.247854  -0.000306   0.327463  -0.000935
 738  11   7.602620  10.448819   3.647625   0.000134   0.327463   0.000410
 739  17  12.430354   7.034275   4.550618   0.000066   0.280927   0.000235
 740  17  11.523533   6.362790   5.286418  -0.000493   0.562603  -0.000876
 741  11  11.265798   7.909236   4.864208  -0.000690   0.562603  -0.001227
 742  11  10.303931   7.196218   5.481491   0.000085   0.280927   0.000303
 743  18   0.304656   9.718267   1.717657  -0.000024   0.116336  -0.000208
 744  12   1.579661  10.465678   1.648250  -0.000083   0.116336  -0.000715
 745  15   5.946934  -1.337557   3.110841  -0.000321   0.329062  -0.000975
 746  13   7.581131  -0.900128   3.775784   0.000110   0.329062   0.000333
 747  17  11.147053   3.421037   5.485003   0.000116   0.280862   0.000413
 748  17  12.112987   2.715392   4.866376  -0.000483   0.562471  -0.000858
 749  13  10.708437   2.012230   5.277387  -0.000639   0.562471  -0.001136
 750  13  11.619040   1.347921   4.540396   0.000035   0.280862   0.000123
 751  15   5.887995  -1.261393   0.100916  -0.000264   0.314368  -0.000839
 752  14   7.635087  -0.955954  -0.309989   0.000150   0.314368   0.000478
 753  16  12.457393   2.483691  -1.182214   0.000062   0.280920   0.000220
 754  16  11.552902   3.159523  -1.916435  -0.000488   0.562589  -0.000867
 755  14  11.295450   1.609211  -1.507761  -0.000687   0.562589  -0.001221
 756  14  10.335355   2.325530  -2.123423   0.000084   0.280920   0.000298
 757  19   0.334535  -0.280530   1.647813  -0.000025   0.116654  -0.000214
 758  15   1.614035  -1.020304   1.715855  -0.000084   0.116654  -0.000716
 759  19  -2.113841   3.972994   1.744370  -0.000399   0.204610  -0.001949
 760  18  -2.118390   5.450043   1.623935  -0.000286   0.204610  -0.001396
 =====================================================

              4596196  WORDS OF DYNAMIC MEMORY USED
 EXECUTION OF GAMESS TERMINATED NORMALLY Thu Nov 24 08:12:20 2016
 DDI: 263640 bytes (0.3 MB / 0 MWords) used by master data server.

 ----------------------------------------
 CPU timing information for all processes
 ========================================
 0: 1100.108 + 0.332 = 1100.440
 ----------------------------------------
 ddikick.x: exited gracefully.
