----- GAMESS execution script -----

          ******************************************************
          *         GAMESS VERSION =  5 DEC 2014 (R1)          *
          *             FROM IOWA STATE UNIVERSITY             *
          * M.W.SCHMIDT, K.K.BALDRIDGE, J.A.BOATZ, S.T.ELBERT, *
          *   M.S.GORDON, J.H.JENSEN, S.KOSEKI, N.MATSUNAGA,   *
          *          K.A.NGUYEN, S.J.SU, T.L.WINDUS,           *
          *       TOGETHER WITH M.DUPUIS, J.A.MONTGOMERY       *
          *         J.COMPUT.CHEM.  14, 1347-1363(1993)        *
          **************** 64 BIT LINUX VERSION ****************

 EXECUTION OF GAMESS BEGUN Thu Nov 24 08:55:21 2016

            ECHO OF THE FIRST FEW INPUT CARDS -
 INPUT CARD>! SELECT RESTRICTED HARTREE-FOCK AS DEFAULT                                     
 INPUT CARD>$contrl scftyp=rhf $end                                                         
 INPUT CARD>                                                                                
 INPUT CARD>! THEORY: HF OR DFT                                                             
 INPUT CARD> $contrl mplevl=0 $end                                                          
 INPUT CARD>                                                                                
 INPUT CARD> $system timlim=10000 mwords=20 $end                                            
 INPUT CARD> $SCF DIRSCF=.TRUE. $end                                                        
 INPUT CARD>                                                                                
 INPUT CARD>                                                                                
 INPUT CARD>! BASIS SETS                                                                    
 INPUT CARD>! 6-311G(d,p)                                                                   
 INPUT CARD> $BASIS GBASIS=N311 NGAUSS=6 NDFUNC=1 NPFUNC=1 $END                             
 INPUT CARD>                                                                                
 INPUT CARD>! One of the following                                                          
 INPUT CARD> $guess guess=HUCKEL $end                                                       
 INPUT CARD>                                                                                
 INPUT CARD> $statpt projct=.FALSE. $end                                                    
 INPUT CARD> $STATPT IFREEZ(1)=1,2,3 $END                                                   
 INPUT CARD>                                                                                
 INPUT CARD>! Optimize the geometry with COSMO effects                                      
 INPUT CARD> $statpt opttol=0.0005 nstep=50 $end                                            
 INPUT CARD> $contrl nzvar=1 $end                                                           
 INPUT CARD> $zmat dlc=.t. auto=.t. $end                                                    
 INPUT CARD> $contrl runtyp=OPTIMIZE maxit=200 $end                                         
 INPUT CARD>                                                                                
 INPUT CARD>! Run COSMO on perfect conductor                                                
 INPUT CARD> $COSGMS PRFCND=.TRUE. $end                                                     
 INPUT CARD>                                                                                
 INPUT CARD>! Specifying RSOLV                                                              
 INPUT CARD> $COSGMS COSRAD = 1.4 $end                                                      
 INPUT CARD>                                                                                
 INPUT CARD>! available memory                                                              
 INPUT CARD> $SYSTEM MWORDS=40 $END                                                         
 INPUT CARD>                                                                                
 INPUT CARD> $DATA                                                                          
 INPUT CARD>Isobutyl acetate, ID: C110190                                                   
 INPUT CARD>C1                                                                              
 INPUT CARD>C      6.0      3.3161000000    1.8320000000    1.5823000000                    
 INPUT CARD>O      8.0      3.9912000000    3.0765000000    1.3928000000                    
 INPUT CARD>C      6.0      1.9066000000    1.9908000000    0.9937000000                    
 INPUT CARD>C      6.0      5.2796000000    3.1882000000    1.8281000000                    
 INPUT CARD>C      6.0      1.2975000000    0.6130000000    0.7896000000                    
 INPUT CARD>C      6.0      1.0225000000    2.8284000000    1.9032000000                    
 INPUT CARD>C      6.0      5.8900000000    4.5233000000    1.5084000000                    
 INPUT CARD>O      8.0      5.8014000000    2.2532000000    2.4036000000                    
 INPUT CARD>H      1.0      3.2806000000    1.5815000000    2.6599000000                    
 INPUT CARD>H      1.0      3.8771000000    1.0295000000    1.0658000000                    
 INPUT CARD>H      1.0      1.9772000000    2.4983000000    0.0000000000                    
 INPUT CARD>H      1.0      1.2099000000    0.0643000000    1.7369000000                    
   40000000 WORDS OF MEMORY AVAILABLE

     BASIS OPTIONS
     -------------
     GBASIS=N311         IGAUSS=       6      POLAR=POPN311 
     NDFUNC=       1     NFFUNC=       0     DIFFSP=       F
     NPFUNC=       1      DIFFS=       F     BASNAM=        


     RUN TITLE
     ---------
 Isobutyl acetate, ID: C110190                                                   

 THE POINT GROUP OF THE MOLECULE IS C1      
 THE ORDER OF THE PRINCIPAL AXIS IS     0

 ATOM      ATOMIC                      COORDINATES (BOHR)
           CHARGE         X                   Y                   Z
 C           6.0     6.2665203479        3.4619780095        2.9901134304
 O           8.0     7.5422743622        5.8137420012        2.6320103557
 C           6.0     3.6029515682        3.7620664964        1.8778207140
 C           6.0     9.9769973248        6.0248243941        3.4546080782
 C           6.0     2.4519194691        1.1584020305        1.4921276399
 C           6.0     1.9322448224        5.3449009837        3.5965264998
 C           6.0    11.1304860677        8.5477975603        2.8504626799
 O           8.0    10.9630563452        4.2579305955        4.5421453841
 H           1.0     6.1994350753        2.9886016496        5.0264821547
 H           1.0     7.3266566270        1.9454729044        2.0140699577
 H           1.0     3.7363662229        4.7211024351        0.0000000000
 H           1.0     2.2863794725        0.1215093810        3.2822650681
 H           1.0     0.5485874542        1.2974858632        0.6778447118
 H           1.0     3.5935029383        0.0000000000        0.2031455437
 H           1.0     0.0000000000        5.4730244056        2.8515965155
 H           1.0     1.8075229073        4.5349644253        5.5040159118
 H           1.0     2.6573326839        7.2780906691        3.7866329342
 H           1.0    12.7231471301        8.9571122092        4.1141224479
 H           1.0    11.8474481074        8.5459078343        0.9031000495
 H           1.0     9.7585450006       10.0945382812        3.0195931558

          INTERNUCLEAR DISTANCES (ANGS.)




     $CONTRL OPTIONS
     ---------------
 SCFTYP=RHF          RUNTYP=OPTIMIZE     EXETYP=RUN     
 MPLEVL=       0     CITYP =NONE         CCTYP =NONE         VBTYP =NONE    
 DFTTYP=NONE         TDDFT =NONE    
 MULT  =       1     ICHARG=       0     NZVAR =       1     COORD =UNIQUE  
 PP    =NONE         RELWFN=NONE         LOCAL =NONE         NUMGRD=       F
 ISPHER=      -1     NOSYM =       0     MAXIT =     200     UNITS =ANGS    
 PLTORB=       F     MOLPLT=       F     AIMPAC=       F     FRIEND=        
 NPRINT=       7     IREST =       0     GEOM  =INPUT   
 NORMF =       0     NORMP =       0     ITOL  =      20     ICUT  =       9
 INTTYP=BEST         GRDTYP=BEST         QMTTOL= 1.0E-06

     $SYSTEM OPTIONS
     ---------------
  REPLICATED MEMORY=    40000000 WORDS (ON EVERY NODE).
 DISTRIBUTED MEMDDI=           0 MILLION WORDS IN AGGREGATE,
 MEMDDI DISTRIBUTED OVER   1 PROCESSORS IS           0 WORDS/PROCESSOR.
 TOTAL MEMORY REQUESTED ON EACH PROCESSOR=    40000000 WORDS.
 TIMLIM=       10000.00 MINUTES, OR       6.9 DAYS.
 PARALL= F  BALTYP=  DLB     KDIAG=    0  COREFL= F
 MXSEQ2=     300 MXSEQ3=     150  mem10=         0

     $COSGMS OPTIONS
     ---------------
     EPSI  =   INFTY     NSPA  =      92     COSRAD=    1.40
     DISEX =   10.00     OUTCHG=DBLCAV       COSBUG=       F
     COSWRT=       F     DCOSMO=       F

     SYMMETRY COORDINATES WILL NOT BE USED FOR 
     THE COSMO CALCULATION, EVEN IF SPECIFIED:
         -- SWITCHING TO C1 POINT GROUP --


     DEFINITION OF CAVITY
     ---------------------------
     ATOM         COORDINATES           RADIUS 
     1    6.2665    3.4620    2.9901    2.0000
     2    7.5423    5.8137    2.6320    1.7200
     3    3.6030    3.7621    1.8778    2.0000
     4    9.9770    6.0248    3.4546    2.0000
     5    2.4519    1.1584    1.4921    2.0000
     6    1.9322    5.3449    3.5965    2.0000
     7   11.1305    8.5478    2.8505    2.0000
     8   10.9631    4.2579    4.5421    1.7200
     9    6.1994    2.9886    5.0265    1.3000
    10    7.3267    1.9455    2.0141    1.3000
    11    3.7364    4.7211    0.0000    1.3000
    12    2.2864    0.1215    3.2823    1.3000
    13    0.5486    1.2975    0.6778    1.3000
    14    3.5935    0.0000    0.2031    1.3000
    15    0.0000    5.4730    2.8516    1.3000
    16    1.8075    4.5350    5.5040    1.3000
    17    2.6573    7.2781    3.7866    1.3000
    18   12.7231    8.9571    4.1141    1.3000
    19   11.8474    8.5459    0.9031    1.3000
    20    9.7585   10.0945    3.0196    1.3000

          ----------------
          PROPERTIES INPUT
          ----------------

     MOMENTS            FIELD           POTENTIAL          DENSITY
 IEMOM =       1   IEFLD =       0   IEPOT =       0   IEDEN =       0
 WHERE =COMASS     WHERE =NUCLEI     WHERE =NUCLEI     WHERE =NUCLEI  
 OUTPUT=BOTH       OUTPUT=BOTH       OUTPUT=BOTH       OUTPUT=BOTH    
 IEMINT=       0   IEFINT=       0                     IEDINT=       0
                                                       MORB  =       0
          EXTRAPOLATION IN EFFECT
          SOSCF IN EFFECT
 ORBITAL PRINTING OPTION: NPREO=     1   224     2     1

     -------------------------------
     INTEGRAL TRANSFORMATION OPTIONS
     -------------------------------
     NWORD  =            0
     CUTOFF = 1.0E-09     MPTRAN =       0
     DIRTRF =       T     AOINTS =DUP     

          ----------------------
          INTEGRAL INPUT OPTIONS
          ----------------------
 NOPK  =       1 NORDER=       0 SCHWRZ=       T


 -----------------------------------------------
  STATISTICS ON AUTOMATIC COORDINATE GENERATION 
 -----------------------------------------------
  NUMBER OF USER SPECIFIED BONDS                             0
  NUMBER OF BONDS                                           19
  NUMBER OF ANGLES                                          34
  NUMBER OF TORSIONS                                        38
  NUMBER OF EXTRA COORD.                                     0
  NUMBER OF EXTRA COORD. FOR CONSTRAINTS                     0
  NUMBER OF CONSTRAINED COORD.                               0

  TOTAL NUMBER OF PRIMITIVES                                91
 -----------------------------------------------

   --- ENCODED Z MATRIX ---
 COORD  TYPE   I   J   K   L   M   N
    1      1    1  10
    2      1    1   9
    3      1    1   3
    4      1    1   2
    5      1    2   4
    6      1    3   6
    7      1    3  11
    8      1    3   5
    9      1    4   8
   10      1    4   7
   11      1    5  14
   12      1    5  13
   13      1    5  12
   14      1    6  16
   15      1    6  15
   16      1    6  17
   17      1    7  20
   18      1    7  19
   19      1    7  18
   20      2    1   3   6
   21      2    1   3  11
   22      2    1   2   4
   23      2    1   3   5
   24      2    2   4   8
   25      2    2   1  10
   26      2    2   1   9
   27      2    2   1   3
   28      2    2   4   7
   29      2    3   6  15
   30      2    3   6  16
   31      2    3   5  12
   32      2    3   5  13
   33      2    3   5  14
   34      2    3   1  10
   35      2    3   1   9
   36      2    3   6  17
   37      2    4   7  18
   38      2    4   7  19
   39      2    4   7  20
   40      2    5   3   6
   41      2    5   3  11
   42      2    6   3  11
   43      2    7   4   8
   44      2    9   1  10
   45      2   12   5  13
   46      2   12   5  14
   47      2   13   5  14
   48      2   15   6  17
   49      2   15   6  16
   50      2   16   6  17
   51      2   18   7  19
   52      2   18   7  20
   53      2   19   7  20
   54      3    1   2   4   7
   55      3    1   2   4   8
   56      3    1   3   6  17
   57      3    1   3   6  15
   58      3    1   3   5  12
   59      3    1   3   5  13
   60      3    1   3   5  14
   61      3    1   3   6  16
   62      3    2   4   7  18
   63      3    2   4   7  19
   64      3    2   4   7  20
   65      3    2   1   3   6
   66      3    2   1   3  11
   67      3    2   1   3   5
   68      3    3   1   2   4
   69      3    4   2   1   9
   70      3    4   2   1  10
   71      3    5   3   1  10
   72      3    5   3   6  17
   73      3    5   3   6  16
   74      3    5   3   6  15
   75      3    5   3   1   9
   76      3    6   3   5  14
   77      3    6   3   5  13
   78      3    6   3   5  12
   79      3    6   3   1   9
   80      3    6   3   1  10
   81      3    8   4   7  20
   82      3    8   4   7  19
   83      3    8   4   7  18
   84      3    9   1   3  11
   85      3   10   1   3  11
   86      3   11   3   6  17
   87      3   11   3   5  14
   88      3   11   3   5  13
   89      3   11   3   5  12
   90      3   11   3   6  16
   91      3   11   3   6  15

          INDEP./SYM. INTERNAL COORDINATES
          --------------------------------
 CRD  1=  -0.1532 ( 20)  0.5713 ( 22)  0.1729 ( 23)  0.1807 ( 24)  0.1938 ( 25)
           0.1651 ( 26) -0.5253 ( 27) -0.3113 ( 28)  0.1416 ( 34)  0.1307 ( 43)
 CRD  2=   0.1322 ( 20)  0.1556 ( 22) -0.1831 ( 25)  0.1805 ( 26)  0.1165 ( 36)
          -0.1283 ( 38) -0.1090 ( 40) -0.5083 ( 54) -0.3781 ( 55)  0.1086 ( 62)
          -0.3367 ( 65) -0.2345 ( 66) -0.2988 ( 67) -0.1022 ( 80) -0.1258 ( 81)
 CRD  3=  -0.3920 ( 20) -0.1743 ( 22)  0.2641 ( 23) -0.1392 ( 24)  0.2077 ( 28)
           0.1854 ( 34) -0.1834 ( 35) -0.1283 ( 41)  0.1243 ( 42) -0.2030 ( 54)
          -0.2574 ( 55) -0.1432 ( 58) -0.1571 ( 59) -0.1709 ( 60) -0.1022 ( 63)
          -0.3826 ( 68) -0.1782 ( 69) -0.1777 ( 70)  0.1039 ( 76)  0.1177 ( 77)
           0.1316 ( 78)
 CRD  4=   0.3044 (  3)  0.3447 (  4)  0.3031 (  5)  0.1214 (  8)  0.2219 ( 10)
          -0.1181 ( 21)  0.3260 ( 22)  0.2618 ( 23)  0.1311 ( 27)  0.2189 ( 28)
           0.1358 ( 33) -0.3139 ( 40) -0.1940 ( 43)  0.1437 ( 54)  0.1134 ( 55)
           0.1487 ( 67)  0.1005 ( 72)  0.1005 ( 74)  0.1243 ( 75)
 CRD  5=   0.1048 (  3)  0.1641 (  4)  0.2544 (  5)  0.2049 (  6)  0.1823 (  8)
           0.1677 ( 21)  0.3843 ( 22) -0.2611 ( 23)  0.1466 ( 24)  0.2461 ( 27)
           0.1498 ( 29)  0.1845 ( 32) -0.1092 ( 33) -0.1576 ( 35)  0.3634 ( 40)
          -0.1219 ( 42)  0.1175 ( 61)  0.1280 ( 65) -0.1628 ( 71)  0.1500 ( 79)
 CRD  6=   0.1002 (  3) -0.1439 (  4) -0.1714 (  8) -0.1653 ( 10)  0.1358 ( 20)
           0.2410 ( 24) -0.1115 ( 26)  0.2608 ( 27) -0.3504 ( 28) -0.1792 ( 31)
          -0.1826 ( 35)  0.1054 ( 36) -0.1804 ( 39) -0.2218 ( 40)  0.1085 ( 41)
           0.1096 ( 43) -0.1215 ( 55)  0.1106 ( 57) -0.1416 ( 62) -0.1365 ( 64)
           0.1998 ( 67) -0.3252 ( 68) -0.1988 ( 69) -0.1368 ( 70)  0.1029 ( 71)
           0.1224 ( 75) -0.1108 ( 80)
 CRD  7=   0.2373 (  3) -0.1277 (  4)  0.3093 (  8) -0.1986 ( 10) -0.2063 ( 20)
          -0.1427 ( 22)  0.2444 ( 23)  0.1805 ( 24) -0.1690 ( 25) -0.1770 ( 26)
           0.2493 ( 27) -0.2943 ( 28)  0.1863 ( 31)  0.1200 ( 37) -0.1122 ( 38)
          -0.1608 ( 39) -0.1419 ( 41)  0.1136 ( 43)  0.1005 ( 62)  0.1412 ( 63)
           0.1975 ( 68)  0.2249 ( 70)  0.1110 ( 72)  0.1366 ( 73)  0.1191 ( 74)
 CRD  8=  -0.1032 (  1) -0.2719 (  3)  0.1137 (  5) -0.4887 (  6) -0.2264 (  8)
          -0.1497 ( 20)  0.1503 ( 22)  0.1597 ( 27) -0.2959 ( 30) -0.1535 ( 31)
          -0.1934 ( 34) -0.1193 ( 35)  0.1047 ( 44)  0.1370 ( 49)  0.1725 ( 50)
           0.1439 ( 62)  0.1301 ( 63)  0.1068 ( 64)  0.1784 ( 68)  0.2122 ( 69)
           0.1164 ( 76)
 CRD  9=   0.2069 (  6) -0.1386 (  8)  0.2198 ( 29) -0.2755 ( 30) -0.1152 ( 33)
          -0.1070 ( 35)  0.2253 ( 36) -0.1041 ( 37)  0.4120 ( 38) -0.2635 ( 39)
          -0.1055 ( 41)  0.1670 ( 42) -0.1555 ( 48)  0.1098 ( 52)  0.2300 ( 54)
          -0.1979 ( 62) -0.1224 ( 63) -0.1956 ( 65) -0.1625 ( 67) -0.1089 ( 71)
           0.1340 ( 77) -0.1294 ( 79) -0.1420 ( 80)
 CRD 10=  -0.2342 (  6) -0.3168 (  8) -0.1780 ( 29)  0.2717 ( 30)  0.3491 ( 31)
          -0.2651 ( 32) -0.3461 ( 33) -0.2870 ( 36)  0.1272 ( 38) -0.1179 ( 41)
           0.2385 ( 47)  0.1853 ( 48)  0.1643 ( 72)  0.1251 ( 73) -0.1502 ( 76)
 CRD 11=   0.1150 (  9)  0.4630 ( 10) -0.3457 ( 24) -0.1129 ( 28)  0.5014 ( 37)
          -0.1848 ( 39)  0.4586 ( 43) -0.2240 ( 51) -0.1590 ( 52)
 CRD 12=  -0.3995 (  3) -0.1104 (  6)  0.3502 (  8) -0.1348 ( 15)  0.1021 ( 16)
          -0.4567 ( 29)  0.2487 ( 31) -0.1479 ( 34) -0.1330 ( 35)  0.3048 ( 36)
           0.1164 ( 38)  0.1253 ( 44) -0.1119 ( 45) -0.1703 ( 46)  0.1805 ( 49)
          -0.1461 ( 50) -0.1356 ( 70)
 CRD 13=   0.2474 (  3) -0.2967 (  6)  0.1536 (  8) -0.1232 ( 11)  0.1481 ( 12)
          -0.1290 ( 29) -0.1443 ( 30)  0.5580 ( 32) -0.3628 ( 33)  0.1283 ( 35)
           0.1799 ( 38) -0.2272 ( 45)  0.1653 ( 46)  0.1362 ( 49) -0.1079 ( 69)
 CRD 14=   0.1053 ( 13) -0.1262 ( 14)  0.1034 ( 16)  0.1292 ( 25) -0.1029 ( 26)
          -0.3913 ( 30)  0.3840 ( 31) -0.1133 ( 32) -0.2802 ( 33)  0.3514 ( 36)
          -0.2842 ( 38)  0.2269 ( 39) -0.1152 ( 45)  0.1665 ( 47) -0.1768 ( 48)
           0.1470 ( 49) -0.1347 ( 52)  0.1039 ( 57)  0.1319 ( 66)
 CRD 15=   0.1581 (  3) -0.1443 (  8) -0.1039 ( 13) -0.1122 ( 15) -0.1278 ( 20)
           0.1725 ( 21) -0.1013 ( 25) -0.3846 ( 29)  0.1632 ( 30) -0.1986 ( 31)
           0.2681 ( 34) -0.1865 ( 35)  0.3058 ( 36)  0.1632 ( 39) -0.1464 ( 41)
           0.1193 ( 46) -0.2113 ( 50)  0.1388 ( 55)  0.1226 ( 56)  0.1078 ( 57)
          -0.1339 ( 58) -0.1271 ( 59) -0.1360 ( 60)  0.1627 ( 69)  0.2381 ( 70)
           0.1122 ( 72)
 CRD 16=  -0.1216 (  2) -0.1949 (  3)  0.1772 (  6) -0.1625 (  9) -0.1765 ( 10)
           0.1182 ( 14)  0.1187 ( 19) -0.1574 ( 21)  0.1287 ( 23)  0.2099 ( 30)
           0.2434 ( 32) -0.3000 ( 33)  0.2804 ( 37) -0.3222 ( 38) -0.1405 ( 39)
           0.1837 ( 42)  0.1568 ( 46) -0.1004 ( 49) -0.1201 ( 50)  0.2171 ( 53)
           0.1115 ( 54)  0.1059 ( 55)  0.1124 ( 59)  0.1111 ( 60)  0.1251 ( 76)
           0.1265 ( 77)
 CRD 17=  -0.1365 (  2) -0.1353 (  3) -0.1126 (  4)  0.3205 (  9)  0.2244 ( 10)
           0.1520 ( 17) -0.1388 ( 19) -0.1258 ( 21)  0.1618 ( 27) -0.2307 ( 28)
           0.1339 ( 30)  0.1221 ( 32) -0.1441 ( 33) -0.1123 ( 36) -0.2696 ( 37)
           0.4724 ( 39)  0.1091 ( 42)  0.1731 ( 43)  0.1011 ( 44)  0.1028 ( 51)
          -0.1029 ( 52) -0.2458 ( 53)
 CRD 18=  -0.1206 (  8) -0.1297 ( 13) -0.1101 ( 20)  0.2425 ( 25) -0.2877 ( 26)
          -0.1423 ( 29) -0.2178 ( 31) -0.4083 ( 34)  0.4047 ( 35)  0.1413 ( 36)
          -0.1727 ( 41)  0.1014 ( 45) -0.1031 ( 50)  0.1143 ( 66) -0.2527 ( 69)
          -0.2321 ( 70) -0.1179 ( 71)  0.1110 ( 74) -0.1181 ( 75)
 CRD 19=  -0.2069 (  1)  0.1837 (  2) -0.1082 (  6) -0.1025 ( 18)  0.1490 ( 33)
           0.1071 ( 37) -0.2840 ( 38)  0.1691 ( 39) -0.1581 ( 52)  0.2911 ( 54)
           0.1525 ( 55) -0.3097 ( 62) -0.3063 ( 63) -0.2993 ( 64) -0.1364 ( 65)
          -0.1772 ( 66) -0.1862 ( 67) -0.1144 ( 75) -0.1472 ( 81) -0.1541 ( 82)
          -0.1576 ( 83) -0.1053 ( 84)
 CRD 20=   0.2389 (  2)  0.1067 (  3)  0.1137 (  4) -0.1602 (  5)  0.6523 (  7)
          -0.1018 (  9) -0.1247 ( 11) -0.1167 ( 12) -0.1384 ( 16)  0.1198 ( 17)
          -0.1379 ( 24)  0.1120 ( 25)  0.1364 ( 30)  0.1523 ( 31) -0.1242 ( 34)
          -0.1057 ( 37)  0.1415 ( 43) -0.1068 ( 45) -0.1046 ( 49)  0.1017 ( 51)
           0.1172 ( 57) -0.1092 ( 58) -0.1222 ( 59) -0.1173 ( 65) -0.1026 ( 79)
          -0.1822 ( 80)
 CRD 21=  -0.1101 (  1) -0.1003 (  2) -0.1862 (  4)  0.1682 (  5)  0.3019 (  7)
           0.1735 ( 13) -0.1108 ( 16) -0.2546 ( 17) -0.2230 ( 18) -0.1844 ( 19)
           0.1730 ( 24) -0.1161 ( 26)  0.1491 ( 35)  0.1903 ( 37)  0.1329 ( 38)
          -0.2082 ( 43)  0.1076 ( 47) -0.1820 ( 51) -0.1436 ( 52) -0.1193 ( 56)
          -0.1133 ( 57) -0.1388 ( 58) -0.1432 ( 59) -0.1145 ( 60) -0.1174 ( 61)
          -0.1735 ( 72) -0.1716 ( 73) -0.1676 ( 74) -0.1145 ( 79) -0.1147 ( 84)
          -0.1170 ( 86) -0.1086 ( 88) -0.1042 ( 89) -0.1152 ( 90) -0.1111 ( 91)
 CRD 22=   0.1350 (  4) -0.1941 (  7)  0.2043 ( 11)  0.1589 ( 12)  0.1931 ( 13)
          -0.2389 ( 14) -0.1055 ( 15) -0.1582 ( 16)  0.2709 ( 17)  0.2445 ( 18)
           0.2258 ( 19) -0.1085 ( 33)  0.1119 ( 36) -0.1727 ( 37)  0.1307 ( 43)
           0.1068 ( 46) -0.1253 ( 48)  0.1506 ( 51)  0.1474 ( 52) -0.1332 ( 56)
          -0.1539 ( 57) -0.1207 ( 58) -0.1193 ( 59) -0.1165 ( 60) -0.1484 ( 61)
          -0.1366 ( 76) -0.1394 ( 77) -0.1408 ( 78) -0.1137 ( 87) -0.1165 ( 88)
          -0.1179 ( 89) -0.1111 ( 90) -0.1166 ( 91)
 CRD 23=  -0.1167 (  6) -0.2041 (  7) -0.1022 (  8) -0.3101 ( 11) -0.2715 ( 12)
          -0.3486 ( 13) -0.3985 ( 14) -0.3162 ( 15) -0.3530 ( 16)  0.1670 ( 29)
           0.1098 ( 30)  0.1500 ( 32)  0.1081 ( 33)  0.1278 ( 36) -0.1313 ( 45)
          -0.1003 ( 46) -0.1454 ( 47) -0.1653 ( 48) -0.1486 ( 49) -0.1187 ( 50)
 CRD 24=  -0.1175 (  1)  0.2190 (  2) -0.1177 (  6)  0.1108 (  7)  0.1321 (  8)
           0.2449 ( 11)  0.3245 ( 12)  0.3081 ( 13) -0.2519 ( 14) -0.3055 ( 15)
          -0.2265 ( 16)  0.1181 ( 26) -0.1015 ( 32)  0.1020 ( 46)  0.1029 ( 47)
           0.1026 ( 57)  0.1060 ( 61)  0.1190 ( 71)  0.1348 ( 75)  0.1211 ( 79)
           0.1053 ( 80)  0.1015 ( 86)  0.1073 ( 87)  0.1054 ( 88)  0.1123 ( 89)
           0.1100 ( 90)  0.1065 ( 91)
 CRD 25=   0.2353 (  1)  0.1197 (  2)  0.2293 (  4) -0.2697 (  5) -0.1555 (  7)
          -0.2216 (  9) -0.2282 ( 10)  0.1092 ( 11)  0.1214 ( 12)  0.1249 ( 15)
          -0.3113 ( 17) -0.3251 ( 18) -0.3416 ( 19) -0.1325 ( 24) -0.1534 ( 34)
          -0.1445 ( 35)  0.1094 ( 39)  0.1836 ( 43)  0.1258 ( 44) -0.1280 ( 53)
           0.1064 ( 69) -0.1082 ( 76)
 CRD 26=  -0.5538 ( 17)  0.1011 ( 18)  0.4564 ( 19)  0.3788 ( 51) -0.3086 ( 53)
          -0.1695 ( 62)  0.2570 ( 63)  0.2631 ( 82) -0.1634 ( 83)
 CRD 27=  -0.2068 ( 17)  0.6040 ( 18) -0.3758 ( 19)  0.1384 ( 51) -0.3876 ( 52)
           0.2513 ( 53) -0.1902 ( 62)  0.2571 ( 64)  0.2673 ( 81) -0.1801 ( 83)
 CRD 28=   0.5337 (  1)  0.5729 (  2)  0.1929 (  5)  0.2447 (  9)  0.1284 ( 19)
          -0.1740 ( 22)  0.1690 ( 24) -0.1212 ( 43)  0.2299 ( 44)  0.1254 ( 69)
          -0.1334 ( 70)  0.1193 ( 71)  0.1316 ( 80)  0.1139 ( 85)
 CRD 29=   0.3036 (  1) -0.1735 (  2) -0.1168 (  6)  0.1930 ( 12)  0.3988 ( 14)
          -0.2856 ( 15) -0.3631 ( 16)  0.1300 ( 45) -0.1648 ( 46) -0.1680 ( 48)
           0.1566 ( 49) -0.1475 ( 57)  0.1301 ( 59)  0.1598 ( 60) -0.1068 ( 71)
          -0.1834 ( 74) -0.1251 ( 75)  0.1475 ( 76)  0.1179 ( 77) -0.1177 ( 84)
           0.1667 ( 87)  0.1371 ( 88) -0.1620 ( 91)
 CRD 30=   0.1102 (  4) -0.3975 ( 11) -0.2337 ( 12)  0.4878 ( 13)  0.2263 ( 15)
          -0.1592 ( 16)  0.2046 ( 45) -0.2362 ( 47)  0.1351 ( 49) -0.1701 ( 50)
          -0.1372 ( 56) -0.1015 ( 57)  0.1982 ( 59) -0.1207 ( 72)  0.2153 ( 77)
          -0.1347 ( 86)  0.1999 ( 88)
 CRD 31=  -0.4583 ( 11)  0.3515 ( 12) -0.1204 ( 14) -0.2787 ( 15)  0.4400 ( 16)
           0.2285 ( 45) -0.1804 ( 46) -0.2213 ( 49)  0.1480 ( 50) -0.1670 ( 58)
          -0.1454 ( 61) -0.1496 ( 73) -0.1667 ( 78) -0.1779 ( 89) -0.1553 ( 90)
 CRD 32=   0.1549 ( 11) -0.4590 ( 12)  0.2663 ( 13)  0.2110 ( 14) -0.4772 ( 15)
           0.2308 ( 16)  0.2232 ( 46) -0.1441 ( 47) -0.1125 ( 48) -0.1116 ( 49)
           0.2324 ( 50)  0.1135 ( 56)  0.1247 ( 58) -0.1207 ( 60) -0.1418 ( 61)
           0.1303 ( 72) -0.1250 ( 73) -0.1373 ( 76)  0.1081 ( 78) -0.1062 ( 87)
           0.1392 ( 89) -0.1585 ( 90)
 CRD 33=  -0.2931 (  1)  0.2129 (  2) -0.1319 (  3)  0.1268 (  6) -0.2092 ( 11)
           0.1449 ( 12)  0.3992 ( 14) -0.1629 ( 16) -0.2808 ( 48)  0.1095 ( 49)
           0.1603 ( 56) -0.1059 ( 57) -0.1576 ( 58) -0.1002 ( 59) -0.1396 ( 60)
           0.1067 ( 71)  0.2147 ( 72)  0.1058 ( 73)  0.1119 ( 75) -0.1644 ( 76)
          -0.1250 ( 77) -0.1824 ( 78)  0.1053 ( 84)  0.1001 ( 85)  0.1935 ( 86)
          -0.1605 ( 87) -0.1211 ( 88) -0.1785 ( 89)
 CRD 34=   0.2065 (  1) -0.2181 (  2) -0.1176 (  3) -0.2191 (  4)  0.1603 (  8)
           0.2549 ( 13)  0.1143 ( 15) -0.1311 ( 16)  0.1183 ( 19)  0.1397 ( 25)
          -0.1241 ( 43) -0.2213 ( 47)  0.1550 ( 56)  0.2039 ( 57) -0.1206 ( 60)
           0.1690 ( 61) -0.1589 ( 71)  0.1433 ( 72)  0.1573 ( 73)  0.1921 ( 74)
          -0.1397 ( 75) -0.1672 ( 76) -0.1775 ( 79) -0.1967 ( 80) -0.1622 ( 84)
          -0.1815 ( 85)  0.1490 ( 86) -0.1404 ( 87)  0.1629 ( 90)  0.1978 ( 91)
 CRD 35=  -0.5204 (  4) -0.2318 (  5) -0.4551 (  9)  0.1291 ( 10)  0.1051 ( 19)
           0.3409 ( 22) -0.1263 ( 24) -0.1719 ( 25) -0.1697 ( 26)  0.1756 ( 27)
           0.1806 ( 28)  0.2287 ( 44)  0.1275 ( 71) -0.1122 ( 75) -0.1034 ( 79)
           0.1363 ( 80) -0.1095 ( 84)  0.1302 ( 85)
 CRD 36=   0.2693 (  1) -0.2905 (  2)  0.1257 (  7)  0.1445 ( 18) -0.1745 ( 54)
          -0.1343 ( 62) -0.2007 ( 63) -0.2445 ( 64)  0.1196 ( 65)  0.1150 ( 66)
           0.1041 ( 67)  0.2160 ( 68)  0.1821 ( 69)  0.1685 ( 70) -0.4026 ( 81)
          -0.3589 ( 82) -0.2924 ( 83)
 CRD 37=  -0.1934 (  4)  0.3567 (  5)  0.2841 (  9) -0.2046 ( 17) -0.2129 ( 18)
          -0.2433 ( 19)  0.2108 ( 22) -0.3961 ( 24)  0.1866 ( 28) -0.2164 ( 37)
          -0.1960 ( 38) -0.1836 ( 39)  0.2096 ( 43)  0.2199 ( 51)  0.2139 ( 52)
           0.1945 ( 53)
 CRD 38=   0.1639 (  3) -0.1523 (  4) -0.3903 (  5) -0.1054 (  8)  0.4573 (  9)
           0.1361 ( 12)  0.1270 ( 13) -0.2185 ( 17)  0.1133 ( 19)  0.1129 ( 21)
           0.1190 ( 25)  0.1041 ( 26)  0.1666 ( 28)  0.1152 ( 31)  0.1155 ( 32)
          -0.1353 ( 34) -0.1314 ( 35) -0.1584 ( 43) -0.1423 ( 45) -0.1014 ( 46)
          -0.1092 ( 47)  0.1610 ( 53)  0.1303 ( 69) -0.1057 ( 70) -0.1453 ( 86)
          -0.1727 ( 90) -0.1264 ( 91)
 CRD 39=  -0.2752 (  6) -0.1156 (  7)  0.1164 (  8) -0.1852 ( 11)  0.2557 ( 14)
           0.2150 ( 15)  0.2470 ( 16)  0.2234 ( 29)  0.2369 ( 30) -0.1197 ( 33)
           0.2321 ( 36)  0.1269 ( 41) -0.1441 ( 42)  0.1198 ( 46)  0.1538 ( 47)
          -0.2357 ( 48) -0.2398 ( 49) -0.2647 ( 50) -0.1516 ( 66) -0.2057 ( 84)
          -0.1992 ( 85)  0.1518 ( 87)  0.1644 ( 89)
 CRD 40=  -0.1473 (  2) -0.3058 (  5)  0.2705 (  7)  0.2474 (  8)  0.2412 (  9)
          -0.1513 ( 11) -0.1530 ( 12) -0.2887 ( 13) -0.1804 ( 14)  0.1353 ( 19)
          -0.2158 ( 31) -0.1809 ( 32) -0.1776 ( 33) -0.1059 ( 43)  0.1139 ( 44)
           0.2400 ( 45)  0.2388 ( 46)  0.1356 ( 47)  0.1398 ( 49) -0.1094 ( 57)
           0.1196 ( 81)  0.1018 ( 86)
 CRD 41=  -0.2252 (  2)  0.2638 (  5) -0.1338 (  6)  0.3231 (  7) -0.1097 (  8)
          -0.1550 (  9)  0.1903 ( 12) -0.1022 ( 13) -0.1023 ( 14)  0.1941 ( 15)
           0.1721 ( 17) -0.1519 ( 22)  0.1468 ( 26) -0.1290 ( 34) -0.1233 ( 35)
          -0.1044 ( 41)  0.1605 ( 44) -0.1728 ( 47) -0.1949 ( 48) -0.1147 ( 57)
          -0.1052 ( 62)  0.1320 ( 69) -0.1729 ( 70)  0.1375 ( 72) -0.1366 ( 76)
           0.1023 ( 81)  0.1330 ( 82)  0.1659 ( 88)  0.1539 ( 89) -0.1529 ( 90)
          -0.1878 ( 91)
 CRD 42=   0.2274 (  1) -0.2020 (  3)  0.2304 (  4) -0.2483 (  5) -0.2516 (  6)
           0.1360 (  7) -0.2209 (  8)  0.1074 (  9)  0.1429 ( 11)  0.1682 ( 16)
          -0.1949 ( 18)  0.1439 ( 19)  0.1334 ( 22) -0.2268 ( 25) -0.1089 ( 26)
           0.1337 ( 27)  0.1152 ( 34)  0.1760 ( 35) -0.1016 ( 46) -0.1160 ( 47)
          -0.1369 ( 48) -0.1167 ( 50) -0.1275 ( 52)  0.1096 ( 53) -0.1132 ( 55)
          -0.1362 ( 62) -0.1604 ( 69)  0.1606 ( 70)  0.1028 ( 80)  0.2029 ( 81)
          -0.1146 ( 89)  0.1089 ( 90)
 CRD 43=  -0.1269 (  1) -0.1044 (  3)  0.1197 (  7) -0.1555 (  8)  0.2315 (  9)
          -0.5104 ( 10)  0.3210 ( 18)  0.1019 ( 19)  0.1332 ( 22) -0.1871 ( 24)
          -0.1199 ( 26)  0.1525 ( 37)  0.1764 ( 39) -0.1003 ( 47) -0.2589 ( 51)
          -0.1750 ( 53)  0.1298 ( 55)  0.1835 ( 62) -0.1077 ( 68) -0.1228 ( 75)
          -0.1422 ( 81) -0.1024 ( 82) -0.1460 ( 84)
 CRD 44=  -0.1128 (  1)  0.1183 (  2) -0.1627 (  3)  0.1835 (  4) -0.1588 (  5)
           0.1639 (  7) -0.1314 (  8) -0.1636 (  9)  0.4365 ( 10)  0.1128 ( 12)
          -0.1248 ( 14) -0.2463 ( 17)  0.1143 ( 18) -0.1868 ( 19)  0.1914 ( 24)
          -0.1069 ( 26) -0.1016 ( 28)  0.1045 ( 34) -0.1676 ( 38) -0.1216 ( 47)
           0.2751 ( 52)  0.1451 ( 55)  0.1127 ( 59)  0.1888 ( 62) -0.1363 ( 68)
          -0.1023 ( 75) -0.1680 ( 81) -0.1202 ( 84)  0.1067 ( 88)
 CRD 45=   0.1264 (  1)  0.1206 (  2) -0.3868 (  3)  0.2352 (  8) -0.1859 ( 11)
           0.1380 ( 12)  0.2066 ( 15) -0.2335 ( 16)  0.1628 ( 21)  0.1113 ( 22)
           0.1066 ( 34)  0.1216 ( 35) -0.1046 ( 41) -0.1669 ( 44)  0.1832 ( 46)
          -0.1408 ( 49)  0.1880 ( 50)  0.1065 ( 58) -0.1446 ( 61) -0.1203 ( 69)
           0.1647 ( 70) -0.1668 ( 73)  0.1226 ( 78)  0.2319 ( 89) -0.3152 ( 90)
 CRD 46=  -0.1133 (  4) -0.3412 (  6)  0.2379 (  8)  0.2316 ( 11) -0.1662 ( 12)
          -0.1911 ( 13)  0.1152 ( 14)  0.1370 ( 15)  0.1491 ( 18) -0.1033 ( 33)
          -0.1073 ( 41)  0.1432 ( 42)  0.2534 ( 45) -0.1683 ( 49) -0.1038 ( 58)
           0.1966 ( 59)  0.1131 ( 62)  0.1612 ( 66) -0.1026 ( 68) -0.1056 ( 69)
           0.1497 ( 77) -0.1506 ( 78)  0.1055 ( 83)  0.2465 ( 84)  0.1464 ( 85)
          -0.1179 ( 87) -0.2546 ( 89) -0.1338 ( 90)
 CRD 47=   0.2037 (  5) -0.1793 (  9) -0.3445 ( 17)  0.3892 ( 19) -0.2285 ( 28)
          -0.2405 ( 37)  0.2069 ( 39)  0.2393 ( 43) -0.2372 ( 51)  0.2771 ( 53)
           0.1207 ( 62) -0.3098 ( 63)  0.1888 ( 64)  0.1976 ( 81) -0.3010 ( 82)
           0.1295 ( 83)
 CRD 48=   0.1956 (  1) -0.1947 (  4) -0.1332 ( 11)  0.2318 ( 12) -0.1138 ( 13)
          -0.2287 ( 15)  0.1930 ( 16)  0.1214 ( 18)  0.1262 ( 26)  0.1211 ( 29)
          -0.1185 ( 32) -0.1660 ( 44)  0.1837 ( 46)  0.1342 ( 49) -0.1825 ( 50)
           0.1125 ( 54) -0.1599 ( 56) -0.1010 ( 57)  0.1538 ( 58) -0.1502 ( 60)
           0.1429 ( 61) -0.1346 ( 69) -0.1711 ( 72)  0.1317 ( 73) -0.1122 ( 74)
           0.1435 ( 75) -0.1792 ( 76)  0.1249 ( 78)  0.1338 ( 79) -0.1061 ( 80)
           0.1485 ( 83)  0.1660 ( 84) -0.1702 ( 86) -0.1875 ( 87)  0.1165 ( 89)
           0.1326 ( 90) -0.1113 ( 91)
 CRD 49=   0.1622 (  1) -0.1443 (  4) -0.1615 ( 12)  0.2363 ( 13) -0.2741 ( 14)
           0.1576 ( 15)  0.1166 ( 16)  0.1126 ( 18)  0.1001 ( 23)  0.1026 ( 26)
           0.1282 ( 30) -0.1110 ( 31) -0.1206 ( 44) -0.1196 ( 46)  0.1764 ( 47)
          -0.2044 ( 48)  0.1174 ( 50)  0.1109 ( 54)  0.1730 ( 56) -0.1728 ( 57)
          -0.1244 ( 59)  0.1745 ( 60) -0.1182 ( 65) -0.1134 ( 67) -0.1023 ( 69)
          -0.1164 ( 71)  0.2316 ( 72) -0.1142 ( 74)  0.2295 ( 76) -0.1212 ( 80)
           0.1576 ( 83)  0.1040 ( 84)  0.1860 ( 86)  0.1769 ( 87) -0.1220 ( 88)
          -0.1599 ( 91)
 CRD 50=  -0.2765 (  2)  0.1929 (  4) -0.1462 ( 11)  0.1173 ( 13)  0.1489 ( 14)
          -0.1503 ( 16) -0.1157 ( 17)  0.1819 ( 18) -0.1711 ( 25) -0.1219 ( 38)
           0.1090 ( 40)  0.1618 ( 44) -0.1114 ( 45)  0.1028 ( 48) -0.1194 ( 49)
           0.1296 ( 52)  0.1948 ( 54)  0.1817 ( 57) -0.1695 ( 59) -0.1627 ( 64)
          -0.1412 ( 67) -0.1635 ( 70)  0.1515 ( 71)  0.1577 ( 74) -0.1533 ( 77)
           0.2246 ( 80)  0.1284 ( 82)  0.2791 ( 83)  0.1988 ( 85) -0.1547 ( 88)
           0.1540 ( 91)
 CRD 51=   0.1228 (  3) -0.2523 (  6) -0.1815 ( 11) -0.1020 ( 18) -0.1300 ( 23)
           0.1481 ( 33)  0.1060 ( 38)  0.1180 ( 40) -0.1100 ( 41)  0.1538 ( 42)
          -0.1213 ( 45)  0.2291 ( 55)  0.2323 ( 58)  0.1445 ( 63)  0.2131 ( 64)
           0.1421 ( 66) -0.1227 ( 67) -0.1831 ( 68) -0.1345 ( 70) -0.1100 ( 71)
          -0.1877 ( 75) -0.1020 ( 77)  0.1676 ( 78) -0.1105 ( 81) -0.1791 ( 82)
          -0.2736 ( 83)  0.1548 ( 85) -0.1662 ( 87) -0.2914 ( 88)
 CRD 52=  -0.2312 (  3)  0.1324 (  4)  0.2340 (  8) -0.1330 ( 12) -0.1574 ( 15)
           0.1448 ( 16)  0.1603 ( 20)  0.1757 ( 21)  0.1557 ( 29) -0.1424 ( 36)
          -0.1571 ( 40) -0.1839 ( 41)  0.1069 ( 49) -0.1165 ( 50)  0.2717 ( 61)
          -0.1013 ( 65)  0.1087 ( 66)  0.2757 ( 73) -0.1030 ( 75) -0.1294 ( 77)
          -0.1856 ( 78) -0.1944 ( 79)  0.1936 ( 85) -0.2971 ( 86)  0.2056 ( 87)
          -0.2756 ( 91)
 CRD 53=   0.1746 (  1)  0.1129 (  6) -0.1092 (  8)  0.1427 ( 23)  0.1373 ( 26)
          -0.1137 ( 34) -0.1465 ( 42)  0.3520 ( 55) -0.1389 ( 56) -0.1098 ( 58)
           0.1657 ( 63)  0.2171 ( 64) -0.2332 ( 66) -0.1077 ( 67) -0.2808 ( 69)
          -0.2265 ( 70)  0.1542 ( 74)  0.1430 ( 75) -0.1417 ( 78)  0.2097 ( 79)
          -0.1224 ( 81) -0.1738 ( 82) -0.2475 ( 83) -0.1092 ( 85)  0.1429 ( 87)
 CRD 54=   0.1590 (  2)  0.2294 (  7)  0.1285 ( 13)  0.1264 ( 14)  0.1216 ( 20)
          -0.1208 ( 21)  0.1099 ( 25) -0.1256 ( 30) -0.1289 ( 31) -0.1409 ( 35)
           0.1084 ( 40) -0.1115 ( 41) -0.1033 ( 42) -0.1583 ( 55) -0.2378 ( 56)
           0.1529 ( 58)  0.2498 ( 60) -0.1464 ( 61)  0.2357 ( 65)  0.1052 ( 66)
           0.1122 ( 69)  0.1617 ( 70) -0.2693 ( 71)  0.1296 ( 73)  0.2388 ( 74)
          -0.1258 ( 75) -0.2394 ( 77) -0.1313 ( 78)  0.1531 ( 79) -0.1208 ( 85)
          -0.1096 ( 88)  0.1040 ( 91)

 THE DETERMINANT OF THE G MATRIX IS 10**(   -25)


                     --------------------
                     INTERNAL COORDINATES
                     --------------------

                 - - ATOMS - -         COORDINATE      COORDINATE
 NO.   TYPE    I  J  K  L  M  N        (BOHR,RAD)       (ANG,DEG)
 ----------------------------------------------------------------
   1 STRETCH   1 10                     2.0919698       1.1070228
   2 STRETCH   1  9                     2.0917417       1.1069021
   3 STRETCH   1  3                     2.9020418       1.5356945
   4 STRETCH   1  2                     2.6993666       1.4284434
   5 STRETCH   2  4                     2.5785846       1.3645283
   6 STRETCH   3  6                     2.8723815       1.5199990
   7 STRETCH   3 11                     2.1127612       1.1180252
   8 STRETCH   3  5                     2.8727518       1.5201949
   9 STRETCH   4  8                     2.2971642       1.2156070
  10 STRETCH   4  7                     2.8391762       1.5024275
  11 STRETCH   5 14                     2.0752308       1.0981649
  12 STRETCH   5 13                     2.0748672       1.0979725
  13 STRETCH   5 12                     2.0753655       1.0982362
  14 STRETCH   6 16                     2.0760705       1.0986093
  15 STRETCH   6 15                     2.0748268       1.0979512
  16 STRETCH   6 17                     2.0734308       1.0972124
  17 STRETCH   7 20                     2.0744238       1.0977379
  18 STRETCH   7 19                     2.0751529       1.0981237
  19 STRETCH   7 18                     2.0738717       1.0974457
  20 BEND      1  3  6                  1.9406658     111.1919574
  21 BEND      1  3 11                  1.9067175     109.2468672
  22 BEND      1  2  4                  2.0660363     118.3751580
  23 BEND      1  3  5                  1.9023221     108.9950249
  24 BEND      2  4  8                  2.0867528     119.5621263
  25 BEND      2  1 10                  1.9072794     109.2790623
  26 BEND      2  1  9                  1.9192796     109.9666232
  27 BEND      2  1  3                  1.8679910     107.0280020
  28 BEND      2  4  7                  1.9697671     112.8593440
  29 BEND      3  6 15                  1.9400009     111.1538652
  30 BEND      3  6 16                  1.9495134     111.6988922
  31 BEND      3  5 12                  1.9486998     111.6522742
  32 BEND      3  5 13                  1.9385111     111.0685035
  33 BEND      3  5 14                  1.9486216     111.6477907
  34 BEND      3  1 10                  1.9404119     111.1774146
  35 BEND      3  1  9                  1.9466842     111.5367915
  36 BEND      3  6 17                  1.9446857     111.4222814
  37 BEND      4  7 18                  1.9366371     110.9611325
  38 BEND      4  7 19                  1.9169091     109.8307991
  39 BEND      4  7 20                  1.9568543     112.1194920
  40 BEND      5  3  6                  1.9248705     110.2869554
  41 BEND      5  3 11                  1.8937602     108.5044675
  42 BEND      6  3 11                  1.8948484     108.5668162
  43 BEND      7  4  8                  2.2266625     127.5783660
  44 BEND      9  1 10                  1.8822202     107.8432730
  45 BEND     12  5 13                  1.8742680     107.3876451
  46 BEND     12  5 14                  1.8762766     107.5027308
  47 BEND     13  5 14                  1.8736837     107.3541688
  48 BEND     15  6 17                  1.8765548     107.5186728
  49 BEND     15  6 16                  1.8734159     107.3388221
  50 BEND     16  6 17                  1.8760230     107.4882021
  51 BEND     18  7 19                  1.8824679     107.8574680
  52 BEND     18  7 20                  1.8871051     108.1231555
  53 BEND     19  7 20                  1.8814576     107.7995826
  54 TORSION   1  2  4  7               3.0936511     177.2531495
  55 TORSION   1  2  4  8              -0.0455645      -2.6106531
  56 TORSION   1  3  6 17               1.1025508      63.1715084
  57 TORSION   1  3  6 15              -3.0879280    -176.9252437
  58 TORSION   1  3  5 12               1.0606291      60.7695714
  59 TORSION   1  3  5 13              -3.1310603    -179.3965391
  60 TORSION   1  3  5 14              -1.0403579     -59.6081149
  61 TORSION   1  3  6 16              -0.9959532     -57.0639156
  62 TORSION   2  4  7 18               2.7541083     157.7987823
  63 TORSION   2  4  7 19              -1.4493606     -83.0422427
  64 TORSION   2  4  7 20               0.6419833      36.7829314
  65 TORSION   2  1  3  6              -1.3079014     -74.9372310
  66 TORSION   2  1  3 11               0.7831415      44.8707040
  67 TORSION   2  1  3  5               2.8497170     163.2767595
  68 TORSION   3  1  2  4              -3.1334356    -179.5326335
  69 TORSION   4  2  1  9               1.0323928      59.1517494
  70 TORSION   4  2  1 10              -1.0304823     -59.0422880
  71 TORSION   5  3  1 10               0.7680127      44.0038864
  72 TORSION   5  3  6 17              -3.0682473    -175.7976191
  73 TORSION   5  3  6 16               1.1164340      63.9669569
  74 TORSION   5  3  6 15              -0.9755408     -55.8943713
  75 TORSION   5  3  1  9              -1.3335189     -76.4050069
  76 TORSION   6  3  5 14               3.1077110     178.0587260
  77 TORSION   6  3  5 13               1.0170086      58.2703018
  78 TORSION   6  3  5 12              -1.0744873     -61.5635877
  79 TORSION   6  3  1  9               0.7920479      45.3810027
  80 TORSION   6  3  1 10               2.8935796     165.7898959
  81 TORSION   8  4  7 20              -2.5022183    -143.3665506
  82 TORSION   8  4  7 19               1.6896231      96.8082753
  83 TORSION   8  4  7 18              -0.3900933     -22.3506997
  84 TORSION   9  1  3 11               2.8830908     165.1889376
  85 TORSION  10  1  3 11              -1.2985628     -74.4021691
  86 TORSION  11  3  6 17              -0.9955308     -57.0397105
  87 TORSION  11  3  5 14               1.0343302      59.2627555
  88 TORSION  11  3  5 13              -1.0563722     -60.5256687
  89 TORSION  11  3  5 12               3.1353172     179.6404418
  90 TORSION  11  3  6 16              -3.0940348    -177.2751345
  91 TORSION  11  3  6 15               1.0971757      62.8635374

     ------------------------------------------
     THE POINT GROUP IS C1 , NAXIS= 1, ORDER= 1
     ------------------------------------------

     DIMENSIONS OF THE SYMMETRY SUBSPACES ARE
 A   =  224

 ..... DONE SETTING UP THE RUN .....
 STEP CPU TIME =     0.02 TOTAL CPU TIME =        0.0 (    0.0 MIN)
 TOTAL WALL CLOCK TIME=        0.0 SECONDS, CPU UTILIZATION IS 100.00%


          -----------------------------
          STATIONARY POINT LOCATION RUN
          -----------------------------

 OBTAINING INITIAL HESSIAN, HESS=GUESS   
 DIAGONAL GUESS HESSIAN IN INTERNAL COORDS IS
     1  0.3351     2  0.3352     3  0.3631     4  0.3612     5  0.4090
     6  0.3744     7  0.3280     8  0.3742     9  0.5463    10  0.3874
    11  0.3409    12  0.3410    13  0.3409    14  0.3406    15  0.3411
    16  0.3415    17  0.3412    18  0.3409    19  0.3414    20  0.2488
    21  0.2221    22  0.2420    23  0.2488    24  0.2570    25  0.2185
    26  0.2185    27  0.2426    28  0.2494    29  0.2242    30  0.2242
    31  0.2242    32  0.2242    33  0.2242    34  0.2227    35  0.2227
    36  0.2242    37  0.2253    38  0.2252    39  0.2253    40  0.2499
    41  0.2230    42  0.2230    43  0.2602    44  0.2017    45  0.2026
    46  0.2026    47  0.2026    48  0.2026    49  0.2026    50  0.2026
    51  0.2026    52  0.2026    53  0.2026    54  0.2500    55  0.2500
    56  0.2500    57  0.2500    58  0.2500    59  0.2500    60  0.2500
    61  0.2500    62  0.2500    63  0.2500    64  0.2500    65  0.2500
    66  0.2500    67  0.2500    68  0.2500    69  0.2500    70  0.2500
    71  0.2500    72  0.2500    73  0.2500    74  0.2500    75  0.2500
    76  0.2500    77  0.2500    78  0.2500    79  0.2500    80  0.2500
    81  0.2500    82  0.2500    83  0.2500    84  0.2500    85  0.2500
    86  0.2500    87  0.2500    88  0.2500    89  0.2500    90  0.2500
    91  0.2500
 TRANSFORMING HESSIAN TO SYMMETRY COORDINATES

          PARAMETERS CONTROLLING GEOMETRY SEARCH ARE
          METHOD =QA                  UPHESS =BFGS    
          NNEG   =         0          NFRZ   =         3
          NSTEP  =        50          IFOLOW =         1
          HESS   =GUESS               RESTAR =         F
          IHREP  =         0          HSSEND =         F
          NPRT   =         0          NPUN   =         0
          OPTTOL = 5.000E-04          RMIN   = 1.500E-03
          RMAX   = 1.000E-01          RLIM   = 7.000E-02
          DXMAX  = 3.000E-01          PURIFY =         F
          MOVIE  =         F          TRUPD  =         T
          TRMAX  = 5.000E-01          TRMIN  = 5.000E-02
          ITBMAT =         5          STPT   =         F
          STSTEP = 1.000E-02          PROJCT=          F
          FROZEN COORD(S)=   1   2   3


      ***** EQUILIBRIUM GEOMETRY LOCATED *****
            (SUBJECT TO   3 CONSTRAINT(S))
 COORDINATES OF ALL ATOMS ARE (ANGS)
   ATOM   CHARGE       X              Y              Z
 ------------------------------------------------------------
 C           6.0   3.3256909664   1.8367806151   1.5397559261
 O           8.0   3.9948880149   3.0974155354   1.4288675148
 C           6.0   1.9127790671   1.9839245700   0.9949009796
 C           6.0   5.2405092778   3.1758924753   1.8448869319
 C           6.0   1.3014235792   0.5943160319   0.7936131447
 C           6.0   1.0372373548   2.8485139985   1.9052809778
 C           6.0   5.8825046168   4.4874974335   1.4995332589
 O           8.0   5.7993847716   2.2816769385   2.4014852337
 H           1.0   3.3173751039   1.5305148935   2.5785172048
 H           1.0   3.8881796317   1.1086336840   0.9698615042
 H           1.0   1.9891110309   2.4655738302   0.0227704343
 H           1.0   1.2415581303   0.0514335064   1.7343989015
 H           1.0   0.2960561850   0.6749801096   0.3922533392
 H           1.0   1.8916618973   0.0015985533   0.1004383533
 H           1.0   0.0419939359   2.9598553120   1.4842352629
 H           1.0   0.9335666481   2.3891354527   2.8862052649
 H           1.0   1.4574845495   3.8398839446   2.0392404493
 H           1.0   6.7512372975   4.6455712825   2.1225658194
 H           1.0   6.1950984352   4.4373977225   0.4604046380
 H           1.0   5.1804579749   5.3038816122   1.6027533336


                     --------------------
                     INTERNAL COORDINATES
                     --------------------

                 - - ATOMS - -         COORDINATE      COORDINATE
 NO.   TYPE    I  J  K  L  M  N        (BOHR,RAD)       (ANG,DEG)
 ----------------------------------------------------------------
   1 STRETCH   1 10                     2.0452485       1.0822990
   2 STRETCH   1  9                     2.0465766       1.0830018
   3 STRETCH   1  3                     2.8751411       1.5214593
   4 STRETCH   1  2                     2.7052280       1.4315451
   5 STRETCH   2  4                     2.4861233       1.3155999
   6 STRETCH   3  6                     2.8925032       1.5306469
   7 STRETCH   3 11                     2.0552457       1.0875892
   8 STRETCH   3  5                     2.8939870       1.5314321
   9 STRETCH   4  8                     2.2532674       1.1923778
  10 STRETCH   4  7                     2.8356815       1.5005781
  11 STRETCH   5 14                     2.0529301       1.0863639
  12 STRETCH   5 13                     2.0513408       1.0855229
  13 STRETCH   5 12                     2.0557085       1.0878342
  14 STRETCH   6 16                     2.0562344       1.0881125
  15 STRETCH   6 15                     2.0529295       1.0863636
  16 STRETCH   6 17                     2.0504765       1.0850655
  17 STRETCH   7 20                     2.0440573       1.0816686
  18 STRETCH   7 19                     2.0527793       1.0862841
  19 STRETCH   7 18                     2.0421752       1.0806727
  20 BEND      1  3  6                  1.9528555     111.8903779
  21 BEND      1  3 11                  1.8731299     107.3224359
  22 BEND      1  2  4                  2.0608061     118.0754932
  23 BEND      1  3  5                  1.9071398     109.2710631
  24 BEND      2  4  8                  2.1491562     123.1375794
  25 BEND      2  1 10                  1.8846424     107.9820562
  26 BEND      2  1  9                  1.9038357     109.0817503
  27 BEND      2  1  3                  1.8978014     108.7360088
  28 BEND      2  4  7                  1.9653940     112.6087814
  29 BEND      3  6 15                  1.9298678     110.5732788
  30 BEND      3  6 16                  1.9307256     110.6224259
  31 BEND      3  5 12                  1.9402771     111.1696881
  32 BEND      3  5 13                  1.9293261     110.5422425
  33 BEND      3  5 14                  1.9412545     111.2256887
  34 BEND      3  1 10                  1.9381381     111.0471332
  35 BEND      3  1  9                  1.9430368     111.3278106
  36 BEND      3  6 17                  1.9476175     111.5902637
  37 BEND      4  7 18                  1.9167499     109.8216821
  38 BEND      4  7 19                  1.8785924     107.6354162
  39 BEND      4  7 20                  1.9391232     111.1035731
  40 BEND      5  3  6                  1.9416045     111.2457422
  41 BEND      5  3 11                  1.8884946     108.2027687
  42 BEND      6  3 11                  1.8982397     108.7611236
  43 BEND      7  4  8                  2.1680870     124.2222349
  44 BEND      9  1 10                  1.8952413     108.5893276
  45 BEND     12  5 13                  1.8816534     107.8107965
  46 BEND     12  5 14                  1.8853975     108.0253182
  47 BEND     13  5 14                  1.8836982     107.9279576
  48 BEND     15  6 17                  1.8849638     108.0004684
  49 BEND     15  6 16                  1.8811328     107.7809681
  50 BEND     16  6 17                  1.8873871     108.1393130
  51 BEND     18  7 19                  1.9038325     109.0815682
  52 BEND     18  7 20                  1.9351405     110.8753822
  53 BEND     19  7 20                  1.8890032     108.2319116
  54 TORSION   1  2  4  7               3.0020703     172.0059599
  55 TORSION   1  2  4  8              -0.1052808      -6.0321439
  56 TORSION   1  3  6 17               1.0184332      58.3519237
  57 TORSION   1  3  6 15               3.1168939     178.5848662
  58 TORSION   1  3  5 12               1.0655723      61.0527979
  59 TORSION   1  3  5 13              -3.1285190    -179.2509359
  60 TORSION   1  3  5 14              -1.0362175     -59.3708889
  61 TORSION   1  3  6 16              -1.0836763     -62.0900758
  62 TORSION   2  4  7 18               2.8122979     161.1327979
  63 TORSION   2  4  7 19              -1.4003186     -80.2323432
  64 TORSION   2  4  7 20               0.6649686      38.0998934
  65 TORSION   2  1  3  6              -1.2178952     -69.7802538
  66 TORSION   2  1  3 11               0.8631594      49.4553885
  67 TORSION   2  1  3  5               2.9071061     166.5649074
  68 TORSION   3  1  2  4              -3.1364247    -179.7038985
  69 TORSION   4  2  1  9               1.0247572      58.7142618
  70 TORSION   4  2  1 10              -1.0318417     -59.1201749
  71 TORSION   5  3  1 10               0.8358633      47.8914398
  72 TORSION   5  3  6 17              -3.1260856    -179.1115139
  73 TORSION   5  3  6 16               1.0549902      60.4464866
  74 TORSION   5  3  6 15              -1.0276249     -58.8785714
  75 TORSION   5  3  1  9              -1.2781920     -73.2350089
  76 TORSION   6  3  5 14               3.0821516     176.5942771
  77 TORSION   6  3  5 13               0.9898500      56.7142301
  78 TORSION   6  3  5 12              -1.0992439     -62.9820361
  79 TORSION   6  3  1  9               0.8799920      50.4198299
  80 TORSION   6  3  1 10               2.9940474     171.5462786
  81 TORSION   8  4  7 20              -2.5113005    -143.8869213
  82 TORSION   8  4  7 19               1.7065976      97.7808422
  83 TORSION   8  4  7 18              -0.3639713     -20.8540168
  84 TORSION   9  1  3 11               2.9610466     169.6554722
  85 TORSION  10  1  3 11              -1.2080834     -69.2180791
  86 TORSION  11  3  6 17              -1.0477493     -60.0316144
  87 TORSION  11  3  5 14               0.9979981      57.1810817
  88 TORSION  11  3  5 13              -1.0943034     -62.6989653
  89 TORSION  11  3  5 12               3.0997880     177.6047685
  90 TORSION  11  3  6 16               3.1333265     179.5263861
  91 TORSION  11  3  6 15               1.0507114      60.2013281

          INTERNUCLEAR DISTANCES (ANGS.)


 =====================================================
   GAMESS/COSab RESULTS
 =====================================================

   Dielectric Constant                  = INFTY
   Basic Grid Size                      =                 1082
   Number of Segments                   =                   92
   Number of Segments located on spheres=                  286
   Number of Segments of the cavity     =                  691
   Solvent Radius (rsolv)               = 1.40
   Outlying Charge Error Method         = double cavity

 =====================================================

  Total solvated Energy (a.u.)          =  -384.0560657799
  Total Energy corrected (a.u.)         =  -384.0557339053

  Outlying charge effect (a.u.)         =     0.0003318745
  Outlying charge effect (kcal/mol)     =     0.2082545781

  Dielectric Energy (a.u.)              =    -0.0128693552
  Dielectric energy corr. (a.u.)        =    -0.0125374807

  Sum of polarization charges           =     0.0244217886
  Sum of polarization charges(cor.)     =    -0.0244217886

  Total surface area of cavity (A**2)   =  167.40
  Total volume of cavity (A**3)         =  161.43

 =====================================================
 NPS=                   691
NR.  ATOM  (X, Y, Z)(a.u.)                  CHARGE(e)  AREA(A**2) SIGMA(e/A**2)
   1   1   7.054401   3.148318  -0.776430  -0.000273   0.139368  -0.001958
   2   1   7.326927   4.040234  -0.678314  -0.000239   0.139368  -0.001715
   3   1   7.876355   0.499047   4.617980   0.000098   0.139368   0.000703
   4   1   6.379174   0.091992   4.600148  -0.000494   0.139368  -0.003545
   5   1   6.798506  -0.101379   4.031438  -0.000252   0.185824  -0.001355
   6   1   7.964306   0.233452   3.900293   0.000051   0.232280   0.000221
   7   1   7.838237   3.468038  -0.535669  -0.000394   0.232280  -0.001695
   8   1   7.234641   0.211401   4.570055   0.000074   0.139368   0.000530
   9   1   7.287394  -0.129968   3.468050  -0.000265   0.185824  -0.001427
  10   2   7.417817   7.097924  -0.299531   0.002442   0.137436   0.017766
  11   2   6.558432   8.010013   0.479504   0.002821   0.171795   0.016420
  12   2   6.142341   8.284160   1.064325   0.004655   0.206154   0.022582
  13   2   7.740709   5.844974  -0.544511   0.001197   0.103077   0.011610
  14   2   6.963446   7.610634   0.029377   0.001220   0.103077   0.011834
  15   2   8.278429   5.946301  -0.465949   0.001072   0.103077   0.010395
  16   2   7.655615   6.474181  -0.488532   0.001850   0.137436   0.013462
  17   2   8.252698   5.339917  -0.431333   0.000730   0.103077   0.007079
  18   3   1.172474   4.557641  -0.888727   0.000012   0.139368   0.000083
  19   3   5.396616   2.864393  -1.333332  -0.000070   0.092912  -0.000754
  20   3   1.126847   5.061083  -0.644553   0.000015   0.046456   0.000329
  21   4   8.086030   8.052253   6.089635  -0.002009   0.232280  -0.008649
  22   4  10.897277   7.046843   6.979663  -0.000107   0.185824  -0.000574
  23   4  11.337152   3.642803   0.904863  -0.000372   0.185824  -0.002000
  24   4   9.800733   5.535439  -0.262859  -0.000740   0.092912  -0.007962
  25   4   9.837989   6.824965   7.174434  -0.000545   0.185824  -0.002934
  26   4   8.870124   5.974390   7.121784  -0.000352   0.185824  -0.001892
  27   4  12.641791   4.692724   1.234486  -0.000246   0.139368  -0.001766
  28   4   9.946677   7.472530   6.967523  -0.001642   0.232280  -0.007069
  29   4   8.955074   7.781984   6.682524  -0.001302   0.278737  -0.004672
  30   4   7.972696   7.266746   6.479175  -0.002669   0.325193  -0.008206
  31   4   8.045730   6.402956   6.753336  -0.001897   0.278737  -0.006805
  32   4  10.185270   4.911276  -0.121416  -0.001513   0.139368  -0.010853
  33   4  11.077148   4.056846   0.465751  -0.001331   0.232280  -0.005729
  34   4  11.976648   4.623982   0.642579  -0.001801   0.325193  -0.005537
  35   4  10.894605   4.708322   0.076249  -0.001987   0.232280  -0.008554
  36   4   9.021379   6.722256   7.090145  -0.001469   0.278737  -0.005272
  37   5   1.002421  -0.829429  -1.389799   0.001961   0.418105   0.004690
  38   5  -0.596712  -0.984439   2.209013   0.001597   0.418105   0.003819
  39   5   2.893159  -2.623780   1.261160   0.001229   0.371649   0.003307
  40   5   3.503777   1.722652  -2.082735   0.000503   0.278737   0.001803
  41   5   1.167316   2.494560  -1.776574   0.000530   0.232280   0.002280
  42   5   2.063104   1.907838  -2.176079   0.000804   0.325193   0.002473
  43   5   1.699526   0.713722  -2.179873   0.001129   0.278737   0.004051
  44   5   2.925868  -2.529153   2.352718   0.001325   0.371649   0.003566
  45   5  -0.173511  -1.086367   3.071536   0.001021   0.278737   0.003664
  46   5  -0.215802   0.860024   4.156535   0.000387   0.139368   0.002778
  47   5   0.926215   0.297294  -1.854664   0.000870   0.232280   0.003745
  48   5   1.811546  -0.111295  -2.013247   0.001118   0.278737   0.004012
  49   5  -0.812242   0.901610   3.379074   0.001011   0.232280   0.004354
  50   5  -0.884694   0.070678   2.911855   0.001212   0.278737   0.004350
  51   5   0.331307  -1.951474   2.049925   0.001211   0.464561   0.002606
  52   5   1.676779  -2.574349   1.526329   0.001090   0.464561   0.002346
  53   5   4.053092  -2.265291   2.012517   0.001717   0.371649   0.004619
  54   5   4.740611  -1.677910   2.610725   0.000899   0.232280   0.003872
  55   5  -0.214208  -1.491673   0.952559   0.000950   0.418105   0.002272
  56   5   0.413971  -1.458001  -0.354646   0.001184   0.418105   0.002831
  57   5   1.469787  -1.786984  -0.699478   0.001342   0.464561   0.002889
  58   5   2.119529  -2.460608   0.348279   0.000717   0.325193   0.002204
  59   5   1.198736   1.602419  -2.030926   0.000659   0.232280   0.002836
  60   5   2.698594   1.218648  -2.270947   0.000700   0.232280   0.003012
  61   5   1.295209  -2.355947   2.408160   0.000594   0.278737   0.002130
  62   5  -0.497671   0.093247   3.616262   0.000792   0.185824   0.004260
  63   5   4.285403  -1.792896   3.063897   0.000606   0.185824   0.003261
  64   5   0.831451  -2.183045   0.660886   0.000889   0.464561   0.001913
  65   5   5.083646  -1.569032   1.886546   0.000381   0.139368   0.002737
  66   6   2.307840   7.087206   6.955852   0.002053   0.418105   0.004911
  67   6   1.293725   7.831567   0.799683   0.000956   0.325193   0.002938
  68   6  -1.030201   5.272109   5.909141   0.001709   0.418105   0.004088
  69   6   0.240740   8.674209   4.304309   0.001302   0.371649   0.003503
  70   6   3.912520   6.266309   6.713638   0.001354   0.325193   0.004164
  71   6  -0.470056   8.277334   3.570290   0.001390   0.371649   0.003740
  72   6  -1.518484   5.304486   5.076095   0.001032   0.278737   0.003703
  73   6  -1.268090   3.420609   3.711703   0.000098   0.046456   0.002102
  74   6   0.442798   7.602240   0.944018   0.000532   0.185824   0.002865
  75   6   3.137771   6.409347   7.041931   0.000743   0.185824   0.003998
  76   6   3.411160   7.205961   6.576217   0.001244   0.325193   0.003826
  77   6  -0.911231   3.291607   4.891234   0.001059   0.232280   0.004559
  78   6  -1.151137   4.074535   5.301209   0.001879   0.371649   0.005055
  79   6  -1.052736   6.572351   5.547830   0.001304   0.464561   0.002806
  80   6  -0.445038   7.925667   5.026618   0.001206   0.464561   0.002597
  81   6   0.404328   8.752843   2.888133   0.001773   0.371649   0.004770
  82   6   1.154188   8.539390   1.684356   0.001574   0.371649   0.004235
  83   6   2.408639   8.206996   1.129086   0.001039   0.418105   0.002486
  84   6  -0.251632   6.263737   6.535860   0.001098   0.418105   0.002625
  85   6   0.968710   6.965511   6.886295   0.001315   0.418105   0.003144
  86   6   1.487099   7.879344   6.398370   0.001456   0.464561   0.003133
  87   6   0.647766   8.427890   5.414325   0.000807   0.325193   0.002483
  88   6  -1.116474   7.281346   4.702665   0.000642   0.278737   0.002305
  89   6  -1.387624   3.807548   4.371939   0.000530   0.139368   0.003802
  90   6   0.744057   6.950679   0.383681   0.000534   0.232280   0.002300
  91   6   0.200625   8.269257   1.910032   0.001327   0.325193   0.004082
  92   6   0.023713   7.445421   6.106584   0.000980   0.464561   0.002110
  93   7  10.725887  11.156455   0.193798   0.000613   0.418105   0.001465
  94   7  10.410685   9.646098   6.358878  -0.000032   0.325193  -0.000097
  95   7  14.333688   6.617081   2.154091  -0.000071   0.278737  -0.000253
  96   7  14.044592  10.053486   1.035354   0.000089   0.325193   0.000273
  97   7  11.997611  12.119405   3.346810   0.000025   0.325193   0.000078
  98   7   8.792589   9.355521  -0.015542  -0.000058   0.185824  -0.000310
  99   7   9.299181  10.099887  -0.057427   0.000591   0.325193   0.001818
 100   7  12.710346  11.634868   4.171981   0.000101   0.325193   0.000311
 101   7  14.591029   9.724432   2.019822   0.000366   0.371649   0.000985
 102   7  14.643388   7.125854   2.733610   0.000009   0.232280   0.000039
 103   7  11.480706   9.783843   6.362418   0.000085   0.325193   0.000262
 104   7  10.064374  10.270249  -0.324323   0.000082   0.232280   0.000351
 105   7   9.648660  10.957338   0.385509   0.000260   0.278737   0.000934
 106   7  11.106769   8.820381   6.597797   0.000260   0.232280   0.001120
 107   7  14.400570   7.231584   1.441179   0.000158   0.232280   0.000681
 108   7  14.566633   8.910358   1.352308   0.000611   0.371649   0.001645
 109   7  13.912762  10.886757   2.013734   0.000025   0.464561   0.000053
 110   7  12.910732  11.806302   2.802908  -0.000126   0.464561  -0.000271
 111   7  11.804043  11.572774   4.894496   0.000628   0.325193   0.001932
 112   7  10.783894  10.587356   5.953535   0.000459   0.278737   0.001647
 113   7   9.738819  10.296362   5.848342  -0.000071   0.232280  -0.000306
 114   7   9.452622   9.496386   6.071539  -0.000470   0.232280  -0.002024
 115   7  13.741815   6.278232   1.239119  -0.000610   0.325193  -0.001875
 116   7  13.262656  10.890087   0.866566  -0.000163   0.418105  -0.000391
 117   7  12.031460  11.300329   0.489932  -0.000142   0.418105  -0.000339
 118   7  11.235457  11.850200   1.127041  -0.000015   0.464561  -0.000033
 119   7  11.577440  12.197560   2.331356  -0.000199   0.418105  -0.000477
 120   7  11.455308  12.005823   4.152357   0.000207   0.278737   0.000742
 121   7   9.284269   8.846225  -0.451688  -0.000108   0.185824  -0.000579
 122   7   8.557080   9.876942   0.428825  -0.000063   0.185824  -0.000338
 123   7  13.686161  11.244165   3.034494  -0.000217   0.278737  -0.000780
 124   7  14.783338   7.971230   2.073251   0.000338   0.278737   0.001213
 125   7  11.755144   8.841952   6.541163  -0.000197   0.092912  -0.002124
 126   7  11.835096  10.872615   5.669836   0.000419   0.325193   0.001288
 127   7   8.828924   9.758461   5.557291  -0.000184   0.092912  -0.001984
 128   7  14.468743   7.975510   1.163102   0.000224   0.185824   0.001208
 129   7  12.676877  11.693042   1.598336  -0.000322   0.418105  -0.000769
 130   7  10.840771  11.259594   5.379860   0.000379   0.278737   0.001358
 131   8  12.564397   1.922329   6.047731   0.005166   0.377948   0.013669
 132   8  12.496120   4.821966   7.356368   0.004139   0.274871   0.015059
 133   8  14.208429   4.257374   4.471539   0.004363   0.240512   0.018142
 134   8  12.524004   2.086889   2.758784   0.004045   0.309230   0.013081
 135   8   9.790539   3.307148   7.399901   0.004078   0.274871   0.014838
 136   8  12.657011   2.804980   6.864502   0.005777   0.412307   0.014011
 137   8  12.758979   3.906067   7.214163   0.005143   0.343589   0.014969
 138   8  13.471947   2.613365   5.707110   0.006065   0.412307   0.014709
 139   8  14.032656   3.492389   5.207039   0.005753   0.343589   0.016744
 140   8  12.770523   1.635778   4.889014   0.005666   0.412307   0.013741
 141   8  12.555682   1.596376   3.736416   0.005216   0.377948   0.013802
 142   8  11.662150   1.310548   5.569364   0.005540   0.377948   0.014659
 143   8  10.781259   1.117804   5.114109   0.005321   0.309230   0.017206
 144   8  11.540493   1.988925   6.736180   0.006259   0.446666   0.014013
 145   8  10.653349   2.495434   7.216235   0.004551   0.309230   0.014716
 146   8  13.346346   4.896178   6.665314   0.005489   0.309230   0.017751
 147   8  13.980671   4.593242   5.702780   0.004744   0.274871   0.017257
 148   8  14.023264   3.410939   3.934055   0.005418   0.343589   0.015768
 149   8  13.371164   2.653838   3.124438   0.005740   0.412307   0.013921
 150   8  11.706495   1.514111   3.061843   0.003751   0.240512   0.015594
 151   8  11.034519   1.112073   3.971511   0.004659   0.240512   0.019371
 152   8   9.984891   2.274700   6.876052   0.003204   0.206154   0.015542
 153   8  10.644199   3.633101   7.701201   0.004672   0.343589   0.013597
 154   8  11.586298   4.360704   7.727051   0.005751   0.412307   0.013949
 155   8  12.664679   5.592931   6.990640   0.002677   0.171795   0.015584
 156   8  14.155776   4.738175   4.944285   0.003146   0.171795   0.018315
 157   8  14.076298   4.345847   3.617609   0.003483   0.206154   0.016895
 158   8  13.060635   3.466556   2.206973   0.002341   0.206154   0.011356
 159   8  12.532611   2.897954   2.070298   0.002855   0.240512   0.011871
 160   8  11.869935   2.330337   2.127910   0.003024   0.240512   0.012572
 161   8   9.712138   4.352822   7.539440   0.003544   0.274871   0.012892
 162   8  11.664327   5.649038   7.415506   0.005218   0.377948   0.013806
 163   8  13.559480   3.670547   6.379965   0.006708   0.412307   0.016269
 164   8  13.580412   2.396204   4.380683   0.007005   0.481025   0.014562
 165   8  11.753120   1.163659   4.383362   0.004039   0.274871   0.014693
 166   8  10.511826   1.520500   6.142349   0.006598   0.377948   0.017456
 167   8  11.670869   3.143864   7.486765   0.005181   0.377948   0.013708
 168   8  13.675889   5.200074   6.085840   0.002847   0.137436   0.020717
 169   8  13.684929   3.851354   2.828396   0.004849   0.343589   0.014113
 170   8  10.553322   5.043752   7.678864   0.004699   0.412307   0.011396
 171   9   6.195658   2.126166   7.205677  -0.001928   0.274788  -0.007015
 172   9   6.276129   3.962200   7.084090  -0.002311   0.294415  -0.007848
 173   9   7.185337   0.932253   6.036157  -0.001468   0.274788  -0.005342
 174   9   6.126774   0.741514   6.051321  -0.001937   0.274788  -0.007050
 175   9   5.730719   2.873421   7.269579  -0.002054   0.255160  -0.008050
 176   9   6.723754   3.024642   7.283232  -0.002133   0.274788  -0.007763
 177   9   7.106158   1.831905   6.924467  -0.002153   0.294415  -0.007313
 178   9   6.436969   1.201896   6.647379  -0.001685   0.255160  -0.006602
 179   9   5.392907   1.684061   6.824083  -0.002954   0.333671  -0.008852
 180  10   8.433497   0.293758   0.563345  -0.002903   0.372926  -0.007783
 181  10   8.820672   2.139063  -0.132747  -0.002007   0.274788  -0.007304
 182  10   7.763503   1.825355  -0.573357  -0.001583   0.294415  -0.005375
 183  10   8.219610  -0.120943   2.436295  -0.001811   0.314043  -0.005766
 184  10   8.635133   1.348814  -0.121862  -0.001770   0.274788  -0.006440
 185  10   7.982462   0.818457  -0.167853  -0.001823   0.215905  -0.008444
 186  10   7.950547  -0.257144   1.460038  -0.002803   0.353299  -0.007935
 187  10   8.976548   0.258255   1.743500  -0.002472   0.372926  -0.006629
 188  10   9.274947   1.064384   0.711044  -0.002839   0.353299  -0.008035
 189  11   3.831805   5.694512  -2.183624  -0.002431   0.471065  -0.005161
 190  11   2.738869   6.498335  -1.226793  -0.000851   0.274788  -0.003097
 191  11   2.239337   4.868923  -1.875859  -0.001036   0.353299  -0.002932
 192  11   4.302746   3.890976  -2.226116  -0.001069   0.333671  -0.003203
 193  11   5.310221   5.090952  -1.812238  -0.001287   0.294415  -0.004373
 194  11   2.468358   5.786287  -1.717494  -0.001675   0.451437  -0.003711
 195  11   3.305895   4.573556  -2.369964  -0.001689   0.431809  -0.003912
 196  11   4.788135   4.607421  -2.186992  -0.001443   0.372926  -0.003870
 197  11   4.685328   6.208423  -1.623349  -0.001858   0.372926  -0.004982
 198  11   3.833262   6.835150  -1.094957  -0.001959   0.510320  -0.003838
 199  12   2.143957  -1.556646   5.082807  -0.002109   0.392554  -0.005373
 200  12   3.847556  -1.493486   4.395904  -0.001126   0.333671  -0.003375
 201  12   2.235289  -2.274615   3.907842  -0.000857   0.314043  -0.002729
 202  12   0.541593  -1.099162   4.438235  -0.000794   0.333671  -0.002381
 203  12   0.673158  -0.154928   5.058684  -0.001133   0.333671  -0.003397
 204  12   3.202009  -1.020362   5.290932  -0.002377   0.412182  -0.005767
 205  12   3.069879  -2.035799   4.258198  -0.001176   0.372926  -0.003155
 206  12   1.265915  -1.928706   4.151486  -0.001421   0.431809  -0.003291
 207  12   1.268388  -0.889082   5.252553  -0.001611   0.333671  -0.004829
 208  12   2.227640  -0.310708   5.697182  -0.002900   0.451437  -0.006425
 209  13  -1.631028   0.965796  -0.326870  -0.002620   0.451437  -0.005803
 210  13  -0.400256   0.816238  -1.473046  -0.000933   0.353299  -0.002641
 211  13  -0.462781   2.594771  -1.061448  -0.001332   0.353299  -0.003769
 212  13  -1.705766   1.065846   1.668504  -0.001310   0.392554  -0.003338
 213  13  -1.106524  -0.371959   0.002776  -0.001092   0.372926  -0.002929
 214  13  -0.733075   1.652121  -1.313654  -0.001642   0.412182  -0.003985
 215  13  -1.421433   2.268127  -0.319820  -0.002796   0.451437  -0.006193
 216  13  -1.875173   1.603513   0.737657  -0.002521   0.431809  -0.005837
 217  13  -1.590892   0.102718   0.929745  -0.001688   0.490692  -0.003440
 218  13  -0.854798   0.091602  -0.881488  -0.001282   0.372926  -0.003439
 219  14   4.494690  -1.680504  -1.344641  -0.002590   0.451437  -0.005738
 220  14   4.916807   0.414820  -1.826208  -0.001868   0.412182  -0.004533
 221  14   3.798337   0.034639  -2.256434  -0.000729   0.314043  -0.002321
 222  14   3.130861  -1.844311  -1.367591  -0.001098   0.372926  -0.002944
 223  14   4.548247  -2.252467   0.202292  -0.001020   0.372926  -0.002735
 224  14   4.650067  -0.650225  -1.920172  -0.002006   0.392554  -0.005110
 225  14   3.278173  -0.949759  -2.055051  -0.001403   0.451437  -0.003108
 226  14   3.756121  -2.331086  -0.554625  -0.001554   0.451437  -0.003442
 227  14   5.343303  -1.697090   0.059948  -0.002032   0.451437  -0.004501
 228  14   5.454450  -0.921954  -1.093216  -0.002497   0.392554  -0.006360
 229  15  -2.195202   6.219412   2.119586  -0.003139   0.549575  -0.005712
 230  15  -0.885718   6.892257   0.956420  -0.001080   0.412182  -0.002621
 231  15  -1.696343   7.287647   2.911011  -0.001164   0.412182  -0.002825
 232  15  -2.228507   5.293822   3.591685  -0.001091   0.392554  -0.002779
 233  15  -1.163387   5.866001   0.703291  -0.002485   0.529948  -0.004688
 234  15  -1.322686   7.360696   1.832286  -0.001454   0.451437  -0.003221
 235  15  -2.131290   6.384574   3.527357  -0.001409   0.431809  -0.003262
 236  15  -2.184505   4.640525   2.851996  -0.002017   0.471065  -0.004283
 237  15  -1.993405   5.185936   1.550681  -0.002628   0.431809  -0.006086
 238  16   1.258614   3.819934   7.755569  -0.002394   0.451437  -0.005303
 239  16   2.697933   5.021289   7.669237  -0.000950   0.392554  -0.002420
 240  16  -0.137214   3.497924   6.631279  -0.000768   0.353299  -0.002174
 241  16   0.658163   5.201451   7.537470  -0.000910   0.372926  -0.002441
 242  16   2.562486   3.908556   7.696958  -0.002074   0.412182  -0.005032
 243  16   1.929277   2.869144   7.270616  -0.002601   0.431809  -0.006023
 244  16   0.625314   2.907062   6.921505  -0.002014   0.412182  -0.004885
 245  16   0.114991   4.347585   7.267208  -0.001279   0.412182  -0.003102
 246  16   1.627426   5.169875   7.817871  -0.001314   0.412182  -0.003187
 247  17   3.204890   9.653922   4.142630  -0.002919   0.451437  -0.006465
 248  17   3.719342   8.417852   5.791274  -0.001186   0.353299  -0.003357
 249  17   2.651763   8.981116   5.599948  -0.000978   0.372926  -0.002622
 250  17   1.790600   9.516078   3.852760  -0.000724   0.294415  -0.002459
 251  17   3.120158   9.104674   2.277290  -0.001099   0.333671  -0.003295
 252  17   3.646911   9.199400   5.063029  -0.002247   0.353299  -0.006361
 253  17   2.074598   9.415731   4.807626  -0.001170   0.372926  -0.003139
 254  17   2.278294   9.520320   3.027245  -0.000915   0.353299  -0.002589
 255  17   3.388912   9.496296   3.069519  -0.001846   0.294415  -0.006271
 256  18  14.537644   9.447978   5.566769  -0.004126   0.490692  -0.008408
 257  18  13.135586   9.634111   6.282866  -0.002209   0.412182  -0.005359
 258  18  14.041239  10.733232   4.765267  -0.002227   0.392554  -0.005673
 259  18  15.148397   9.126826   3.563890  -0.002016   0.392554  -0.005135
 260  18  15.003107   7.784143   4.082231  -0.002693   0.431809  -0.006236
 261  18  13.541003   8.537997   6.327090  -0.003716   0.510320  -0.007282
 262  18  13.652195  10.357261   5.667617  -0.002619   0.431809  -0.006065
 263  18  14.774231  10.180004   4.092789  -0.003068   0.490692  -0.006253
 264  18  15.138323   8.849578   4.614474  -0.003183   0.412182  -0.007723
 265  18  14.616862   8.082653   5.458467  -0.003786   0.471065  -0.008036
 266  19  12.420304   8.339699  -1.480342  -0.005269   0.569203  -0.009257
 267  19  10.901869   9.513188  -1.158516  -0.001933   0.372926  -0.005183
 268  19  10.783125   7.593104  -1.263893  -0.002712   0.333671  -0.008129
 269  19  12.727199   6.702685  -0.600565  -0.002924   0.392554  -0.007448
 270  19  13.898560   8.236881  -0.230098  -0.002059   0.372926  -0.005521
 271  19  12.867492   9.961122  -0.615142  -0.002304   0.412182  -0.005591
 272  19  10.885238   8.510841  -1.441678  -0.003248   0.431809  -0.007521
 273  19  11.828220   7.142382  -1.245428  -0.003225   0.471065  -0.006846
 274  19  13.383935   7.457290  -0.666730  -0.003191   0.431809  -0.007389
 275  19  13.466835   9.064251  -0.703968  -0.003443   0.471065  -0.007308
 276  19  11.947370   9.706231  -1.187368  -0.003596   0.490692  -0.007328
 277  20   8.435888  12.070219   3.133124  -0.003954   0.471065  -0.008395
 278  20   9.742217  11.971557   4.523942  -0.001445   0.294415  -0.004906
 279  20   8.216338  10.748145   4.770563  -0.002813   0.372926  -0.007544
 280  20   8.609320  11.450865   1.415447  -0.001840   0.372926  -0.004933
 281  20   9.945303  12.438372   2.608907  -0.002193   0.412182  -0.005320
 282  20   8.816487  11.551394   4.687610  -0.002629   0.431809  -0.006089
 283  20   7.806746  11.333401   3.649896  -0.004087   0.412182  -0.009915
 284  20   7.796610  11.131000   2.114975  -0.004238   0.490692  -0.008638
 285  20   9.090790  12.131757   1.980266  -0.002861   0.431809  -0.006627
 286  20   9.576872  12.384471   3.671224  -0.003026   0.451437  -0.006703
 287   1   8.445821   4.343669  -0.195191  -0.000071   0.052290  -0.001365
 288   2   8.648143   4.776902  -0.182889   0.000084   0.052290   0.001601
 289   4   9.077456   4.784417  -0.097989  -0.000195   0.052290  -0.003724
 290   1   6.895286   4.688590  -0.659902  -0.000073   0.098132  -0.000741
 291   2   7.102556   5.112450  -0.570498   0.000569   0.098132   0.005797
 292  11   6.244741   4.869741  -0.957879  -0.000194   0.098132  -0.001975
 293   2   8.097928   4.948926  -0.376963   0.000756   0.164490   0.004593
 294   1   7.621571   4.422847  -0.513507   0.000069   0.179932   0.000383
 295   1   6.264835   3.435768  -0.973806  -0.000127   0.030266  -0.004186
 296   3   5.819702   3.478893  -1.188644  -0.000114   0.030266  -0.003767
 297  11   5.678581   3.709039  -1.327628  -0.000151   0.030266  -0.004979
 298   1   6.086459   2.179331  -0.774475  -0.000431   0.106635  -0.004038
 299   3   5.636406   2.221358  -0.985997  -0.000336   0.106635  -0.003154
 300  14   5.441216   1.489961  -1.068767  -0.000371   0.106635  -0.003475
 301   3   5.862256   3.034931  -1.119883  -0.000237   0.139484  -0.001701
 302   1   6.496256   2.802063  -0.841219  -0.000424   0.139484  -0.003038
 303   1   6.025412   5.601784   6.058649  -0.000367   0.151498  -0.002421
 304   4   6.686304   6.008120   6.037863  -0.000144   0.151498  -0.000952
 305   6   5.243602   5.893115   6.048993  -0.000020   0.151498  -0.000130
 306   1   6.518483   5.156575   6.321178  -0.000374   0.059949  -0.006231
 307   4   7.171585   5.573178   6.354997  -0.000429   0.059949  -0.007156
 308   9   6.525310   4.891643   6.467247  -0.000485   0.059949  -0.008090
 309   1   8.705243   3.484264  -0.036537  -0.000440   0.060608  -0.007261
 310   4   9.312009   3.936549   0.132534  -0.000610   0.060608  -0.010060
 311  10   8.761537   3.188259  -0.011705  -0.000451   0.060608  -0.007445
 312   4   7.322892   6.077295   6.425829  -0.000283   0.066650  -0.004251
 313   1   6.447794   5.408090   6.304553  -0.000058   0.066650  -0.000874
 314   4   9.493583   4.454003  -0.071773  -0.000850   0.162563  -0.005226
 315   1   8.528032   3.927056  -0.249739  -0.000286   0.162563  -0.001758
 316   1   6.600735  -0.331989   2.700917  -0.000461   0.068115  -0.006766
 317   5   5.900956  -0.674609   2.442295  -0.000270   0.068115  -0.003957
 318  10   6.784283  -0.327426   2.460073  -0.000460   0.068115  -0.006750
 319   1   5.498077  -0.312106   3.972538  -0.000334   0.064040  -0.005209
 320   5   4.863146  -0.788485   3.764329  -0.000099   0.064040  -0.001549
 321  12   4.649427  -0.827662   3.978461  -0.000164   0.064040  -0.002558
 322   5   5.366653  -0.960684   2.976477   0.000143   0.372801   0.000383
 323   1   6.206687  -0.340606   3.573827  -0.001014   0.372801  -0.002721
 324   1   5.640543   5.084734   6.312383  -0.000340   0.067813  -0.005008
 325   6   4.865057   5.388245   6.360574  -0.000125   0.067813  -0.001841
 326   9   5.657659   4.821309   6.461286  -0.000398   0.067813  -0.005872
 327   6   4.598024   5.825217   6.480709   0.000088   0.068458   0.001289
 328   1   5.690799   5.391205   6.287625  -0.000002   0.068458  -0.000030
 329   1   8.273317   1.157106   5.235817   0.000313   0.079271   0.003952
 330   8   9.107645   1.461610   5.448928   0.001694   0.079271   0.021366
 331   9   8.133683   1.240333   5.492611  -0.000058   0.079271  -0.000736
 332   1   8.911022   0.758654   3.569942   0.000226   0.077812   0.002909
 333   8   9.716873   1.083768   3.850672   0.001615   0.077812   0.020758
 334  10   8.959724   0.698620   3.276559  -0.000032   0.077812  -0.000405
 335   8   9.816502   1.213705   4.990394   0.007597   0.439672   0.017278
 336   1   8.724929   0.793344   4.326770   0.002240   0.488191   0.004588
 337   1   5.650703   0.234158   4.868843  -0.000452   0.082560  -0.005469
 338   9   5.660774   0.378230   5.136087  -0.000581   0.082560  -0.007034
 339  12   4.757743  -0.176061   4.734349  -0.000389   0.082560  -0.004711
 340   9   6.139743   4.638685   6.627373  -0.000185   0.016694  -0.011112
 341   1   6.087805   4.995717   6.385505  -0.000189   0.020395  -0.009244
 342   9   6.434135   0.516183   5.414303  -0.000558   0.085746  -0.006513
 343   9   7.446560   0.853067   5.521734  -0.000397   0.085746  -0.004628
 344   1   7.015253   0.579751   5.090983  -0.001136   0.178097  -0.006379
 345   1   6.431729   2.032768  -0.660663  -0.000387   0.087221  -0.004440
 346  10   6.633967   1.810714  -0.612642  -0.000568   0.087221  -0.006515
 347  14   5.769449   1.339766  -0.897002  -0.000331   0.087221  -0.003797
 348  10   7.336669   2.222837  -0.604731  -0.000540   0.087529  -0.006166
 349  10   8.268005   2.732179  -0.336273  -0.000579   0.087529  -0.006610
 350   1   7.612438   2.825592  -0.472119  -0.001405   0.180658  -0.007776
 351  10   8.397038   0.221217   2.999299  -0.000346   0.084006  -0.004123
 352  10   7.497799  -0.202369   2.652951  -0.000593   0.084006  -0.007062
 353   1   7.772760   0.095265   3.174614  -0.001058   0.175327  -0.006035
 354  11   5.782592   4.402432  -1.366641  -0.000783   0.210091  -0.003725
 355   1   6.648910   3.860530  -0.919534  -0.000442   0.296269  -0.001493
 356  12   4.500762  -0.846619   4.356773  -0.000296   0.180533  -0.001640
 357   1   5.760234  -0.117992   4.564647  -0.000260   0.256193  -0.001014
 358   2   9.144474   6.178384  -0.290629  -0.000095   0.069593  -0.001368
 359   4   9.581626   6.199163  -0.295189  -0.000550   0.069593  -0.007899
 360  19  10.019313   6.747834  -0.497597  -0.000812   0.069593  -0.011674
 361   4   9.378237   5.358543  -0.217932  -0.000532   0.144677  -0.003679
 362   2   8.753852   5.528263  -0.318055   0.000544   0.135589   0.004013
 363   2   5.035580   7.537613   0.913799   0.002182   0.208850   0.010448
 364   6   3.991766   7.546154   1.002064   0.000396   0.208850   0.001897
 365  11   4.279788   7.201364   0.394745   0.000005   0.208850   0.000023
 366   2   4.940474   8.009674   1.559825   0.001259   0.092400   0.013630
[...]
 432   4   6.934058   6.909136   6.141476   0.000461   0.462960   0.000996
 433   4  11.663165   7.041139   6.675187   0.000038   0.037752   0.001015
 434   7  11.857851   7.462178   6.519648  -0.000179   0.037752  -0.004732
 435   8  11.806379   6.682877   6.754017   0.000337   0.037752   0.008934
 436   4  13.202234   5.030181   1.899064  -0.000030   0.037752  -0.000787
 437   7  13.376295   5.478170   1.807530  -0.000209   0.037752  -0.005526
 438   8  13.286004   4.749589   2.162363   0.000227   0.037752   0.006024
 439   4  12.557347   5.554223   0.689687  -0.000435   0.029564  -0.014713
 440   7  12.790441   5.961818   0.552218  -0.000371   0.029564  -0.012555
 441  19  12.766836   6.143535   0.310902  -0.000301   0.029564  -0.010170
 442   4   8.075063   8.956397   5.224193  -0.000363   0.025142  -0.014432
 443   7   8.256917   9.402165   5.137829  -0.000312   0.025142  -0.012401
 444  20   8.198907   9.652328   4.981538  -0.000279   0.025142  -0.011107
 445   7   8.679980   9.185815   5.621668  -0.001488   0.240297  -0.006190
 446   7  10.623754   8.443031   6.414093  -0.003979   0.494692  -0.008043
 447   4   9.113133   8.311091   6.151903  -0.006108   0.494692  -0.012347
 448   4  11.099931   7.492078   6.734806  -0.001040   0.240297  -0.004329
 449   7  13.238991   5.791260   1.204832  -0.000946   0.192423  -0.004914
 450   4  12.802149   5.195348   1.176670  -0.001039   0.192423  -0.005401
 451   4   8.407226   4.870436   6.853565   0.000154   0.108777   0.001412
 452   8   8.645846   4.567951   6.951937   0.001088   0.108777   0.010005
 453   9   7.716357   4.224716   6.812742  -0.000139   0.108777  -0.001278
 454   4  10.736162   2.930116   1.321407   0.000012   0.108447   0.000114
 455   8  10.900385   2.691386   1.593585   0.000883   0.108447   0.008144
 456  10  10.032697   2.319519   1.191318  -0.000325   0.108447  -0.002998
 457   8  11.429215   6.220077   7.117607   0.001407   0.146781   0.009583
 458   8   9.913669   5.383506   7.295339   0.002740   0.312785   0.008760
 459   4  10.576942   6.394299   7.075891   0.001079   0.305043   0.003537
 460   4   9.041252   5.462581   7.120989   0.000529   0.156620   0.003377
 461   8  11.800243   3.070149   1.684463   0.001516   0.174604   0.008680
 462   8  12.992379   4.043277   2.050853   0.001484   0.174604   0.008499
 463   4  12.169294   3.952738   1.554471   0.000835   0.363914   0.002294
 464   9   6.925288   4.353249   6.842807  -0.001454   0.286589  -0.005074
 465   4   7.747671   5.495710   6.742584  -0.000997   0.404718  -0.002464
 466  10   9.026772   2.808059   0.038991  -0.001189   0.221605  -0.005366
 467  10   9.590074   2.199749   0.605564  -0.001270   0.221605  -0.005729
 468   4  10.214371   3.520122   0.512639  -0.003242   0.616321  -0.005260
 469  17   4.754716   8.047652   5.451373   0.000833   0.385723   0.002160
 470   4   6.933417   8.053694   5.515904   0.002810   0.589041   0.004771
 471  19  12.495041   6.221005  -0.061188  -0.001542   0.192983  -0.007992
 472  19  11.217058   6.578525  -0.616590  -0.004491   0.395646  -0.011352
 473   4  11.608048   5.432375   0.155934  -0.004865   0.528636  -0.009203
 474   4  10.150850   5.951811  -0.375505  -0.001989   0.272347  -0.007303
 475  20   8.024016   9.804411   4.824565  -0.000528   0.055088  -0.009590
 476   4   7.819876   8.796981   5.254435  -0.000475   0.077725  -0.006107
 477   5  -1.018177   1.982386   2.823195   0.000096   0.066578   0.001442
 478   6  -1.026573   2.741584   3.167263   0.000136   0.066578   0.002041
 479  13  -1.141800   1.976643   2.545363  -0.000134   0.066578  -0.002019
 480   5   0.132400   1.783862   4.703093   0.000143   0.065220   0.002187
 481   6  -0.014029   2.490752   5.119659   0.000128   0.065220   0.001965
 482  16   0.128125   2.519425   5.388256  -0.000092   0.065220  -0.001404
 483   6  -0.783157   2.787745   4.134754   0.001187   0.540195   0.002197
 484   5  -0.453647   1.600947   3.914682   0.001064   0.540195   0.001970
 485   5   5.653540  -1.011631   1.536793  -0.000141   0.083591  -0.001688
 486  10   6.468375  -0.528492   1.589851  -0.000487   0.083591  -0.005827
 487  14   5.667550  -1.060645   1.235274  -0.000229   0.083591  -0.002735
 488  10   6.961659  -0.436061   2.136081  -0.000673   0.155223  -0.004335
 489   5   5.726204  -1.086787   1.975023   0.000280   0.219439   0.001274
 490  11   4.237093   3.241467  -1.959778  -0.000347   0.168645  -0.002060
 491  11   3.056910   3.638590  -2.048614  -0.001144   0.342880  -0.003337
 492  11   1.999965   4.183525  -1.668690  -0.000338   0.168645  -0.002004
 493   5   3.468113   2.325668  -1.984218   0.000358   0.465036   0.000769
 494   5   1.867625   2.999636  -1.775968   0.000342   0.465036   0.000736
 495   5   0.337300   1.214202   4.704044  -0.000003   0.088360  -0.000033
 496  12   0.506884   1.007728   4.854520  -0.000090   0.088360  -0.001019
 497  16   0.446464   2.021787   5.291274   0.000081   0.088360   0.000914
 498  12   0.304455   0.298493   4.626786  -0.000123   0.070753  -0.001739
 499  12   0.213533  -0.679694   4.056535  -0.000314   0.157720  -0.001991
 500  12   0.834518  -1.756041   3.474944  -0.000407   0.157720  -0.002578
 501  12   2.078840  -2.287388   3.247513  -0.000455   0.157720  -0.002887
 502  12   3.410400  -2.044813   3.472227  -0.000305   0.157720  -0.001936
 503  12   4.210364  -1.369398   3.912883  -0.000143   0.070753  -0.002019
 504   5   0.001551   0.140643   4.127719  -0.000007   0.154518  -0.000045
 505   5   0.210285  -1.187519   3.374583  -0.000064   0.154518  -0.000415
 506   5   1.319269  -2.143344   2.893593  -0.000200   0.154518  -0.001294
 507   5   2.850712  -2.315028   2.891978  -0.000105   0.154518  -0.000678
 508   5   4.144815  -1.628603   3.370433  -0.000115   0.154518  -0.000747
 509  13   0.159152   2.787798  -1.154874  -0.000148   0.066533  -0.002230
 510  13   0.253262   1.807286  -1.587652  -0.000352   0.146654  -0.002397
 511  13   0.114610   0.514760  -1.500098  -0.000329   0.146654  -0.002241
 512  13  -0.275663  -0.450160  -0.716435  -0.000353   0.146654  -0.002407
 513  13  -0.766920  -0.715034   0.460860  -0.000389   0.146654  -0.002654
 514  13  -1.169544  -0.177625   1.577371  -0.000284   0.146654  -0.001938
 515  13  -1.328131   0.954637   2.202148  -0.000386   0.146654  -0.002631
 516   5   0.608592   2.526006  -1.428771  -0.000297   0.146862  -0.002020
 517   5   0.625045   1.099289  -1.756698  -0.000070   0.146862  -0.000475
 518   5   0.312410  -0.235031  -1.241743  -0.000081   0.146862  -0.000552
 519   5  -0.208640  -0.961932  -0.082670  -0.000174   0.146862  -0.001188
 520   5  -0.736991  -0.800844   1.273141  -0.000155   0.146862  -0.001056
 521   5  -1.068708   0.186057   2.302373  -0.000007   0.146862  -0.000049
 522   5  -1.129585   1.310094   2.680749   0.000039   0.081285   0.000477
 523  14   5.190211  -1.610598   1.092368  -0.000124   0.070863  -0.001743
 524  14   4.261204  -2.209450   0.813393  -0.000358   0.158175  -0.002264
 525  14   3.160907  -2.352261  -0.001395  -0.000436   0.158175  -0.002756
 526  14   2.519886  -1.751338  -1.061070  -0.000452   0.158175  -0.002857
 527  14   2.616901  -0.668004  -1.904813  -0.000323   0.158175  -0.002045
 528  14   3.409764   0.426634  -2.165707  -0.000448   0.158175  -0.002831
 529  14   4.334298   1.039333  -1.902381  -0.000167   0.070863  -0.002359
 530   5   4.730619  -1.833551   1.416798  -0.000068   0.154548  -0.000442
 531   5   3.433031  -2.408916   0.803892  -0.000135   0.154548  -0.000873
 532   5   2.397215  -2.136410  -0.311123  -0.000211   0.154548  -0.001364
 533   5   2.073615  -1.134537  -1.443363  -0.000072   0.154548  -0.000469
 534   5   2.602956   0.161020  -2.100452  -0.000110   0.154548  -0.000709
 535   5   3.755042   1.186863  -1.996641  -0.000310   0.154548  -0.002008
 536  16   0.147803   2.472774   5.633675   0.000022   0.038074   0.000582
 537   5   0.078276   1.307792   4.719100   0.000203   0.054119   0.003757
 538   6   4.046892   4.997543   6.803985  -0.000063   0.086197  -0.000731
 539   9   4.832899   4.417760   6.736853  -0.000315   0.086197  -0.003657
 540  16   3.852968   4.804791   6.942925  -0.000143   0.086197  -0.001659
 541   9   5.588361   4.553970   6.735317  -0.000587   0.162154  -0.003620
 542   6   4.362994   5.327328   6.778304   0.000363   0.229834   0.001579
 543  11   1.860756   6.035133  -0.773061  -0.000445   0.214808  -0.002073
 544  11   3.072207   6.897698  -0.335971  -0.001746   0.442252  -0.003947
 545   6   1.651703   6.853368   0.144092   0.000405   0.586055   0.000692
 546   6   3.099693   7.685182   0.707041   0.000503   0.302659   0.001662
 547   6  -1.234985   3.281560   3.186483  -0.000001   0.087948  -0.000006
 548  13  -1.200981   2.546977   2.520709   0.000034   0.087948   0.000390
 549  15  -1.384704   3.481296   3.009436  -0.000108   0.087948  -0.001227
 550  13  -1.332422   1.958650   2.399568   0.000003   0.030332   0.000089
 551   6  -1.304117   3.079335   3.341413   0.000172   0.043059   0.004004
 552  15  -1.669236   3.996765   3.465537  -0.000095   0.066520  -0.001430
 553  15  -1.831167   4.864617   4.077814  -0.000216   0.146545  -0.001471
 554  15  -1.761690   6.151911   4.254010  -0.000319   0.146545  -0.002175
 555  15  -1.400828   7.271052   3.696964  -0.000362   0.146545  -0.002469
 556  15  -0.887305   7.791820   2.620817  -0.000229   0.146545  -0.001564
 557  15  -0.418530   7.514019   1.439260  -0.000256   0.146545  -0.001750
 558  15  -0.174709   6.544443   0.606511  -0.000414   0.146545  -0.002825
 559   6  -1.527808   4.108010   4.025189   0.000051   0.146918   0.000344
 560   6  -1.633670   5.436407   4.626723  -0.000001   0.146918  -0.000009
 561   6  -1.379359   6.858504   4.401658  -0.000128   0.146918  -0.000869
 562   6  -0.862636   7.827617   3.436513  -0.000050   0.146918  -0.000340
 563   6  -0.282141   7.971200   2.102310   0.000031   0.146918   0.000214
 564   6   0.138972   7.234056   0.911944  -0.000183   0.146918  -0.001248
 565   6   0.276967   6.217559   0.316935  -0.000043   0.081269  -0.000535
 566  16   3.292546   5.208754   7.247495  -0.000120   0.069703  -0.001721
 567  16   2.342791   5.778037   7.413722  -0.000239   0.154853  -0.001546
 568  16   0.995561   5.843430   7.301963  -0.000330   0.154853  -0.002128
 569  16  -0.077316   5.145603   6.861772  -0.000342   0.154853  -0.002207
 570  16  -0.427406   3.976229   6.277137  -0.000280   0.154853  -0.001806
 571  16  -0.120204   2.989013   5.847277  -0.000137   0.069703  -0.001964
 572   6   3.132315   5.773811   7.122061  -0.000050   0.152720  -0.000328
 573   6   1.704446   6.288212   7.212056  -0.000061   0.152720  -0.000399
 574   6   0.268030   5.912841   6.884455  -0.000156   0.152720  -0.001021
 575   6  -0.576549   4.804593   6.276185  -0.000087   0.152720  -0.000567
 576   6  -0.476279   3.426687   5.641489  -0.000059   0.152720  -0.000384
 577  17   3.295228   8.593243   1.863557  -0.000143   0.067063  -0.002128
 578  17   2.330975   8.956157   2.202719  -0.000268   0.148095  -0.001808
 579  17   1.481645   9.184437   3.177656  -0.000247   0.148095  -0.001667
 580  17   1.312481   9.080750   4.475580  -0.000345   0.148095  -0.002329
 581  17   1.889927   8.685820   5.586688  -0.000368   0.148095  -0.002485
 582  17   2.987172   8.154771   6.074555  -0.000247   0.148095  -0.001665
 583  17   3.983256   7.752985   5.923203  -0.000112   0.067063  -0.001674
 584   6   2.747434   8.485529   1.673088  -0.000165   0.147762  -0.001119
 585   6   1.537491   8.898974   2.409001   0.000040   0.147762   0.000270
 586   6   0.934955   8.972683   3.753614  -0.000006   0.147762  -0.000041
 587   6   1.176493   8.677703   5.178786  -0.000142   0.147762  -0.000958
 588   6   2.167232   8.129898   6.124732  -0.000115   0.147762  -0.000778
 589   6   3.518027   7.544438   6.219900  -0.000048   0.147762  -0.000322
 590   7  14.269368   6.545681   3.768319  -0.000056   0.062797  -0.000892
 591   8  14.071835   5.815752   4.071324   0.000777   0.062797   0.012379
 592  18  14.351915   6.754459   3.969704  -0.000243   0.062797  -0.003875
 593   7  12.152318   7.711544   6.424425  -0.000328   0.062797  -0.005230
 594   8  12.076924   6.914354   6.574192   0.000262   0.062797   0.004170
 595  18  12.433027   7.811195   6.377191  -0.000355   0.062797  -0.005655
 596   8  13.634716   4.721449   2.578253   0.002237   0.285693   0.007830
 597   8  14.083337   5.171897   3.721206   0.003528   0.285693   0.012350
 598   7  13.991904   6.004310   2.680750  -0.000225   0.626816  -0.000359
 599   8  11.942002   6.545691   6.883586   0.000196   0.013832   0.014203
 600   7  12.015222   7.671892   6.576786   0.000024   0.015272   0.001562
 601  18  14.702909   7.300544   3.748147  -0.000327   0.067015  -0.004882
 602  18  14.942833   8.203269   3.184556  -0.000736   0.148376  -0.004959
 603  18  14.824756   9.507451   3.018284  -0.000877   0.148376  -0.005909
 604  18  14.264658  10.590272   3.524512  -0.000913   0.148376  -0.006153
 605  18  13.486467  11.018823   4.500852  -0.000908   0.148376  -0.006121
 606  18  12.801300  10.621772   5.556964  -0.000787   0.148376  -0.005307
 607  18  12.483086   9.557857   6.270619  -0.000821   0.148376  -0.005530
 608  18  12.555871   8.482923   6.441878  -0.000441   0.067015  -0.006580
 609   7  14.682617   7.422006   3.171824  -0.000704   0.147250  -0.004778
 610   7  14.832469   8.788835   2.616066  -0.000551   0.147250  -0.003744
 611   7  14.430899  10.202257   2.817366  -0.000715   0.147250  -0.004852
 612   7  13.638454  11.097191   3.695243  -0.000749   0.147250  -0.005084
 613   7  12.771952  11.115843   4.898725  -0.000621   0.147250  -0.004216
 614   7  12.177817  10.250757   5.946662  -0.000600   0.147250  -0.004077
 615   7  12.093584   8.847791   6.420092  -0.000846   0.147250  -0.005744
 616  19   9.985270   8.215152  -0.875777  -0.000494   0.067027  -0.007373
 617  19  10.260323   9.261317  -0.843472  -0.000904   0.147890  -0.006111
 618  19  11.153194  10.193717  -0.619827  -0.000863   0.147890  -0.005835
 619  19  12.395039  10.399066  -0.256150  -0.000951   0.147890  -0.006433
 620  19  13.501162   9.797214   0.105616  -0.000968   0.147890  -0.006544
 621  19  14.039840   8.623066   0.324272  -0.000909   0.147890  -0.006144
 622  19  13.800826   7.334895   0.314477  -0.000965   0.147890  -0.006526
 623  19  13.121488   6.508705   0.149948  -0.000479   0.067027  -0.007148
 624   7   9.721675   8.680666  -0.627309  -0.000900   0.147816  -0.006092
 625   7  10.365290   9.998279  -0.497219  -0.000696   0.147816  -0.004707
 626   7  11.627772  10.671149  -0.149873  -0.000789   0.147816  -0.005339
 627   7  13.016372  10.436655   0.279158  -0.000863   0.147816  -0.005838
 628   7  13.989116   9.386320   0.622422  -0.000710   0.147816  -0.004805
 629   7  14.166339   7.930092   0.745944  -0.000748   0.147816  -0.005060
 630   7  13.478871   6.636341   0.601511  -0.001015   0.147816  -0.006864
 631  20   8.396135  10.150487   5.046177  -0.000447   0.069880  -0.006390
 632  20   9.256202  10.869398   5.209900  -0.000927   0.155999  -0.005945
 633  20  10.175778  11.728154   4.672367  -0.000937   0.155999  -0.006006
 634  20  10.594100  12.239392   3.474173  -0.000983   0.155999  -0.006302
 635  20  10.330499  12.182316   2.132799  -0.000988   0.155999  -0.006334
 636  20   9.498822  11.581576   1.227565  -0.000859   0.155999  -0.005508
 637  20   8.458255  10.696623   1.149426  -0.001012   0.155999  -0.006489
 638   7   8.908316  10.112183   5.358182  -0.000942   0.152342  -0.006183
 639   7  10.063804  11.119545   5.249812  -0.000674   0.152342  -0.004423
 640   7  10.859336  11.934161   4.217726  -0.000719   0.152342  -0.004722
 641   7  10.951335  12.204212   2.707666  -0.000855   0.152342  -0.005613
 642   7  10.300068  11.813066   1.371803  -0.000783   0.152342  -0.005140
 643   7   9.186807  10.929653   0.787076  -0.000711   0.152342  -0.004666
 644   7   8.260359  10.109987   0.968729  -0.000324   0.085374  -0.003792
 645   9   8.055874   1.338817   5.970295  -0.000007   0.261513  -0.000028
 646   9   7.806340   2.361580   6.811466  -0.001269   0.527036  -0.002408
 647   9   7.441945   3.629920   7.084251  -0.000661   0.261513  -0.002529
 648   8   9.386895   1.969991   6.382090   0.009235   0.644023   0.014340
 649   8   8.967446   3.535321   7.143169   0.007013   0.644023   0.010889
 650  10   9.832663   1.615644   1.192523  -0.000968   0.294632  -0.003287
 651  10   9.446811   0.815496   2.363247  -0.001280   0.594733  -0.002152
 652   8  10.913548   1.779068   2.334642   0.007986   0.726968   0.010986
 653   8  10.388963   1.027996   3.650358   0.004794   0.366837   0.013068
 654  18  12.910851   7.745866   6.395689  -0.000774   0.264606  -0.002925
 655  18  13.935683   7.242179   5.624257  -0.002179   0.533746  -0.004083
 656  18  14.488737   6.876921   4.416032  -0.000605   0.264606  -0.002286
 657   8  12.908401   6.235075   6.482898   0.006858   0.650361   0.010545
 658   8  13.985738   5.641784   5.131244   0.007835   0.650361   0.012048
 659   9   4.022721   1.819652   6.080146  -0.001773   0.333387  -0.005317
 660  12   3.137157   1.190707   5.713215  -0.001091   0.333387  -0.003272
 661  16   3.006857   2.181912   6.216207  -0.001020   0.333387  -0.003059
 662  12   4.292079  -0.516873   5.056087  -0.000269   0.247876  -0.001084
 663  12   3.621792   0.108284   5.609019  -0.001252   0.495462  -0.002526
 664   9   5.294511   0.599567   5.798484  -0.001698   0.495462  -0.003427
 665   9   4.617680   1.274299   6.280642  -0.000775   0.247876  -0.003125
 666  16   3.070435   2.721044   6.941431  -0.000553   0.304760  -0.001815
 667  16   3.548809   3.941291   7.242479  -0.001088   0.609879  -0.001784
 668   9   4.690018   2.664513   6.914049  -0.002757   0.609879  -0.004521
 669   9   5.161060   3.913320   7.078592  -0.000850   0.304760  -0.002788
 670  14   5.693951   0.773255  -1.228310  -0.000366   0.246447  -0.001486
 671  14   6.011317  -0.206394  -0.709707  -0.001523   0.492924  -0.003091
 672  14   5.960313  -1.015546   0.437721  -0.001021   0.492924  -0.002072
 673  10   7.026887   1.053922  -0.534357  -0.001952   0.492924  -0.003959
 674  10   7.252447  -0.031093   0.329231  -0.002366   0.492924  -0.004800
 675  10   7.069667  -0.511862   1.361140  -0.000775   0.246447  -0.003144
 676  16   0.502154   2.200977   5.966543   0.000100   0.303724   0.000329
 677  16   1.709253   2.112190   6.469517  -0.001152   0.607555  -0.001895
 678  12   1.137583   0.738580   5.498917  -0.000725   0.607555  -0.001194
 679  12   2.387837   0.709945   5.891344  -0.000387   0.303724  -0.001274
 680  15  -0.759670   4.835336   0.373948  -0.000117   0.252829  -0.000461
 681  15  -1.523419   4.402841   1.101203  -0.000935   0.505558  -0.001849
 682  15  -1.767191   3.791134   2.324421  -0.000463   0.505558  -0.000915
 683  13  -0.920855   3.303144  -0.024114  -0.000875   0.505558  -0.001731
 684  13  -1.611354   2.721708   1.031828  -0.000989   0.505558  -0.001956
 685  13  -1.567757   2.234507   2.061390  -0.000011   0.252829  -0.000044
 686  20   6.985541  10.346704   2.530965   0.000315   0.244254   0.001290
 687  20   7.015748  10.514422   3.351147  -0.000044   0.486627  -0.000090
 688  20   7.257332  10.181356   4.294599   0.000025   0.486627   0.000051
 689  17   4.436420   9.423041   3.135571   0.001177   0.486627   0.002418
 690  17   4.555560   9.424877   4.157921   0.000695   0.486627   0.001429
 691  17   4.800920   9.004124   4.839468   0.000811   0.244254   0.003319
 =====================================================

              4436093  WORDS OF DYNAMIC MEMORY USED
 EXECUTION OF GAMESS TERMINATED NORMALLY Thu Nov 24 09:30:48 2016
 DDI: 263640 bytes (0.3 MB / 0 MWords) used by master data server.

 ----------------------------------------
 CPU timing information for all processes
 ========================================
 0: 2116.48 + 1.324 = 2117.372
 ----------------------------------------
 ddikick.x: exited gracefully.
