----- GAMESS execution script -----

          ******************************************************
          *         GAMESS VERSION =  5 DEC 2014 (R1)          *
          *             FROM IOWA STATE UNIVERSITY             *
          * M.W.SCHMIDT, K.K.BALDRIDGE, J.A.BOATZ, S.T.ELBERT, *
          *   M.S.GORDON, J.H.JENSEN, S.KOSEKI, N.MATSUNAGA,   *
          *          K.A.NGUYEN, S.J.SU, T.L.WINDUS,           *
          *       TOGETHER WITH M.DUPUIS, J.A.MONTGOMERY       *
          *         J.COMPUT.CHEM.  14, 1347-1363(1993)        *
          **************** 64 BIT LINUX VERSION ****************

 EXECUTION OF GAMESS BEGUN Thu Nov 24 09:30:52 2016

            ECHO OF THE FIRST FEW INPUT CARDS -
 INPUT CARD>! SELECT RESTRICTED HARTREE-FOCK AS DEFAULT                                     
 INPUT CARD>$contrl scftyp=rhf $end                                                         
 INPUT CARD>                                                                                
 INPUT CARD>! THEORY: HF OR DFT                                                             
 INPUT CARD> $contrl mplevl=0 $end                                                          
 INPUT CARD>                                                                                
 INPUT CARD> $system timlim=10000 mwords=20 $end                                            
 INPUT CARD> $SCF DIRSCF=.TRUE. $end                                                        
 INPUT CARD>                                                                                
 INPUT CARD>                                                                                
 INPUT CARD>! BASIS SETS                                                                    
 INPUT CARD>! 6-311G(d,p)                                                                   
 INPUT CARD> $BASIS GBASIS=N311 NGAUSS=6 NDFUNC=1 NPFUNC=1 $END                             
 INPUT CARD>                                                                                
 INPUT CARD>! One of the following                                                          
 INPUT CARD> $guess guess=HUCKEL $end                                                       
 INPUT CARD>                                                                                
 INPUT CARD> $statpt projct=.FALSE. $end                                                    
 INPUT CARD> $STATPT IFREEZ(1)=1,2,3 $END                                                   
 INPUT CARD>                                                                                
 INPUT CARD>! Optimize the geometry with COSMO effects                                      
 INPUT CARD> $statpt opttol=0.0005 nstep=50 $end                                            
 INPUT CARD> $contrl nzvar=1 $end                                                           
 INPUT CARD> $zmat dlc=.t. auto=.t. $end                                                    
 INPUT CARD> $contrl runtyp=OPTIMIZE maxit=200 $end                                         
 INPUT CARD>                                                                                
 INPUT CARD>! Run COSMO on perfect conductor                                                
 INPUT CARD> $COSGMS PRFCND=.TRUE. $end                                                     
 INPUT CARD>                                                                                
 INPUT CARD>! Specifying RSOLV                                                              
 INPUT CARD> $COSGMS COSRAD = 1.4 $end                                                      
 INPUT CARD>                                                                                
 INPUT CARD>! available memory                                                              
 INPUT CARD> $SYSTEM MWORDS=40 $END                                                         
 INPUT CARD>                                                                                
 INPUT CARD> $DATA                                                                          
 INPUT CARD>http://cactus.nci.nih.gov/chemical/structure/Isobutyraldehyde/file?format=sdf&ge
 INPUT CARD>C1                                                                              
 INPUT CARD>C      6.0      0.8971000000    0.0000000000   -0.4194000000                    
 INPUT CARD>C      6.0     -0.4107000000    0.0001000000    0.3294000000                    
 INPUT CARD>C      6.0     -1.2118000000    1.2492000000   -0.0434000000                    
 INPUT CARD>C      6.0     -1.2116000000   -1.2493000000   -0.0429000000                    
 INPUT CARD>O      8.0      1.9407000000    0.0002000000    0.1882000000                    
 INPUT CARD>H      1.0      0.9010000000   -0.0046000000   -1.4994000000                    
 INPUT CARD>H      1.0     -0.2155000000    0.0003000000    1.4017000000                    
 INPUT CARD>H      1.0     -1.4070000000    1.2490000000   -1.1157000000                    
 INPUT CARD>H      1.0     -2.1577000000    1.2493000000    0.4982000000                    
 INPUT CARD>H      1.0     -0.6412000000    2.1393000000    0.2219000000                    
 INPUT CARD>H      1.0     -0.6410000000   -2.1392000000    0.2226000000                    
 INPUT CARD>H      1.0     -2.1576000000   -1.2492000000    0.4986000000                    
   40000000 WORDS OF MEMORY AVAILABLE

     BASIS OPTIONS
     -------------
     GBASIS=N311         IGAUSS=       6      POLAR=POPN311 
     NDFUNC=       1     NFFUNC=       0     DIFFSP=       F
     NPFUNC=       1      DIFFS=       F     BASNAM=        


     RUN TITLE
     ---------
 http://cactus.nci.nih.gov/chemical/structure/Isobutyraldehyde/file?format=sdf&ge

 THE POINT GROUP OF THE MOLECULE IS C1      
 THE ORDER OF THE PRINCIPAL AXIS IS     0

 ATOM      ATOMIC                      COORDINATES (BOHR)
           CHARGE         X                   Y                   Z
 C           6.0     1.6952731836        0.0000000000       -0.7925510793
 C           6.0    -0.7761104632        0.0001889726        0.6224757404
 C           6.0    -2.2899699519        2.3606457039       -0.0820141079
 C           6.0    -2.2895920067       -2.3608346765       -0.0810692449
 O           8.0     3.6673912244        0.0003779452        0.3556464309
 H           1.0     1.7026431149       -0.0086927395       -2.8334551460
 H           1.0    -0.4072359504        0.0005669178        2.6488289170
 H           1.0    -2.6588444647        2.3602677587       -2.1083672845
 H           1.0    -4.0774617637        2.3608346765        0.9414614871
 H           1.0    -1.2116923033        4.0426908055        0.4193301967
 H           1.0    -1.2113143581       -4.0425018329        0.4206530049
 H           1.0    -4.0772727911       -2.3606457039        0.9422173775
 H           1.0    -2.6586554921       -2.3610236491       -2.1076113941

          INTERNUCLEAR DISTANCES (ANGS.)




     $CONTRL OPTIONS
     ---------------
 SCFTYP=RHF          RUNTYP=OPTIMIZE     EXETYP=RUN     
 MPLEVL=       0     CITYP =NONE         CCTYP =NONE         VBTYP =NONE    
 DFTTYP=NONE         TDDFT =NONE    
 MULT  =       1     ICHARG=       0     NZVAR =       1     COORD =UNIQUE  
 PP    =NONE         RELWFN=NONE         LOCAL =NONE         NUMGRD=       F
 ISPHER=      -1     NOSYM =       0     MAXIT =     200     UNITS =ANGS    
 PLTORB=       F     MOLPLT=       F     AIMPAC=       F     FRIEND=        
 NPRINT=       7     IREST =       0     GEOM  =INPUT   
 NORMF =       0     NORMP =       0     ITOL  =      20     ICUT  =       9
 INTTYP=BEST         GRDTYP=BEST         QMTTOL= 1.0E-06

     $SYSTEM OPTIONS
     ---------------
  REPLICATED MEMORY=    40000000 WORDS (ON EVERY NODE).
 DISTRIBUTED MEMDDI=           0 MILLION WORDS IN AGGREGATE,
 MEMDDI DISTRIBUTED OVER   1 PROCESSORS IS           0 WORDS/PROCESSOR.
 TOTAL MEMORY REQUESTED ON EACH PROCESSOR=    40000000 WORDS.
 TIMLIM=       10000.00 MINUTES, OR       6.9 DAYS.
 PARALL= F  BALTYP=  DLB     KDIAG=    0  COREFL= F
 MXSEQ2=     300 MXSEQ3=     150  mem10=         0

     $COSGMS OPTIONS
     ---------------
     EPSI  =   INFTY     NSPA  =      92     COSRAD=    1.40
     DISEX =   10.00     OUTCHG=DBLCAV       COSBUG=       F
     COSWRT=       F     DCOSMO=       F

     SYMMETRY COORDINATES WILL NOT BE USED FOR 
     THE COSMO CALCULATION, EVEN IF SPECIFIED:
         -- SWITCHING TO C1 POINT GROUP --


     DEFINITION OF CAVITY
     ---------------------------
     ATOM         COORDINATES           RADIUS 
     1    1.6953    0.0000   -0.7926    2.0000
     2   -0.7761    0.0002    0.6225    2.0000
     3   -2.2900    2.3606   -0.0820    2.0000
     4   -2.2896   -2.3608   -0.0811    2.0000
     5    3.6674    0.0004    0.3556    1.7200
     6    1.7026   -0.0087   -2.8335    1.3000
     7   -0.4072    0.0006    2.6488    1.3000
     8   -2.6588    2.3603   -2.1084    1.3000
     9   -4.0775    2.3608    0.9415    1.3000
    10   -1.2117    4.0427    0.4193    1.3000
    11   -1.2113   -4.0425    0.4207    1.3000
    12   -4.0773   -2.3606    0.9422    1.3000
    13   -2.6587   -2.3610   -2.1076    1.3000

          ----------------
          PROPERTIES INPUT
          ----------------

     MOMENTS            FIELD           POTENTIAL          DENSITY
 IEMOM =       1   IEFLD =       0   IEPOT =       0   IEDEN =       0
 WHERE =COMASS     WHERE =NUCLEI     WHERE =NUCLEI     WHERE =NUCLEI  
 OUTPUT=BOTH       OUTPUT=BOTH       OUTPUT=BOTH       OUTPUT=BOTH    
 IEMINT=       0   IEFINT=       0                     IEDINT=       0
                                                       MORB  =       0
          EXTRAPOLATION IN EFFECT
          SOSCF IN EFFECT
 ORBITAL PRINTING OPTION: NPREO=     1   143     2     1

     -------------------------------
     INTEGRAL TRANSFORMATION OPTIONS
     -------------------------------
     NWORD  =            0
     CUTOFF = 1.0E-09     MPTRAN =       0
     DIRTRF =       T     AOINTS =DUP     

          ----------------------
          INTEGRAL INPUT OPTIONS
          ----------------------
 NOPK  =       1 NORDER=       0 SCHWRZ=       T


 -----------------------------------------------
  STATISTICS ON AUTOMATIC COORDINATE GENERATION 
 -----------------------------------------------
  NUMBER OF USER SPECIFIED BONDS                             0
  NUMBER OF BONDS                                           12
  NUMBER OF ANGLES                                          21
  NUMBER OF TORSIONS                                        24
  NUMBER OF EXTRA COORD.                                     0
  NUMBER OF EXTRA COORD. FOR CONSTRAINTS                     0
  NUMBER OF CONSTRAINED COORD.                               0

  TOTAL NUMBER OF PRIMITIVES                                57
 -----------------------------------------------

   --- ENCODED Z MATRIX ---
 COORD  TYPE   I   J   K   L   M   N
    1      1    1   5
    2      1    1   2
    3      1    1   6
    4      1    2   4
    5      1    2   3
    6      1    2   7
    7      1    3   8
    8      1    3  10
    9      1    3   9
   10      1    4  13
   11      1    4  12
   12      1    4  11
   13      2    1   2   3
   14      2    1   2   4
   15      2    1   2   7
   16      2    2   3   8
   17      2    2   1   6
   18      2    2   3  10
   19      2    2   1   5
   20      2    2   4  13
   21      2    2   4  12
   22      2    2   4  11
   23      2    2   3   9
   24      2    3   2   4
   25      2    3   2   7
   26      2    4   2   7
   27      2    5   1   6
   28      2    8   3   9
   29      2    8   3  10
   30      2    9   3  10
   31      2   11   4  12
   32      2   11   4  13
   33      2   12   4  13
   34      3    1   2   3   8
   35      3    1   2   4  11
   36      3    1   2   3   9
   37      3    1   2   4  12
   38      3    1   2   3  10
   39      3    1   2   4  13
   40      3    3   2   4  12
   41      3    3   2   4  13
   42      3    3   2   1   6
   43      3    3   2   4  11
   44      3    3   2   1   5
   45      3    4   2   1   6
   46      3    4   2   3   8
   47      3    4   2   1   5
   48      3    4   2   3  10
   49      3    4   2   3   9
   50      3    5   1   2   7
   51      3    6   1   2   7
   52      3    7   2   4  12
   53      3    7   2   3   8
   54      3    7   2   4  13
   55      3    7   2   3  10
   56      3    7   2   3   9
   57      3    7   2   4  11

          INDEP./SYM. INTERNAL COORDINATES
          --------------------------------
 CRD  1=   0.1425 (  2) -0.1377 (  4) -0.1382 (  5)  0.2572 ( 13)  0.2586 ( 14)
          -0.2062 ( 15)  0.1113 ( 17)  0.1550 ( 18) -0.1764 ( 21)  0.1554 ( 22)
          -0.1761 ( 23) -0.5779 ( 24)  0.1344 ( 25)  0.1339 ( 26)  0.1043 ( 34)
          -0.1040 ( 39)  0.1087 ( 40)  0.1960 ( 42)  0.1958 ( 44) -0.1959 ( 45)
          -0.1962 ( 47) -0.1091 ( 49)
 CRD  2=  -0.2163 (  4)  0.2153 (  5)  0.4643 ( 13) -0.4637 ( 14)  0.1231 ( 16)
           0.1267 ( 18) -0.1239 ( 20) -0.1260 ( 22) -0.1785 ( 25)  0.1791 ( 26)
          -0.1123 ( 34) -0.1807 ( 35) -0.1428 ( 36) -0.1425 ( 37) -0.1808 ( 38)
          -0.1124 ( 39)  0.1416 ( 40)  0.1717 ( 41)  0.1034 ( 43)  0.1067 ( 44)
           0.1719 ( 46)  0.1058 ( 47)  0.1035 ( 48)  0.1414 ( 49) -0.1304 ( 51)
 CRD  3=  -0.2739 (  2) -0.3484 (  4) -0.3494 (  5) -0.1062 ( 13) -0.1051 ( 14)
           0.1271 ( 15) -0.3009 ( 16) -0.3393 ( 17)  0.2305 ( 19) -0.3004 ( 20)
           0.1089 ( 27)  0.1051 ( 28)  0.1283 ( 29)  0.1280 ( 32)  0.1049 ( 33)
          -0.1315 ( 34) -0.1575 ( 36)  0.1578 ( 37)  0.1317 ( 39) -0.1347 ( 43)
           0.1344 ( 48)
 CRD  4=   0.1222 (  1)  0.2773 (  2)  0.3381 (  4)  0.3375 (  5)  0.1048 (  6)
          -0.1699 ( 16) -0.2366 ( 17)  0.2786 ( 18)  0.3970 ( 19) -0.1700 ( 20)
           0.1845 ( 21)  0.2788 ( 22)  0.1843 ( 23) -0.1604 ( 27) -0.1829 ( 30)
          -0.1831 ( 31)
 CRD  5=  -0.1149 (  1) -0.3413 (  2)  0.1175 (  4)  0.1241 (  5) -0.1476 ( 15)
          -0.2451 ( 16)  0.2587 ( 17)  0.1649 ( 18) -0.4646 ( 19) -0.2420 ( 20)
           0.1872 ( 21)  0.1625 ( 22)  0.1941 ( 23)  0.2059 ( 27) -0.1235 ( 30)
          -0.1201 ( 31) -0.1432 ( 35)  0.1428 ( 38) -0.1091 ( 40) -0.1241 ( 41)
          -0.1762 ( 43)  0.1222 ( 46)  0.1753 ( 48)  0.1068 ( 49)
 CRD  6=   0.3585 (  4) -0.3559 (  5)  0.1531 ( 16) -0.1565 ( 20)  0.4016 ( 21)
          -0.3992 ( 23) -0.1831 ( 25)  0.1849 ( 26)  0.1371 ( 28)  0.1816 ( 30)
          -0.1836 ( 31) -0.1368 ( 33)  0.1200 ( 40)  0.1025 ( 41) -0.1148 ( 42)
          -0.1485 ( 44) -0.1150 ( 45)  0.1049 ( 46) -0.1487 ( 47)  0.1221 ( 49)
 CRD  7=  -0.4422 (  2) -0.1166 (  3)  0.1122 (  4)  0.1105 (  5) -0.1096 (  9)
          -0.1095 ( 11)  0.1539 ( 16) -0.2601 ( 17)  0.3113 ( 18)  0.1610 ( 20)
          -0.3607 ( 21)  0.3058 ( 22) -0.3608 ( 23)  0.2227 ( 27) -0.1906 ( 29)
          -0.1913 ( 32)
 CRD  8=   0.1400 (  4) -0.1417 (  5)  0.1099 (  8) -0.1112 ( 12) -0.4072 ( 16)
           0.4295 ( 18)  0.4054 ( 20)  0.1617 ( 21) -0.4339 ( 22) -0.1568 ( 23)
           0.2230 ( 28) -0.2241 ( 33)
 CRD  9=  -0.1941 (  4)  0.1935 (  5)  0.1388 (  7) -0.1445 (  9) -0.1393 ( 10)
           0.1441 ( 11) -0.1536 ( 13)  0.1529 ( 14)  0.3058 ( 16)  0.2129 ( 18)
          -0.3067 ( 20)  0.3155 ( 21) -0.2107 ( 22) -0.3174 ( 23)  0.2007 ( 25)
          -0.2015 ( 26) -0.2405 ( 29)  0.2401 ( 32) -0.1042 ( 40)  0.1267 ( 42)
           0.1011 ( 44)  0.1271 ( 45)  0.1015 ( 47) -0.1048 ( 49)
 CRD 10=  -0.1945 (  1)  0.2572 (  2)  0.2814 (  3) -0.1104 (  4) -0.1117 (  5)
          -0.1059 (  7)  0.1128 (  8) -0.1049 ( 10)  0.1129 ( 12)  0.2176 ( 15)
          -0.2188 ( 16)  0.2987 ( 17)  0.2483 ( 18) -0.1668 ( 19) -0.2172 ( 20)
          -0.1561 ( 21)  0.2495 ( 22) -0.1546 ( 23)  0.1972 ( 24) -0.1310 ( 25)
          -0.1291 ( 26) -0.1319 ( 27)  0.1762 ( 28)  0.1760 ( 33)  0.1168 ( 35)
          -0.1057 ( 36)  0.1063 ( 37) -0.1164 ( 38)
 CRD 11=   0.2225 (  1) -0.2180 (  3) -0.7625 (  6)  0.1033 (  8)  0.1091 (  9)
           0.1098 ( 11)  0.1003 ( 12) -0.1524 ( 16) -0.1500 ( 17)  0.1024 ( 19)
          -0.1517 ( 20)  0.1082 ( 36) -0.1148 ( 37) -0.1009 ( 39)
 CRD 12=  -0.1321 (  7) -0.1213 (  8)  0.1309 ( 10)  0.1248 ( 12)  0.2242 ( 34)
           0.2012 ( 35)  0.2157 ( 36)  0.2120 ( 37)  0.2042 ( 38)  0.2210 ( 39)
           0.1939 ( 40)  0.2028 ( 41)  0.2071 ( 42)  0.1830 ( 43)  0.1012 ( 44)
           0.2095 ( 45)  0.2011 ( 46)  0.1036 ( 47)  0.1811 ( 48)  0.1927 ( 49)
           0.1361 ( 50)  0.2421 ( 51)  0.1865 ( 52)  0.1953 ( 53)  0.1955 ( 54)
           0.1753 ( 55)  0.1869 ( 56)  0.1757 ( 57)
 CRD 13=   0.3565 (  7)  0.2122 (  8)  0.3074 (  9) -0.3568 ( 10) -0.3070 ( 11)
          -0.2122 ( 12) -0.1058 ( 16) -0.1797 ( 18)  0.1055 ( 20)  0.1137 ( 21)
           0.1798 ( 22) -0.1135 ( 23)  0.1463 ( 29)  0.1591 ( 30) -0.1593 ( 31)
          -0.1461 ( 32)  0.1830 ( 42)  0.2356 ( 44)  0.1832 ( 45)  0.2357 ( 47)
           0.1665 ( 50)  0.1140 ( 51)
 CRD 14=   0.4686 (  1)  0.5330 (  3) -0.1560 (  7) -0.1396 (  8) -0.1547 ( 10)
          -0.1379 ( 12) -0.2421 ( 17) -0.2089 ( 19)  0.4511 ( 27)
 CRD 15=  -0.2382 (  1) -0.2178 (  3) -0.1154 (  4) -0.1153 (  5) -0.1621 (  6)
          -0.3448 (  7) -0.3230 (  8) -0.3050 (  9) -0.3450 ( 10) -0.3050 ( 11)
          -0.3234 ( 12)  0.1004 ( 16)  0.1127 ( 18)  0.1004 ( 20)  0.1300 ( 21)
           0.1127 ( 22)  0.1300 ( 23) -0.1636 ( 27) -0.1151 ( 28) -0.1025 ( 29)
          -0.1254 ( 30) -0.1254 ( 31) -0.1026 ( 32) -0.1152 ( 33)
 CRD 16=   0.2080 (  4) -0.2078 (  5) -0.3066 (  8) -0.2371 (  9)  0.2373 ( 11)
           0.3067 ( 12) -0.1118 ( 35) -0.1154 ( 36) -0.1149 ( 37) -0.1124 ( 38)
           0.1888 ( 42)  0.3431 ( 44)  0.1887 ( 45)  0.3430 ( 47)  0.3253 ( 50)
           0.1710 ( 51)
 CRD 17=  -0.2794 (  1) -0.1682 (  2) -0.2806 (  7)  0.2174 (  8)  0.2424 (  9)
          -0.2818 ( 10)  0.2442 ( 11)  0.2163 ( 12) -0.1092 ( 24) -0.1619 ( 28)
           0.1202 ( 30)  0.1209 ( 31) -0.1615 ( 33) -0.2094 ( 36)  0.2097 ( 37)
           0.2232 ( 40)  0.1005 ( 41) -0.2229 ( 49)  0.2215 ( 52) -0.2212 ( 56)
 CRD 18=  -0.4011 (  8)  0.3746 (  9) -0.3835 ( 11)  0.4107 ( 12)  0.2090 ( 28)
          -0.1998 ( 29)  0.2042 ( 32) -0.2141 ( 33) -0.1544 ( 34) -0.1579 ( 39)
          -0.1654 ( 41) -0.1619 ( 46) -0.1641 ( 53) -0.1680 ( 54)
 CRD 19=  -0.3735 (  8)  0.4291 (  9)  0.4206 ( 11) -0.3639 ( 12)  0.1917 ( 28)
          -0.2133 ( 29) -0.2088 ( 32)  0.1868 ( 33) -0.1555 ( 34)  0.1519 ( 39)
           0.1446 ( 41) -0.1484 ( 46) -0.1697 ( 53)  0.1658 ( 54)
 CRD 20=   0.4472 (  7) -0.1750 (  8) -0.2117 (  9) -0.4454 ( 10)  0.2106 ( 11)
           0.1743 ( 12)  0.1201 ( 28)  0.1193 ( 29) -0.2568 ( 30)  0.2557 ( 31)
          -0.1187 ( 32) -0.1197 ( 33) -0.1027 ( 35)  0.1592 ( 36)  0.1585 ( 37)
          -0.1031 ( 38)  0.1590 ( 40) -0.1022 ( 43) -0.1028 ( 48)  0.1594 ( 49)
           0.1458 ( 52) -0.1160 ( 55)  0.1463 ( 56) -0.1154 ( 57)
 CRD 21=   0.2366 (  1)  0.1442 (  2) -0.3392 (  7)  0.1491 (  8) -0.3406 ( 10)
           0.1486 ( 12) -0.1102 ( 21) -0.1099 ( 23) -0.1389 ( 29)  0.2234 ( 30)
           0.2241 ( 31) -0.1399 ( 32) -0.2228 ( 35)  0.2221 ( 38) -0.1378 ( 41)
          -0.2702 ( 43)  0.1382 ( 46)  0.2696 ( 48)  0.1084 ( 53) -0.1080 ( 54)
           0.2398 ( 55) -0.2404 ( 57)
 CRD 22=  -0.2744 (  1)  0.5128 (  3) -0.4514 (  6)  0.2296 (  7)  0.2308 ( 10)
           0.1634 ( 16)  0.1400 ( 19)  0.1651 ( 20) -0.1448 ( 27) -0.1597 ( 28)
          -0.1543 ( 29) -0.1563 ( 32) -0.1608 ( 33) -0.1266 ( 43)  0.1269 ( 48)
 CRD 23=  -0.1539 (  4)  0.1544 (  5) -0.1389 (  7) -0.2222 (  8) -0.1420 (  9)
           0.1367 ( 10)  0.1427 ( 11)  0.2220 ( 12) -0.1618 ( 16) -0.1962 ( 18)
           0.1606 ( 20)  0.1597 ( 21)  0.1959 ( 22) -0.1598 ( 23)  0.1999 ( 25)
          -0.2013 ( 26)  0.1287 ( 28)  0.1929 ( 29)  0.1962 ( 30) -0.1970 ( 31)
          -0.1913 ( 32) -0.1278 ( 33) -0.1058 ( 42) -0.1051 ( 45) -0.1899 ( 50)
          -0.3704 ( 51)  0.1169 ( 52)  0.1585 ( 53)  0.1565 ( 54)  0.1414 ( 55)
           0.1191 ( 56)  0.1405 ( 57)
 CRD 24=   0.3231 (  1) -0.2979 (  2)  0.3280 (  3)  0.1193 (  4)  0.1230 (  5)
          -0.1518 (  9) -0.1495 ( 11) -0.1590 ( 15)  0.2289 ( 17)  0.2077 ( 19)
          -0.1099 ( 21) -0.1126 ( 23) -0.4366 ( 27)  0.1218 ( 28)  0.1162 ( 30)
           0.1131 ( 31)  0.1195 ( 33)  0.1636 ( 52) -0.1909 ( 53)  0.1923 ( 54)
          -0.1392 ( 55) -0.1629 ( 56)  0.1403 ( 57)
 CRD 25=   0.4576 (  1) -0.2190 (  2) -0.1683 (  3) -0.3165 (  4) -0.3127 (  5)
           0.1750 (  6)  0.1601 (  8)  0.1538 (  9)  0.1553 ( 11)  0.1614 ( 12)
           0.1217 ( 16)  0.2220 ( 17)  0.1566 ( 18)  0.1233 ( 20)  0.1498 ( 21)
           0.1583 ( 22)  0.1480 ( 23) -0.2101 ( 27) -0.1184 ( 28) -0.1223 ( 29)
          -0.1857 ( 30) -0.1872 ( 31) -0.1240 ( 32) -0.1202 ( 33)
 CRD 26=   0.3405 (  4) -0.3437 (  5)  0.1223 (  7)  0.1124 (  9) -0.1227 ( 10)
          -0.1119 ( 11)  0.1056 ( 16) -0.1049 ( 20) -0.1088 ( 21)  0.1098 ( 23)
           0.1381 ( 25) -0.1377 ( 26) -0.1467 ( 28)  0.1469 ( 33) -0.2863 ( 42)
           0.2383 ( 44) -0.2858 ( 45)  0.2388 ( 47) -0.4372 ( 51)  0.1162 ( 53)
           0.1182 ( 54)  0.1005 ( 57)
 CRD 27=   0.1278 (  1)  0.3493 (  2) -0.3116 (  3) -0.2261 (  6)  0.2046 (  7)
          -0.2001 (  9)  0.2047 ( 10) -0.2002 ( 11) -0.2170 ( 19)  0.1251 ( 27)
          -0.1690 ( 29)  0.1488 ( 30)  0.1491 ( 31) -0.1689 ( 32) -0.1814 ( 34)
          -0.1785 ( 36)  0.1787 ( 37)  0.1813 ( 39) -0.1402 ( 43)  0.1400 ( 48)
           0.2012 ( 52) -0.2037 ( 53)  0.2039 ( 54) -0.2007 ( 56)
 CRD 28=  -0.2199 (  1)  0.1814 (  2)  0.1380 (  3) -0.1637 (  4) -0.1620 (  5)
           0.1257 (  6)  0.2823 (  8) -0.1169 (  9) -0.1162 ( 11)  0.2819 ( 12)
          -0.2291 ( 15) -0.1893 ( 17)  0.1223 ( 19)  0.1750 ( 28) -0.1370 ( 29)
          -0.1211 ( 30) -0.1213 ( 31) -0.1369 ( 32)  0.1742 ( 33)  0.2301 ( 36)
          -0.2297 ( 37) -0.1370 ( 40)  0.1445 ( 41) -0.1449 ( 46)  0.1372 ( 49)
          -0.2492 ( 53)  0.2481 ( 54)
 CRD 29=   0.1340 (  4) -0.1341 (  5)  0.1294 (  7) -0.2529 (  8)  0.1745 (  9)
          -0.1296 ( 10) -0.1750 ( 11)  0.2535 ( 12)  0.1140 ( 18) -0.1143 ( 22)
          -0.2324 ( 28)  0.1031 ( 29) -0.1034 ( 32)  0.2329 ( 33)  0.1266 ( 34)
          -0.1899 ( 36) -0.1903 ( 37)  0.1269 ( 39) -0.1562 ( 40)  0.1609 ( 41)
           0.1597 ( 42) -0.2207 ( 44)  0.1596 ( 45)  0.1605 ( 46) -0.2207 ( 47)
          -0.1560 ( 49) -0.3052 ( 50) -0.1310 ( 52)  0.1858 ( 53)  0.1862 ( 54)
          -0.1307 ( 56)
 CRD 30=   0.2685 (  7) -0.2574 (  9) -0.2684 ( 10)  0.2573 ( 11)  0.1025 ( 13)
          -0.1025 ( 14) -0.1111 ( 16)  0.1110 ( 20) -0.1233 ( 21)  0.1234 ( 23)
          -0.2070 ( 29)  0.2019 ( 30) -0.2018 ( 31)  0.2070 ( 32)  0.2219 ( 35)
          -0.1009 ( 36) -0.1008 ( 37)  0.2219 ( 38)  0.2847 ( 43)  0.2846 ( 48)
           0.2461 ( 55)  0.2461 ( 57)
 CRD 31=  -0.2500 (  4)  0.2490 (  5) -0.1525 (  8)  0.1515 ( 12) -0.1623 ( 13)
           0.1622 ( 14) -0.1903 ( 25)  0.1903 ( 26)  0.1959 ( 34)  0.1219 ( 35)
           0.1226 ( 38)  0.1945 ( 39) -0.1016 ( 40) -0.3080 ( 42) -0.3072 ( 45)
          -0.1025 ( 49)  0.3940 ( 50) -0.2177 ( 52) -0.2195 ( 56)
 CRD 32=   0.1003 (  1) -0.2309 (  2)  0.1723 (  4)  0.1736 (  5) -0.1108 (  6)
           0.1408 (  8) -0.1230 (  9) -0.1231 ( 11)  0.1416 ( 12)  0.2424 ( 15)
           0.1280 ( 17) -0.1583 ( 18) -0.1588 ( 22) -0.2378 ( 24)  0.1315 ( 28)
           0.1319 ( 33) -0.2432 ( 34)  0.2442 ( 39)  0.1806 ( 41)  0.1168 ( 42)
           0.1185 ( 44) -0.1197 ( 45) -0.1801 ( 46) -0.1179 ( 47) -0.2845 ( 52)
           0.2227 ( 55)  0.2835 ( 56) -0.2231 ( 57)
 CRD 33=   0.1786 (  2) -0.2398 (  6) -0.1672 (  7)  0.1244 (  9) -0.1674 ( 10)
           0.1244 ( 11) -0.1418 ( 13) -0.1417 ( 14)  0.1528 ( 16) -0.1078 ( 19)
           0.1530 ( 20) -0.1244 ( 21) -0.1245 ( 23)  0.1559 ( 25)  0.1561 ( 26)
          -0.1233 ( 30) -0.1234 ( 31)  0.2536 ( 35) -0.2533 ( 38) -0.2890 ( 40)
          -0.2322 ( 41)  0.1190 ( 42)  0.1197 ( 44) -0.1203 ( 45)  0.2323 ( 46)
          -0.1196 ( 47)  0.2889 ( 49) -0.2139 ( 55)  0.2139 ( 57)

 THE DETERMINANT OF THE G MATRIX IS 10**(   -11)


                     --------------------
                     INTERNAL COORDINATES
                     --------------------

                 - - ATOMS - -         COORDINATE      COORDINATE
 NO.   TYPE    I  J  K  L  M  N        (BOHR,RAD)       (ANG,DEG)
 ----------------------------------------------------------------
   1 STRETCH   1  5                     2.2820182       1.2075921
   2 STRETCH   1  2                     2.8478129       1.5069978
   3 STRETCH   1  6                     2.0409359       1.0800168
   4 STRETCH   2  4                     2.8913724       1.5300485
   5 STRETCH   2  3                     2.8913375       1.5300300
   6 STRETCH   2  7                     2.0596543       1.0899222
   7 STRETCH   3  8                     2.0596543       1.0899222
   8 STRETCH   3 10                     2.0599283       1.0900672
   9 STRETCH   3  9                     2.0597644       1.0899804
  10 STRETCH   4 13                     2.0598740       1.0900385
  11 STRETCH   4 12                     2.0598345       1.0900176
  12 STRETCH   4 11                     2.0597117       1.0899526
  13 BEND      1  2  3                  1.9106640     109.4729840
  14 BEND      1  2  4                  1.9105967     109.4691281
  15 BEND      1  2  7                  1.9107316     109.4768544
  16 BEND      2  3  8                  1.9106378     109.4714801
  17 BEND      2  1  6                  2.0944046     120.0005445
  18 BEND      2  3 10                  1.9105488     109.4663833
  19 BEND      2  1  5                  2.0943506     119.9974498
  20 BEND      2  4 13                  1.9105429     109.4660460
  21 BEND      2  4 12                  1.9106329     109.4711999
  22 BEND      2  4 11                  1.9107022     109.4751719
  23 BEND      2  3  9                  1.9106816     109.4739895
  24 BEND      3  2  4                  1.9105839     109.4683926
  25 BEND      3  2  7                  1.9106378     109.4714801
  26 BEND      4  2  7                  1.9105855     109.4684842
  27 BEND      5  1  6                  2.0944207     120.0014691
  28 BEND      8  3  9                  1.9107404     109.4773625
  29 BEND      8  3 10                  1.9106429     109.4717762
  30 BEND      9  3 10                  1.9105479     109.4663316
  31 BEND     11  4 12                  1.9107099     109.4756126
  32 BEND     11  4 13                  1.9106701     109.4733337
  33 BEND     12  4 13                  1.9105414     109.4659588
  34 TORSION   1  2  3  8               1.0470555      59.9918610
  35 TORSION   1  2  4 11               1.0471820      59.9991080
  36 TORSION   1  2  3  9              -3.1415710    -179.9987618
  37 TORSION   1  2  4 12              -3.1414723    -179.9931055
  38 TORSION   1  2  3 10              -1.0473026     -60.0060162
  39 TORSION   1  2  4 13              -1.0472452     -60.0027306
  40 TORSION   3  2  4 12              -1.0470921     -59.9939589
  41 TORSION   3  2  4 13               1.0471350      59.9964160
  42 TORSION   3  2  1  6              -1.0518216     -60.2649380
  43 TORSION   3  2  4 11               3.1415622     179.9982546
  44 TORSION   3  2  1  5               2.0944213     120.0015037
  45 TORSION   4  2  1  6               1.0425095      59.7313968
  46 TORSION   4  2  3  8              -1.0472835     -60.0049242
  47 TORSION   4  2  1  5              -2.0944328    -120.0021616
  48 TORSION   4  2  3 10               3.1415438     179.9971986
  49 TORSION   4  2  3  9               1.0472753      60.0044530
  50 TORSION   5  1  2  7              -0.0000584      -0.0033446
  51 TORSION   6  1  2  7               3.1368840     179.7302138
  52 TORSION   7  2  4 12               1.0472491      60.0029517
  53 TORSION   7  2  3  8               3.1415927     180.0000000
  54 TORSION   7  2  4 13               3.1414762     179.9933266
  55 TORSION   7  2  3 10               1.0472346      60.0021228
  56 TORSION   7  2  3  9              -1.0470339     -59.9906228
  57 TORSION   7  2  4 11              -1.0472819     -60.0048348

     ------------------------------------------
     THE POINT GROUP IS C1 , NAXIS= 1, ORDER= 1
     ------------------------------------------

     DIMENSIONS OF THE SYMMETRY SUBSPACES ARE
 A   =  143

 ..... DONE SETTING UP THE RUN .....
 STEP CPU TIME =     0.01 TOTAL CPU TIME =        0.0 (    0.0 MIN)
 TOTAL WALL CLOCK TIME=        0.0 SECONDS, CPU UTILIZATION IS  50.00%


          -----------------------------
          STATIONARY POINT LOCATION RUN
          -----------------------------

 OBTAINING INITIAL HESSIAN, HESS=GUESS   
 DIAGONAL GUESS HESSIAN IN INTERNAL COORDS IS
     1  0.5549     2  0.3840     3  0.3532     4  0.3671     5  0.3671
     6  0.3464     7  0.3464     8  0.3463     9  0.3464    10  0.3463
    11  0.3464    12  0.3464    13  0.2501    14  0.2501    15  0.2255
    16  0.2241    17  0.2261    18  0.2241    19  0.2605    20  0.2241
    21  0.2241    22  0.2241    23  0.2241    24  0.2485    25  0.2241
    26  0.2241    27  0.2334    28  0.2034    29  0.2034    30  0.2034
    31  0.2034    32  0.2034    33  0.2034    34  0.2500    35  0.2500
    36  0.2500    37  0.2500    38  0.2500    39  0.2500    40  0.2500
    41  0.2500    42  0.2500    43  0.2500    44  0.2500    45  0.2500
    46  0.2500    47  0.2500    48  0.2500    49  0.2500    50  0.2500
    51  0.2500    52  0.2500    53  0.2500    54  0.2500    55  0.2500
    56  0.2500    57  0.2500
 TRANSFORMING HESSIAN TO SYMMETRY COORDINATES

          PARAMETERS CONTROLLING GEOMETRY SEARCH ARE
          METHOD =QA                  UPHESS =BFGS    
          NNEG   =         0          NFRZ   =         3
          NSTEP  =        50          IFOLOW =         1
          HESS   =GUESS               RESTAR =         F
          IHREP  =         0          HSSEND =         F
          NPRT   =         0          NPUN   =         0
          OPTTOL = 5.000E-04          RMIN   = 1.500E-03
          RMAX   = 1.000E-01          RLIM   = 7.000E-02
          DXMAX  = 3.000E-01          PURIFY =         F
          MOVIE  =         F          TRUPD  =         T
          TRMAX  = 5.000E-01          TRMIN  = 5.000E-02
          ITBMAT =         5          STPT   =         F
          STSTEP = 1.000E-02          PROJCT=          F
          FROZEN COORD(S)=   1   2   3


      ***** EQUILIBRIUM GEOMETRY LOCATED *****
            (SUBJECT TO   3 CONSTRAINT(S))
 COORDINATES OF ALL ATOMS ARE (ANGS)
   ATOM   CHARGE       X              Y              Z
 ------------------------------------------------------------
 C           6.0   0.9033901356  -0.0009559491  -0.3762702736
 C           6.0  -0.4239694069   0.0000620640   0.3334337405
 C           6.0  -1.2166109959   1.2550887552  -0.0491362862
 C           6.0  -1.2165839900  -1.2549866418  -0.0488376747
 O           8.0   1.9653817933   0.0007013906   0.1648999265
 H           1.0   0.8503577308  -0.0036729441  -1.4708677184
 H           1.0  -0.2187804981   0.0003805147   1.3988232128
 H           1.0  -1.4200517246   1.2645943248  -1.1166459365
 H           1.0  -2.1676876026   1.2521798872   0.4726703332
 H           1.0  -0.6872538096   2.1660312183   0.2095227479
 H           1.0  -0.6871361873  -2.1657348509   0.2102255536
 H           1.0  -2.1678611013  -1.2521686680   0.4725468901
 H           1.0  -1.4194764656  -1.2646394223  -1.1164535853


                     --------------------
                     INTERNAL COORDINATES
                     --------------------

                 - - ATOMS - -         COORDINATE      COORDINATE
 NO.   TYPE    I  J  K  L  M  N        (BOHR,RAD)       (ANG,DEG)
 ----------------------------------------------------------------
   1 STRETCH   1  5                     2.2524188       1.1919288
   2 STRETCH   1  2                     2.8443761       1.5051791
   3 STRETCH   1  6                     2.0709219       1.0958847
   4 STRETCH   2  4                     2.8965971       1.5328133
   5 STRETCH   2  3                     2.8967302       1.5328837
   6 STRETCH   2  7                     2.0502938       1.0849688
   7 STRETCH   3  8                     2.0536856       1.0867637
   8 STRETCH   3 10                     2.0501042       1.0848685
   9 STRETCH   3  9                     2.0500151       1.0848213
  10 STRETCH   4 13                     2.0536916       1.0867669
  11 STRETCH   4 12                     2.0499633       1.0847940
  12 STRETCH   4 11                     2.0500618       1.0848461
  13 BEND      1  2  3                  1.9165229     109.8086710
  14 BEND      1  2  4                  1.9154435     109.7468303
  15 BEND      1  2  7                  1.8715311     107.2308313
  16 BEND      2  3  8                  1.9274216     110.4331204
  17 BEND      2  1  6                  2.0133854     115.3584856
  18 BEND      2  3 10                  1.9559034     112.0650119
  19 BEND      2  1  5                  2.1793080     124.8651478
  20 BEND      2  4 13                  1.9270960     110.4144678
  21 BEND      2  4 12                  1.9086481     109.3574796
  22 BEND      2  4 11                  1.9556978     112.0532294
  23 BEND      2  3  9                  1.9082634     109.3354363
  24 BEND      3  2  4                  1.9185019     109.9220610
  25 BEND      3  2  7                  1.9205043     110.0367892
  26 BEND      4  2  7                  1.9208255     110.0551936
  27 BEND      5  1  6                  2.0904919     119.7763649
  28 BEND      8  3  9                  1.8842954     107.9621728
  29 BEND      8  3 10                  1.8946251     108.5540194
  30 BEND      9  3 10                  1.8916283     108.3823167
  31 BEND     11  4 12                  1.8916502     108.3835714
  32 BEND     11  4 13                  1.8946802     108.5571773
  33 BEND     12  4 13                  1.8843785     107.9669376
  34 TORSION   1  2  3  8               1.0789266      61.8179422
  35 TORSION   1  2  4 11               1.0351826      59.3115951
  36 TORSION   1  2  3  9              -3.1333855    -179.5297675
  37 TORSION   1  2  4 12               3.1330273     179.5092403
  38 TORSION   1  2  3 10              -1.0356953     -59.3409710
  39 TORSION   1  2  4 13              -1.0791424     -61.8303031
  40 TORSION   3  2  4 12              -1.0405986     -59.6219060
  41 TORSION   3  2  4 13               1.0304171      59.0385506
  42 TORSION   3  2  1  6              -1.0575932     -60.5956280
  43 TORSION   3  2  4 11              -3.1384432    -179.8195513
  44 TORSION   3  2  1  5               2.0842566     119.4191092
  45 TORSION   4  2  1  6               1.0531608      60.3416717
  46 TORSION   4  2  3  8              -1.0299831     -59.0136830
  47 TORSION   4  2  1  5              -2.0881746    -119.6435911
  48 TORSION   4  2  3 10               3.1385803     179.8274038
  49 TORSION   4  2  3  9               1.0408901      59.6386074
  50 TORSION   5  1  2  7              -0.0020683      -0.1185066
  51 TORSION   6  1  2  7               3.1392671     179.8667563
  52 TORSION   7  2  4 12               1.0773604      61.7282061
  53 TORSION   7  2  3  8               3.1350509     179.6251841
  54 TORSION   7  2  4 13              -3.1348092    -179.6113373
  55 TORSION   7  2  3 10               1.0204289      58.4662709
  56 TORSION   7  2  3  9              -1.0772613     -61.7225255
  57 TORSION   7  2  4 11              -1.0204842     -58.4694392

          INTERNUCLEAR DISTANCES (ANGS.)


 =====================================================
   GAMESS/COSab RESULTS
 =====================================================

   Dielectric Constant                  = INFTY
   Basic Grid Size                      =                 1082
   Number of Segments                   =                   92
   Number of Segments located on spheres=                  212
   Number of Segments of the cavity     =                  471
   Solvent Radius (rsolv)               = 1.40
   Outlying Charge Error Method         = double cavity

 =====================================================

  Total solvated Energy (a.u.)          =  -231.0562188252
  Total Energy corrected (a.u.)         =  -231.0558246479

  Outlying charge effect (a.u.)         =     0.0003941773
  Outlying charge effect (kcal/mol)     =     0.2473501715

  Dielectric Energy (a.u.)              =    -0.0122728416
  Dielectric energy corr. (a.u.)        =    -0.0118786644

  Sum of polarization charges           =     0.0194900545
  Sum of polarization charges(cor.)     =    -0.0194900545

  Total surface area of cavity (A**2)   =  119.66
  Total volume of cavity (A**3)         =  107.38

 =====================================================
 NPS=                   471
NR.  ATOM  (X, Y, Z)(a.u.)                  CHARGE(e)  AREA(A**2) SIGMA(e/A**2)
   1   1   3.749437   2.650930  -2.465007  -0.000241   0.278737  -0.000865
   2   1   4.333002  -1.391175  -3.047488   0.000046   0.185824   0.000246
   3   1   2.257214  -3.337381  -2.400934  -0.000984   0.185824  -0.005294
   4   1   1.836850  -2.914933  -3.115462  -0.001415   0.232280  -0.006091
   5   1   4.167593  -0.930018  -3.425646  -0.000702   0.232280  -0.003024
   6   1   3.435667   2.124601  -3.313922  -0.001357   0.418105  -0.003247
   7   1   2.826225  -3.442919   0.380157  -0.000066   0.092912  -0.000709
   8   1   2.635231   3.094231  -2.670002  -0.002193   0.418105  -0.005246
   9   1   4.272269   1.641961  -2.947687  -0.000147   0.232280  -0.000635
  10   1   4.472042   0.085485  -3.286343   0.000015   0.185824   0.000082
  11   1   3.843333  -2.283773  -2.835604  -0.000625   0.418105  -0.001494
  12   1   2.924526  -2.980046  -2.694090  -0.000984   0.232280  -0.004235
  13   1   2.927646   3.572408  -0.570945  -0.000164   0.185824  -0.000884
  14   1   3.336511   3.301303  -1.558949  -0.000668   0.325193  -0.002054
  15   1   3.036962  -3.539362  -0.670540  -0.000469   0.232280  -0.002021
  16   1   2.603056  -3.588105  -1.498548  -0.001367   0.232280  -0.005887
  17   1   2.920123  -2.417210  -3.352808  -0.001179   0.278737  -0.004231
  18   1   4.177384   0.847976  -3.442382  -0.000229   0.139368  -0.001644
  19   1   1.903654   2.809140  -3.229825  -0.001228   0.278737  -0.004404
  20   1   2.524144   3.547268  -1.721418  -0.001769   0.232280  -0.007614
  21   1   3.409410  -3.187569  -1.823522  -0.000679   0.371649  -0.001828
  22   2   0.853401  -2.336950   3.096825  -0.000068   0.046456  -0.001456
  23   2  -2.915662   0.306122   3.747721  -0.000141   0.139368  -0.001009
  24   2   0.807017  -2.636763   2.808363  -0.000149   0.046456  -0.003198
  25   2   1.086810   2.596632   2.624536  -0.000152   0.046456  -0.003265
  26   2   0.722553   2.436784   3.084700  -0.000216   0.092912  -0.002326
  27   2  -2.918950  -0.255251   3.750048  -0.000045   0.046456  -0.000961
  28   3  -3.912848   5.274577   1.710939   0.001633   0.418105   0.003905
  29   3  -5.707210   3.472529  -1.299972   0.001359   0.418105   0.003249
  30   3  -2.507026   5.789893  -1.692042   0.000902   0.371649   0.002426
  31   3  -0.974285   3.710731   3.183792   0.000305   0.278737   0.001094
  32   3  -3.155290   2.599938   3.581260   0.000346   0.232280   0.001491
  33   3  -2.354077   3.413946   3.539655   0.000601   0.325193   0.001848
  34   3  -2.904768   4.465621   2.994731   0.001097   0.325193   0.003374
  35   3  -2.517615   5.185641  -2.606532   0.001004   0.371649   0.002702
  36   3  -5.355329   3.198250  -2.156935   0.000764   0.278737   0.002740
  37   3  -0.513030   3.838589  -3.083294   0.000099   0.185824   0.000534
  38   3  -3.767902   4.512276   2.653966   0.000709   0.232280   0.003052
  39   3  -2.996231   5.183856   2.334159   0.000876   0.278737   0.003141
  40   3  -5.656593   1.246045  -1.413467   0.000718   0.232280   0.003090
  41   3  -5.789844   2.145318  -1.523744   0.001536   0.371649   0.004133
  42   3  -4.953042   4.504397  -1.733751   0.000912   0.464561   0.001962
  43   3  -3.709109   5.466155  -1.742333   0.000759   0.464561   0.001633
  44   3  -1.330416   5.346319  -2.213699   0.001255   0.371649   0.003377
  45   3  -0.248942   4.404450  -2.531996   0.000605   0.185824   0.003255
  46   3  -5.350650   4.566252  -0.488241   0.000700   0.418105   0.001674
  47   3  -4.656251   5.246390   0.588677   0.000878   0.418105   0.002100
  48   3  -3.656075   5.830710   0.598883   0.001017   0.464561   0.002190
  49   3  -3.190230   5.991270  -0.716768   0.000485   0.325193   0.001490
  50   3  -3.264794   3.500014   3.382591   0.000486   0.232280   0.002092
  51   3  -1.843062   4.137158   3.217695   0.000586   0.232280   0.002522
  52   3  -4.094378   4.803601  -2.361615   0.000371   0.278737   0.001333
  53   3  -5.342127   1.538937  -2.173821   0.000368   0.139368   0.002643
  54   3  -1.112398   4.640175  -2.873207   0.000912   0.278737   0.003272
  55   3  -4.425969   5.437851  -0.692571   0.000576   0.464561   0.001240
  56   3  -0.111431   4.774470  -2.023008   0.000406   0.185824   0.002185
  57   4  -5.710598  -3.054323  -1.568511   0.001654   0.418105   0.003957
  58   4  -2.215299  -3.393322   3.545479   0.000380   0.232280   0.001634
  59   4  -4.244726  -5.280688   1.334456   0.001299   0.418105   0.003106
  60   4  -2.875961  -5.314411  -2.392528   0.000929   0.371649   0.002499
  61   4  -5.629050  -1.329160  -1.544355   0.001332   0.325193   0.004097
  62   4  -2.055987  -5.734966  -1.798979   0.001047   0.371649   0.002817
  63   4  -3.361952  -5.658758   1.440330   0.000742   0.278737   0.002663
  64   4  -1.771633  -4.168434   3.190620   0.000449   0.232280   0.001932
  65   4   0.125910  -4.603965  -1.941720   0.000104   0.185824   0.000562
  66   4  -5.876024  -2.036187  -1.265658   0.000503   0.185824   0.002709
  67   4  -5.460672  -2.139921  -2.150082   0.000892   0.278737   0.003200
  68   4  -1.054365  -3.682848   3.226706   0.000267   0.185824   0.001439
  69   4  -2.838263  -3.939164   3.304212   0.000991   0.325193   0.003048
  70   4  -3.618298  -4.927484   2.359478   0.001075   0.278737   0.003858
  71   4  -3.913345  -5.781948   0.125899   0.000891   0.464561   0.001918
  72   4  -3.496991  -5.713451  -1.388822   0.000751   0.464561   0.001617
  73   4  -1.547306  -5.031674  -2.669698   0.001149   0.325193   0.003533
  74   4  -0.284253  -4.335990  -2.615386   0.000591   0.185824   0.003181
  75   4  -2.943820  -2.859688   3.599636   0.000480   0.278737   0.001721
  76   4  -4.979683  -5.023740   0.161389   0.000714   0.418105   0.001708
  77   4  -5.484463  -4.221845  -0.937105   0.000902   0.418105   0.002158
  78   4  -5.080730  -4.063819  -2.011309   0.001048   0.464561   0.002255
  79   4  -4.019486  -4.952457  -2.251754   0.000487   0.325193   0.001497
  80   4  -3.083064  -6.039588  -0.556224   0.000367   0.278737   0.001316
  81   4  -2.833937  -4.764998   2.783424   0.000917   0.278737   0.003288
  82   4  -0.343005  -3.555844   2.917002  -0.000072   0.092912  -0.000774
  83   4  -0.736866  -5.079717  -2.215938   0.000920   0.278737   0.003302
  84   4  -3.287574  -2.088429   3.544593   0.000086   0.139368   0.000620
  85   4  -3.666629  -4.141776   2.954080   0.000499   0.185824   0.002688
  86   4  -4.612383  -5.199478  -1.059544   0.000579   0.464561   0.001246
  87   4  -0.668458  -4.061632  -3.053571   0.000377   0.185824   0.002030
  88   5   6.566171   0.021795   1.870309   0.004854   0.377948   0.012842
  89   5   4.389016  -2.169191   2.634945   0.003668   0.274871   0.013344
  90   5   3.879396   0.997651   3.401059   0.004961   0.274871   0.018048
  91   5   5.107061   2.876131   0.911329   0.003636   0.343589   0.010583
  92   5   6.353765   0.775912  -1.419416   0.005734   0.343589   0.016689
  93   5   5.673495  -2.486514  -0.420330   0.003824   0.309230   0.012365
  94   5   6.068615  -0.977429   2.327205   0.005350   0.412307   0.012975
  95   5   5.190968  -1.638964   2.697559   0.004704   0.343589   0.013691
  96   5   5.837136   0.368725   2.745152   0.005761   0.412307   0.013972
  97   5   4.858627   0.679553   3.277180   0.005489   0.343589   0.015974
  98   5   6.395569   1.208312   1.696248   0.005145   0.412307   0.012479
  99   5   5.981139   2.168554   1.164861   0.004409   0.377948   0.011665
 100   5   6.908567   0.369921   0.784615   0.005195   0.377948   0.013745
 101   5   6.855068   0.520641  -0.343249   0.005350   0.343589   0.015572
 102   5   6.743687  -0.903714   1.064421   0.006298   0.481025   0.013093
 103   5   6.413841  -1.808457   0.329455   0.005369   0.412307   0.013021
 104   5   4.175355  -1.294502   3.256549   0.004333   0.274871   0.015764
 105   5   4.051008  -0.051296   3.544003   0.005606   0.309230   0.018129
 106   5   4.445723   1.826047   2.899994   0.004939   0.343589   0.014373
 107   5   4.806083   2.596570   1.935446   0.004793   0.412307   0.011626
 108   5   5.757418   2.498289  -0.081365   0.005059   0.412307   0.012270
 109   5   6.219881   1.713438  -0.852023   0.006151   0.412307   0.014919
 110   5   6.463262  -0.311861  -1.393750   0.006548   0.377948   0.017324
 111   5   6.241749  -1.571918  -0.992284   0.006257   0.412307   0.015175
 112   5   5.453069  -2.731115   0.583836   0.005013   0.446666   0.011223
 113   5   4.867704  -2.655264   1.786797   0.005132   0.446666   0.011490
 114   5   3.432434  -1.949881   2.895818   0.004039   0.274871   0.014695
 115   5   3.525234   2.031239   2.843115   0.004382   0.274871   0.015943
 116   5   4.038961   3.153301   1.035612   0.003321   0.343589   0.009665
 117   5   4.704398   3.058154  -0.177947   0.003819   0.377948   0.010105
 118   5   5.551618   1.496051  -1.914082   0.005170   0.343589   0.015047
 119   5   5.708876   0.158231  -2.249752   0.005655   0.377948   0.014961
 120   5   5.284958  -2.265600  -1.408218   0.004880   0.377948   0.012911
 121   5   4.750880  -2.987188  -0.435583   0.002470   0.274871   0.008985
 122   5   3.648663  -2.763130   2.019862   0.004187   0.343589   0.012185
 123   5   5.123189  -0.566603   3.185006   0.006418   0.412307   0.015566
 124   5   5.534056   1.647448   2.442923   0.006325   0.481025   0.013149
 125   5   6.600423   1.495786   0.313281   0.005574   0.412307   0.013520
 126   5   6.837481  -0.667297  -0.289740   0.006909   0.446666   0.015469
 127   5   5.941558  -1.995871   1.582025   0.004903   0.412307   0.011892
 128   5   3.604216  -0.806900   3.457938   0.002681   0.137436   0.019507
 129   5   3.646056   2.693854   2.131056   0.003810   0.309230   0.012321
 130   5   5.257914   2.410206  -1.230591   0.003781   0.343589   0.011004
 131   5   5.716855  -1.138168  -1.980732   0.005667   0.377948   0.014994
 132   5   4.245726  -3.165005   0.817808   0.004032   0.412307   0.009779
 133   6   1.846914   0.356746  -5.197242  -0.003296   0.392554  -0.008395
 134   6   1.630205  -1.725525  -4.534828  -0.003211   0.392554  -0.008181
 135   6   3.228922  -0.229110  -4.611200  -0.002718   0.372926  -0.007289
 136   6   2.356718   1.561477  -4.515354  -0.002425   0.372926  -0.006502
 137   6   0.625947   0.327287  -5.006881  -0.004611   0.451437  -0.010215
 138   6   0.952891  -0.824542  -5.001893  -0.003721   0.412182  -0.009027
 139   6   2.143546  -0.733177  -5.064222  -0.002884   0.353299  -0.008163
 140   6   2.965420   0.732106  -4.688336  -0.002826   0.392554  -0.007200
 141   6   1.333878   1.499618  -4.700697  -0.003462   0.412182  -0.008399
 142   6   2.798779  -1.316208  -4.482621  -0.001922   0.314043  -0.006119
 143   7  -0.056784  -0.002565   5.074005  -0.003089   0.471065  -0.006557
 144   7  -1.093745  -1.206434   4.671955  -0.001319   0.294415  -0.004479
 145   7  -1.764530   0.501496   4.633075  -0.001312   0.333671  -0.003931
 146   7   0.202738   1.724079   4.282118  -0.001614   0.333671  -0.004838
 147   7   0.632624  -1.616747   4.168087  -0.001837   0.372926  -0.004926
 148   7  -1.425022  -0.334046   4.856921  -0.002255   0.451437  -0.004994
 149   7  -0.757578   1.149111   4.787646  -0.002231   0.490692  -0.004547
 150   7   0.778246   1.004239   4.542845  -0.002465   0.431809  -0.005707
 151   7   0.973350  -0.418491   4.627377  -0.002638   0.431809  -0.006109
 152   7  -0.144025  -1.338369   4.685298  -0.001664   0.392554  -0.004239
 153   8  -3.505417   2.832436  -4.382500  -0.002882   0.471065  -0.006118
 154   8  -1.549998   3.504831  -3.982787  -0.001132   0.274788  -0.004120
 155   8  -3.131883   4.149963  -3.764129  -0.001282   0.372926  -0.003437
 156   8  -4.689502   2.623268  -3.508926  -0.001241   0.372926  -0.003329
 157   8  -2.191933   2.424673  -4.516849  -0.002712   0.412182  -0.006580
 158   8  -2.397571   3.682879  -4.179229  -0.001726   0.392554  -0.004397
 159   8  -4.164028   3.626561  -3.631148  -0.001470   0.392554  -0.003744
 160   8  -4.388029   1.734837  -3.753572  -0.002089   0.412182  -0.005068
 161   8  -3.131171   1.685310  -4.420663  -0.002959   0.412182  -0.007179
 162   9  -6.254399   2.774799   1.993665  -0.002934   0.451437  -0.006499
 163   9  -4.973711   3.700841   2.759840  -0.001085   0.353299  -0.003071
 164   9  -4.723139   1.885869   3.219462  -0.001517   0.333671  -0.004547
 165   9  -6.432018   2.039411   0.205582  -0.001588   0.412182  -0.003853
 166   9  -5.979297   3.941092   0.990924  -0.001256   0.372926  -0.003367
 167   9  -5.148856   2.774086   3.075189  -0.001902   0.412182  -0.004615
 168   9  -5.799893   1.740257   2.548838  -0.003000   0.431809  -0.006947
 169   9  -6.434694   1.747701   1.322793  -0.002841   0.431809  -0.006578
 170   9  -6.414593   3.100037   0.543365  -0.001709   0.412182  -0.004147
 171   9  -5.687463   3.872409   2.004528  -0.001978   0.431809  -0.004580
 172  10  -0.392607   6.223044   1.219250  -0.003090   0.471065  -0.006560
 173  10   0.457603   4.827498   1.948758  -0.001784   0.314043  -0.005680
 174  10  -1.090222   5.341422   2.501538  -0.001118   0.353299  -0.003165
 175  10  -2.013523   6.366616   0.992368  -0.001183   0.353299  -0.003349
 176  10  -0.810313   6.168474  -0.824649  -0.001148   0.372926  -0.003079
 177  10   0.331044   5.582228  -0.681938  -0.001838   0.392554  -0.004681
 178  10  -0.155893   5.287518   2.213258  -0.001719   0.372926  -0.004611
 179  10  -1.488875   6.056284   1.860598  -0.001860   0.431809  -0.004308
 180  10  -1.414599   6.531273   0.117575  -0.002169   0.471065  -0.004604
 181  10  -0.086396   6.201546   0.049115  -0.002075   0.353299  -0.005874
 182  10   0.668952   5.509065   0.794347  -0.003024   0.471065  -0.006418
 183  11  -0.275470  -6.245599   0.991690  -0.003645   0.549575  -0.006632
 184  11   0.329730  -5.544799  -0.731985  -0.001543   0.353299  -0.004366
 185  11  -1.308355  -6.380604  -0.497311  -0.001187   0.353299  -0.003359
 186  11  -1.945836  -6.144679   1.582708  -0.001173   0.372926  -0.003145
 187  11  -0.511015  -5.032881   2.525873  -0.001419   0.412182  -0.003444
 188  11   0.685515  -5.529263   0.584147  -0.002888   0.471065  -0.006131
 189  11  -0.342932  -6.150170  -0.545384  -0.001971   0.431809  -0.004565
 190  11  -1.588644  -6.527216   0.551625  -0.002274   0.490692  -0.004634
 191  11  -1.090568  -5.845045   2.106364  -0.002200   0.471065  -0.004671
 192  11   0.393690  -5.103748   1.863312  -0.002789   0.471065  -0.005921
 193  12  -6.225402  -2.839012   2.024399  -0.002833   0.431809  -0.006560
 194  12  -6.398515  -1.935995   0.150366  -0.001346   0.392554  -0.003428
 195  12  -4.845023  -1.819167   3.168020  -0.001966   0.372926  -0.005272
 196  12  -5.141700  -3.752199   2.631421  -0.001409   0.392554  -0.003588
 197  12  -5.978000  -3.944836   0.831720  -0.000818   0.274788  -0.002975
 198  12  -6.451713  -1.783089   1.278731  -0.002850   0.431809  -0.006599
 199  12  -5.900201  -1.771584   2.451433  -0.002749   0.392554  -0.007002
 200  12  -5.122678  -2.806766   3.081218  -0.002034   0.451437  -0.004505
 201  12  -5.702859  -3.990200   1.797440  -0.001609   0.392554  -0.004098
 202  12  -6.434703  -3.080356   0.650608  -0.002205   0.490692  -0.004494
 203  13  -3.402486  -2.790946  -4.424038  -0.002272   0.372926  -0.006092
 204  13  -4.607635  -1.686154  -3.463857  -0.001240   0.294415  -0.004212
 205  13  -4.467254  -3.321940  -3.517135  -0.001272   0.372926  -0.003411
 206  13  -2.410669  -4.074687  -3.876856  -0.001043   0.333671  -0.003126
 207  13  -1.585582  -3.324046  -4.099597  -0.001427   0.333671  -0.004278
 208  13  -3.578407  -1.699662  -4.290620  -0.002680   0.392554  -0.006827
 209  13  -4.481258  -2.466543  -3.781138  -0.001427   0.333671  -0.004277
 210  13  -3.539836  -3.961812  -3.791695  -0.001733   0.431809  -0.004014
 211  13  -2.438351  -3.140318  -4.436234  -0.001728   0.314043  -0.005504
 212  13  -2.362347  -1.962842  -4.507789  -0.002890   0.372926  -0.007749
 213   1   0.839003   2.531540  -3.424824  -0.000622   0.061159  -0.010169
 214   3   0.126669   2.894866  -3.247215  -0.000512   0.061159  -0.008369
 215   6   0.860038   2.314461  -3.643166  -0.000732   0.061159  -0.011971
 216   1   1.297808   3.894214  -1.554650  -0.000874   0.063294  -0.013805
 217   3   0.637003   4.373181  -1.482665  -0.000287   0.063294  -0.004535
 218  10   0.632840   4.564386  -1.246871  -0.000259   0.063294  -0.004090
 219   3   0.357612   3.938051  -2.293101  -0.001463   0.576968  -0.002536
 220   1   1.181621   3.137204  -2.765974  -0.004540   0.576968  -0.007869
 221   1   0.847619  -2.550044  -3.413776  -0.000723   0.061316  -0.011790
 222   4   0.135098  -2.912464  -3.236597  -0.000552   0.061316  -0.009004
 223   6   0.867843  -2.334057  -3.633294  -0.000727   0.061316  -0.011854
 224   1   1.295951  -3.897330  -1.554819  -0.000758   0.063313  -0.011973
 225   4   0.635045  -4.375557  -1.482693  -0.000317   0.063313  -0.005014
 226  11   0.631154  -4.566526  -1.246713  -0.000285   0.063313  -0.004504
 227   4   0.188783  -3.739687  -2.604746  -0.001368   0.570653  -0.002398
 228   1   1.357552  -3.356492  -2.442318  -0.004476   0.570653  -0.007844
 229   1   2.411143   3.432957   0.766966  -0.000304   0.040985  -0.007405
 230   5   2.744735   3.274769   0.898662  -0.000014   0.040985  -0.000338
 231  10   1.577411   3.958943   0.847822  -0.000418   0.040985  -0.010194
 232   1   2.406568  -3.425284   0.794483  -0.000232   0.039820  -0.005820
 233   5   2.740376  -3.266280   0.924520   0.000050   0.039820   0.001259
 234  11   1.573592  -3.951752   0.871476  -0.000426   0.039820  -0.010710
 235   5   3.537854  -3.222128   0.653674   0.000862   0.141028   0.006110
 236   5   4.283691  -2.885006  -0.810973   0.002489   0.298805   0.008330
 237   5   4.965447  -1.506960  -2.153071   0.003383   0.298805   0.011322
 238   5   5.119241   0.504635  -2.461064   0.003555   0.298805   0.011898
 239   5   4.680473   2.304818  -1.605580   0.002867   0.298805   0.009596
 240   5   3.833445   3.137428   0.054038   0.002059   0.298805   0.006890
 241   1   3.343631  -3.258699  -0.175037   0.000686   0.293187   0.002338
 242   1   4.224596  -2.411437  -1.906424   0.001357   0.293187   0.004627
 243   1   4.683189  -0.551026  -2.812080   0.001815   0.293187   0.006190
 244   1   4.526781   1.541077  -2.511588   0.001648   0.293187   0.005620
 245   1   3.821069   2.986091  -1.131169   0.001120   0.293187   0.003819
 246   1   3.052182   3.356265   0.376533   0.000290   0.150481   0.001929
 247   6   1.459218   2.156222  -3.939110  -0.000768   0.067833  -0.011328
 248   6   2.500194   1.874988  -3.988846  -0.001368   0.149168  -0.009170
 249   6   3.426799   0.953694  -4.031455  -0.001348   0.149168  -0.009038
 250   6   3.633887  -0.337144  -4.038289  -0.001392   0.149168  -0.009333
 251   6   3.042029  -1.502435  -4.006728  -0.001322   0.149168  -0.008865
 252   6   1.878230  -2.095241  -3.948876  -0.001560   0.149168  -0.010461
 253   1   1.926647   2.335677  -3.619647  -0.001469   0.150154  -0.009784
 254   1   3.236846   1.674066  -3.681484  -0.001207   0.150154  -0.008039
 255   1   3.906733   0.366943  -3.710699  -0.001173   0.150154  -0.007809
 256   1   3.679376  -1.084357  -3.696088  -0.001206   0.150154  -0.008032
 257   1   2.641978  -2.123196  -3.643255  -0.001336   0.150154  -0.008901
 258   1   1.497927  -2.451289  -3.587015  -0.000903   0.082873  -0.010891
 259  10   1.177923   4.681051   0.515735  -0.001660   0.314706  -0.005276
 260  10   0.854635   4.792309  -0.773678  -0.001276   0.314706  -0.004055
 261   1   2.062097   3.803989  -0.471661  -0.005506   0.873723  -0.006301
 262  11   0.809030  -4.799640  -0.912758  -0.000724   0.212330  -0.003410
 263  11   1.133511  -4.726793   0.236075  -0.002432   0.427729  -0.005686
 264   1   2.043025  -3.906180  -0.884512  -0.003239   0.595292  -0.005441
 265   1   2.332229  -3.758652   0.444301  -0.000907   0.301249  -0.003011
 266   2  -2.613524   1.009706   3.798360  -0.000091   0.027066  -0.003377
 267   3  -2.853656   1.416391   3.634806  -0.000065   0.027066  -0.002389
 268   7  -2.374679   0.939234   3.969653  -0.000146   0.027066  -0.005382
 269   2   0.088876   2.557684   3.277427  -0.000088   0.027066  -0.003249
 270   3  -0.186929   2.943935   3.120749  -0.000058   0.027066  -0.002136
 271   7   0.085341   2.348373   3.495442  -0.000110   0.027066  -0.004078
 272   2  -3.294168   1.018328   3.433329  -0.000090   0.027932  -0.003230
 273   3  -3.570391   1.425894   3.347170  -0.000098   0.027932  -0.003510
 274   9  -3.855922   1.489448   3.271247  -0.000143   0.027932  -0.005116
 275   2   0.293083   3.083212   2.734713  -0.000097   0.024224  -0.004009
 276   3   0.056488   3.513573   2.642301  -0.000093   0.024224  -0.003841
 277  10   0.086346   3.785425   2.513978  -0.000099   0.024224  -0.004078
 278   3  -3.321505   1.487826   3.493806  -0.000047   0.073946  -0.000630
 279   2  -2.885170   0.952056   3.702816  -0.000068   0.073946  -0.000914
 280   3  -0.128700   3.328583   2.917267  -0.000042   0.077038  -0.000552
 281   2   0.309095   2.766889   3.038207  -0.000080   0.077038  -0.001036
 282   2   0.087375  -2.556166   3.279173  -0.000097   0.027042  -0.003582
 283   4  -0.188406  -2.942430   3.122567  -0.000065   0.027042  -0.002417
 284   7   0.083971  -2.346688   3.497030  -0.000146   0.027042  -0.005412
 285   2  -2.613012  -1.009008   3.798794  -0.000095   0.027042  -0.003519
 286   4  -2.853138  -1.415700   3.635327  -0.000057   0.027042  -0.002096
 287   7  -2.374206  -0.938302   3.970044  -0.000112   0.027042  -0.004137
 288   2   0.292073  -3.082112   2.736492  -0.000097   0.024240  -0.003987
 289   4   0.055465  -3.512460   2.644186  -0.000091   0.024240  -0.003745
 290  11   0.085462  -3.784315   2.515927  -0.000126   0.024240  -0.005206
 291   2  -3.296021  -1.015973   3.432474  -0.000092   0.027903  -0.003314
 292   4  -3.572264  -1.423514   3.346411  -0.000100   0.027903  -0.003568
 293  12  -3.857708  -1.487300   3.270408  -0.000113   0.027903  -0.004049
 294   4  -0.062670  -3.352206   2.861321  -0.000037   0.077118  -0.000475
 295   2   0.240367  -2.740675   3.097872  -0.000097   0.077118  -0.001263
 296   4  -3.256084  -1.537273   3.524073  -0.000042   0.074515  -0.000564
 297   2  -2.951993  -0.899494   3.672262  -0.000084   0.074515  -0.001133
 298   2   1.428684   1.919247   3.066164  -0.000130   0.066954  -0.001941
 299   5   2.219618   1.811695   2.884095   0.000534   0.066954   0.007974
 300   7   1.356192   1.742906   3.302941  -0.000222   0.066954  -0.003316
 301   2   1.429793  -1.916557   3.067097  -0.000145   0.066954  -0.002163
 302   5   2.220664  -1.808636   2.884976   0.000535   0.066954   0.007997
 303   7   1.357198  -1.740143   3.303788  -0.000244   0.066954  -0.003641
 304   2   1.251512   2.802449   2.228547  -0.000921   0.166069  -0.005546
 305   5   2.034926   2.649624   2.037407  -0.000191   0.166069  -0.001149
 306  10   0.938582   3.446404   1.954313  -0.000943   0.166069  -0.005681
 307   2   1.252759  -2.801395   2.228227  -0.000978   0.165963  -0.005895
 308   5   2.036059  -2.648053   2.037070  -0.000255   0.165963  -0.001538
 309  11   0.939679  -3.445295   1.954316  -0.001012   0.165963  -0.006097
 310   5   2.643687   2.303978   2.521889   0.001605   0.193401   0.008299
 311   2   1.495330   2.302796   2.811929  -0.000022   0.213578  -0.000103
 312   5   2.652654  -2.194827   2.631677   0.001671   0.193965   0.008613
 313   2   1.489168  -2.403851   2.706430  -0.000118   0.214201  -0.000551
 314   7   0.536180  -2.006422   3.668390  -0.000336   0.082768  -0.004066
 315   2   0.741312  -2.186651   3.288776  -0.000410   0.101119  -0.004052
 316   7   0.716846   1.931079   3.632418  -0.000410   0.082512  -0.004970
 317   2   0.593745   2.252212   3.315870  -0.000340   0.100806  -0.003373
 318   7  -2.251883   0.453338   4.204624  -0.000283   0.072210  -0.003915
 319   7  -2.251600  -0.452325   4.204840  -0.000292   0.072210  -0.004039
 320   2  -2.547596   0.000347   3.921552  -0.000747   0.156696  -0.004767
 321   2  -3.813124  -0.000023   3.043491  -0.000570   0.166184  -0.003430
 322   9  -4.315751   0.527966   2.845994  -0.000742   0.166184  -0.004467
 323  12  -4.315822  -0.528030   2.845933  -0.000773   0.166184  -0.004649
 324   9  -4.268539   1.226502   3.122715  -0.000617   0.145479  -0.004239
 325   2  -3.407495   0.586104   3.462571  -0.000144   0.205094  -0.000703
 326  10   0.296429   3.979769   2.344497  -0.000480   0.124323  -0.003865
 327   2   0.761775   2.973090   2.619962  -0.000180   0.175147  -0.001028
 328  11   0.390998  -3.985624   2.264748  -0.000557   0.124918  -0.004459
 329   2   0.675956  -2.965847   2.694290  -0.000156   0.175986  -0.000888
 330  12  -4.187110  -1.333910   3.179155  -0.000556   0.144900  -0.003838
 331   2  -3.483515  -0.486171   3.410246  -0.000165   0.204276  -0.000808
 332   3  -4.743232   0.672797  -2.483553  -0.000030   0.065826  -0.000459
 333   4  -4.678927  -0.150734  -2.431363  -0.000024   0.065826  -0.000365
 334   8  -4.607328   0.790735  -2.729431  -0.000213   0.065826  -0.003234
 335   3  -5.615734   0.153309  -0.460096  -0.000025   0.066166  -0.000376
 336   4  -5.695877  -0.670352  -0.476803  -0.000053   0.066166  -0.000794
 337  12  -5.799454  -0.782864  -0.214309  -0.000223   0.066166  -0.003365
 338   4  -5.416335  -0.590820  -1.353725   0.000368   0.551820   0.000667
 339   3  -5.245589   0.590599  -1.713175   0.000445   0.551820   0.000807
 340   3  -0.381474   3.045221  -3.359283  -0.000394   0.089855  -0.004389
 341   6   0.322385   2.365393  -3.628464  -0.000869   0.089855  -0.009670
 342   8  -0.608152   2.957316  -3.545537  -0.000437   0.089855  -0.004860
 343   6   0.881784   2.251769  -3.878405  -0.000114   0.017578  -0.006499
 344   3  -0.173324   3.198448  -3.395077   0.000073   0.025013   0.002909
 345   7  -0.221300   2.183099   3.821870  -0.000785   0.209298  -0.003752
 346   7  -1.524286   1.500185   4.128031  -0.002298   0.429669  -0.005349
 347   3  -1.244419   2.823638   3.509318  -0.000347   0.572033  -0.000606
 348   3  -2.688106   1.938867   3.737524   0.000087   0.294791   0.000294
 349   8  -4.797946   1.436413  -2.918274  -0.000204   0.069662  -0.002924
 350   8  -4.953699   2.546116  -2.878707  -0.000470   0.154879  -0.003037
 351   8  -4.433423   3.794347  -2.966741  -0.000565   0.154879  -0.003648
 352   8  -3.271176   4.457082  -3.182335  -0.000601   0.154879  -0.003880
 353   8  -1.955017   4.256020  -3.434956  -0.000439   0.154879  -0.002835
 354   8  -1.108333   3.540299  -3.602690  -0.000256   0.069662  -0.003676
 355   3  -5.072892   1.793080  -2.521291  -0.000187   0.152509  -0.001228
 356   3  -4.965969   3.311603  -2.528141  -0.000237   0.152509  -0.001553
 357   3  -3.967080   4.446116  -2.708401  -0.000362   0.152509  -0.002371
 358   3  -2.495687   4.720204  -2.986374  -0.000270   0.152509  -0.001771
 359   3  -1.169668   4.018770  -3.245331  -0.000308   0.152509  -0.002022
 360   3  -5.718372   0.624683  -0.333083  -0.000085   0.087246  -0.000975
 361   9  -5.834545   0.733524  -0.072582  -0.000312   0.087246  -0.003580
 362  12  -5.755666  -0.315161  -0.041674  -0.000137   0.087246  -0.001570
 363   9  -4.118473   1.969545   3.316045  -0.000232   0.070576  -0.003285
 364   9  -4.198582   3.096284   3.176293  -0.000552   0.157560  -0.003506
 365   9  -4.624448   4.151932   2.405949  -0.000521   0.157560  -0.003307
 366   9  -5.272502   4.430619   1.226312  -0.000563   0.157560  -0.003571
 367   9  -5.861267   3.811300   0.149750  -0.000580   0.157560  -0.003682
 368   9  -6.135016   2.562972  -0.356138  -0.000447   0.157560  -0.002834
 369   9  -6.066138   1.433140  -0.236874  -0.000276   0.070576  -0.003911
 370   3  -3.716972   2.418873   3.356156  -0.000526   0.153885  -0.003419
 371   3  -3.981404   3.864096   2.882215  -0.000263   0.153885  -0.001711
 372   3  -4.620177   4.657765   1.722357  -0.000317   0.153885  -0.002061
 373   3  -5.355843   4.455156   0.380359  -0.000366   0.153885  -0.002380
 374   3  -5.868870   3.344270  -0.560889  -0.000324   0.153885  -0.002108
 375   3  -5.936428   1.807614  -0.692563  -0.000354   0.153885  -0.002298
 376  10   0.203660   5.103914  -1.265138  -0.000229   0.067772  -0.003375
 377  10  -0.733503   5.667673  -1.332608  -0.000483   0.149997  -0.003218
 378  10  -1.828425   6.139279  -0.752651  -0.000529   0.149997  -0.003525
 379  10  -2.478639   6.189390   0.401613  -0.000564   0.149997  -0.003762
 380  10  -2.423245   5.797900   1.667031  -0.000430   0.149997  -0.002869
 381  10  -1.684470   5.121896   2.535848  -0.000459   0.149997  -0.003063
 382  10  -0.558750   4.432626   2.659448  -0.000612   0.149997  -0.004081
 383   3  -0.247283   5.077190  -1.648805  -0.000311   0.149001  -0.002088
 384   3  -1.547384   5.773357  -1.439804  -0.000263   0.149001  -0.001768
 385   3  -2.580931   6.082342  -0.412720  -0.000339   0.149001  -0.002277
 386   3  -2.933211   5.880162   1.020324  -0.000301   0.149001  -0.002022
 387   3  -2.462868   5.247944   2.284314  -0.000209   0.149001  -0.001404
 388   3  -1.358630   4.439367   2.872068  -0.000377   0.149001  -0.002531
 389   3  -0.303707   3.859649   2.754739  -0.000216   0.082799  -0.002614
 390   4  -0.383091  -3.054927  -3.357559  -0.000388   0.089749  -0.004325
 391   6   0.321085  -2.377626  -3.627407  -0.000897   0.089749  -0.009999
 392  13  -0.609284  -2.966393  -3.544112  -0.000425   0.089749  -0.004734
 393   6   0.894645  -2.275984  -3.864255  -0.000107   0.021581  -0.004949
 394   4  -0.179169  -3.205910  -3.395625   0.000090   0.030705   0.002924
 395   7  -2.000977  -1.162174   4.165376  -0.000752   0.209141  -0.003595
 396   7  -0.736654  -1.949891   3.977013  -0.002276   0.429321  -0.005300
 397   4  -2.151451  -2.302801   3.684942  -0.000409   0.571627  -0.000715
 398   4  -0.674520  -3.091299   3.350714   0.000096   0.294569   0.000326
 399   4  -4.645425  -0.625340  -2.591139  -0.000076   0.087896  -0.000866
 400   8  -4.444138   0.320070  -2.803173  -0.000142   0.087896  -0.001613
 401  13  -4.518630  -0.739686  -2.845367  -0.000317   0.087896  -0.003605
 402  11  -0.188048  -4.237423   2.584474  -0.000248   0.067736  -0.003665
 403  11  -1.143673  -4.759116   2.703454  -0.000527   0.149904  -0.003517
 404  11  -2.125911  -5.478824   2.180681  -0.000377   0.149904  -0.002516
 405  11  -2.544465  -6.041916   1.056491  -0.000539   0.149904  -0.003594
 406  11  -2.231546  -6.222659  -0.218451  -0.000541   0.149904  -0.003606
 407  11  -1.312596  -5.948598  -1.133046  -0.000485   0.149904  -0.003238
 408  11  -0.156004  -5.329597  -1.320652  -0.000456   0.149904  -0.003039
 409   4  -0.702494  -4.069980   2.826137  -0.000468   0.148935  -0.003145
 410   4  -1.966520  -4.844312   2.687226  -0.000222   0.148935  -0.001490
 411   4  -2.796092  -5.604007   1.711868  -0.000184   0.148935  -0.001239
 412   4  -2.858650  -6.044518   0.291063  -0.000332   0.148935  -0.002226
 413   4  -2.129118  -5.989254  -1.005616  -0.000376   0.148935  -0.002526
 414   4  -0.899948  -5.460368  -1.658357  -0.000251   0.148935  -0.001686
 415   4   0.136633  -4.841148  -1.599921  -0.000154   0.082755  -0.001861
 416  12  -6.066028  -1.433006  -0.237762  -0.000238   0.070593  -0.003375
 417  12  -6.134805  -2.563126  -0.357133  -0.000495   0.157608  -0.003138
 418  12  -5.861036  -3.811667   0.149124  -0.000558   0.157608  -0.003538
 419  12  -5.272448  -4.430700   1.226370  -0.000571   0.157608  -0.003625
 420  12  -4.624835  -4.151199   2.406445  -0.000498   0.157608  -0.003160
 421  12  -4.199645  -3.094634   3.176497  -0.000536   0.157608  -0.003404
 422  12  -4.120142  -1.967459   3.315452  -0.000239   0.070593  -0.003389
 423   4  -5.936125  -1.807564  -0.693414  -0.000322   0.153910  -0.002091
 424   4  -5.868469  -3.344579  -0.561656  -0.000312   0.153910  -0.002026
 425   4  -5.355518  -4.455457   0.380249  -0.000392   0.153910  -0.002548
 426   4  -4.620195  -4.657419   1.722958  -0.000257   0.153910  -0.001672
 427   4  -3.982067  -3.862695   2.882940  -0.000314   0.153910  -0.002038
 428   4  -3.718457  -2.416664   3.356078  -0.000480   0.153910  -0.003118
 429  13  -1.110432  -3.547265  -3.600508  -0.000267   0.069578  -0.003836
 430  13  -1.958503  -4.259349  -3.432910  -0.000488   0.154651  -0.003157
 431  13  -3.273864  -4.456741  -3.181166  -0.000552   0.154651  -0.003569
 432  13  -4.433836  -3.792663  -2.966739  -0.000584   0.154651  -0.003778
 433  13  -4.952488  -2.545307  -2.879457  -0.000426   0.154651  -0.002752
 434  13  -4.796656  -1.436920  -2.919092  -0.000212   0.069578  -0.003047
 435   4  -1.173130  -4.024945  -3.242889  -0.000294   0.152364  -0.001928
 436   4  -2.499892  -4.721581  -2.984465  -0.000243   0.152364  -0.001598
 437   4  -3.969267  -4.444552  -2.707742  -0.000354   0.152364  -0.002326
 438   4  -4.965711  -3.309912  -2.528646  -0.000290   0.152364  -0.001905
 439   4  -5.071796  -1.792978  -2.522202  -0.000321   0.152364  -0.002104
 440   7   1.446888  -1.503125   3.674171  -0.000254   0.225521  -0.001126
 441   7   1.664019  -0.372578   4.058817  -0.000778   0.453919  -0.001715
 442   7   1.544634   1.084110   3.847883  -0.000801   0.453919  -0.001765
 443   5   2.835981  -1.187761   3.347790   0.006153   0.553812   0.011110
 444   5   2.966246   0.413149   3.578801   0.007075   0.553812   0.012776
 445   5   2.732769   1.647302   3.165855   0.002935   0.279056   0.010518
 446  10   1.074155   4.193722   1.634431  -0.001321   0.476356  -0.002772
 447   5   2.805095   3.203391   1.537885   0.001870   0.616928   0.003031
 448  11   1.160483  -4.300850   1.446457  -0.001419   0.466239  -0.003043
 449   5   2.717259  -3.088092   1.748793   0.001908   0.603868   0.003159
 450   6  -0.839092  -0.002523  -4.091076  -0.003120   0.324332  -0.009620
 451   8  -1.808671   0.537178  -3.948709  -0.002142   0.324332  -0.006606
 452  13  -1.808427  -0.539022  -3.949026  -0.002096   0.324332  -0.006464
 453   8  -0.796924   2.794786  -3.979104  -0.000501   0.297920  -0.001681
 454   8  -1.443042   1.731614  -4.313851  -0.002541   0.595885  -0.004265
 455   6   0.324330   1.632458  -4.359256  -0.003704   0.595885  -0.006216
 456   6  -0.320407   0.537117  -4.569967  -0.001635   0.297920  -0.005487
 457  13  -1.689473  -1.304612  -4.356643  -0.000941   0.298303  -0.003155
 458  13  -1.045714  -2.404002  -4.145219  -0.002109   0.596666  -0.003535
 459   6  -0.074547  -0.975555  -4.527758  -0.004020   0.596666  -0.006737
 460   6   0.570688  -2.042576  -4.191720  -0.001380   0.298303  -0.004627
 461  13  -4.455168  -0.760431  -3.288985  -0.000090   0.237158  -0.000379
 462  13  -3.606070  -0.760282  -3.956972  -0.001391   0.474181  -0.002934
 463  13  -2.562163  -0.760061  -4.235236  -0.000658   0.237158  -0.002775
 464   8  -4.148627   0.759405  -3.564815  -0.000967   0.474181  -0.002038
 465   8  -2.967244   0.759636  -4.155349  -0.001640   0.474181  -0.003460
 466  12  -4.924040  -0.751771   2.856950  -0.000506   0.252710  -0.002004
 467  12  -5.778026  -0.751673   2.079261  -0.001714   0.505385  -0.003392
 468  12  -6.147173  -0.751581   0.721694  -0.001165   0.505385  -0.002304
 469   9  -5.271134   0.751775   2.582672  -0.001569   0.505385  -0.003105
 470   9  -6.082116   0.751887   1.433077  -0.001513   0.505385  -0.002994
 471   9  -6.137246   0.751947   0.279365  -0.000173   0.252710  -0.000683
 =====================================================


   1 warning(s) detected.
     A line exceeding 80 characters begins with "http://cactus.nci.ni".
 There may be a problem in your input file.

              1884067  WORDS OF DYNAMIC MEMORY USED
 EXECUTION OF GAMESS TERMINATED NORMALLY Thu Nov 24 09:35:06 2016
 DDI: 263640 bytes (0.3 MB / 0 MWords) used by master data server.

 ----------------------------------------
 CPU timing information for all processes
 ========================================
 0: 252.688 + 0.168 = 252.856
 ----------------------------------------
 ddikick.x: exited gracefully.
