----- GAMESS execution script -----

          ******************************************************
          *         GAMESS VERSION =  5 DEC 2014 (R1)          *
          *             FROM IOWA STATE UNIVERSITY             *
          * M.W.SCHMIDT, K.K.BALDRIDGE, J.A.BOATZ, S.T.ELBERT, *
          *   M.S.GORDON, J.H.JENSEN, S.KOSEKI, N.MATSUNAGA,   *
          *          K.A.NGUYEN, S.J.SU, T.L.WINDUS,           *
          *       TOGETHER WITH M.DUPUIS, J.A.MONTGOMERY       *
          *         J.COMPUT.CHEM.  14, 1347-1363(1993)        *
          **************** 64 BIT LINUX VERSION ****************

 EXECUTION OF GAMESS BEGUN Thu Nov 24 08:42:14 2016

            ECHO OF THE FIRST FEW INPUT CARDS -
 INPUT CARD>! SELECT RESTRICTED HARTREE-FOCK AS DEFAULT                                     
 INPUT CARD>$contrl scftyp=rhf $end                                                         
 INPUT CARD>                                                                                
 INPUT CARD>! THEORY: HF OR DFT                                                             
 INPUT CARD> $contrl mplevl=0 $end                                                          
 INPUT CARD>                                                                                
 INPUT CARD> $system timlim=10000 mwords=20 $end                                            
 INPUT CARD> $SCF DIRSCF=.TRUE. $end                                                        
 INPUT CARD>                                                                                
 INPUT CARD>                                                                                
 INPUT CARD>! BASIS SETS                                                                    
 INPUT CARD>! 6-311G(d,p)                                                                   
 INPUT CARD> $BASIS GBASIS=N311 NGAUSS=6 NDFUNC=1 NPFUNC=1 $END                             
 INPUT CARD>                                                                                
 INPUT CARD>! One of the following                                                          
 INPUT CARD> $guess guess=HUCKEL $end                                                       
 INPUT CARD>                                                                                
 INPUT CARD> $statpt projct=.FALSE. $end                                                    
 INPUT CARD> $STATPT IFREEZ(1)=1,2,3 $END                                                   
 INPUT CARD>                                                                                
 INPUT CARD>! Optimize the geometry with COSMO effects                                      
 INPUT CARD> $statpt opttol=0.0005 nstep=50 $end                                            
 INPUT CARD> $contrl nzvar=1 $end                                                           
 INPUT CARD> $zmat dlc=.t. auto=.t. $end                                                    
 INPUT CARD> $contrl runtyp=OPTIMIZE maxit=200 $end                                         
 INPUT CARD>                                                                                
 INPUT CARD>! Run COSMO on perfect conductor                                                
 INPUT CARD> $COSGMS PRFCND=.TRUE. $end                                                     
 INPUT CARD>                                                                                
 INPUT CARD>! Specifying RSOLV                                                              
 INPUT CARD> $COSGMS COSRAD = 1.4 $end                                                      
 INPUT CARD>                                                                                
 INPUT CARD>! available memory                                                              
 INPUT CARD> $SYSTEM MWORDS=40 $END                                                         
 INPUT CARD>                                                                                
 INPUT CARD> $DATA                                                                          
 INPUT CARD>1-Propanol, 2-methyl-, ID: C78831                                               
 INPUT CARD>C1                                                                              
 INPUT CARD>C      6.0      2.7052000000    2.3312000000    1.0174000000                    
 INPUT CARD>C      6.0      1.5276000000    2.1771000000    1.9921000000                    
 INPUT CARD>C      6.0      0.8434000000    0.8408000000    1.7542000000                    
 INPUT CARD>C      6.0      1.9949000000    2.2822000000    3.4340000000                    
 INPUT CARD>O      8.0      3.0733000000    3.6914000000    0.9822000000                    
 INPUT CARD>H      1.0      3.5615000000    1.7023000000    1.3331000000                    
 INPUT CARD>H      1.0      2.4125000000    2.0023000000    0.0000000000                    
 INPUT CARD>H      1.0      0.7893000000    2.9940000000    1.7982000000                    
 INPUT CARD>H      1.0      0.4497000000    0.7638000000    0.7322000000                    
 INPUT CARD>H      1.0      0.0000000000    0.7000000000    2.4428000000                    
 INPUT CARD>H      1.0      1.5338000000    0.0000000000    1.9059000000                    
 INPUT CARD>H      1.0      2.4829000000    3.2462000000    3.6267000000                    
   40000000 WORDS OF MEMORY AVAILABLE

     BASIS OPTIONS
     -------------
     GBASIS=N311         IGAUSS=       6      POLAR=POPN311 
     NDFUNC=       1     NFFUNC=       0     DIFFSP=       F
     NPFUNC=       1      DIFFS=       F     BASNAM=        


     RUN TITLE
     ---------
 1-Propanol, 2-methyl-, ID: C78831                                               

 THE POINT GROUP OF THE MOLECULE IS C1      
 THE ORDER OF THE PRINCIPAL AXIS IS     0

 ATOM      ATOMIC                      COORDINATES (BOHR)
           CHARGE         X                   Y                   Z
 C           6.0     5.1120867420        4.4053292226        1.9226072199
 C           6.0     2.8867454188        4.1141224479        3.7645231401
 C           6.0     1.5937948980        1.5888816105        3.3149573277
 C           6.0     3.7698143729        4.3127326492        6.4893190418
 O           8.0     5.8076948781        6.9757345111        1.8560888651
 H           1.0     6.7302591053        3.2168805489        2.5191937142
 H           1.0     4.5589639454        3.7837983452        0.0000000000
 H           1.0     1.4915607221        5.6578396072        3.3981052711
 H           1.0     0.8498097767        1.4433727094        1.3836573682
 H           1.0     0.0000000000        1.3228081914        4.6162226428
 H           1.0     2.8984617200        0.0000000000        3.6016287600
 H           1.0     4.6920006549        6.1344285013        6.8534692397
 H           1.0     5.1294722211        2.8181483655        6.9664748537
 H           1.0     2.1762084475        4.1441690911        7.8072139457
 H           1.0     7.2915077236        7.0719215639        0.8592584066

          INTERNUCLEAR DISTANCES (ANGS.)




     $CONTRL OPTIONS
     ---------------
 SCFTYP=RHF          RUNTYP=OPTIMIZE     EXETYP=RUN     
 MPLEVL=       0     CITYP =NONE         CCTYP =NONE         VBTYP =NONE    
 DFTTYP=NONE         TDDFT =NONE    
 MULT  =       1     ICHARG=       0     NZVAR =       1     COORD =UNIQUE  
 PP    =NONE         RELWFN=NONE         LOCAL =NONE         NUMGRD=       F
 ISPHER=      -1     NOSYM =       0     MAXIT =     200     UNITS =ANGS    
 PLTORB=       F     MOLPLT=       F     AIMPAC=       F     FRIEND=        
 NPRINT=       7     IREST =       0     GEOM  =INPUT   
 NORMF =       0     NORMP =       0     ITOL  =      20     ICUT  =       9
 INTTYP=BEST         GRDTYP=BEST         QMTTOL= 1.0E-06

     $SYSTEM OPTIONS
     ---------------
  REPLICATED MEMORY=    40000000 WORDS (ON EVERY NODE).
 DISTRIBUTED MEMDDI=           0 MILLION WORDS IN AGGREGATE,
 MEMDDI DISTRIBUTED OVER   1 PROCESSORS IS           0 WORDS/PROCESSOR.
 TOTAL MEMORY REQUESTED ON EACH PROCESSOR=    40000000 WORDS.
 TIMLIM=       10000.00 MINUTES, OR       6.9 DAYS.
 PARALL= F  BALTYP=  DLB     KDIAG=    0  COREFL= F
 MXSEQ2=     300 MXSEQ3=     150  mem10=         0

     $COSGMS OPTIONS
     ---------------
     EPSI  =   INFTY     NSPA  =      92     COSRAD=    1.40
     DISEX =   10.00     OUTCHG=DBLCAV       COSBUG=       F
     COSWRT=       F     DCOSMO=       F

     SYMMETRY COORDINATES WILL NOT BE USED FOR 
     THE COSMO CALCULATION, EVEN IF SPECIFIED:
         -- SWITCHING TO C1 POINT GROUP --


     DEFINITION OF CAVITY
     ---------------------------
     ATOM         COORDINATES           RADIUS 
     1    5.1121    4.4053    1.9226    2.0000
     2    2.8867    4.1141    3.7645    2.0000
     3    1.5938    1.5889    3.3150    2.0000
     4    3.7698    4.3127    6.4893    2.0000
     5    5.8077    6.9757    1.8561    1.7200
     6    6.7303    3.2169    2.5192    1.3000
     7    4.5590    3.7838    0.0000    1.3000
     8    1.4916    5.6578    3.3981    1.3000
     9    0.8498    1.4434    1.3837    1.3000
    10    0.0000    1.3228    4.6162    1.3000
    11    2.8985    0.0000    3.6016    1.3000
    12    4.6920    6.1344    6.8535    1.3000
    13    5.1295    2.8181    6.9665    1.3000
    14    2.1762    4.1442    7.8072    1.3000
    15    7.2915    7.0719    0.8593    1.3000

          ----------------
          PROPERTIES INPUT
          ----------------

     MOMENTS            FIELD           POTENTIAL          DENSITY
 IEMOM =       1   IEFLD =       0   IEPOT =       0   IEDEN =       0
 WHERE =COMASS     WHERE =NUCLEI     WHERE =NUCLEI     WHERE =NUCLEI  
 OUTPUT=BOTH       OUTPUT=BOTH       OUTPUT=BOTH       OUTPUT=BOTH    
 IEMINT=       0   IEFINT=       0                     IEDINT=       0
                                                       MORB  =       0
          EXTRAPOLATION IN EFFECT
          SOSCF IN EFFECT
 ORBITAL PRINTING OPTION: NPREO=     1   155     2     1

     -------------------------------
     INTEGRAL TRANSFORMATION OPTIONS
     -------------------------------
     NWORD  =            0
     CUTOFF = 1.0E-09     MPTRAN =       0
     DIRTRF =       T     AOINTS =DUP     

          ----------------------
          INTEGRAL INPUT OPTIONS
          ----------------------
 NOPK  =       1 NORDER=       0 SCHWRZ=       T


 -----------------------------------------------
  STATISTICS ON AUTOMATIC COORDINATE GENERATION 
 -----------------------------------------------
  NUMBER OF USER SPECIFIED BONDS                             0
  NUMBER OF BONDS                                           14
  NUMBER OF ANGLES                                          25
  NUMBER OF TORSIONS                                        30
  NUMBER OF EXTRA COORD.                                     0
  NUMBER OF EXTRA COORD. FOR CONSTRAINTS                     0
  NUMBER OF CONSTRAINED COORD.                               0

  TOTAL NUMBER OF PRIMITIVES                                69
 -----------------------------------------------

   --- ENCODED Z MATRIX ---
 COORD  TYPE   I   J   K   L   M   N
    1      1    1   7
    2      1    1   2
    3      1    1   6
    4      1    1   5
    5      1    2   4
    6      1    2   3
    7      1    2   8
    8      1    3  11
    9      1    3  10
   10      1    3   9
   11      1    4  14
   12      1    4  13
   13      1    4  12
   14      1    5  15
   15      2    1   5  15
   16      2    1   2   3
   17      2    1   2   4
   18      2    1   2   8
   19      2    2   4  14
   20      2    2   4  13
   21      2    2   3  10
   22      2    2   1   5
   23      2    2   1   6
   24      2    2   1   7
   25      2    2   3  11
   26      2    2   3   9
   27      2    2   4  12
   28      2    3   2   4
   29      2    3   2   8
   30      2    4   2   8
   31      2    5   1   7
   32      2    5   1   6
   33      2    6   1   7
   34      2    9   3  10
   35      2    9   3  11
   36      2   10   3  11
   37      2   12   4  13
   38      2   12   4  14
   39      2   13   4  14
   40      3    1   2   4  12
   41      3    1   2   4  13
   42      3    1   2   3  11
   43      3    1   2   4  14
   44      3    1   2   3   9
   45      3    1   2   3  10
   46      3    2   1   5  15
   47      3    3   2   1   5
   48      3    3   2   4  13
   49      3    3   2   4  12
   50      3    3   2   1   6
   51      3    3   2   4  14
   52      3    3   2   1   7
   53      3    4   2   3  10
   54      3    4   2   1   5
   55      3    4   2   1   6
   56      3    4   2   3   9
   57      3    4   2   1   7
   58      3    4   2   3  11
   59      3    5   1   2   8
   60      3    6   1   5  15
   61      3    6   1   2   8
   62      3    7   1   5  15
   63      3    7   1   2   8
   64      3    8   2   3  10
   65      3    8   2   4  13
   66      3    8   2   4  12
   67      3    8   2   3   9
   68      3    8   2   4  14
   69      3    8   2   3  11

          INDEP./SYM. INTERNAL COORDINATES
          --------------------------------
 CRD  1=  -0.1444 (  5)  0.1163 (  6)  0.1494 ( 15)  0.4085 ( 16) -0.4135 ( 17)
          -0.4302 ( 22)  0.2004 ( 24) -0.1064 ( 27) -0.1482 ( 29)  0.1466 ( 30)
           0.1354 ( 31)  0.1162 ( 32) -0.1747 ( 40) -0.1160 ( 41) -0.1550 ( 43)
          -0.1456 ( 44) -0.1130 ( 45) -0.1053 ( 46)  0.1372 ( 48)  0.1188 ( 53)
           0.1425 ( 58)
 CRD  2=  -0.2388 (  2) -0.2929 ( 16) -0.2553 ( 17)  0.2180 ( 18)  0.1621 ( 19)
           0.1723 ( 21) -0.1489 ( 26) -0.1554 ( 27)  0.5340 ( 28) -0.1126 ( 30)
           0.1382 ( 41) -0.1330 ( 42) -0.1149 ( 47) -0.1126 ( 49) -0.1369 ( 50)
          -0.1351 ( 51) -0.1697 ( 52)  0.1196 ( 53)  0.1904 ( 54)  0.1683 ( 55)
           0.1103 ( 56)  0.1356 ( 57)
 CRD  3=   0.1963 (  2) -0.1469 (  5)  0.2036 (  6)  0.1461 ( 14) -0.1573 ( 15)
           0.1743 ( 16) -0.2425 ( 17) -0.1443 ( 20)  0.5838 ( 22) -0.2433 ( 23)
           0.1346 ( 26) -0.1974 ( 31) -0.2372 ( 32)  0.1037 ( 33) -0.1232 ( 42)
          -0.1459 ( 44) -0.1626 ( 45) -0.1282 ( 46)  0.1334 ( 47)
 CRD  4=   0.4046 (  2)  0.1505 (  4)  0.3965 (  5)  0.4276 (  6)  0.1459 ( 15)
           0.2331 ( 20)  0.1345 ( 23)  0.2871 ( 25) -0.1258 ( 35) -0.1384 ( 36)
          -0.1152 ( 37) -0.1249 ( 39) -0.1097 ( 43)  0.1161 ( 45) -0.1555 ( 47)
           0.1075 ( 49) -0.1166 ( 50)
 CRD  5=   0.2897 (  6)  0.1158 ( 20)  0.2379 ( 21) -0.1361 ( 22) -0.3910 ( 25)
           0.3900 ( 26)  0.2067 ( 29) -0.1293 ( 30)  0.1220 ( 31) -0.2273 ( 34)
          -0.1030 ( 45) -0.1366 ( 46)  0.2750 ( 47) -0.1161 ( 48)  0.1736 ( 50)
          -0.1461 ( 51)  0.1723 ( 52) -0.1126 ( 53)  0.2168 ( 54)  0.1154 ( 55)
           0.1141 ( 57)
 CRD  6=   0.3967 (  5)  0.3462 ( 19) -0.3868 ( 20) -0.1819 ( 25)  0.1115 ( 26)
           0.3674 ( 27)  0.1731 ( 30)  0.1223 ( 32) -0.2714 ( 38) -0.1334 ( 49)
           0.1268 ( 53) -0.1894 ( 54) -0.1276 ( 55)  0.1627 ( 56) -0.1442 ( 57)
           0.1315 ( 58)
 CRD  7=   0.4271 (  4) -0.2886 (  5)  0.1636 ( 14)  0.5423 ( 15) -0.1932 ( 20)
           0.2977 ( 21) -0.2382 ( 24) -0.2157 ( 26) -0.1268 ( 36)  0.1148 ( 37)
           0.1108 ( 46)
 CRD  8=  -0.1249 (  1) -0.4320 (  2)  0.4035 (  6) -0.1161 ( 11)  0.1132 ( 13)
          -0.1611 ( 15) -0.3431 ( 19) -0.2117 ( 24)  0.2441 ( 25)  0.1277 ( 26)
           0.3484 ( 27)  0.1127 ( 33) -0.1903 ( 35) -0.1145 ( 36) -0.1155 ( 37)
           0.1858 ( 39)  0.1055 ( 46)
 CRD  9=  -0.2218 (  2)  0.2792 (  4)  0.2053 (  5) -0.1234 (  6) -0.1191 (  9)
           0.1154 ( 14)  0.3384 ( 15)  0.2519 ( 20) -0.4354 ( 21)  0.1264 ( 22)
          -0.3283 ( 23)  0.2724 ( 26)  0.1335 ( 32)  0.1060 ( 33) -0.1289 ( 35)
           0.1732 ( 36) -0.1067 ( 37) -0.1040 ( 39) -0.1024 ( 46)  0.1389 ( 60)
 CRD 10=  -0.1280 (  1) -0.1383 (  2)  0.1052 ( 11) -0.1301 ( 18)  0.4285 ( 19)
          -0.1908 ( 21)  0.2820 ( 23) -0.3574 ( 24)  0.2216 ( 26) -0.3634 ( 27)
           0.1110 ( 31) -0.1630 ( 32) -0.1133 ( 35)  0.1900 ( 37) -0.1419 ( 39)
          -0.1027 ( 40)  0.1318 ( 42)  0.1141 ( 44)  0.1041 ( 45)  0.2281 ( 46)
          -0.1026 ( 62)
 CRD 11=   0.1345 (  1)  0.1668 (  2)  0.1283 (  8) -0.1918 ( 12) -0.1552 ( 16)
           0.1220 ( 18)  0.1461 ( 19) -0.4074 ( 20) -0.2991 ( 21) -0.1110 ( 22)
           0.3363 ( 25)  0.1858 ( 27) -0.1685 ( 30)  0.1320 ( 31)  0.1440 ( 34)
          -0.1545 ( 35)  0.1203 ( 37) -0.1726 ( 38)  0.1326 ( 39)  0.1077 ( 40)
           0.1050 ( 41)  0.1122 ( 43) -0.1159 ( 46)  0.1693 ( 47)  0.1899 ( 54)
          -0.1135 ( 56)  0.1141 ( 59)
 CRD 12=  -0.1760 (  2) -0.2101 (  3)  0.1225 (  6)  0.1628 (  8) -0.1341 ( 10)
           0.1304 ( 17) -0.1829 ( 18)  0.2073 ( 19) -0.3302 ( 23)  0.2598 ( 24)
           0.2847 ( 25) -0.2366 ( 26) -0.2139 ( 27) -0.1562 ( 28)  0.1925 ( 29)
          -0.1691 ( 31)  0.1639 ( 32)  0.1008 ( 34) -0.1916 ( 36) -0.1175 ( 39)
          -0.1103 ( 40) -0.1114 ( 43) -0.1864 ( 46) -0.1184 ( 49)  0.1114 ( 50)
          -0.1195 ( 51)  0.1391 ( 52)  0.1064 ( 60)
 CRD 13=  -0.1634 (  1)  0.1956 (  3) -0.2126 (  5)  0.1273 (  6) -0.1042 ( 16)
          -0.1042 ( 20) -0.1102 ( 21) -0.1043 ( 23)  0.2149 ( 24)  0.2923 ( 26)
          -0.1507 ( 27) -0.1557 ( 30) -0.2587 ( 31)  0.2470 ( 32) -0.1380 ( 35)
           0.1478 ( 37)  0.1207 ( 46) -0.2522 ( 47) -0.1275 ( 53) -0.2022 ( 54)
          -0.1229 ( 56) -0.1244 ( 58) -0.3155 ( 59)  0.1318 ( 60) -0.1099 ( 61)
           0.1963 ( 62)
 CRD 14=  -0.1444 (  3) -0.7197 (  7)  0.1305 (  9)  0.1550 ( 13) -0.1525 ( 20)
          -0.1063 ( 23) -0.1506 ( 25) -0.1170 ( 31)  0.1048 ( 39)  0.1606 ( 42)
           0.1393 ( 44)  0.1737 ( 45)  0.1346 ( 48)  0.1414 ( 49)  0.1066 ( 51)
           0.1138 ( 54)  0.1572 ( 55)  0.1819 ( 57)
 CRD 15=  -0.1847 (  3) -0.2197 (  7)  0.2289 (  8)  0.1524 (  9)  0.2317 ( 10)
          -0.2261 ( 12) -0.1387 ( 13) -0.1072 ( 25) -0.1231 ( 26)  0.1227 ( 27)
          -0.1499 ( 32)  0.1204 ( 34)  0.1152 ( 35)  0.1092 ( 36) -0.1276 ( 38)
          -0.1942 ( 40) -0.2112 ( 41) -0.1523 ( 42) -0.2176 ( 43) -0.1405 ( 44)
          -0.1480 ( 45) -0.1483 ( 48) -0.1312 ( 49) -0.1247 ( 50) -0.1547 ( 51)
          -0.1676 ( 53) -0.1601 ( 56) -0.1719 ( 58) -0.1346 ( 61) -0.1515 ( 64)
          -0.1553 ( 65) -0.1383 ( 66) -0.1440 ( 67) -0.1618 ( 68) -0.1558 ( 69)
 CRD 16=  -0.1160 (  5) -0.1063 (  6) -0.2033 (  7) -0.3614 (  8) -0.2842 (  9)
          -0.3213 ( 10) -0.3119 ( 11) -0.3933 ( 12) -0.3529 ( 13)  0.1661 ( 19)
           0.1102 ( 20)  0.1542 ( 21)  0.1135 ( 26)  0.1241 ( 27) -0.1509 ( 34)
          -0.1054 ( 35) -0.1353 ( 36) -0.1165 ( 37) -0.1623 ( 38) -0.1492 ( 39)
 CRD 17=  -0.1455 (  1)  0.2128 (  3) -0.1196 (  5)  0.1167 (  6)  0.1555 (  7)
           0.3151 (  8)  0.3051 (  9)  0.2351 ( 10) -0.3374 ( 11) -0.2861 ( 12)
          -0.2558 ( 13)  0.1161 ( 20) -0.1087 ( 21) -0.1100 ( 31)  0.1272 ( 32)
           0.1146 ( 34)  0.1012 ( 35) -0.1226 ( 37) -0.1040 ( 39)  0.1400 ( 50)
           0.1305 ( 52)  0.1214 ( 55)  0.1119 ( 57)  0.1002 ( 69)
 CRD 18=   0.5414 (  1)  0.5175 (  3)  0.1435 (  9)  0.1099 ( 10) -0.1159 ( 14)
          -0.1725 ( 15) -0.1404 ( 23) -0.1543 ( 24)  0.2371 ( 33)  0.1036 ( 51)
          -0.1049 ( 53) -0.1162 ( 55) -0.1009 ( 56)  0.1605 ( 60) -0.1045 ( 61)
          -0.1782 ( 62)
 CRD 19=   0.3175 (  1) -0.2180 (  3) -0.1259 (  5) -0.1587 (  8)  0.2521 (  9)
          -0.3447 ( 11)  0.3687 ( 12) -0.2942 ( 13) -0.1698 ( 35)  0.1183 ( 37)
          -0.1498 ( 38)  0.1147 ( 40)  0.1721 ( 44) -0.1368 ( 50) -0.1227 ( 51)
          -0.1289 ( 52) -0.1098 ( 55)  0.1505 ( 56) -0.1019 ( 57) -0.1432 ( 61)
          -0.1353 ( 63)  0.1772 ( 67)
 CRD 20=  -0.2401 (  1) -0.2164 (  3) -0.4002 (  8)  0.2162 (  9)  0.3738 ( 10)
           0.1523 ( 13) -0.1094 ( 33)  0.1767 ( 34) -0.2058 ( 36)  0.1092 ( 37)
          -0.1500 ( 39)  0.1401 ( 40)  0.1765 ( 43) -0.2081 ( 45)  0.1254 ( 49)
           0.1618 ( 51) -0.2279 ( 53) -0.1358 ( 57) -0.1061 ( 63) -0.2105 ( 64)
           0.1285 ( 66)  0.1650 ( 68)
 CRD 21=   0.3294 (  9) -0.4206 ( 10) -0.3013 ( 11) -0.1367 ( 12)  0.4763 ( 13)
          -0.1697 ( 35)  0.2096 ( 36)  0.1594 ( 37) -0.2403 ( 39) -0.1565 ( 41)
          -0.1549 ( 42)  0.1011 ( 43) -0.1601 ( 48) -0.1560 ( 58) -0.1666 ( 65)
          -0.1650 ( 69)
 CRD 22=   0.1846 (  8) -0.4642 (  9)  0.2458 ( 10) -0.4748 ( 11)  0.1746 ( 12)
           0.2628 ( 13)  0.2253 ( 35) -0.1190 ( 36)  0.2316 ( 37) -0.1286 ( 39)
           0.1056 ( 40) -0.1480 ( 41)  0.1424 ( 42) -0.1056 ( 44) -0.1330 ( 48)
           0.1207 ( 49) -0.1207 ( 56)  0.1273 ( 58) -0.1616 ( 65)  0.1576 ( 69)
 CRD 23=  -0.3112 (  1) -0.1164 (  2)  0.1022 (  5)  0.1960 (  8)  0.1122 (  9)
          -0.2472 ( 10)  0.3990 ( 12) -0.1931 ( 13) -0.1291 ( 34)  0.1161 ( 37)
          -0.2642 ( 38)  0.1960 ( 40) -0.1512 ( 42) -0.1729 ( 44)  0.1230 ( 48)
           0.2432 ( 49) -0.2074 ( 56) -0.1857 ( 58)  0.2146 ( 66) -0.1917 ( 67)
          -0.1700 ( 69)
 CRD 24=   0.1241 (  1) -0.3512 (  3)  0.1377 (  6)  0.3536 (  8)  0.1297 ( 11)
          -0.1960 ( 12)  0.1416 ( 31) -0.2582 ( 34)  0.1461 ( 38)  0.1506 ( 41)
           0.2121 ( 43)  0.1446 ( 45)  0.1252 ( 48) -0.1079 ( 50)  0.1867 ( 51)
          -0.2078 ( 52)  0.1104 ( 53) -0.1296 ( 55) -0.1285 ( 56) -0.2294 ( 57)
          -0.1151 ( 61) -0.2150 ( 63)  0.1381 ( 64)  0.1240 ( 65) -0.1008 ( 67)
           0.1855 ( 68)
 CRD 25=  -0.6462 (  4)  0.1632 ( 14)  0.5654 ( 15) -0.1422 ( 31) -0.1522 ( 32)
           0.2206 ( 33) -0.1444 ( 50)  0.1378 ( 52) -0.1431 ( 55)  0.1392 ( 57)
          -0.1581 ( 61)  0.1241 ( 63)
 CRD 26=  -0.1034 (  1)  0.1903 (  2) -0.8843 ( 14)  0.1920 ( 15)  0.1165 ( 22)
          -0.1227 ( 23) -0.1358 ( 24)  0.1083 ( 33) -0.1138 ( 62)
 CRD 27=  -0.3231 (  1)  0.3470 (  3) -0.2620 (  7)  0.1291 ( 12) -0.4392 ( 46)
          -0.1167 ( 55) -0.1218 ( 57) -0.3835 ( 60) -0.1260 ( 61) -0.3749 ( 62)
          -0.1311 ( 63)  0.1088 ( 67)
 CRD 28=  -0.1060 (  4)  0.1545 (  5) -0.2536 (  6)  0.2242 (  8)  0.1988 (  9)
           0.2515 ( 10) -0.1147 ( 11) -0.2114 ( 13) -0.1233 ( 19) -0.1190 ( 20)
           0.2084 ( 21)  0.2196 ( 25)  0.2211 ( 26) -0.1497 ( 27) -0.1510 ( 29)
           0.1367 ( 30) -0.2333 ( 34) -0.2508 ( 35) -0.2107 ( 36)  0.1550 ( 37)
           0.1833 ( 38)  0.1850 ( 59)  0.2284 ( 61)  0.1694 ( 63) -0.1573 ( 65)
          -0.1441 ( 66)
 CRD 29=   0.3091 (  5)  0.1584 (  6)  0.1409 (  7) -0.1733 (  8) -0.1428 (  9)
          -0.2355 ( 11) -0.2628 ( 12) -0.1752 ( 13) -0.1401 ( 18) -0.2231 ( 19)
          -0.2306 ( 20) -0.1195 ( 21) -0.1216 ( 25) -0.2032 ( 27)  0.1005 ( 35)
           0.1859 ( 36)  0.2255 ( 37)  0.2063 ( 38)  0.2702 ( 39) -0.1878 ( 46)
          -0.1951 ( 60) -0.1329 ( 62)  0.1074 ( 65) -0.1278 ( 67) -0.1509 ( 69)
 CRD 30=   0.1460 (  1) -0.1130 (  2)  0.1724 (  3)  0.1224 (  4) -0.2950 (  7)
           0.1726 (  8) -0.1278 (  9) -0.1353 ( 11)  0.1617 ( 12) -0.2157 ( 14)
           0.1966 ( 15)  0.1287 ( 22)  0.2238 ( 23)  0.1751 ( 24)  0.1009 ( 29)
           0.1048 ( 30) -0.1251 ( 31) -0.2051 ( 32) -0.2031 ( 33)  0.1054 ( 34)
          -0.1231 ( 35) -0.1213 ( 37)  0.1047 ( 38)  0.1054 ( 41)  0.1140 ( 43)
          -0.1172 ( 45) -0.1317 ( 49)  0.1336 ( 56) -0.1333 ( 60)  0.3154 ( 62)
          -0.1978 ( 64)  0.1816 ( 65)  0.1902 ( 68) -0.1793 ( 69)
 CRD 31=   0.2616 (  2) -0.2759 (  4)  0.1725 (  5)  0.3048 (  6) -0.3127 (  7)
          -0.1550 (  9) -0.1957 ( 10) -0.1136 ( 11)  0.1103 ( 12) -0.1608 ( 13)
           0.1392 ( 14) -0.1065 ( 21) -0.1130 ( 22) -0.1483 ( 24) -0.1039 ( 26)
           0.2282 ( 31)  0.1386 ( 32)  0.2252 ( 34)  0.1849 ( 38)  0.1162 ( 43)
          -0.1326 ( 45)  0.1488 ( 46) -0.1058 ( 49)  0.1141 ( 50) -0.1282 ( 57)
           0.2557 ( 60) -0.1150 ( 66)
 CRD 32=  -0.3155 (  2)  0.1299 (  3)  0.1099 (  4)  0.3338 (  5)  0.2250 (  9)
          -0.2597 ( 10) -0.1143 ( 12) -0.1351 ( 13)  0.1547 ( 18) -0.1442 ( 30)
          -0.1709 ( 32)  0.1625 ( 35) -0.1995 ( 36)  0.1653 ( 37)  0.1582 ( 42)
          -0.1179 ( 45)  0.1824 ( 58) -0.1656 ( 61)  0.2121 ( 62) -0.1100 ( 63)
          -0.1470 ( 65)  0.1175 ( 67)  0.3501 ( 69)
 CRD 33=   0.1873 (  1) -0.2482 (  2) -0.1886 (  5)  0.3416 (  6) -0.1810 (  8)
           0.2271 ( 11) -0.2154 ( 13) -0.1546 ( 29) -0.1821 ( 33)  0.1351 ( 36)
           0.1056 ( 37) -0.2252 ( 39) -0.1575 ( 41)  0.1091 ( 43) -0.1710 ( 48)
           0.1345 ( 59) -0.2114 ( 60)  0.2533 ( 61)  0.1314 ( 63) -0.3086 ( 65)
          -0.1033 ( 66)
 CRD 34=  -0.2565 (  1)  0.1877 (  4) -0.2253 (  9)  0.1837 ( 10)  0.2026 ( 11)
          -0.1997 ( 13) -0.1050 ( 19)  0.1131 ( 21) -0.1634 ( 32)  0.1696 ( 33)
          -0.1770 ( 35)  0.1303 ( 36)  0.1606 ( 37) -0.1418 ( 39)  0.1255 ( 40)
          -0.1412 ( 41) -0.1543 ( 42)  0.1117 ( 43)  0.1396 ( 44)  0.1290 ( 47)
          -0.1347 ( 48)  0.1320 ( 49) -0.1565 ( 50)  0.1182 ( 51)  0.1305 ( 54)
          -0.1550 ( 55)  0.1482 ( 56) -0.1457 ( 58)  0.1061 ( 59)  0.2396 ( 60)
          -0.1794 ( 61)  0.1030 ( 62) -0.1296 ( 65)  0.1371 ( 66)  0.1593 ( 67)
           0.1233 ( 68) -0.1346 ( 69)
 CRD 35=   0.1687 (  1)  0.2788 (  8) -0.1750 (  9) -0.1008 ( 10)  0.1980 ( 11)
          -0.2525 ( 12) -0.1109 ( 17)  0.1164 ( 20) -0.1281 ( 25)  0.1108 ( 32)
           0.2056 ( 34) -0.1324 ( 35)  0.1487 ( 37) -0.1873 ( 38)  0.1958 ( 40)
          -0.1216 ( 43)  0.1838 ( 44) -0.1668 ( 45) -0.1493 ( 47)  0.2515 ( 49)
          -0.1004 ( 53) -0.1413 ( 54)  0.2503 ( 56) -0.1104 ( 59) -0.1654 ( 60)
          -0.1038 ( 62) -0.1508 ( 64)  0.2056 ( 66)  0.1999 ( 67) -0.1118 ( 68)
 CRD 36=  -0.3163 (  3)  0.2240 (  4)  0.1130 (  8) -0.1551 ( 10)  0.1884 ( 12)
          -0.1704 ( 13) -0.1073 ( 22)  0.1156 ( 23)  0.1185 ( 28) -0.2029 ( 31)
           0.1908 ( 33) -0.1182 ( 36)  0.1328 ( 38) -0.1340 ( 39)  0.2171 ( 43)
          -0.1821 ( 45) -0.1619 ( 47)  0.1829 ( 51)  0.1859 ( 52) -0.1624 ( 53)
           0.2613 ( 57) -0.1184 ( 59) -0.1170 ( 60) -0.2607 ( 62)  0.2294 ( 63)
          -0.1577 ( 64)  0.1809 ( 68)
 CRD 37=   0.1564 (  1) -0.1928 (  2)  0.2680 (  5) -0.1283 (  9)  0.1667 ( 10)
           0.1781 ( 16)  0.1452 ( 18)  0.1397 ( 21)  0.1009 ( 23) -0.1172 ( 24)
          -0.1493 ( 26) -0.1308 ( 28) -0.1978 ( 30) -0.1049 ( 35)  0.1132 ( 36)
          -0.1082 ( 40) -0.2776 ( 42)  0.1102 ( 48)  0.2202 ( 50)  0.1177 ( 51)
           0.1403 ( 52)  0.1399 ( 55) -0.2415 ( 58) -0.2439 ( 59) -0.1295 ( 60)
          -0.1250 ( 63)  0.2947 ( 64) -0.1286 ( 66)  0.2551 ( 67)
 CRD 38=  -0.1934 (  2)  0.1447 (  4)  0.2617 (  6) -0.1056 (  9) -0.1329 ( 11)
           0.1664 ( 13)  0.1768 ( 17)  0.1503 ( 18)  0.1416 ( 19) -0.1018 ( 22)
           0.1124 ( 24) -0.1521 ( 27) -0.1387 ( 28) -0.1980 ( 29) -0.1063 ( 37)
           0.1150 ( 39)  0.2814 ( 41)  0.1090 ( 44)  0.2542 ( 48) -0.1509 ( 50)
          -0.1260 ( 53) -0.2364 ( 55) -0.1303 ( 58)  0.1719 ( 59)  0.2230 ( 63)
          -0.2627 ( 66)  0.1506 ( 67) -0.2991 ( 68)
 CRD 39=   0.1346 (  3)  0.2468 (  7)  0.1414 (  8)  0.1407 ( 12)  0.1159 ( 16)
           0.1145 ( 17) -0.1133 ( 18) -0.1399 ( 20)  0.1020 ( 22) -0.1279 ( 23)
          -0.1394 ( 25)  0.1117 ( 28) -0.1183 ( 29) -0.1217 ( 30) -0.2619 ( 40)
          -0.1457 ( 41)  0.1440 ( 42)  0.2551 ( 44)  0.1540 ( 48) -0.1127 ( 50)
           0.2613 ( 51) -0.2645 ( 52) -0.2632 ( 53)  0.2168 ( 54)  0.1819 ( 55)
          -0.1500 ( 58) -0.1221 ( 63) -0.1087 ( 64) -0.1146 ( 66)  0.1156 ( 67)
           0.1089 ( 68)

 THE DETERMINANT OF THE G MATRIX IS 10**(   -12)


                     --------------------
                     INTERNAL COORDINATES
                     --------------------

                 - - ATOMS - -         COORDINATE      COORDINATE
 NO.   TYPE    I  J  K  L  M  N        (BOHR,RAD)       (ANG,DEG)
 ----------------------------------------------------------------
   1 STRETCH   1  7                     2.0949138       1.1085807
   2 STRETCH   1  2                     2.9033773       1.5364012
   3 STRETCH   1  6                     2.0944707       1.1083462
   4 STRETCH   1  5                     2.6636964       1.4095676
   5 STRETCH   2  4                     2.8711965       1.5193719
   6 STRETCH   2  3                     2.8723983       1.5200078
   7 STRETCH   2  8                     2.1127861       1.1180383
   8 STRETCH   3 11                     2.0757844       1.0984579
   9 STRETCH   3 10                     2.0746731       1.0978698
  10 STRETCH   3  9                     2.0747545       1.0979129
  11 STRETCH   4 14                     2.0748110       1.0979428
  12 STRETCH   4 13                     2.0760851       1.0986170
  13 STRETCH   4 12                     2.0740320       1.0975305
  14 STRETCH   5 15                     1.7901462       0.9473047
  15 BEND      1  5 15                  1.8568950     106.3922444
  16 BEND      1  2  3                  1.9112280     109.5052966
  17 BEND      1  2  4                  1.9384032     111.0623225
  18 BEND      1  2  8                  1.8995147     108.8341745
  19 BEND      2  4 14                  1.9400835     111.1585971
  20 BEND      2  4 13                  1.9495291     111.6997912
  21 BEND      2  3 10                  1.9394689     111.1233800
  22 BEND      2  1  5                  1.8889222     108.2272720
  23 BEND      2  1  6                  1.9332303     110.7659391
  24 BEND      2  1  7                  1.9284703     110.4932080
  25 BEND      2  3 11                  1.9480808     111.6168093
  26 BEND      2  3  9                  1.9484700     111.6391053
  27 BEND      2  4 12                  1.9434983     111.3542499
  28 BEND      3  2  4                  1.9260063     110.3520346
  29 BEND      3  2  8                  1.8943734     108.5395989
  30 BEND      4  2  8                  1.8935117     108.4902305
  31 BEND      5  1  7                  1.9095657     109.4100580
  32 BEND      5  1  6                  1.9314696     110.6650552
  33 BEND      6  1  7                  1.8724016     107.2807117
  34 BEND      9  3 10                  1.8748380     107.4203045
  35 BEND      9  3 11                  1.8757523     107.4726923
  36 BEND     10  3 11                  1.8734460     107.3405492
  37 BEND     12  4 13                  1.8762934     107.5036924
  38 BEND     12  4 14                  1.8769008     107.5384921
  39 BEND     13  4 14                  1.8739659     107.3703352
  40 TORSION   1  2  4 12               1.0287516      58.9431230
  41 TORSION   1  2  4 13              -1.0692904     -61.2658274
  42 TORSION   1  2  3 11               1.0442965      59.8337825
  43 TORSION   1  2  4 14               3.1211545     178.8289784
  44 TORSION   1  2  3  9              -1.0554867     -60.4749319
  45 TORSION   1  2  3 10               3.1349835     179.6213246
  46 TORSION   2  1  5 15               3.0313963     173.6862126
  47 TORSION   3  2  1  5               2.8501259     163.3001875
  48 TORSION   3  2  4 13               1.0536067      60.3672160
  49 TORSION   3  2  4 12              -3.1315367    -179.4238336
  50 TORSION   3  2  1  6              -1.3127985     -75.2178126
  51 TORSION   3  2  4 14              -1.0391338     -59.5379783
  52 TORSION   3  2  1  7               0.7596510      43.5247946
  53 TORSION   4  2  3 10               0.9960697      57.0705920
  54 TORSION   4  2  1  5              -1.3015473     -74.5731696
  55 TORSION   4  2  1  6               0.8187135      46.9088303
  56 TORSION   4  2  3  9               3.0887848     176.9743355
  57 TORSION   4  2  1  7               2.8911630     165.6514376
  58 TORSION   4  2  3 11              -1.0946173     -62.7169501
  59 TORSION   5  1  2  8               0.7818361      44.7959106
  60 TORSION   6  1  5 15               0.9100493      52.1419861
  61 TORSION   6  1  2  8               2.9020970     166.2779105
  62 TORSION   7  1  5 15              -1.1494820     -65.8604695
  63 TORSION   7  1  2  8              -1.3086388     -74.9794823
  64 TORSION   8  2  3 10              -1.0767220     -61.6916251
  65 TORSION   8  2  4 13               3.1269238     179.1595342
  66 TORSION   8  2  4 12              -1.0582196     -60.6315154
  67 TORSION   8  2  3  9               1.0159931      58.2121185
  68 TORSION   8  2  4 14               1.0341833      59.2543399
  69 TORSION   8  2  3 11               3.1157763     178.5208328

     ------------------------------------------
     THE POINT GROUP IS C1 , NAXIS= 1, ORDER= 1
     ------------------------------------------

     DIMENSIONS OF THE SYMMETRY SUBSPACES ARE
 A   =  155

 ..... DONE SETTING UP THE RUN .....
 STEP CPU TIME =     0.01 TOTAL CPU TIME =        0.0 (    0.0 MIN)
 TOTAL WALL CLOCK TIME=        0.0 SECONDS, CPU UTILIZATION IS  50.00%


          -----------------------------
          STATIONARY POINT LOCATION RUN
          -----------------------------

 OBTAINING INITIAL HESSIAN, HESS=GUESS   
 DIAGONAL GUESS HESSIAN IN INTERNAL COORDS IS
     1  0.3341     2  0.3626     3  0.3342     4  0.3747     5  0.3748
     6  0.3744     7  0.3280     8  0.3407     9  0.3411    10  0.3411
    11  0.3411    12  0.3406    13  0.3413    14  0.3691    15  0.2165
    16  0.2487    17  0.2488    18  0.2220    19  0.2242    20  0.2242
    21  0.2242    22  0.2439    23  0.2226    24  0.2226    25  0.2242
    26  0.2242    27  0.2243    28  0.2499    29  0.2230    30  0.2230
    31  0.2195    32  0.2195    33  0.2016    34  0.2026    35  0.2026
    36  0.2026    37  0.2026    38  0.2026    39  0.2026    40  0.2500
    41  0.2500    42  0.2500    43  0.2500    44  0.2500    45  0.2500
    46  0.2500    47  0.2500    48  0.2500    49  0.2500    50  0.2500
    51  0.2500    52  0.2500    53  0.2500    54  0.2500    55  0.2500
    56  0.2500    57  0.2500    58  0.2500    59  0.2500    60  0.2500
    61  0.2500    62  0.2500    63  0.2500    64  0.2500    65  0.2500
    66  0.2500    67  0.2500    68  0.2500    69  0.2500
 TRANSFORMING HESSIAN TO SYMMETRY COORDINATES

          PARAMETERS CONTROLLING GEOMETRY SEARCH ARE
          METHOD =QA                  UPHESS =BFGS    
          NNEG   =         0          NFRZ   =         3
          NSTEP  =        50          IFOLOW =         1
          HESS   =GUESS               RESTAR =         F
          IHREP  =         0          HSSEND =         F
          NPRT   =         0          NPUN   =         0
          OPTTOL = 5.000E-04          RMIN   = 1.500E-03
          RMAX   = 1.000E-01          RLIM   = 7.000E-02
          DXMAX  = 3.000E-01          PURIFY =         F
          MOVIE  =         F          TRUPD  =         T
          TRMAX  = 5.000E-01          TRMIN  = 5.000E-02
          ITBMAT =         5          STPT   =         F
          STSTEP = 1.000E-02          PROJCT=          F
          FROZEN COORD(S)=   1   2   3


      ***** EQUILIBRIUM GEOMETRY LOCATED *****
            (SUBJECT TO   3 CONSTRAINT(S))
 COORDINATES OF ALL ATOMS ARE (ANGS)
   ATOM   CHARGE       X              Y              Z
 ------------------------------------------------------------
 C           6.0   2.6508637953   2.3493489376   0.9708921821
 C           6.0   1.5219240945   2.1626287268   1.9755442420
 C           6.0   0.8536868285   0.8016783528   1.7692261773
 C           6.0   1.9952964274   2.3256107713   3.4221865003
 O           8.0   3.1214420460   3.6779349846   1.0398357241
 H           1.0   3.4608044397   1.6515544102   1.1789458282
 H           1.0   2.2818022266   2.1404961695  -0.0313800584
 H           1.0   0.7884211651   2.9402283169   1.7669449407
 H           1.0   0.4441177005   0.7087530226   0.7672923077
 H           1.0   0.0426604387   0.6626588288   2.4777187509
 H           1.0   1.5663848105  -0.0070486446   1.9178832823
 H           1.0   2.4672962961   3.2889853907   3.5804096017
 H           1.0   2.7125108451   1.5499909431   3.6844198915
 H           1.0   1.1547862282   2.2448560712   4.1065461833
 H           1.0   3.8587170763   3.7735658134   0.4606331562


                     --------------------
                     INTERNAL COORDINATES
                     --------------------

                 - - ATOMS - -         COORDINATE      COORDINATE
 NO.   TYPE    I  J  K  L  M  N        (BOHR,RAD)       (ANG,DEG)
 ----------------------------------------------------------------
   1 STRETCH   1  7                     2.0565703       1.0882902
   2 STRETCH   1  2                     2.8775353       1.5227262
   3 STRETCH   1  6                     2.0581601       1.0891315
   4 STRETCH   1  5                     2.6666826       1.4111478
   5 STRETCH   2  4                     2.8928356       1.5308228
   6 STRETCH   2  3                     2.8915241       1.5301288
   7 STRETCH   2  8                     2.0581548       1.0891287
   8 STRETCH   3 11                     2.0563108       1.0881529
   9 STRETCH   3 10                     2.0519431       1.0858416
  10 STRETCH   3  9                     2.0529883       1.0863947
  11 STRETCH   4 14                     2.0539217       1.0868886
  12 STRETCH   4 13                     2.0568945       1.0884618
  13 STRETCH   4 12                     2.0492064       1.0843934
  14 STRETCH   5 15                     1.7809556       0.9424412
  15 BEND      1  5 15                  1.9032729     109.0495035
  16 BEND      1  2  3                  1.9218465     110.1136916
  17 BEND      1  2  4                  1.9618647     112.4065695
  18 BEND      1  2  8                  1.8602183     106.5826574
  19 BEND      2  4 14                  1.9262163     110.3640657
  20 BEND      2  4 13                  1.9343135     110.8279991
  21 BEND      2  3 10                  1.9305945     110.6149189
  22 BEND      2  1  5                  1.9075746     109.2959741
  23 BEND      2  1  6                  1.9248958     110.2884043
  24 BEND      2  1  7                  1.9099294     109.4308958
  25 BEND      2  3 11                  1.9354040     110.8904795
  26 BEND      2  3  9                  1.9445099     111.4122097
  27 BEND      2  4 12                  1.9466504     111.5348546
  28 BEND      3  2  4                  1.9360256     110.9260955
  29 BEND      3  2  8                  1.8913370     108.3656279
  30 BEND      4  2  8                  1.8893993     108.2546084
  31 BEND      5  1  7                  1.9163983     109.8015318
  32 BEND      5  1  6                  1.9239755     110.2356783
  33 BEND      6  1  7                  1.8809068     107.7680238
  34 BEND      9  3 10                  1.8851697     108.0122679
  35 BEND      9  3 11                  1.8852970     108.0195616
  36 BEND     10  3 11                  1.8806364     107.7525258
  37 BEND     12  4 13                  1.8871450     108.1254410
  38 BEND     12  4 14                  1.8867619     108.1034962
  39 BEND     13  4 14                  1.8806486     107.7532276
  40 TORSION   1  2  4 12               0.9852124      56.4485146
  41 TORSION   1  2  4 13              -1.1183849     -64.0787373
  42 TORSION   1  2  3 11               1.0625347      60.8787563
  43 TORSION   1  2  4 14               3.0828403     176.6337354
  44 TORSION   1  2  3  9              -1.0380203     -59.4741812
  45 TORSION   1  2  3 10              -3.1351679    -179.6318899
  46 TORSION   2  1  5 15               3.0734163     176.0937848
  47 TORSION   3  2  1  5               2.9891376     171.2649715
  48 TORSION   3  2  4 13               1.0418475      59.6934644
  49 TORSION   3  2  4 12              -3.1377404    -179.7792837
  50 TORSION   3  2  1  6              -1.1762359     -67.3933500
  51 TORSION   3  2  4 14              -1.0401126     -59.5940629
  52 TORSION   3  2  1  7               0.8899884      50.9925787
  53 TORSION   4  2  3 10               0.9650626      55.2940134
  54 TORSION   4  2  1  5              -1.1259465     -64.5119835
  55 TORSION   4  2  1  6               0.9918653      56.8296951
  56 TORSION   4  2  3  9               3.0622102     175.4517221
  57 TORSION   4  2  1  7               3.0580895     175.2156238
  58 TORSION   4  2  3 11              -1.1204201     -64.1953403
  59 TORSION   5  1  2  8               0.9412930      53.9321177
  60 TORSION   6  1  5 15               0.9550471      54.7201657
  61 TORSION   6  1  2  8               3.0591048     175.2737963
  62 TORSION   7  1  5 15              -1.1145876     -63.8611627
  63 TORSION   7  1  2  8              -1.1578562     -66.3402750
  64 TORSION   8  2  3 10              -1.1067372     -63.4113686
  65 TORSION   8  2  4 13               3.1148165     178.4658416
  66 TORSION   8  2  4 12              -1.0647714     -61.0069064
  67 TORSION   8  2  3  9               0.9904105      56.7463401
  68 TORSION   8  2  4 14               1.0328564      59.1783144
  69 TORSION   8  2  3 11               3.0909655     177.0992777

          INTERNUCLEAR DISTANCES (ANGS.)


 =====================================================
   GAMESS/COSab RESULTS
 =====================================================

   Dielectric Constant                  = INFTY
   Basic Grid Size                      =                 1082
   Number of Segments                   =                   92
   Number of Segments located on spheres=                  210
   Number of Segments of the cavity     =                  513
   Solvent Radius (rsolv)               = 1.40
   Outlying Charge Error Method         = double cavity

 =====================================================

  Total solvated Energy (a.u.)          =  -232.2230650863
  Total Energy corrected (a.u.)         =  -232.2230239068

  Outlying charge effect (a.u.)         =     0.0000411795
  Outlying charge effect (kcal/mol)     =     0.0258405477

  Dielectric Energy (a.u.)              =    -0.0097293854
  Dielectric energy corr. (a.u.)        =    -0.0096882059

  Sum of polarization charges           =     0.0222610201
  Sum of polarization charges(cor.)     =    -0.0222610201

  Total surface area of cavity (A**2)   =  123.72
  Total volume of cavity (A**3)         =  113.14

 =====================================================
 NPS=                   513
NR.  ATOM  (X, Y, Z)(a.u.)                  CHARGE(e)  AREA(A**2) SIGMA(e/A**2)
   1   1   6.748005   2.839654  -1.115147   0.001031   0.418105   0.002467
   2   1   2.360400   5.978633  -0.378529   0.000133   0.139368   0.000956
   3   1   2.604134   6.754761   0.062986   0.000237   0.139368   0.001698
   4   1   3.831659   6.491290  -1.112797   0.000164   0.046456   0.003520
   5   1   8.640753   4.056799   0.859482  -0.000376   0.092912  -0.004043
   6   1   7.168765   2.228516  -0.340715   0.000650   0.278737   0.002331
   7   1   8.142583   4.540492   3.945948   0.000286   0.139368   0.002050
   8   1   5.322839   1.226899  -0.131109   0.000121   0.232280   0.000519
   9   1   6.065699   1.731027  -0.580251   0.001086   0.418105   0.002598
  10   1   7.497940   3.470715  -0.839745   0.000071   0.325193   0.000219
  11   1   8.048947   4.027239  -0.373327  -0.000281   0.139368  -0.002018
  12   1   6.714069   4.196686  -1.529718   0.000046   0.185824   0.000245
  13   1   5.828322   5.553292  -1.682870  -0.000581   0.092912  -0.006251
  14   1   2.920588   6.468109  -0.574916   0.000491   0.185824   0.002641
  15   1   8.124875   3.436523  -0.055248   0.000085   0.232280   0.000365
  16   1   6.078342   1.154837   0.301136   0.000068   0.139368   0.000488
  17   1   8.598910   4.679498   2.993256  -0.000001   0.092912  -0.000007
  18   1   7.112809   4.528114  -1.304102  -0.000377   0.232280  -0.001624
  19   2  -0.585980   4.893336   5.017075   0.000149   0.139368   0.001073
  20   2   0.677095   4.940898   0.780363   0.000020   0.139368   0.000143
  21   2  -0.326735   5.236714   5.377687   0.000051   0.046456   0.001107
  22   3   3.060239  -1.024406   0.947086   0.001063   0.232280   0.004578
  23   3  -0.524766  -1.555934   2.811429   0.000859   0.371649   0.002312
  24   3  -2.118710   1.833121   2.837727   0.001683   0.371649   0.004529
  25   3   2.491646  -0.696869   6.279429   0.000528   0.139368   0.003789
  26   3  -0.440993   3.646136   0.993367   0.000112   0.092912   0.001206
  27   3  -1.891642   1.657059   1.936251   0.001157   0.278737   0.004152
  28   3  -0.625867  -1.096811   1.778287   0.001184   0.418105   0.002831
  29   3   2.450681  -0.783931   0.462715   0.001034   0.232280   0.004452
  30   3   1.437978  -1.503109   5.611594   0.001604   0.325193   0.004932
  31   3   0.963028  -1.059833   6.032599   0.001002   0.232280   0.004316
  32   3   3.456053  -0.364235   0.630990   0.000808   0.185824   0.004346
  33   3   1.970826  -1.618322   1.260324   0.002396   0.511017   0.004690
  34   3   0.534005  -1.861850   2.033090   0.001157   0.418105   0.002767
  35   3  -1.430848  -0.690676   2.952080   0.001526   0.418105   0.003649
  36   3  -2.007030   0.626203   2.720355   0.001640   0.325193   0.005042
  37   3  -1.721607   2.852305   2.170923   0.001108   0.325193   0.003408
  38   3  -1.292149   3.563954   2.060937   0.000386   0.139368   0.002768
  39   3   1.115031  -2.101057   4.323457   0.001273   0.371649   0.003425
  40   3   0.375999  -2.055669   3.408513   0.001173   0.464561   0.002525
  41   3  -0.688751  -1.433313   3.884593   0.000865   0.325193   0.002660
  42   3  -1.942177   2.796766   3.360240   0.000897   0.278737   0.003219
  43   3  -1.459687   3.573740   4.119768   0.000378   0.185824   0.002032
  44   3   1.674951  -0.524648   6.524632   0.001526   0.325193   0.004692
  45   3  -1.190572   3.201903   1.452025   0.000341   0.139368   0.002447
  46   3  -1.597160  -0.096002   2.167552   0.001296   0.325193   0.003985
  47   3   0.896695  -1.519793   1.207659   0.000926   0.278737   0.003323
  48   3   2.912964   0.042592   0.114252   0.000414   0.139368   0.002974
  49   3   0.228339  -1.676737   4.819674   0.001569   0.418105   0.003752
  50   3   1.438010  -2.191877   2.627095   0.001038   0.371649   0.002792
  51   3  -1.621392   3.458911   3.137246   0.000562   0.232280   0.002418
  52   4   2.152044   6.929890   8.755638   0.001172   0.232280   0.005046
  53   4   5.440663   4.778357   9.835662   0.000951   0.371649   0.002559
  54   4   7.535599   4.583659   6.737214   0.001826   0.371649   0.004914
  55   4   2.314220   1.565562   8.506353   0.000545   0.139368   0.003908
  56   4   7.363703   5.432548   7.011568   0.001002   0.232280   0.004312
  57   4   5.698646   5.794597   9.400807   0.001281   0.418105   0.003064
  58   4   2.681673   7.467413   8.379450   0.001742   0.371649   0.004689
  59   4   2.530185   7.945523   6.095674   0.000457   0.185824   0.002457
  60   4   3.281685   2.151465   9.469147   0.001680   0.325193   0.005167
  61   4   3.782828   1.687665   9.104371   0.001106   0.232280   0.004762
  62   4   1.631317   7.502283   6.693453   0.001046   0.325193   0.003217
  63   4   1.595526   7.206948   7.749643   0.001397   0.325193   0.004295
  64   4   3.105277   6.532998   9.511613   0.002524   0.511017   0.004940
  65   4   4.416405   5.645540   9.974526   0.001283   0.418105   0.003068
  66   4   6.455493   4.553508   9.122218   0.001657   0.418105   0.003963
  67   4   7.247376   4.722545   7.912177   0.001733   0.325193   0.005329
  68   4   0.320425   5.928247   6.638211   0.000178   0.092912   0.001919
  69   4   3.614635   3.414312  10.113737   0.001356   0.371649   0.003649
  70   4   4.426009   4.263826  10.186882   0.001270   0.464561   0.002734
  71   4   5.530911   3.694027   9.737228   0.000983   0.325193   0.003022
  72   4   3.124227   1.251234   8.463179   0.001628   0.325193   0.005005
  73   4   6.777880   5.315155   8.562985   0.001392   0.325193   0.004280
  74   4   4.182210   6.494756   9.582265   0.001033   0.278737   0.003707
  75   4   2.362901   7.831624   7.167574   0.000800   0.232280   0.003442
  76   4   4.511725   2.841383   9.831810   0.001664   0.418105   0.003981
  77   4   0.811938   6.679098   7.026191   0.000993   0.325193   0.003054
  78   4   3.425282   5.132575  10.157626   0.001166   0.371649   0.003138
  79   5   3.595007   9.226876   1.691192   0.006781   0.309230   0.021928
  80   5   5.742765   9.466864   4.016161   0.003907   0.171795   0.022740
  81   5   6.673440  10.031482   1.278948   0.001625   0.274871   0.005913
  82   5   8.696016   7.896055   3.323326   0.003108   0.343589   0.009044
  83   5   5.260462   7.915709  -1.072313   0.002083   0.240512   0.008659
  84   5   4.065580   9.571989   2.540478   0.006758   0.343589   0.019670
  85   5   4.835729   9.564696   3.577373   0.005035   0.274871   0.018316
  86   5   3.356675   8.601410   0.791663   0.005269   0.240512   0.021906
  87   5   7.518291   9.768180   1.996743   0.000765   0.274871   0.002784
  88   5   8.260381   9.013272   2.820049   0.001647   0.309230   0.005328
  89   5   8.824710   6.923996   3.380007   0.002354   0.240512   0.009789
  90   5   8.863747   6.139710   3.021366   0.001112   0.171795   0.006471
  91   5   5.596833   8.991541  -0.546340   0.002697   0.309230   0.008720
  92   5   6.097673   9.714517   0.266732   0.002025   0.309230   0.006547
  93   5   4.554240   9.880256   1.549673   0.006061   0.343589   0.017639
  94   5   5.592189  10.112203   1.277206   0.004825   0.377948   0.012766
  95   5   6.453899  10.123570   2.397101   0.005503   0.481025   0.011440
  96   5   6.064321   9.862337   3.399312   0.004984   0.309230   0.016119
  97   5   6.854272   9.194144   4.113639   0.006080   0.343589   0.017697
  98   5   7.896937   8.577840   3.945580   0.007603   0.446666   0.017021
  99   5   8.234232   7.308753   4.196888   0.006124   0.343589   0.017824
 100   5   4.530575   7.989433  -0.794188   0.003354   0.240512   0.013947
 101   5   4.639325   8.802182  -0.390672   0.004113   0.274871   0.014965
 102   5   4.020299   9.176481   0.522621   0.006421   0.343589   0.018689
 103   5   4.034077   9.199322   3.389728   0.005296   0.240512   0.022020
 104   5   5.163172  10.046949   2.624129   0.006444   0.377948   0.017050
 105   5   3.743267   8.230456  -0.103828   0.004262   0.274871   0.015506
 106   5   7.383922   9.579036   3.168503   0.004585   0.412307   0.011121
 107   5   8.427325   6.309022   3.903898   0.002508   0.171795   0.014597
 108   5   4.979480   9.640853   0.389999   0.005717   0.377948   0.015128
 109   6   8.453776   1.601931   2.482733  -0.001958   0.372926  -0.005250
 110   6   8.629852   3.308037   3.505589  -0.001194   0.333671  -0.003579
 111   6   8.955476   3.134203   1.780314  -0.001463   0.353299  -0.004142
 112   6   7.784842   1.445711   0.932165  -0.001119   0.372926  -0.003000
 113   6   8.364592   2.120774   3.533810  -0.002191   0.392554  -0.005581
 114   6   8.945377   2.958567   2.699885  -0.001511   0.372926  -0.004051
 115   6   8.629208   1.960356   1.659399  -0.001522   0.314043  -0.004846
 116   6   7.351618   0.873069   1.659365  -0.002189   0.471065  -0.004647
 117   6   7.650902   1.084554   3.036509  -0.002708   0.412182  -0.006569
 118   6   8.477833   2.434611   0.882989  -0.000680   0.294415  -0.002309
 119   7   3.896388   3.852579  -2.472884  -0.002459   0.451437  -0.005447
 120   7   3.874714   5.478030  -2.006134  -0.000945   0.333671  -0.002831
 121   7   2.336414   4.762697  -1.330935  -0.001274   0.333671  -0.003817
 122   7   4.655055   2.198398  -1.642867  -0.001422   0.412182  -0.003449
 123   7   5.332570   4.132046  -2.292219  -0.001030   0.372926  -0.002761
 124   7   3.101757   5.038457  -1.952283  -0.001614   0.412182  -0.003915
 125   7   2.795937   3.796853  -1.976371  -0.002254   0.372926  -0.006043
 126   7   3.711412   2.686956  -2.016414  -0.002562   0.431809  -0.005932
 127   7   5.118719   3.112372  -2.184060  -0.001393   0.412182  -0.003380
 128   7   4.646450   4.898383  -2.338528  -0.001306   0.372926  -0.003501
 129   8  -0.201177   7.305794   3.000830  -0.002262   0.510320  -0.004433
 130   8   0.158203   7.247733   4.522480  -0.000611   0.274788  -0.002225
 131   8  -0.874615   5.866981   3.928666  -0.000739   0.353299  -0.002091
 132   8  -0.308805   5.834688   1.689127  -0.000809   0.333671  -0.002426
 133   8   0.733683   7.120741   1.602522  -0.000996   0.314043  -0.003171
 134   8  -0.497009   6.696331   4.226455  -0.001301   0.451437  -0.002882
 135   8  -0.822247   6.140165   2.749024  -0.001375   0.431809  -0.003184
 136   8   0.043833   6.633944   1.670958  -0.001218   0.392554  -0.003104
 137   8   0.773755   7.795931   2.627741  -0.001567   0.372926  -0.004202
 138   8   0.916060   7.885398   3.868923  -0.001345   0.471065  -0.002854
 139   9  -0.266647   0.863877  -0.691519  -0.002585   0.471065  -0.005487
 140   9   1.458638  -0.083376  -0.454574  -0.000752   0.372926  -0.002017
 141   9  -0.419647   2.818731  -0.053926  -0.001254   0.353299  -0.003549
 142   9  -1.449028   1.222080   0.563924  -0.000830   0.372926  -0.002225
 143   9  -0.420374  -0.484680   0.391057  -0.000584   0.314043  -0.001859
 144   9   1.017791   0.829900  -0.946625  -0.002203   0.412182  -0.005344
 145   9   0.152576   1.984187  -0.818896  -0.002459   0.431809  -0.005695
 146   9  -1.029292   2.033206   0.013939  -0.001528   0.431809  -0.003539
 147   9  -1.042905   0.375454   0.199595  -0.001545   0.431809  -0.003579
 148   9   0.353850  -0.313519  -0.301448  -0.001635   0.471065  -0.003471
 149  10  -1.902810   0.764015   6.047012  -0.002510   0.451437  -0.005561
 150  10  -0.078477   0.169635   6.881688  -0.001036   0.333671  -0.003105
 151  10  -0.941559  -0.718288   5.734459  -0.000871   0.353299  -0.002466
 152  10  -2.245161   0.492797   4.460716  -0.000878   0.372926  -0.002354
 153  10  -2.029447   2.474518   4.980077  -0.000776   0.353299  -0.002197
 154  10  -1.166589   1.051961   6.789198  -0.002264   0.372926  -0.006070
 155  10  -0.815831  -0.170239   6.473292  -0.001438   0.372926  -0.003857
 156  10  -1.780197  -0.266638   5.197411  -0.001712   0.471065  -0.003635
 157  10  -2.359462   1.394702   4.928719  -0.001666   0.451437  -0.003689
 158  10  -1.748225   2.229691   5.999392  -0.002568   0.490692  -0.005233
 159  11   4.235717  -2.100180   3.854023  -0.002316   0.451437  -0.005130
 160  11   3.472476  -1.465962   5.538009  -0.000898   0.353299  -0.002542
 161  11   3.977944  -1.666693   2.119175  -0.000802   0.372926  -0.002151
 162  11   2.763541  -2.461278   3.560781  -0.000911   0.412182  -0.002210
 163  11   4.369465  -1.541619   4.933070  -0.001940   0.392554  -0.004943
 164  11   5.094230  -1.119706   4.130473  -0.002415   0.412182  -0.005859
 165  11   4.843494  -1.363573   2.809103  -0.002182   0.431809  -0.005053
 166  11   3.553226  -2.256297   2.816620  -0.001463   0.431809  -0.003388
 167  11   3.049408  -2.209074   4.722375  -0.001388   0.490692  -0.002829
 168  12   5.707776   8.314247   7.498725  -0.002391   0.412182  -0.005800
 169  12   4.028441   8.284005   7.929386  -0.000822   0.372926  -0.002204
 170  12   3.852608   8.534281   6.803935  -0.001204   0.372926  -0.003229
 171  12   6.959076   6.879882   7.330965  -0.000913   0.314043  -0.002906
 172  12   5.569931   7.351897   8.745848  -0.000896   0.372926  -0.002404
 173  12   4.916491   8.650054   6.972185  -0.002123   0.372926  -0.005693
 174  12   6.496462   7.785249   7.220901  -0.001585   0.294415  -0.005384
 175  12   6.416640   7.168123   8.197859  -0.001037   0.372926  -0.002782
 176  12   4.841015   7.977272   8.468541  -0.001258   0.392554  -0.003204
 177  13   6.625079   1.321271   8.059172  -0.001894   0.392554  -0.004826
 178  13   4.892278   0.738820   8.050360  -0.000783   0.294415  -0.002660
 179  13   5.850990   1.873759   9.059127  -0.000677   0.314043  -0.002155
 180  13   7.351401   2.952710   8.002601  -0.000636   0.333671  -0.001906
 181  13   7.572034   2.707161   6.914083  -0.000976   0.333671  -0.002926
 182  13   5.952520   0.650883   7.364694  -0.001961   0.392554  -0.004997
 183  13   5.436708   1.152153   8.630200  -0.000991   0.372926  -0.002656
 184  13   6.701491   2.438352   8.782385  -0.001199   0.431809  -0.002776
 185  13   7.326140   1.969346   7.485073  -0.001427   0.333671  -0.004277
 186  13   6.848565   1.198788   6.691009  -0.002624   0.451437  -0.005813
 187  14   0.518236   4.360315   9.563659  -0.002487   0.471065  -0.005279
 188  14   1.462867   2.476147   9.309071  -0.000844   0.392554  -0.002149
 189  14  -0.118820   5.101994   7.791238  -0.001211   0.353299  -0.003426
 190  14   1.047307   5.756342   9.326871  -0.000858   0.372926  -0.002300
 191  14   2.079555   4.341516  10.212738  -0.000490   0.274788  -0.001783
 192  14   0.518584   3.096715   9.158596  -0.002259   0.431809  -0.005232
 193  14  -0.144753   4.070326   8.528850  -0.002391   0.431809  -0.005538
 194  14   0.281557   5.535838   8.625664  -0.001423   0.451437  -0.003152
 195  14   1.503340   5.122437   9.950986  -0.001122   0.392554  -0.002859
 196  14   1.627258   3.465722  10.023936  -0.001609   0.510320  -0.003153
 197  15   9.149059   7.429527  -0.709715  -0.008783   0.471065  -0.018645
 198  15   9.414528   8.147777   1.574600  -0.006017   0.451437  -0.013329
 199  15   8.033005   9.271237  -0.081013  -0.006779   0.471065  -0.014391
 200  15   7.035446   7.628869  -1.521484  -0.006234   0.471065  -0.013234
 201  15   8.661606   6.300005  -0.991907  -0.005865   0.353299  -0.016600
 202  15   9.554382   6.178422   0.964805  -0.005754   0.353299  -0.016287
 203  15   9.236352   8.448794   0.150955  -0.008597   0.490692  -0.017520
 204  15   8.315763   8.276121  -1.046701  -0.008488   0.490692  -0.017297
 205  15   7.908768   6.850938  -1.490912  -0.007523   0.451437  -0.016665
 206  15   9.285136   6.092900  -0.121733  -0.007596   0.412182  -0.018428
 207  15   9.722481   7.279225   0.545717  -0.007802   0.451437  -0.017282
 208  15   8.709388   9.131905   1.019799  -0.005303   0.412182  -0.012865
 209  15   7.225812   8.797324  -0.933450  -0.004505   0.372926  -0.012080
 210  15   9.543247   6.838425   1.809079  -0.004423   0.392554  -0.011268
 211   1   1.841296   5.082654  -0.138470  -0.000072   0.027972  -0.002585
 212   2   1.502511   5.010682   0.217258  -0.000060   0.027972  -0.002127
 213   7   1.947195   4.931688  -0.379995  -0.000107   0.027972  -0.003836
 214   1   1.619592   5.651633   0.379063  -0.000027   0.031144  -0.000851
 215   2   1.226166   5.603637   0.678251  -0.000040   0.031144  -0.001272
 216   8   1.073071   5.808140   0.843813  -0.000073   0.031144  -0.002344
 217   2   1.251350   5.346930   0.500406   0.000017   0.078168   0.000214
 218   1   1.768633   5.344952   0.002646  -0.000003   0.078168  -0.000040
 219   1   4.305793   1.371219  -0.332924  -0.000212   0.069120  -0.003069
 220   3   3.698782   0.911668  -0.014223  -0.000078   0.069120  -0.001126
 221   7   4.179607   1.531194  -0.560886  -0.000280   0.069120  -0.004044
 222   1   5.012243   0.489893   1.143533  -0.000137   0.064480  -0.002120
 223   3   4.458841  -0.081049   1.363616   0.000022   0.064480   0.000339
 224  11   4.537525  -0.260096   1.597963  -0.000118   0.064480  -0.001835
 225   3   3.913723   0.257618   0.518712   0.000541   0.427251   0.001267
 226   1   4.950235   0.878256   0.363334  -0.000403   0.427251  -0.000944
 227   1   7.799821   5.071219   4.386580   0.000655   0.113124   0.005793
 228   4   7.509130   5.060830   5.173209   0.000662   0.113124   0.005856
 229   5   7.861585   5.538347   4.335167   0.001654   0.113124   0.014625
 230   1   7.849365   4.138465   4.370171  -0.000031   0.067183  -0.000463
 231   4   7.552843   4.129765   5.152933   0.000136   0.067183   0.002031
 232   6   7.930326   3.861332   4.269121  -0.000179   0.067183  -0.002667
 233   4   7.601970   4.493590   5.629057   0.000484   0.159365   0.003035
 234   1   7.905928   4.619793   4.474675   0.000368   0.159365   0.002311
 235   1   2.511940   7.097808   0.707000   0.000533   0.094871   0.005618
 236   5   2.769700   7.485565   0.789483   0.001473   0.094871   0.015527
 237   8   1.957859   7.106240   1.189759   0.000194   0.094871   0.002049
 238   1   8.757824   5.184637   2.412361  -0.000115   0.038549  -0.002973
 239   5   8.856532   5.644910   2.425289  -0.000104   0.038549  -0.002710
 240  15   8.983592   5.751502   2.149563  -0.000365   0.038549  -0.009456
 241   1   5.606680   6.497652  -1.381978  -0.000070   0.038549  -0.001816
 242   5   5.764478   6.933304  -1.297900  -0.000109   0.038549  -0.002840
 243  15   6.081634   6.960687  -1.344728  -0.000403   0.038549  -0.010467
 244   5   8.431610   5.681033   3.447215   0.002331   0.247552   0.009415
 245   1   8.462163   4.977962   3.176550   0.000581   0.270764   0.002145
 246   5   5.200984   7.066652  -1.203683   0.000823   0.172632   0.004765
 247   5   3.784018   7.520819  -0.284395   0.005435   0.359342   0.015124
 248   1   4.361487   6.649444  -1.044648   0.001685   0.370793   0.004545
 249   1   2.974083   7.084564   0.039901   0.001444   0.188867   0.007645
 250   1   5.723683   0.698205   1.330400  -0.000287   0.087181  -0.003294
 251   6   5.985166   0.700963   1.491535  -0.000349   0.087181  -0.004005
 252  11   5.151620   0.068270   1.848696  -0.000143   0.087181  -0.001644
 253   1   8.730644   4.347766   1.123542  -0.000203   0.019454  -0.010460
 254   6   8.741858   4.084326   1.274105  -0.000123   0.019454  -0.006328
 255  15   8.876634   4.978374   0.980503  -0.000469   0.019454  -0.024096
 256   1   8.764578   4.725301   2.257652  -0.000127   0.019454  -0.006524
 257   6   8.772390   4.424011   2.294513  -0.000141   0.019454  -0.007273
 258  15   8.906733   5.313237   1.986427  -0.000200   0.019454  -0.010281
 259   6   6.564817   0.964712   1.054092  -0.000296   0.071537  -0.004134
 260   6   7.295768   1.646188   0.494135  -0.000568   0.159717  -0.003558
 261   6   8.191170   2.699275   0.540321  -0.000646   0.159717  -0.004046
 262   6   8.720595   3.500133   1.165290  -0.000300   0.071537  -0.004189
 263   1   6.520575   1.286281   0.540027  -0.000432   0.156014  -0.002768
 264   1   7.555344   2.351650   0.084859  -0.000355   0.156014  -0.002274
 265   1   8.418637   3.518601   0.637932  -0.000654   0.156014  -0.004192
 266   6   8.754441   4.016426   2.765117  -0.000326   0.080435  -0.004047
 267   6   8.376267   3.848626   3.674549  -0.000269   0.080435  -0.003339
 268   1   8.440665   4.319838   3.239445  -0.000619   0.170801  -0.003624
 269   7   2.236420   5.128794  -0.799664  -0.000194   0.070525  -0.002752
 270   7   3.083962   5.737072  -1.238507  -0.000518   0.157056  -0.003298
 271   7   4.363573   5.778888  -1.718409  -0.000650   0.157056  -0.004141
 272   7   5.450473   4.983177  -1.952824  -0.000742   0.157056  -0.004727
 273   7   5.880210   3.689960  -1.841582  -0.000569   0.157056  -0.003622
 274   7   5.469150   2.451853  -1.432219  -0.000452   0.157056  -0.002880
 275   7   4.652862   1.800527  -0.995915  -0.000314   0.070525  -0.004455
 276   1   2.491867   5.651313  -0.637233  -0.000454   0.154172  -0.002944
 277   1   3.802285   6.188102  -1.231621  -0.000359   0.154172  -0.002326
 278   1   5.208603   5.740093  -1.656110  -0.000441   0.154172  -0.002859
 279   1   6.109877   4.498731  -1.729307  -0.000550   0.154172  -0.003570
 280   1   6.120976   2.994470  -1.419933  -0.000355   0.154172  -0.002305
 281   1   5.237157   1.870110  -0.860191  -0.000499   0.154172  -0.003237
 282   8   1.260268   6.600550   1.136489  -0.000686   0.267112  -0.002566
 283   1   1.967416   6.244169   0.342447   0.000229   0.376436   0.000609
 284  11   4.713243  -0.457288   1.751105  -0.000023   0.092522  -0.000251
 285   1   5.543710   0.548694   1.068922   0.000142   0.131390   0.001079
 286  15   9.132074   5.737249   1.992788  -0.000167   0.037301  -0.004475
 287   1   8.833456   4.904572   2.328839  -0.000034   0.045571  -0.000753
 288  15   8.999596   5.307714   0.480268  -0.002848   0.196468  -0.014498
 289  15   8.230236   5.531677  -0.715800  -0.007587   0.409266  -0.018537
 290  15   6.909563   6.397527  -1.425262  -0.005669   0.409266  -0.013851
 291   1   8.361910   4.510242   0.111959  -0.003974   0.463761  -0.008570
 292   1   7.093726   5.102914  -1.235759  -0.003701   0.463761  -0.007981
 293   1   5.852334   6.037381  -1.566026  -0.000493   0.240029  -0.002055
 294   2  -0.798940   4.687576   4.427886  -0.000001   0.029362  -0.000019
 295   3  -0.979533   4.229214   4.348794   0.000059   0.029362   0.001995
 296   8  -0.798729   4.949109   4.272264  -0.000022   0.029362  -0.000739
 297   2   0.153095   4.713167   1.175470   0.000001   0.029362   0.000017
 298   3  -0.039697   4.254477   1.138051   0.000050   0.029362   0.001699
 299   8   0.068252   4.972413   1.310417  -0.000028   0.029362  -0.000965
 300   2   0.204499   4.220470   0.910112   0.000015   0.025291   0.000605
 301   3  -0.039013   3.796062   0.813015  -0.000013   0.025291  -0.000523
 302   9  -0.057126   3.572242   0.609787  -0.000036   0.025291  -0.001425
 303   2  -0.798454   4.095560   5.004581  -0.000001   0.026349  -0.000025
 304   3  -1.052716   3.669489   4.952692  -0.000018   0.026349  -0.000686
 305  10  -1.154038   3.437425   5.118422  -0.000056   0.026349  -0.002116
 306   3  -1.092399   3.860601   4.704200   0.000114   0.084639   0.001341
 307   2  -0.803561   4.522646   4.705396   0.000103   0.084639   0.001216
 308   3  -0.116166   3.952592   0.935390   0.000054   0.024292   0.002226
 309   2   0.215783   4.582145   1.011289   0.000041   0.024292   0.001698
 310   2  -0.033864   5.707479   5.537458   0.000016   0.029496   0.000538
 311   4   0.157476   5.745696   5.996945   0.000070   0.029496   0.002357
 312   8  -0.084060   5.901939   5.308796  -0.000011   0.029496  -0.000378
 313   2   0.016440   5.373090   6.032209   0.000030   0.026769   0.001139
 314   4   0.131648   5.441994   6.512936  -0.000001   0.026769  -0.000049
 315  14   0.086642   5.310387   6.782296  -0.000026   0.026769  -0.000967
 316   4   0.140881   5.636227   6.362786   0.000077   0.034257   0.002241
 317   2  -0.093374   5.522039   5.695193   0.000067   0.034257   0.001959
 318   2   1.148521   4.317326   0.284507  -0.000199   0.167514  -0.001186
 319   7   1.645451   4.243594  -0.276933  -0.000451   0.167514  -0.002695
 320   9   0.872336   3.639562   0.060631  -0.000357   0.167514  -0.002129
 321   7   1.926240   4.705815  -0.569826  -0.000173   0.060157  -0.002872
 322   2   1.223859   4.879319   0.280382   0.000084   0.084866   0.000994
 323   8   0.505659   5.678141   1.115656  -0.000237   0.095746  -0.002470
 324   2   0.545528   5.213055   1.001950  -0.000136   0.116975  -0.001160
 325   8  -0.594048   5.564567   4.559367  -0.000260   0.113897  -0.002285
 326   2  -0.411153   5.378489   4.982824  -0.000146   0.139150  -0.001047
 327   9   0.085042   3.452396   0.310300  -0.000265   0.135451  -0.001957
 328   2   0.574807   4.437235   0.604147   0.000233   0.190850   0.001221
 329   2  -0.377485   4.237176   5.805307  -0.000035   0.168890  -0.000208
 330  10  -0.695131   3.547865   5.862926  -0.000211   0.168890  -0.001248
 331  14  -0.225975   4.215499   6.550215  -0.000232   0.168890  -0.001374
 332  10  -1.166042   3.309481   5.452798  -0.000167   0.088132  -0.001893
 333   2  -0.714726   4.325596   5.256878   0.000197   0.124248   0.001582
 334  14  -0.066469   5.004101   6.944533  -0.000251   0.149669  -0.001677
 335   2  -0.290347   4.934756   5.835899   0.000292   0.210920   0.001383
 336   3   1.244533   0.615847   7.036992   0.000142   0.067055   0.002118
 337   4   1.640139   1.166605   7.518449   0.000198   0.067055   0.002947
 338  10   0.943855   0.662960   7.035606  -0.000089   0.067055  -0.001328
 339   3   3.267855   0.253019   6.774098   0.000206   0.065386   0.003157
 340   4   3.651663   0.687842   7.369957   0.000187   0.065386   0.002860
 341  13   3.956301   0.665984   7.372700  -0.000041   0.065386  -0.000625
 342   4   2.548708   0.987610   7.723122   0.001322   0.495658   0.002667
 343   3   2.328218   0.139086   6.846965   0.001237   0.495658   0.002496
 344   3   2.864257   0.791137  -0.216920  -0.000063   0.084208  -0.000753
 345   7   3.352689   1.497278  -0.635995  -0.000218   0.084208  -0.002585
 346   9   2.599184   0.846152  -0.359211  -0.000142   0.084208  -0.001681
 347   7   4.004964   1.599248  -0.844469  -0.000235   0.119059  -0.001973
 348   3   3.218319   0.624638  -0.189456   0.000350   0.168427   0.002080
 349   8  -0.220798   5.134674   1.564743  -0.000159   0.168324  -0.000946
 350   8  -0.804865   5.118019   2.663892  -0.000723   0.342174  -0.002114
 351   8  -0.905713   5.116263   3.904603  -0.000136   0.168324  -0.000805
 352   3  -0.743296   4.076843   1.764935   0.000776   0.464202   0.001671
 353   3  -1.233313   4.063672   3.438968   0.000670   0.464202   0.001444
 354   9   2.183167   0.229074  -0.278223  -0.000137   0.071621  -0.001913
 355   9   1.429392  -0.553450   0.102470  -0.000267   0.160245  -0.001666
 356   9   0.175239  -0.816807   0.639558  -0.000369   0.160245  -0.002302
 357   9  -0.981982  -0.167883   1.052422  -0.000350   0.160245  -0.002183
 358   9  -1.528559   1.105253   1.157783  -0.000290   0.160245  -0.001809
 359   9  -1.221855   2.437429   0.908870  -0.000339   0.160245  -0.002118
 360   9  -0.456917   3.207360   0.524782  -0.000139   0.071621  -0.001946
 361   3   2.226735  -0.236665   0.110491  -0.000002   0.155855  -0.000010
 362   3   1.006750  -1.024035   0.682208   0.000009   0.155855   0.000060
 363   3  -0.429349  -0.794410   1.247954  -0.000142   0.155855  -0.000908
 364   3  -1.444049   0.350276   1.556584   0.000054   0.155855   0.000348
 365   3  -1.586905   1.901875   1.471091  -0.000006   0.155855  -0.000036
 366   3  -0.794502   3.171601   1.029427  -0.000203   0.155855  -0.001303
 367  10  -1.531444   3.079087   5.009099  -0.000144   0.066442  -0.002165
 368  10  -2.008501   2.397985   4.329358  -0.000344   0.146387  -0.002347
 369  10  -2.190900   1.189746   3.883486  -0.000185   0.146387  -0.001266
 370  10  -1.839869  -0.052716   4.041527  -0.000299   0.146387  -0.002043
 371  10  -1.090358  -0.851758   4.742724  -0.000313   0.146387  -0.002136
 372  10  -0.230502  -0.900200   5.717513  -0.000243   0.146387  -0.001660
 373  10   0.409140  -0.179421   6.591154  -0.000212   0.146387  -0.001449
 374   3  -1.596189   3.096121   4.425417  -0.000187   0.146728  -0.001275
 375   3  -2.085564   1.962804   3.642844  -0.000035   0.146728  -0.000239
 376   3  -1.985910   0.514545   3.472749  -0.000028   0.146728  -0.000190
 377   3  -1.335537  -0.691895   3.980521  -0.000047   0.146728  -0.000318
 378   3  -0.384470  -1.192722   4.970956  -0.000047   0.146728  -0.000319
 379   3   0.501667  -0.795399   6.063298   0.000093   0.146728   0.000631
 380   3   0.972764   0.035438   6.765596   0.000088   0.081173   0.001089
 381   3   3.368993  -0.218085   6.290899   0.000039   0.087923   0.000445
 382  11   3.553614  -0.388855   6.115229  -0.000034   0.087923  -0.000389
 383  13   4.031699   0.332524   6.799722   0.000157   0.087923   0.001782
 384  11   3.167449  -1.004335   5.861596  -0.000071   0.070536  -0.001009
 385  11   2.500763  -1.700927   5.268243  -0.000174   0.157100  -0.001106
 386  11   2.151343  -2.231499   4.057029  -0.000321   0.157100  -0.002040
 387  11   2.477786  -2.187829   2.729563  -0.000336   0.157100  -0.002139
 388  11   3.340476  -1.588593   1.853592  -0.000255   0.157100  -0.001622
 389  11   4.195492  -0.866807   1.681109  -0.000144   0.070536  -0.002044
 390   3   2.568831  -1.082330   5.844812   0.000084   0.154177   0.000547
 391   3   1.840675  -1.919362   4.782138   0.000056   0.154177   0.000366
 392   3   1.827020  -2.208722   3.273433  -0.000135   0.154177  -0.000877
 393   3   2.533707  -1.826651   1.963958   0.000010   0.154177   0.000065
 394   3   3.658490  -0.936559   1.413767   0.000032   0.154177   0.000206
 395  13   4.197142   0.533696   7.409189   0.000048   0.065453   0.000737
 396   3   3.234304  -0.212654   6.573048   0.000324   0.092995   0.003486
 397   4   2.858603   7.855850   4.824884   0.000802   0.207940   0.003859
 398   5   3.311889   8.218975   3.972822   0.002925   0.207940   0.014066
 399   8   2.428602   7.848084   4.206401   0.000426   0.207940   0.002048
 400   4   3.424424   8.085346   5.380124   0.000167   0.090064   0.001856
 401   5   3.895140   8.398088   4.524669   0.001659   0.090064   0.018416
 402  12   3.675904   8.206554   5.503869   0.000078   0.090064   0.000869
 403   4   7.198791   6.125780   6.051949   0.000430   0.090064   0.004774
 404   5   7.429611   6.563070   5.153793   0.001848   0.090064   0.020522
 405  12   7.126611   6.415024   6.118083   0.000158   0.090064   0.001752
 406   5   7.922421   6.306297   4.636234   0.004374   0.329428   0.013277
 407   4   7.539567   5.454952   5.792298   0.001627   0.368603   0.004414
 408   5   3.718313   8.681743   3.997340   0.001537   0.096605   0.015913
 409   4   3.134301   8.155485   5.242849   0.000386   0.108108   0.003566
 410   4   7.454571   3.574961   5.743243   0.000050   0.087427   0.000568
 411   6   7.676724   3.339517   4.800235   0.000003   0.087427   0.000031
 412  13   7.446650   3.299205   5.877664  -0.000026   0.087427  -0.000299
 413   6   8.082901   3.576879   4.273200  -0.000098   0.106889  -0.000920
 414   4   7.651919   3.876384   5.650031   0.000433   0.151798   0.002850
 415   8   0.036166   6.371302   5.175076  -0.000208   0.218541  -0.000952
 416   8   1.141845   7.416411   4.756964  -0.001292   0.450690  -0.002867
 417   4   0.841766   6.721609   6.062975   0.000826   0.595636   0.001386
 418   4   2.172499   7.775913   5.484185   0.000793   0.307949   0.002574
 419   4   1.545955   1.642279   7.972178   0.000034   0.087335   0.000387
 420  10   0.895344   1.221749   7.363608   0.000091   0.087335   0.001044
 421  14   1.346595   1.829921   8.109411  -0.000052   0.087335  -0.000595
 422  10   0.695252   0.659113   7.141205   0.000017   0.060168   0.000278
 423   4   1.654605   1.358027   7.982126   0.000294   0.085355   0.003446
 424  12   3.419802   8.255324   6.186143  -0.000116   0.066343  -0.001751
 425  12   3.298082   8.140596   7.247816  -0.000166   0.146254  -0.001132
 426  12   3.747701   7.731307   8.398612  -0.000137   0.146254  -0.000938
 427  12   4.749417   7.143971   8.986495  -0.000210   0.146254  -0.001436
 428  12   5.916866   6.605125   8.784716  -0.000251   0.146254  -0.001715
 429  12   6.799757   6.322605   7.871102  -0.000094   0.146254  -0.000645
 430  12   7.116399   6.336133   6.844125  -0.000041   0.066343  -0.000620
 431   4   2.973403   8.046199   6.504804  -0.000044   0.146418  -0.000299
 432   4   3.076081   7.760917   7.935532   0.000077   0.146418   0.000528
 433   4   3.933897   7.171859   8.963184   0.000135   0.146418   0.000924
 434   4   5.215990   6.506225   9.191392  -0.000044   0.146418  -0.000301
 435   4   6.427851   6.020753   8.532136   0.000058   0.146418   0.000399
 436   4   7.102061   5.902692   7.239692   0.000133   0.146418   0.000910
 437  13   7.518102   3.379782   6.639510  -0.000054   0.070783  -0.000764
 438  13   7.307378   3.557286   7.740910  -0.000193   0.157735  -0.001227
 439  13   6.567750   3.249659   8.854002  -0.000248   0.157735  -0.001572
 440  13   5.541686   2.443404   9.275672  -0.000300   0.157735  -0.001901
 441  13   4.670425   1.485236   8.824587  -0.000147   0.157735  -0.000929
 442  13   4.294611   0.846845   7.964229  -0.000049   0.070783  -0.000687
 443   4   7.431484   3.882177   6.965112   0.000030   0.154638   0.000194
 444   4   6.911468   3.891488   8.414989   0.000065   0.154638   0.000423
 445   4   5.861818   3.229320   9.327357  -0.000047   0.154638  -0.000302
 446   4   4.733917   2.180424   9.309871   0.000099   0.154638   0.000640
 447   4   4.012797   1.195860   8.370049   0.000090   0.154638   0.000585
 448  14   1.676426   2.056442   8.756759  -0.000075   0.071527  -0.001048
 449  14   2.264122   2.646835   9.548222  -0.000162   0.159934  -0.001011
 450  14   2.590719   3.879074  10.094753  -0.000291   0.159934  -0.001822
 451  14   2.333273   5.232970   9.938337  -0.000283   0.159934  -0.001769
 452  14   1.605540   6.110289   9.148089  -0.000197   0.159934  -0.001230
 453  14   0.729076   6.123380   8.073187  -0.000253   0.159934  -0.001579
 454  14   0.144529   5.525853   7.284750  -0.000106   0.071527  -0.001479
 455   4   2.257131   2.047089   8.936101   0.000120   0.155749   0.000771
 456   4   2.907849   3.117808   9.861647   0.000083   0.155749   0.000535
 457   4   2.949021   4.657570  10.093918  -0.000114   0.155749  -0.000734
 458   4   2.362454   5.986015   9.530283   0.000093   0.155749   0.000597
 459   4   1.407330   6.516156   8.419790   0.000150   0.155749   0.000965
 460   4   0.505678   6.013747   7.253120  -0.000179   0.155749  -0.001151
 461   8   2.055451   8.082130   3.690497   0.000372   0.222884   0.001668
 462   8   1.736658   7.973226   2.557123   0.000250   0.448268   0.000557
 463   8   1.585665   7.427615   1.519080   0.000113   0.222884   0.000506
 464   5   3.139339   8.690686   2.881903   0.007810   0.548602   0.014236
 465   5   2.818138   8.243182   1.397266   0.007327   0.548602   0.013355
 466  12   7.144172   6.874981   6.229333   0.000601   0.240684   0.002498
 467  12   6.494066   7.916751   6.221434   0.000359   0.483993   0.000742
 468  12   5.185660   8.596046   5.988542   0.000315   0.483993   0.000650
 469  12   4.003074   8.505769   5.670228   0.000457   0.240684   0.001898
 470   5   7.478018   7.596263   4.903790   0.010010   0.594896   0.016826
 471   5   6.345299   8.780262   4.793402   0.010149   0.594896   0.017060
 472   5   4.762010   9.006354   4.420350   0.009265   0.594896   0.015575
 473  15   6.292200   7.490682  -1.340389  -0.000501   0.083825  -0.005976
 474  15   6.537829   8.606040  -0.843571  -0.001608   0.182305  -0.008820
 475  15   7.256077   9.419727   0.205039  -0.001991   0.182305  -0.010923
 476  15   8.195591   9.277770   1.377520  -0.002022   0.182305  -0.011089
 477  15   8.953119   8.241100   2.170625  -0.001724   0.182305  -0.009458
 478  15   9.203520   6.754670   2.243942  -0.001572   0.182305  -0.008624
 479   5   5.926922   7.955873  -1.054681  -0.000446   0.179265  -0.002489
 480   5   6.446147   9.234703  -0.182610  -0.000679   0.179265  -0.003787
 481   5   7.395212   9.619267   1.088961  -0.001233   0.179265  -0.006878
 482   5   8.366766   8.944505   2.214255  -0.001023   0.179265  -0.005706
 483   5   8.943804   7.500035   2.710281  -0.000556   0.179265  -0.003103
 484   5   8.997275   6.178157   2.560093  -0.000279   0.095977  -0.002911
 485   6   6.390327   1.090147   4.101755  -0.000862   0.333630  -0.002583
 486  11   5.582231   0.382905   4.416847  -0.000641   0.333630  -0.001921
 487  13   6.071541   1.046430   5.170238  -0.000492   0.333630  -0.001475
 488  11   5.186305  -0.518172   2.203737  -0.000056   0.286069  -0.000197
 489  11   5.542046  -0.396726   3.388339  -0.001069   0.572082  -0.001868
 490   6   6.488346   0.500603   2.208741  -0.001193   0.572082  -0.002086
 491   6   6.767901   0.712489   3.401023  -0.000495   0.286069  -0.001732
 492  13   6.790605   1.292788   5.634880  -0.000199   0.295542  -0.000672
 493  13   7.434666   2.376211   5.871156  -0.000409   0.591128  -0.000692
 494   6   7.521297   1.749834   4.223883  -0.001245   0.591128  -0.002106
 495   6   8.058908   2.895509   4.430890  -0.000102   0.295542  -0.000344
 496  15   9.154114   5.416482   1.498424  -0.002643   0.337837  -0.007822
 497   6   8.910790   4.083631   1.723565  -0.000781   0.337837  -0.002311
 498   9   0.677799   3.238976  -0.414919  -0.000208   0.248479  -0.000838
 499   9   1.155970   2.331076  -0.942220  -0.001076   0.496967  -0.002166
 500   9   2.039412   1.240560  -0.864389  -0.000637   0.496967  -0.001281
 501   7   1.946226   3.756732  -1.120677  -0.001096   0.496967  -0.002206
 502   7   2.672415   2.614004  -1.498269  -0.001421   0.496967  -0.002860
 503   7   3.434948   1.800519  -1.202023  -0.000339   0.248479  -0.001363
 504  14  -0.422607   4.091851   7.155347  -0.000079   0.250718  -0.000313
 505  14  -0.232446   3.225352   7.867198  -0.000740   0.501353  -0.001477
 506  14   0.612873   2.206625   8.279596  -0.000275   0.501353  -0.000548
 507  10  -1.044705   2.815253   6.461691  -0.000665   0.501353  -0.001327
 508  10  -0.557489   1.733732   7.179587  -0.000885   0.501353  -0.001765
 509  10   0.279874   0.980721   7.339310   0.000020   0.250718   0.000080
 510  13   4.662005   0.287850   7.093525   0.000150   0.299875   0.000500
 511  13   5.663588   0.465597   6.287023  -0.000805   0.599831  -0.001342
 512  11   4.374956  -0.614317   5.733987  -0.000408   0.599831  -0.000681
 513  11   5.311459  -0.334433   4.879683  -0.000210   0.299875  -0.000700
 =====================================================

              2238104  WORDS OF DYNAMIC MEMORY USED
 EXECUTION OF GAMESS TERMINATED NORMALLY Thu Nov 24 08:53:01 2016
 DDI: 263640 bytes (0.3 MB / 0 MWords) used by master data server.

 ----------------------------------------
 CPU timing information for all processes
 ========================================
 0: 642.440 + 0.620 = 643.60
 ----------------------------------------
 ddikick.x: exited gracefully.
