----- GAMESS execution script -----

          ******************************************************
          *         GAMESS VERSION =  5 DEC 2014 (R1)          *
          *             FROM IOWA STATE UNIVERSITY             *
          * M.W.SCHMIDT, K.K.BALDRIDGE, J.A.BOATZ, S.T.ELBERT, *
          *   M.S.GORDON, J.H.JENSEN, S.KOSEKI, N.MATSUNAGA,   *
          *          K.A.NGUYEN, S.J.SU, T.L.WINDUS,           *
          *       TOGETHER WITH M.DUPUIS, J.A.MONTGOMERY       *
          *         J.COMPUT.CHEM.  14, 1347-1363(1993)        *
          **************** 64 BIT LINUX VERSION ****************

 EXECUTION OF GAMESS BEGUN Thu Nov 24 11:46:53 2016

            ECHO OF THE FIRST FEW INPUT CARDS -
 INPUT CARD>! SELECT RESTRICTED HARTREE-FOCK AS DEFAULT                                     
 INPUT CARD>$contrl scftyp=rhf $end                                                         
 INPUT CARD>                                                                                
 INPUT CARD>! THEORY: HF OR DFT                                                             
 INPUT CARD> $contrl mplevl=0 $end                                                          
 INPUT CARD>                                                                                
 INPUT CARD> $system timlim=10000 mwords=20 $end                                            
 INPUT CARD> $SCF DIRSCF=.TRUE. $end                                                        
 INPUT CARD>                                                                                
 INPUT CARD>                                                                                
 INPUT CARD>! BASIS SETS                                                                    
 INPUT CARD>! 6-311G(d,p)                                                                   
 INPUT CARD> $BASIS GBASIS=N311 NGAUSS=6 NDFUNC=1 NPFUNC=1 $END                             
 INPUT CARD>                                                                                
 INPUT CARD>! One of the following                                                          
 INPUT CARD> $guess guess=HUCKEL $end                                                       
 INPUT CARD>                                                                                
 INPUT CARD> $statpt projct=.FALSE. $end                                                    
 INPUT CARD> $STATPT IFREEZ(1)=1,2,3 $END                                                   
 INPUT CARD>                                                                                
 INPUT CARD>! Optimize the geometry with COSMO effects                                      
 INPUT CARD> $statpt opttol=0.0005 nstep=50 $end                                            
 INPUT CARD> $contrl nzvar=1 $end                                                           
 INPUT CARD> $zmat dlc=.t. auto=.t. $end                                                    
 INPUT CARD> $contrl runtyp=OPTIMIZE maxit=200 $end                                         
 INPUT CARD>                                                                                
 INPUT CARD>! Run COSMO on perfect conductor                                                
 INPUT CARD> $COSGMS PRFCND=.TRUE. $end                                                     
 INPUT CARD>                                                                                
 INPUT CARD>! Specifying RSOLV                                                              
 INPUT CARD> $COSGMS COSRAD = 1.4 $end                                                      
 INPUT CARD>                                                                                
 INPUT CARD>! available memory                                                              
 INPUT CARD> $SYSTEM MWORDS=40 $END                                                         
 INPUT CARD>                                                                                
 INPUT CARD> $DATA                                                                          
 INPUT CARD>http://cactus.nci.nih.gov/chemical/structure/ISOPROPYLCYCLOHEXANE%20/file?format
 INPUT CARD>C1                                                                              
 INPUT CARD>C      6.0      1.7301000000    0.0000000000    0.3419000000                    
 INPUT CARD>C      6.0      2.4670000000   -1.2492000000   -0.1452000000                    
 INPUT CARD>C      6.0      2.4670000000    1.2492000000   -0.1452000000                    
 INPUT CARD>C      6.0      0.3044000000    0.0000000000   -0.2131000000                    
 INPUT CARD>C      6.0     -0.4325000000   -1.2492000000    0.2740000000                    
 INPUT CARD>C      6.0     -1.8583000000   -1.2492000000   -0.2811000000                    
 INPUT CARD>C      6.0     -2.5952000000    0.0000000000    0.2061000000                    
 INPUT CARD>C      6.0     -1.8583000000    1.2492000000   -0.2811000000                    
 INPUT CARD>C      6.0     -0.4325000000    1.2492000000    0.2740000000                    
 INPUT CARD>H      1.0      1.6959000000    0.0000000000    1.4313000000                    
 INPUT CARD>H      1.0      3.4828000000   -1.2492000000    0.2502000000                    
 INPUT CARD>H      1.0      1.9421000000   -2.1392000000    0.2018000000                    
   40000000 WORDS OF MEMORY AVAILABLE

     BASIS OPTIONS
     -------------
     GBASIS=N311         IGAUSS=       6      POLAR=POPN311 
     NDFUNC=       1     NFFUNC=       0     DIFFSP=       F
     NPFUNC=       1      DIFFS=       F     BASNAM=        


     RUN TITLE
     ---------
 http://cactus.nci.nih.gov/chemical/structure/ISOPROPYLCYCLOHEXANE%20/file?format

 THE POINT GROUP OF THE MOLECULE IS C1      
 THE ORDER OF THE PRINCIPAL AXIS IS     0

 ATOM      ATOMIC                      COORDINATES (BOHR)
           CHARGE         X                   Y                   Z
 C           6.0     3.2694149314        0.0000000000        0.6460973152
 C           6.0     4.6619540117       -2.3606457039       -0.2743882134
 C           6.0     4.6619540117        2.3606457039       -0.2743882134
 C           6.0     0.5752325907        0.0000000000       -0.4027006080
 C           6.0    -0.8173064897       -2.3606457039        0.5177849206
 C           6.0    -3.5116778030       -2.3606457039       -0.5312019751
 C           6.0    -4.9042168833        0.0000000000        0.3894725261
 C           6.0    -3.5116778030        2.3606457039       -0.5312019751
 C           6.0    -0.8173064897        2.3606457039        0.5177849206
 H           1.0     3.2047863026        0.0000000000        2.7047648062
 H           1.0     6.5815376700       -2.3606457039        0.4728094421
 H           1.0     3.6700368408       -4.0425018329        0.3813467043
 H           1.0     4.7265826405       -2.3606457039       -2.3332446770
 H           1.0     4.7265826405        2.3606457039       -2.3332446770
 H           1.0     3.6700368408        4.0425018329        0.3813467043
 H           1.0     6.5815376700        2.3606457039        0.4728094421
 H           1.0     0.6398612194        0.0000000000       -2.4615570716
 H           1.0     0.1746106813       -4.0425018329       -0.1381389697
 H           1.0    -0.8821240911       -2.3606457039        2.5764524117
 H           1.0    -3.4470491742       -2.3606457039       -2.5898694662
 H           1.0    -4.5037839465       -4.0425018329        0.1247219152
 H           1.0    -6.8238005417        0.0000000000       -0.3579141021
 H           1.0    -4.9688455121        0.0000000000        2.4481400171
 H           1.0    -3.4470491742        2.3606457039       -2.5898694662
 H           1.0    -4.5037839465        4.0425018329        0.1247219152
 H           1.0    -0.8821240911        2.3606457039        2.5764524117
 H           1.0     0.1746106813        4.0425018329       -0.1381389697

          INTERNUCLEAR DISTANCES (ANGS.)




     $CONTRL OPTIONS
     ---------------
 SCFTYP=RHF          RUNTYP=OPTIMIZE     EXETYP=RUN     
 MPLEVL=       0     CITYP =NONE         CCTYP =NONE         VBTYP =NONE    
 DFTTYP=NONE         TDDFT =NONE    
 MULT  =       1     ICHARG=       0     NZVAR =       1     COORD =UNIQUE  
 PP    =NONE         RELWFN=NONE         LOCAL =NONE         NUMGRD=       F
 ISPHER=      -1     NOSYM =       0     MAXIT =     200     UNITS =ANGS    
 PLTORB=       F     MOLPLT=       F     AIMPAC=       F     FRIEND=        
 NPRINT=       7     IREST =       0     GEOM  =INPUT   
 NORMF =       0     NORMP =       0     ITOL  =      20     ICUT  =       9
 INTTYP=BEST         GRDTYP=BEST         QMTTOL= 1.0E-06

     $SYSTEM OPTIONS
     ---------------
  REPLICATED MEMORY=    40000000 WORDS (ON EVERY NODE).
 DISTRIBUTED MEMDDI=           0 MILLION WORDS IN AGGREGATE,
 MEMDDI DISTRIBUTED OVER   1 PROCESSORS IS           0 WORDS/PROCESSOR.
 TOTAL MEMORY REQUESTED ON EACH PROCESSOR=    40000000 WORDS.
 TIMLIM=       10000.00 MINUTES, OR       6.9 DAYS.
 PARALL= F  BALTYP=  DLB     KDIAG=    0  COREFL= F
 MXSEQ2=     300 MXSEQ3=     150  mem10=         0

     $COSGMS OPTIONS
     ---------------
     EPSI  =   INFTY     NSPA  =      92     COSRAD=    1.40
     DISEX =   10.00     OUTCHG=DBLCAV       COSBUG=       F
     COSWRT=       F     DCOSMO=       F

     SYMMETRY COORDINATES WILL NOT BE USED FOR 
     THE COSMO CALCULATION, EVEN IF SPECIFIED:
         -- SWITCHING TO C1 POINT GROUP --


     DEFINITION OF CAVITY
     ---------------------------
     ATOM         COORDINATES           RADIUS 
     1    3.2694    0.0000    0.6461    2.0000
     2    4.6620   -2.3606   -0.2744    2.0000
     3    4.6620    2.3606   -0.2744    2.0000
     4    0.5752    0.0000   -0.4027    2.0000
     5   -0.8173   -2.3606    0.5178    2.0000
     6   -3.5117   -2.3606   -0.5312    2.0000
     7   -4.9042    0.0000    0.3895    2.0000
     8   -3.5117    2.3606   -0.5312    2.0000
     9   -0.8173    2.3606    0.5178    2.0000
    10    3.2048    0.0000    2.7048    1.3000
    11    6.5815   -2.3606    0.4728    1.3000
    12    3.6700   -4.0425    0.3813    1.3000
    13    4.7266   -2.3606   -2.3332    1.3000
    14    4.7266    2.3606   -2.3332    1.3000
    15    3.6700    4.0425    0.3813    1.3000
    16    6.5815    2.3606    0.4728    1.3000
    17    0.6399    0.0000   -2.4616    1.3000
    18    0.1746   -4.0425   -0.1381    1.3000
    19   -0.8821   -2.3606    2.5765    1.3000
    20   -3.4470   -2.3606   -2.5899    1.3000
    21   -4.5038   -4.0425    0.1247    1.3000
    22   -6.8238    0.0000   -0.3579    1.3000
    23   -4.9688    0.0000    2.4481    1.3000
    24   -3.4470    2.3606   -2.5899    1.3000
    25   -4.5038    4.0425    0.1247    1.3000
    26   -0.8821    2.3606    2.5765    1.3000
    27    0.1746    4.0425   -0.1381    1.3000

          ----------------
          PROPERTIES INPUT
          ----------------

     MOMENTS            FIELD           POTENTIAL          DENSITY
 IEMOM =       1   IEFLD =       0   IEPOT =       0   IEDEN =       0
 WHERE =COMASS     WHERE =NUCLEI     WHERE =NUCLEI     WHERE =NUCLEI  
 OUTPUT=BOTH       OUTPUT=BOTH       OUTPUT=BOTH       OUTPUT=BOTH    
 IEMINT=       0   IEFINT=       0                     IEDINT=       0
                                                       MORB  =       0
          EXTRAPOLATION IN EFFECT
          SOSCF IN EFFECT
 ORBITAL PRINTING OPTION: NPREO=     1   279     2     1

     -------------------------------
     INTEGRAL TRANSFORMATION OPTIONS
     -------------------------------
     NWORD  =            0
     CUTOFF = 1.0E-09     MPTRAN =       0
     DIRTRF =       T     AOINTS =DUP     

          ----------------------
          INTEGRAL INPUT OPTIONS
          ----------------------
 NOPK  =       1 NORDER=       0 SCHWRZ=       T


 -----------------------------------------------
  STATISTICS ON AUTOMATIC COORDINATE GENERATION 
 -----------------------------------------------
  NUMBER OF USER SPECIFIED BONDS                             0
  NUMBER OF BONDS                                           27
  NUMBER OF ANGLES                                          54
  NUMBER OF TORSIONS                                        81
  NUMBER OF EXTRA COORD.                                     0
  NUMBER OF EXTRA COORD. FOR CONSTRAINTS                     0
  NUMBER OF CONSTRAINED COORD.                               0

  TOTAL NUMBER OF PRIMITIVES                               162
 -----------------------------------------------

   --- ENCODED Z MATRIX ---
 COORD  TYPE   I   J   K   L   M   N
    1      1    1  10
    2      1    1   4
    3      1    1   2
    4      1    1   3
    5      1    2  13
    6      1    2  11
    7      1    2  12
    8      1    3  15
    9      1    3  14
   10      1    3  16
   11      1    4   5
   12      1    4   9
   13      1    4  17
   14      1    5   6
   15      1    5  19
   16      1    5  18
   17      1    6   7
   18      1    6  21
   19      1    6  20
   20      1    7   8
   21      1    7  23
   22      1    7  22
   23      1    8  25
   24      1    8  24
   25      1    8   9
   26      1    9  27
   27      1    9  26
   28      2    1   4   9
   29      2    1   4   5
   30      2    1   2  13
   31      2    1   4  17
   32      2    1   3  14
   33      2    1   3  15
   34      2    1   2  12
   35      2    1   2  11
   36      2    1   3  16
   37      2    2   1  10
   38      2    2   1   3
   39      2    2   1   4
   40      2    3   1   4
   41      2    3   1  10
   42      2    4   9  26
   43      2    4   9  27
   44      2    4   9   8
   45      2    4   5  19
   46      2    4   5   6
   47      2    4   1  10
   48      2    4   5  18
   49      2    5   4   9
   50      2    5   6  20
   51      2    5   4  17
   52      2    5   6  21
   53      2    5   6   7
   54      2    6   5  19
   55      2    6   7  22
   56      2    6   7  23
   57      2    6   7   8
   58      2    6   5  18
   59      2    7   8  24
   60      2    7   8  25
   61      2    7   6  20
   62      2    7   6  21
   63      2    7   8   9
   64      2    8   9  27
   65      2    8   9  26
   66      2    8   7  22
   67      2    8   7  23
   68      2    9   4  17
   69      2    9   8  24
   70      2    9   8  25
   71      2   11   2  12
   72      2   11   2  13
   73      2   12   2  13
   74      2   14   3  16
   75      2   14   3  15
   76      2   15   3  16
   77      2   18   5  19
   78      2   20   6  21
   79      2   22   7  23
   80      2   24   8  25
   81      2   26   9  27
   82      3    1   4   9  26
   83      3    1   4   5  18
   84      3    1   4   5  19
   85      3    1   4   9  27
   86      3    1   4   5   6
   87      3    1   4   9   8
   88      3    2   1   4   5
   89      3    2   1   3  15
   90      3    2   1   3  14
   91      3    2   1   4   9
   92      3    2   1   4  17
   93      3    2   1   3  16
   94      3    3   1   2  11
   95      3    3   1   4   9
   96      3    3   1   2  12
   97      3    3   1   2  13
   98      3    3   1   4   5
   99      3    3   1   4  17
  100      3    4   1   2  11
  101      3    4   1   2  13
  102      3    4   1   2  12
  103      3    4   1   3  15
  104      3    4   1   3  14
  105      3    4   5   6  20
  106      3    4   5   6  21
  107      3    4   5   6   7
  108      3    4   9   8  24
  109      3    4   9   8  25
  110      3    4   9   8   7
  111      3    4   1   3  16
  112      3    5   4   1  10
  113      3    5   4   9  27
  114      3    5   4   9  26
  115      3    5   6   7  22
  116      3    5   6   7  23
  117      3    5   6   7   8
  118      3    5   4   9   8
  119      3    6   7   8   9
  120      3    6   7   8  24
  121      3    6   7   8  25
  122      3    6   5   4  17
  123      3    6   5   4   9
  124      3    7   6   5  18
  125      3    7   6   5  19
  126      3    7   8   9  26
  127      3    7   8   9  27
  128      3    8   7   6  20
  129      3    8   7   6  21
  130      3    8   9   4  17
  131      3    9   4   5  18
  132      3    9   4   1  10
  133      3    9   4   5  19
  134      3    9   8   7  22
  135      3    9   8   7  23
  136      3   10   1   3  16
  137      3   10   1   2  11
  138      3   10   1   2  13
  139      3   10   1   2  12
  140      3   10   1   3  15
  141      3   10   1   3  14
  142      3   10   1   4  17
  143      3   17   4   9  27
  144      3   17   4   9  26
  145      3   17   4   5  18
  146      3   17   4   5  19
  147      3   18   5   6  21
  148      3   18   5   6  20
  149      3   19   5   6  21
  150      3   19   5   6  20
  151      3   20   6   7  23
  152      3   20   6   7  22
  153      3   21   6   7  23
  154      3   21   6   7  22
  155      3   22   7   8  24
  156      3   22   7   8  25
  157      3   23   7   8  24
  158      3   23   7   8  25
  159      3   24   8   9  26
  160      3   24   8   9  27
  161      3   25   8   9  26
  162      3   25   8   9  27

          INDEP./SYM. INTERNAL COORDINATES
          --------------------------------
 CRD  1=   0.3431 ( 28) -0.3431 ( 29)  0.1239 ( 37) -0.3565 ( 39)  0.3565 ( 40)
          -0.1239 ( 41)  0.1049 ( 51) -0.1049 ( 68)  0.1325 ( 82)  0.1571 ( 83)
           0.1325 ( 84)  0.1571 ( 85)  0.1911 ( 86)  0.1911 ( 87) -0.1153 ( 90)
          -0.1153 ( 97)  0.1259 (100)  0.1030 (101)  0.1492 (102)  0.1492 (103)
           0.1030 (104)  0.1259 (111)  0.1046 (142)
 CRD  2=  -0.4399 (  2) -0.1155 ( 11) -0.1155 ( 12) -0.1305 ( 14) -0.1305 ( 25)
          -0.1046 ( 33) -0.1046 ( 34)  0.4018 ( 38) -0.2432 ( 39) -0.2432 ( 40)
          -0.1199 ( 44) -0.1199 ( 46)  0.1898 ( 47)  0.1444 ( 49) -0.1501 ( 88)
          -0.1325 ( 89) -0.1255 ( 93)  0.1255 ( 94)  0.1501 ( 95)  0.1325 ( 96)
          -0.1331 (101)  0.1331 (104)
 CRD  3=   0.1466 (  2)  0.1824 ( 11)  0.1824 ( 12) -0.1062 ( 17) -0.1062 ( 20)
           0.1544 ( 28)  0.1544 ( 29) -0.2246 ( 31) -0.1321 ( 50)  0.1642 ( 53)
           0.1004 ( 54)  0.1642 ( 63)  0.1004 ( 65) -0.1321 ( 69) -0.1878 ( 82)
           0.1642 ( 83)  0.1878 ( 84) -0.1642 ( 85)  0.2885 ( 86) -0.2885 ( 87)
           0.1161 ( 91) -0.1161 ( 98) -0.1231 (100)  0.1231 (111)  0.1104 (122)
          -0.1104 (130)
 CRD  4=   0.1474 ( 11) -0.1474 ( 12) -0.1279 ( 30)  0.1279 ( 32) -0.1478 ( 33)
           0.1478 ( 34)  0.1322 ( 37) -0.1322 ( 41) -0.1013 ( 43)  0.1013 ( 48)
           0.1174 ( 51) -0.1174 ( 68)  0.3287 ( 88)  0.3287 ( 91)  0.1653 ( 92)
           0.3287 ( 95)  0.3287 ( 98)  0.1653 ( 99)  0.1096 (106)  0.1324 (107)
           0.1096 (109)  0.1324 (110)  0.1921 (112)  0.1921 (132)
 CRD  5=  -0.2898 (  3)  0.2898 (  4)  0.2822 ( 11) -0.2822 ( 12) -0.2372 ( 28)
           0.2372 ( 29)  0.1450 ( 33) -0.1450 ( 34)  0.1033 ( 37) -0.2724 ( 39)
           0.2724 ( 40) -0.1033 ( 41) -0.1120 ( 51) -0.1146 ( 53)  0.1146 ( 63)
           0.1120 ( 68) -0.1053 ( 90) -0.1053 ( 97)  0.1030 (102)  0.1030 (103)
 CRD  6=  -0.3297 (  2) -0.3315 (  3) -0.3315 (  4) -0.1290 ( 14) -0.1290 ( 25)
          -0.1877 ( 30) -0.1877 ( 32) -0.1699 ( 35) -0.1699 ( 36)  0.1158 ( 37)
          -0.3403 ( 38)  0.1069 ( 39)  0.1069 ( 40)  0.1158 ( 41) -0.1051 ( 47)
           0.1155 ( 49)  0.1163 ( 72)  0.1163 ( 74)  0.1147 ( 88)  0.1712 ( 91)
           0.1429 ( 92) -0.1147 ( 95) -0.1712 ( 98) -0.1429 ( 99)
 CRD  7=   0.1251 ( 30)  0.1434 ( 31)  0.1251 ( 32)  0.1478 ( 42) -0.1821 ( 44)
           0.1478 ( 45) -0.1821 ( 46)  0.1846 ( 49)  0.2639 ( 53)  0.1556 ( 56)
          -0.3658 ( 57)  0.1158 ( 58) -0.1378 ( 59) -0.1378 ( 61)  0.2639 ( 63)
           0.1158 ( 64)  0.1556 ( 67) -0.1119 ( 79) -0.1051 ( 88)  0.1051 ( 95)
          -0.1199 (105) -0.1089 (106)  0.1199 (108)  0.1089 (109)
 CRD  8=  -0.2100 (  2)  0.2647 (  3)  0.2647 (  4)  0.1583 ( 11)  0.1583 ( 12)
          -0.1719 ( 14) -0.1719 ( 25)  0.2562 ( 30)  0.2562 ( 32)  0.1151 ( 33)
           0.1151 ( 34) -0.1440 ( 35) -0.1440 ( 36)  0.1403 ( 43) -0.1183 ( 44)
          -0.1183 ( 46) -0.1554 ( 47)  0.1403 ( 48) -0.1020 ( 50)  0.1037 ( 54)
           0.1350 ( 57)  0.1037 ( 65) -0.1020 ( 69) -0.1519 ( 73) -0.1519 ( 75)
           0.1212 (100)  0.1221 (101) -0.1221 (104) -0.1212 (111) -0.1415 (118)
           0.1415 (123)
 CRD  9=  -0.1359 ( 14) -0.1157 ( 16) -0.3078 ( 17)  0.3078 ( 20)  0.1359 ( 25)
           0.1157 ( 26)  0.1184 ( 42) -0.2669 ( 44) -0.1184 ( 45)  0.2669 ( 46)
           0.1000 ( 52) -0.1376 ( 53) -0.2168 ( 55) -0.1973 ( 58)  0.1376 ( 63)
           0.1973 ( 64)  0.2168 ( 66) -0.1000 ( 70)  0.1048 ( 77) -0.1048 ( 81)
          -0.1072 (116) -0.1502 (117) -0.1502 (119) -0.1211 (120) -0.1211 (128)
          -0.1072 (135)
 CRD 10=   0.3121 (  3)  0.3121 (  4) -0.1057 ( 11) -0.1057 ( 12) -0.2610 ( 30)
          -0.2610 ( 32)  0.3609 ( 33)  0.3609 ( 34)  0.1788 ( 35)  0.1788 ( 36)
          -0.2051 ( 71) -0.2051 ( 76) -0.1252 ( 89)  0.1252 ( 96)
 CRD 11=  -0.1370 (  2) -0.3635 ( 11) -0.3635 ( 12) -0.1482 ( 16) -0.3124 ( 17)
          -0.1023 ( 18) -0.3124 ( 20) -0.1023 ( 23) -0.1482 ( 26) -0.1127 ( 43)
           0.1027 ( 44)  0.1027 ( 46) -0.1127 ( 48) -0.2032 ( 49) -0.1437 ( 60)
          -0.1437 ( 62) -0.1090 (107)  0.1090 (110) -0.1489 (125)  0.1489 (126)
          -0.1059 (150)  0.1059 (159)
 CRD 12=  -0.2975 (  3)  0.2975 (  4) -0.1032 ( 14)  0.1032 ( 25) -0.3112 ( 35)
           0.3112 ( 36) -0.1240 ( 52)  0.1281 ( 53)  0.1497 ( 56)  0.1456 ( 59)
          -0.1456 ( 61) -0.1281 ( 63) -0.1497 ( 67)  0.1240 ( 70)  0.1221 ( 71)
           0.1383 ( 72) -0.1383 ( 74) -0.1221 ( 76)  0.1587 (107)  0.1587 (110)
          -0.1107 (118) -0.1107 (123)
 CRD 13=   0.1501 (  2) -0.3125 ( 14) -0.3670 ( 17) -0.1183 ( 18) -0.3670 ( 20)
          -0.2121 ( 22) -0.1183 ( 23) -0.3125 ( 25)  0.1213 ( 42)  0.1213 ( 45)
           0.1165 ( 50) -0.1009 ( 54) -0.1009 ( 65)  0.1165 ( 69)  0.1255 (113)
           0.1127 (116)  0.1690 (117) -0.1690 (119) -0.1255 (131) -0.1127 (135)
 CRD 14=  -0.1408 (  3)  0.1408 (  4)  0.1077 (  7) -0.1077 (  8) -0.2506 ( 30)
           0.2506 ( 32) -0.3770 ( 33)  0.3770 ( 34) -0.2611 ( 35)  0.2611 ( 36)
          -0.1436 ( 56) -0.1049 ( 59)  0.1049 ( 61)  0.1436 ( 67)  0.2083 ( 72)
          -0.2083 ( 74) -0.1268 (107) -0.1268 (110)
 CRD 15=  -0.1255 ( 11) -0.1255 ( 12)  0.1639 ( 17)  0.1639 ( 20)  0.1618 ( 30)
           0.1618 ( 32)  0.2091 ( 33)  0.2091 ( 34) -0.3374 ( 35) -0.3374 ( 36)
           0.1707 ( 47)  0.1369 ( 60)  0.1369 ( 62) -0.1347 ( 73) -0.1347 ( 75)
           0.1221 ( 89) -0.1221 ( 96) -0.1296 (100) -0.1028 (101) -0.1650 (102)
           0.1650 (103)  0.1028 (104)  0.1296 (111)
 CRD 16=  -0.3430 ( 14)  0.3430 ( 25) -0.2832 ( 30)  0.2832 ( 32)  0.2600 ( 35)
          -0.2600 ( 36) -0.1761 ( 52)  0.1356 ( 53) -0.1060 ( 54) -0.1356 ( 63)
           0.1060 ( 65)  0.1761 ( 70) -0.1043 ( 71)  0.1060 ( 73) -0.1060 ( 75)
           0.1043 ( 76)  0.1009 (115)  0.1009 (134)
 CRD 17=  -0.1078 (  5)  0.1078 (  9) -0.1260 ( 11)  0.1260 ( 12)  0.2734 ( 14)
          -0.2734 ( 25) -0.3201 ( 30)  0.3201 ( 32)  0.1703 ( 35) -0.1703 ( 36)
           0.1090 ( 42) -0.1090 ( 45)  0.1385 ( 56) -0.1385 ( 67) -0.1132 ( 71)
           0.1132 ( 76) -0.1051 (117) -0.1051 (119) -0.1181 (120)  0.1092 (124)
           0.1092 (127) -0.1181 (128)
 CRD 18=  -0.3301 ( 14) -0.1102 ( 16)  0.2047 ( 17)  0.2047 ( 20)  0.1103 ( 21)
          -0.3301 ( 25) -0.1102 ( 26) -0.2033 ( 33) -0.2033 ( 34)  0.1399 ( 35)
           0.1399 ( 36) -0.1185 ( 50) -0.1004 ( 52) -0.1301 ( 54) -0.1559 ( 57)
           0.1078 ( 59)  0.1078 ( 61) -0.1301 ( 65) -0.1185 ( 69) -0.1004 ( 70)
          -0.1371 (106)  0.1371 (109)
 CRD 19=   0.1376 ( 14) -0.3890 ( 17)  0.3890 ( 20) -0.1376 ( 25)  0.1129 ( 44)
          -0.1129 ( 46)  0.1319 ( 53) -0.1254 ( 55) -0.1674 ( 56)  0.1347 ( 58)
           0.1705 ( 59)  0.1412 ( 60) -0.1705 ( 61) -0.1412 ( 62) -0.1319 ( 63)
          -0.1347 ( 64)  0.1254 ( 66)  0.1674 ( 67)  0.1268 (115)  0.1268 (134)
          -0.1426 (151)  0.1371 (154)  0.1371 (156) -0.1426 (157)
 CRD 20=  -0.4269 (  2)  0.1845 ( 11)  0.1845 ( 12)  0.1603 ( 14)  0.1603 ( 25)
           0.1130 ( 30) -0.2034 ( 31)  0.1130 ( 32)  0.1406 ( 42) -0.1096 ( 43)
           0.1406 ( 45) -0.1096 ( 48) -0.1006 ( 49)  0.1256 ( 50) -0.1755 ( 54)
           0.1380 ( 58)  0.1380 ( 64) -0.1755 ( 65)  0.1256 ( 69)  0.1152 ( 83)
          -0.1152 ( 85) -0.1031 ( 89)  0.1031 ( 96) -0.1642 (122)  0.1642 (130)
 CRD 21=   0.1687 (  3) -0.1687 (  4) -0.1113 (  6)  0.1113 ( 10) -0.1014 ( 28)
           0.1014 ( 29)  0.1241 ( 30) -0.1241 ( 32) -0.2093 ( 33)  0.2093 ( 34)
          -0.1439 ( 35)  0.1439 ( 36)  0.1756 ( 37) -0.1484 ( 39)  0.1484 ( 40)
          -0.1756 ( 41)  0.1118 ( 43) -0.1118 ( 48)  0.1249 ( 50) -0.1177 ( 51)
          -0.1053 ( 54) -0.1015 ( 55)  0.1520 ( 56)  0.1147 ( 59) -0.1147 ( 61)
           0.1053 ( 65)  0.1015 ( 66) -0.1520 ( 67)  0.1177 ( 68) -0.1249 ( 69)
          -0.1708 ( 73)  0.1708 ( 75) -0.1183 ( 89) -0.1234 ( 90) -0.1402 ( 93)
          -0.1402 ( 94) -0.1183 ( 96) -0.1234 ( 97) -0.1474 (112) -0.1474 (132)
 CRD 22=   0.1946 ( 11)  0.1946 ( 12)  0.2214 ( 13) -0.1064 ( 14) -0.1278 ( 15)
           0.1080 ( 21) -0.1064 ( 25) -0.1278 ( 27) -0.1357 ( 30) -0.1357 ( 32)
           0.1693 ( 33)  0.1693 ( 34) -0.1387 ( 35) -0.1387 ( 36)  0.1538 ( 38)
           0.1015 ( 47) -0.1231 ( 49) -0.1586 ( 50)  0.1086 ( 53) -0.1357 ( 54)
          -0.1021 ( 57) -0.1553 ( 60) -0.1553 ( 62)  0.1086 ( 63) -0.1357 ( 65)
          -0.1586 ( 69)  0.1358 ( 72)  0.1358 ( 74) -0.1184 ( 86)  0.1184 ( 87)
          -0.1111 ( 91)  0.1111 ( 98) -0.1310 (122) -0.1235 (124)  0.1235 (127)
           0.1310 (130)
 CRD 23=  -0.2240 ( 11)  0.2240 ( 12) -0.2074 ( 15)  0.2074 ( 27)  0.2255 ( 42)
          -0.1164 ( 43) -0.2255 ( 45)  0.1164 ( 48) -0.1234 ( 50)  0.1024 ( 52)
           0.1100 ( 54) -0.1326 ( 59)  0.1818 ( 60)  0.1326 ( 61) -0.1818 ( 62)
          -0.1100 ( 65)  0.1234 ( 69) -0.1024 ( 70) -0.1047 ( 82) -0.1047 ( 84)
           0.1363 (105)  0.1533 (106)  0.1363 (108)  0.1533 (109) -0.1623 (125)
          -0.1623 (126)
 CRD 24=  -0.1100 (  3)  0.1100 (  4) -0.2446 ( 11)  0.2446 ( 12) -0.1431 ( 18)
           0.2135 ( 19)  0.1431 ( 23) -0.2135 ( 24)  0.1575 ( 33) -0.1575 ( 34)
          -0.1069 ( 51) -0.1782 ( 55)  0.1219 ( 56)  0.1782 ( 66) -0.1219 ( 67)
           0.1069 ( 68)  0.1964 ( 92)  0.1964 ( 99) -0.1000 (107) -0.1000 (110)
           0.1306 (112)  0.1278 (115)  0.1306 (132)  0.1278 (134)  0.2331 (142)
 CRD 25=  -0.1251 (  1)  0.1183 ( 15) -0.1939 ( 18) -0.2954 ( 21)  0.3466 ( 22)
          -0.1939 ( 23)  0.1183 ( 27)  0.1156 ( 43)  0.1156 ( 48)  0.1262 ( 50)
          -0.2406 ( 52)  0.1101 ( 55) -0.1045 ( 58) -0.1045 ( 64)  0.1101 ( 66)
           0.1262 ( 69) -0.2406 ( 70)  0.1390 (115)  0.1338 (116)  0.1757 (120)
           0.2320 (121) -0.1757 (128) -0.2320 (129) -0.1390 (134) -0.1338 (135)
 CRD 26=   0.1720 ( 11) -0.1720 ( 12)  0.1977 ( 15) -0.1415 ( 18)  0.2967 ( 19)
           0.1415 ( 23) -0.2967 ( 24) -0.1977 ( 27) -0.1851 ( 43)  0.1851 ( 48)
           0.1285 ( 54) -0.1689 ( 55)  0.1301 ( 56) -0.1251 ( 58)  0.1251 ( 64)
          -0.1285 ( 65)  0.1689 ( 66) -0.1301 ( 67) -0.1183 ( 92) -0.1183 ( 99)
           0.1500 (115)  0.1262 (116) -0.1420 (124) -0.1420 (127)  0.1500 (134)
           0.1262 (135) -0.1189 (142)
 CRD 27=   0.2751 (  1) -0.2363 ( 13) -0.1770 ( 18)  0.2939 ( 19)  0.3459 ( 21)
          -0.1770 ( 23)  0.2939 ( 24) -0.1081 ( 42)  0.1496 ( 43) -0.1081 ( 45)
           0.1496 ( 48) -0.1158 ( 58)  0.1281 ( 59) -0.1085 ( 60)  0.1281 ( 61)
          -0.1085 ( 62) -0.1158 ( 64)  0.1095 (117) -0.1095 (119) -0.1653 (124)
          -0.1379 (125)  0.1379 (126)  0.1653 (127)
 CRD 28=  -0.5268 (  1)  0.1540 ( 13)  0.2433 ( 15) -0.1374 ( 16)  0.2290 ( 19)
           0.2706 ( 21) -0.1473 ( 22)  0.2290 ( 24) -0.1374 ( 26)  0.2433 ( 27)
          -0.1242 ( 30) -0.1242 ( 32)  0.1003 (117) -0.1003 (119)
 CRD 29=   0.3128 (  5)  0.2064 (  6)  0.2217 (  7) -0.2217 (  8) -0.3128 (  9)
          -0.2064 ( 10)  0.1596 ( 15) -0.1214 ( 16)  0.1214 ( 26) -0.1596 ( 27)
           0.1655 ( 33) -0.1655 ( 34) -0.1093 ( 35)  0.1093 ( 36)  0.1505 ( 71)
           0.1212 ( 73) -0.1212 ( 75) -0.1505 ( 76) -0.1084 ( 90) -0.1159 ( 93)
          -0.1159 ( 94) -0.1084 ( 97) -0.1422 (100) -0.1347 (101) -0.1262 (102)
          -0.1262 (103) -0.1347 (104) -0.1422 (111) -0.1076 (136) -0.1076 (137)
          -0.1001 (138) -0.1001 (141)
 CRD 30=  -0.3946 (  1) -0.1135 (  2)  0.1066 (  6)  0.1250 (  7)  0.1250 (  8)
           0.1066 ( 10) -0.6884 ( 13) -0.1982 ( 15) -0.1982 ( 27)  0.1117 (113)
          -0.1117 (131)
 CRD 31=   0.2829 (  1)  0.1114 (  3)  0.1114 (  4)  0.3732 (  5)  0.2877 (  6)
           0.3272 (  7)  0.3272 (  8)  0.3732 (  9)  0.2877 ( 10)  0.1324 ( 13)
          -0.1113 ( 33) -0.1113 ( 34) -0.1539 ( 35) -0.1539 ( 36)  0.1411 ( 71)
           0.1230 ( 72)  0.1230 ( 74)  0.1411 ( 76)
 CRD 32=  -0.1764 (  3)  0.1764 (  4) -0.1752 (  5) -0.2636 (  6) -0.2686 (  7)
           0.2686 (  8)  0.1752 (  9)  0.2636 ( 10) -0.1200 ( 11)  0.1200 ( 12)
           0.1507 ( 15) -0.2128 ( 16)  0.2128 ( 26) -0.1507 ( 27)
 CRD 33=  -0.1718 (  1)  0.1682 (  6)  0.1682 ( 10)  0.2658 ( 16) -0.2358 ( 18)
           0.1745 ( 22) -0.2358 ( 23)  0.2658 ( 26)  0.1558 ( 58)  0.1558 ( 64)
          -0.1046 ( 82)  0.1351 ( 83)  0.1046 ( 84) -0.1351 ( 85)  0.1238 ( 89)
           0.1043 ( 90)  0.1185 ( 93) -0.1185 ( 94) -0.1238 ( 96) -0.1043 ( 97)
          -0.1664 (113) -0.1359 (114)  0.1664 (131)  0.1359 (133) -0.1242 (143)
           0.1242 (145)
 CRD 34=   0.1070 (  3) -0.1070 (  4)  0.1678 (  6) -0.1678 ( 10) -0.1041 ( 82)
          -0.1041 ( 84)  0.1074 ( 89)  0.1124 ( 93)  0.1124 ( 94)  0.1074 ( 96)
           0.1564 (100)  0.1439 (101)  0.1515 (102)  0.1515 (103)  0.1439 (104)
           0.1564 (111)  0.1550 (136)  0.1550 (137)  0.1426 (138)  0.1501 (139)
           0.1501 (140)  0.1426 (141) -0.1081 (143) -0.1223 (144) -0.1081 (145)
          -0.1223 (146) -0.1107 (149) -0.1105 (150) -0.1068 (151) -0.1058 (152)
          -0.1072 (153) -0.1061 (154) -0.1058 (155) -0.1061 (156) -0.1068 (157)
          -0.1072 (158) -0.1105 (159) -0.1107 (161)
 CRD 35=   0.1030 (  5)  0.3120 (  6) -0.4402 (  7)  0.4402 (  8) -0.1030 (  9)
          -0.3120 ( 10)  0.2254 ( 72) -0.1646 ( 73) -0.2254 ( 74)  0.1646 ( 75)
          -0.1473 ( 90) -0.1473 ( 97) -0.1416 (101) -0.1416 (104) -0.1494 (138)
          -0.1494 (141)
 CRD 36=   0.2272 (  5)  0.2022 (  6) -0.4461 (  7) -0.4461 (  8)  0.2272 (  9)
           0.2022 ( 10) -0.1202 ( 71)  0.2460 ( 72) -0.1212 ( 73)  0.2460 ( 74)
          -0.1212 ( 75) -0.1202 ( 76)  0.1075 ( 90) -0.1470 ( 93)  0.1470 ( 94)
          -0.1075 ( 97)  0.1490 (100) -0.1055 (101)  0.1055 (104) -0.1490 (111)
          -0.1426 (136)  0.1426 (137) -0.1118 (138)  0.1118 (141)
 CRD 37=  -0.4318 (  5)  0.2999 (  6)  0.1218 (  7) -0.1218 (  8)  0.4318 (  9)
          -0.2999 ( 10)  0.2376 ( 71) -0.1645 ( 73)  0.1645 ( 75) -0.2376 ( 76)
           0.1147 ( 89) -0.1343 ( 93) -0.1343 ( 94)  0.1147 ( 96) -0.1246 (100)
           0.1244 (102)  0.1244 (103) -0.1246 (111) -0.1219 (136) -0.1219 (137)
           0.1270 (139)  0.1270 (140)
 CRD 38=   0.3586 (  5) -0.4123 (  6)  0.3586 (  9) -0.4123 ( 10) -0.1958 ( 71)
           0.2049 ( 73)  0.2049 ( 75) -0.1958 ( 76)  0.1487 ( 89) -0.1487 ( 96)
          -0.1263 (102)  0.1263 (103)  0.1057 (138) -0.1151 (139)  0.1151 (140)
          -0.1057 (141)
 CRD 39=  -0.2726 ( 15) -0.1840 ( 16)  0.3666 ( 18)  0.3755 ( 19) -0.3666 ( 23)
          -0.3755 ( 24)  0.1840 ( 26)  0.2726 ( 27)  0.1380 ( 78) -0.1380 ( 80)
          -0.1029 (148)  0.1014 (149) -0.1029 (160)  0.1014 (161)
 CRD 40=  -0.1404 ( 16) -0.1657 ( 18) -0.2554 ( 19)  0.5459 ( 21)  0.4885 ( 22)
          -0.1657 ( 23) -0.2554 ( 24) -0.1404 ( 26)  0.1969 ( 79) -0.1301 (152)
           0.1114 (153)  0.1301 (155) -0.1114 (158)
 CRD 41=  -0.1288 ( 15)  0.3215 ( 16) -0.1486 ( 18)  0.1412 ( 19)  0.1486 ( 23)
          -0.1412 ( 24) -0.3215 ( 26)  0.1288 ( 27)  0.1040 ( 50)  0.1057 ( 55)
          -0.1243 ( 56) -0.1057 ( 66)  0.1243 ( 67) -0.1040 ( 69)  0.1303 ( 82)
           0.1303 ( 84)  0.1098 (114)  0.1098 (133)  0.1359 (144)  0.1359 (146)
          -0.1759 (151) -0.1645 (152) -0.1675 (153) -0.1561 (154) -0.1645 (155)
          -0.1561 (156) -0.1759 (157) -0.1675 (158)
 CRD 42=  -0.3501 ( 15) -0.3030 ( 16)  0.2072 ( 18)  0.2875 ( 19)  0.1858 ( 22)
           0.2072 ( 23)  0.2875 ( 24) -0.3030 ( 26) -0.3501 ( 27) -0.1322 ( 77)
          -0.1322 ( 81)  0.1178 (149) -0.1178 (161)
 CRD 43=  -0.3550 ( 15) -0.3397 ( 16) -0.3099 ( 18) -0.1558 ( 19)  0.3099 ( 23)
           0.1558 ( 24)  0.3397 ( 26)  0.3550 ( 27) -0.1428 ( 77)  0.1428 ( 81)
          -0.1031 (147) -0.1031 (162)
 CRD 44=  -0.2084 ( 15) -0.2587 ( 16) -0.3398 ( 18) -0.1864 ( 19) -0.2440 ( 21)
          -0.3708 ( 22) -0.3398 ( 23) -0.1864 ( 24) -0.2587 ( 26) -0.2084 ( 27)
          -0.1035 ( 77) -0.1135 ( 78) -0.1333 ( 79) -0.1135 ( 80) -0.1035 ( 81)
           0.1032 (150) -0.1184 (151)  0.1184 (157) -0.1032 (159)
 CRD 45=   0.2367 (  2) -0.1035 (  5) -0.1035 (  9) -0.1770 ( 13) -0.1058 ( 16)
          -0.1260 ( 21)  0.1921 ( 22) -0.1058 ( 26) -0.1894 ( 89) -0.1325 ( 90)
          -0.1139 ( 93)  0.1139 ( 94)  0.1894 ( 96)  0.1325 ( 97)  0.1011 (101)
           0.1580 (102) -0.1580 (103) -0.1011 (104) -0.1138 (136)  0.1138 (137)
           0.1324 (138)  0.1893 (139) -0.1893 (140) -0.1324 (141)  0.1167 (147)
           0.1207 (148)  0.1320 (149)  0.1360 (150) -0.1360 (159) -0.1207 (160)
          -0.1320 (161) -0.1167 (162)
 CRD 46=   0.1959 (  2) -0.2248 ( 15)  0.2030 ( 16)  0.2239 ( 21) -0.2272 ( 22)
           0.2030 ( 26) -0.2248 ( 27) -0.1018 ( 52) -0.1018 ( 70)  0.1174 ( 83)
          -0.1174 ( 85) -0.1402 (113)  0.1402 (131)  0.1154 (139) -0.1154 (140)
          -0.1361 (143)  0.1361 (145) -0.1015 (148) -0.1091 (149) -0.1165 (150)
          -0.1057 (151) -0.1065 (152) -0.1329 (153) -0.1337 (154)  0.1065 (155)
           0.1337 (156)  0.1057 (157)  0.1329 (158)  0.1165 (159)  0.1015 (160)
           0.1091 (161)
 CRD 47=  -0.1719 ( 15)  0.1699 ( 16)  0.2317 ( 18) -0.2370 ( 19) -0.2317 ( 23)
           0.2370 ( 24) -0.1699 ( 26)  0.1719 ( 27) -0.1105 (105) -0.1362 (106)
          -0.1105 (108) -0.1362 (109) -0.1448 (124) -0.1145 (125) -0.1145 (126)
          -0.1448 (127) -0.2153 (147) -0.1896 (148) -0.1850 (149) -0.1593 (150)
           0.1082 (152)  0.1129 (154)  0.1082 (155)  0.1129 (156) -0.1593 (159)
          -0.1896 (160) -0.1850 (161) -0.2153 (162)
 CRD 48=   0.1109 ( 13)  0.1042 ( 16)  0.1594 ( 18) -0.1486 ( 19) -0.1890 ( 21)
           0.1988 ( 22)  0.1594 ( 23) -0.1486 ( 24)  0.1042 ( 26)  0.1589 (115)
           0.1159 (116)  0.1058 (117) -0.1058 (119) -0.1200 (120) -0.1664 (121)
          -0.1281 (124) -0.1020 (125)  0.1020 (126)  0.1281 (127)  0.1200 (128)
           0.1664 (129) -0.1589 (134) -0.1159 (135) -0.1533 (147) -0.1348 (148)
          -0.1272 (149) -0.1087 (150)  0.1302 (151)  0.1731 (152)  0.1765 (153)
           0.2195 (154) -0.1731 (155) -0.2195 (156) -0.1302 (157) -0.1765 (158)
           0.1087 (159)  0.1348 (160)  0.1272 (161)  0.1533 (162)
 CRD 49=  -0.3388 (  1) -0.1748 (  3) -0.1748 (  4)  0.2453 (  5)  0.1069 (  6)
           0.2453 (  9)  0.1069 ( 10)  0.3031 ( 13) -0.1163 ( 15) -0.1163 ( 27)
           0.1871 ( 30)  0.1871 ( 32)  0.1217 ( 33)  0.1217 ( 34)  0.1361 ( 35)
           0.1361 ( 36) -0.2039 ( 72) -0.1765 ( 73) -0.2039 ( 74) -0.1765 ( 75)
           0.1085 (113) -0.1085 (131)  0.1063 (139) -0.1063 (140)
 CRD 50=  -0.2540 (  3)  0.2540 (  4)  0.1557 (  5)  0.1639 (  6)  0.2279 (  7)
          -0.2279 (  8) -0.1557 (  9) -0.1639 ( 10)  0.1891 ( 30) -0.1891 ( 32)
          -0.2031 ( 33)  0.2031 ( 34)  0.1863 ( 35) -0.1863 ( 36) -0.1355 ( 37)
           0.1355 ( 41) -0.2156 ( 71) -0.1551 ( 72) -0.2078 ( 73)  0.1551 ( 74)
           0.2078 ( 75)  0.2156 ( 76)  0.1686 (112)  0.1686 (132) -0.1102 (138)
          -0.1102 (141)  0.1986 (142)
 CRD 51=  -0.1688 (  1)  0.2274 (  3)  0.2274 (  4) -0.1805 (  6) -0.1083 (  7)
          -0.1083 (  8) -0.1805 ( 10)  0.3073 ( 13) -0.1858 ( 15)  0.1377 ( 19)
          -0.1323 ( 21)  0.1377 ( 24) -0.1858 ( 27) -0.1004 ( 30) -0.1004 ( 32)
          -0.1245 ( 33) -0.1245 ( 34) -0.1390 ( 35) -0.1390 ( 36) -0.1158 ( 47)
          -0.1066 ( 58) -0.1066 ( 64)  0.1734 ( 71)  0.1247 ( 72)  0.1247 ( 74)
           0.1734 ( 76)  0.1387 (113) -0.1387 (131)  0.1008 (136) -0.1008 (137)
          -0.1069 (138)  0.1069 (141)
 CRD 52=  -0.1039 (  2)  0.1407 ( 18)  0.1407 ( 23)  0.1818 ( 31)  0.1082 ( 42)
           0.1344 ( 43)  0.1082 ( 45)  0.1344 ( 48)  0.1092 ( 50) -0.1590 ( 54)
          -0.1242 ( 58) -0.1019 ( 60) -0.1019 ( 62) -0.1242 ( 64) -0.1590 ( 65)
           0.1092 ( 69) -0.1325 ( 79) -0.1179 ( 82)  0.1179 ( 84) -0.1376 (114)
           0.1343 (120)  0.1591 (122) -0.1074 (124)  0.1074 (127) -0.1343 (128)
          -0.1591 (130)  0.1376 (133) -0.2806 (144)  0.2806 (146)  0.1088 (149)
          -0.1896 (151)  0.1896 (157) -0.1088 (161)
 CRD 53=   0.1141 ( 11) -0.1141 ( 12) -0.1734 ( 17) -0.2304 ( 18)  0.1004 ( 19)
           0.1734 ( 20)  0.2304 ( 23) -0.1004 ( 24)  0.1967 ( 55)  0.1863 ( 56)
           0.1108 ( 59) -0.1108 ( 61) -0.1967 ( 66) -0.1863 ( 67)  0.1332 ( 78)
          -0.1332 ( 80) -0.1693 (105) -0.1693 (108) -0.1214 (115)  0.1132 (116)
           0.1084 (120)  0.1084 (128) -0.1214 (134)  0.1132 (135) -0.1036 (148)
          -0.2369 (150)  0.2225 (151)  0.1599 (153)  0.2225 (157)  0.1599 (158)
          -0.2369 (159) -0.1036 (160)
 CRD 54=  -0.2527 ( 14)  0.1525 ( 17) -0.1045 ( 18)  0.1430 ( 19)  0.1525 ( 20)
          -0.2326 ( 21)  0.2970 ( 22) -0.1045 ( 23)  0.1430 ( 24) -0.2527 ( 25)
           0.1149 ( 50)  0.1632 ( 52) -0.1388 ( 59) -0.1388 ( 61)  0.1149 ( 69)
           0.1632 ( 70) -0.1067 (105)  0.1067 (108) -0.1497 (116) -0.1374 (121)
           0.1374 (129)  0.1497 (135) -0.1888 (150) -0.1847 (151) -0.1086 (152)
           0.1086 (155)  0.1847 (157)  0.1888 (159)
 CRD 55=  -0.1319 ( 11)  0.1319 ( 12) -0.1400 ( 16)  0.1363 ( 17) -0.1363 ( 20)
           0.1400 ( 26) -0.1611 ( 43)  0.1611 ( 48)  0.1459 ( 50)  0.1585 ( 52)
          -0.1349 ( 54)  0.1111 ( 55) -0.1322 ( 58)  0.1220 ( 59)  0.2041 ( 60)
          -0.1220 ( 61) -0.2041 ( 62)  0.1322 ( 64)  0.1349 ( 65) -0.1111 ( 66)
          -0.1459 ( 69) -0.1585 ( 70)  0.1517 ( 82)  0.1517 ( 84)  0.1369 (106)
           0.1369 (109)  0.1300 (114) -0.1034 (120) -0.1098 (124) -0.1098 (127)
          -0.1034 (128)  0.1300 (133)  0.1310 (144)  0.1310 (146) -0.1557 (148)
           0.1173 (149) -0.1715 (152)  0.1247 (153) -0.1715 (155)  0.1247 (158)
          -0.1557 (160)  0.1173 (161)
 CRD 56=  -0.3264 (  1)  0.2093 (  2)  0.1381 (  3)  0.1381 (  4)  0.1479 (  5)
          -0.1436 (  6) -0.1082 (  7) -0.1082 (  8)  0.1479 (  9) -0.1436 ( 10)
          -0.1137 ( 14)  0.1340 ( 15) -0.1007 ( 16) -0.1457 ( 19)  0.1312 ( 21)
          -0.1457 ( 24) -0.1137 ( 25) -0.1007 ( 26)  0.1340 ( 27)  0.1842 ( 71)
           0.1842 ( 76) -0.1113 ( 79) -0.1260 ( 89)  0.1260 ( 96) -0.1514 (100)
           0.1523 (106) -0.1523 (109)  0.1514 (111)  0.1149 (136) -0.1149 (137)
 CRD 57=  -0.1146 ( 14)  0.1017 ( 15) -0.1860 ( 16)  0.2026 ( 17) -0.2026 ( 20)
           0.1146 ( 25)  0.1860 ( 26) -0.1017 ( 27)  0.1514 ( 42) -0.1514 ( 45)
           0.1285 ( 51) -0.1056 ( 55)  0.1386 ( 58) -0.1386 ( 64)  0.1056 ( 66)
          -0.1285 ( 68) -0.2014 ( 92) -0.2014 ( 99)  0.1092 (113) -0.1571 (125)
          -0.1571 (126)  0.1092 (131) -0.2479 (142)  0.1878 (143)  0.1421 (144)
           0.1878 (145)  0.1421 (146) -0.1217 (149) -0.1601 (150) -0.1601 (159)
          -0.1217 (161)
 CRD 58=  -0.1943 (  2)  0.2019 (  3)  0.2019 (  4)  0.1680 (  6) -0.1997 (  7)
          -0.1997 (  8)  0.1680 ( 10) -0.1163 ( 11) -0.1163 ( 12)  0.1213 ( 13)
           0.1873 ( 47)  0.2028 ( 73)  0.2028 ( 75) -0.1268 ( 90)  0.1268 ( 97)
           0.1376 (101) -0.1376 (104) -0.1568 (136)  0.1568 (137)  0.3171 (138)
           0.1136 (139) -0.1136 (140) -0.3171 (141)
 CRD 59=  -0.2778 (  3)  0.2778 (  4)  0.1610 (  5)  0.1512 (  6) -0.1913 (  7)
           0.1913 (  8) -0.1610 (  9) -0.1512 ( 10) -0.1003 ( 33)  0.1003 ( 34)
           0.1295 ( 37) -0.1295 ( 41) -0.2301 ( 72)  0.2301 ( 74)  0.1302 ( 90)
          -0.1239 ( 93) -0.1239 ( 94)  0.1302 ( 97) -0.1467 (100)  0.1074 (101)
           0.1074 (104) -0.1467 (111) -0.1738 (112) -0.1738 (132)  0.2096 (138)
           0.2096 (141) -0.2407 (142)
 CRD 60=   0.1530 (  2)  0.1259 (  7)  0.1259 (  8) -0.1277 ( 11) -0.1277 ( 12)
          -0.1343 ( 14)  0.1670 ( 16) -0.1234 ( 17)  0.1656 ( 18) -0.1234 ( 20)
           0.1501 ( 22)  0.1656 ( 23) -0.1343 ( 25)  0.1670 ( 26) -0.1494 ( 31)
          -0.1167 ( 77) -0.1158 ( 78) -0.1616 ( 79) -0.1158 ( 80) -0.1167 ( 81)
           0.1983 (144) -0.1983 (146)  0.1800 (150) -0.1960 (151)  0.1960 (157)
          -0.1800 (159)
 CRD 61=  -0.1939 ( 11)  0.1939 ( 12)  0.2049 ( 14)  0.1494 ( 15) -0.2103 ( 17)
          -0.1508 ( 19)  0.2103 ( 20)  0.1508 ( 24) -0.2049 ( 25) -0.1494 ( 27)
          -0.1047 ( 50) -0.1134 ( 52)  0.1545 ( 56) -0.1370 ( 59)  0.1370 ( 61)
          -0.1545 ( 67)  0.1047 ( 69)  0.1134 ( 70)  0.1007 ( 78) -0.1007 ( 80)
          -0.1918 (121) -0.1664 (124) -0.1664 (127) -0.1918 (129) -0.1174 (142)
           0.1088 (151) -0.2231 (154) -0.2231 (156)  0.1088 (157)
 CRD 62=   0.1259 (  5) -0.1294 (  7) -0.1294 (  8)  0.1259 (  9) -0.1979 ( 13)
           0.1071 ( 15)  0.1045 ( 19) -0.2110 ( 21)  0.1030 ( 22)  0.1045 ( 24)
           0.1071 ( 27)  0.1055 ( 71)  0.1055 ( 76) -0.1163 ( 77) -0.1213 ( 78)
          -0.1213 ( 80) -0.1163 ( 81) -0.1188 ( 86)  0.1188 ( 87)  0.1182 ( 93)
          -0.1182 ( 94) -0.1528 (100) -0.1191 (106)  0.1191 (109)  0.1528 (111)
          -0.1590 (115) -0.1251 (124)  0.1251 (127)  0.1590 (134) -0.2152 (147)
           0.1226 (150) -0.1402 (152)  0.1402 (155) -0.1226 (159)  0.2152 (162)
 CRD 63=  -0.1827 (  6)  0.1384 (  7) -0.1384 (  8)  0.1827 ( 10) -0.1364 ( 11)
           0.1364 ( 12)  0.1570 ( 14) -0.1036 ( 15)  0.1207 ( 19) -0.1207 ( 24)
          -0.1570 ( 25)  0.1036 ( 27)  0.1332 ( 51) -0.1332 ( 68) -0.1518 ( 73)
           0.1518 ( 75)  0.1191 ( 77) -0.1191 ( 81) -0.1432 ( 83) -0.1432 ( 85)
           0.1322 ( 89) -0.1001 ( 90) -0.1022 ( 92)  0.1322 ( 96) -0.1001 ( 97)
          -0.1022 ( 99) -0.1175 (101)  0.1148 (102)  0.1148 (103) -0.1175 (104)
          -0.1220 (106) -0.1220 (109) -0.1440 (113) -0.1440 (131)  0.1396 (139)
           0.1396 (140) -0.1343 (142)  0.1253 (144)  0.1253 (146) -0.1132 (149)
          -0.1132 (161)
 CRD 64=   0.2464 (  5) -0.2139 (  6) -0.2464 (  9)  0.2139 ( 10) -0.1003 ( 14)
           0.1003 ( 25) -0.1021 ( 30)  0.1021 ( 32)  0.1033 ( 35) -0.1033 ( 36)
           0.1852 ( 71) -0.1724 ( 73)  0.1724 ( 75) -0.1852 ( 76)  0.2489 ( 89)
           0.2489 ( 96) -0.1053 (100)  0.1909 (102)  0.1909 (103) -0.1053 (111)
           0.2138 (139)  0.2138 (140)
 CRD 65=  -0.1019 (  7) -0.1019 (  8)  0.2054 ( 11)  0.2054 ( 12) -0.2015 ( 17)
          -0.2015 ( 20)  0.1531 ( 22)  0.1090 ( 31) -0.1235 ( 43) -0.1235 ( 48)
          -0.1978 ( 79)  0.1347 (115) -0.1347 (134)  0.1150 (136) -0.1150 (137)
          -0.1184 (143)  0.1184 (145)  0.1882 (148) -0.1402 (149) -0.1299 (151)
          -0.1194 (153)  0.1299 (157)  0.1194 (158) -0.1882 (160)  0.1402 (161)
 CRD 66=  -0.1028 (  3)  0.1028 (  4)  0.1138 (  7) -0.1138 (  8) -0.1002 ( 11)
           0.1002 ( 12) -0.2304 ( 14)  0.1333 ( 16) -0.1051 ( 17)  0.1231 ( 18)
           0.1051 ( 20) -0.1231 ( 23)  0.2304 ( 25) -0.1333 ( 26)  0.1077 ( 55)
          -0.1077 ( 66) -0.1385 ( 77) -0.1399 ( 78)  0.1399 ( 80)  0.1385 ( 81)
          -0.1238 ( 82) -0.1238 ( 84)  0.1058 (121)  0.1058 (129)  0.1369 (136)
           0.1369 (137) -0.1297 (142)  0.1262 (143)  0.1262 (145)  0.1238 (150)
          -0.1583 (152)  0.1337 (153) -0.1583 (155)  0.1337 (158)  0.1238 (159)
 CRD 67=  -0.1146 (  2)  0.1143 (  3)  0.1143 (  4)  0.1158 (  7)  0.1158 (  8)
          -0.1561 ( 16) -0.1021 ( 17) -0.1021 ( 20) -0.1561 ( 26) -0.1153 ( 33)
          -0.1153 ( 34) -0.1706 ( 38)  0.1265 ( 47)  0.1040 ( 49)  0.1050 ( 72)
           0.1050 ( 74)  0.1113 ( 90)  0.1235 ( 91) -0.1113 ( 97) -0.1235 ( 98)
          -0.1449 (101)  0.1449 (104)  0.1502 (105) -0.1502 (108) -0.1265 (125)
           0.1265 (126) -0.2047 (136)  0.2047 (137)  0.1306 (139) -0.1306 (140)
          -0.1560 (149)  0.1560 (161)
 CRD 68=   0.1663 (  3) -0.1663 (  4) -0.1057 (  7)  0.1057 (  8) -0.1931 ( 17)
           0.1249 ( 18)  0.1931 ( 20) -0.1249 ( 23) -0.1336 ( 37)  0.1336 ( 41)
           0.1166 ( 53) -0.1166 ( 63) -0.1514 ( 78)  0.1514 ( 80) -0.1320 ( 92)
          -0.1320 ( 99)  0.1192 (101)  0.1192 (104)  0.1506 (105)  0.1506 (108)
           0.1400 (112) -0.1131 (125) -0.1131 (126)  0.1400 (132) -0.1544 (136)
          -0.1544 (137)  0.1321 (148) -0.1668 (149) -0.1274 (152)  0.1039 (153)
          -0.1274 (155)  0.1039 (158)  0.1321 (160) -0.1668 (161)
 CRD 69=  -0.1093 (  1) -0.1145 (  5)  0.1048 (  6) -0.1145 (  9)  0.1048 ( 10)
           0.1127 ( 13)  0.1101 ( 15) -0.1485 ( 21)  0.1101 ( 27) -0.1030 ( 51)
          -0.1030 ( 68) -0.1082 ( 77) -0.1082 ( 81)  0.1194 ( 83) -0.1194 ( 85)
          -0.1659 ( 90) -0.1768 ( 93)  0.1768 ( 94)  0.1659 ( 97) -0.1194 (102)
           0.1194 (103)  0.1907 (114)  0.1356 (118) -0.1356 (123) -0.1015 (124)
           0.1015 (127) -0.1907 (133) -0.1661 (139)  0.1661 (140) -0.1875 (143)
           0.1875 (145) -0.1431 (154)  0.1431 (156)
 CRD 70=  -0.1451 ( 14)  0.1579 ( 18) -0.2102 ( 22)  0.1579 ( 23) -0.1451 ( 25)
           0.1467 ( 53) -0.1976 ( 57) -0.1066 ( 60) -0.1066 ( 62)  0.1467 ( 63)
          -0.1396 ( 78)  0.1945 ( 79) -0.1396 ( 80)  0.1110 (105) -0.1110 (108)
           0.2283 (116)  0.2367 (120) -0.1394 (125)  0.1394 (126) -0.2367 (128)
          -0.2283 (135)  0.1397 (148) -0.2247 (152)  0.2404 (153)  0.2247 (155)
          -0.2404 (158) -0.1397 (160)
 CRD 71=  -0.1368 ( 11)  0.1368 ( 12)  0.1646 ( 15) -0.1315 ( 18)  0.1528 ( 19)
           0.1315 ( 23) -0.1528 ( 24) -0.1646 ( 27) -0.1180 ( 44)  0.1180 ( 46)
          -0.1183 ( 50)  0.1236 ( 52) -0.1007 ( 54)  0.1007 ( 65)  0.1183 ( 69)
          -0.1236 ( 70) -0.1296 ( 77)  0.1296 ( 81)  0.1536 (107)  0.1536 (110)
           0.1214 (113) -0.1699 (116) -0.1126 (117) -0.1126 (119)  0.1623 (125)
           0.1623 (126)  0.1214 (131) -0.1699 (135)  0.1121 (143)  0.1121 (145)
          -0.2211 (147) -0.2040 (148)  0.1014 (152)  0.1195 (154)  0.1014 (155)
           0.1195 (156) -0.2040 (160) -0.2211 (162)
 CRD 72=  -0.3424 (  2) -0.1062 (  6) -0.1062 ( 10) -0.1236 ( 14) -0.1236 ( 25)
           0.1229 ( 31)  0.1028 ( 35)  0.1028 ( 36) -0.1035 ( 37) -0.1035 ( 41)
           0.1178 ( 47) -0.1291 ( 49)  0.1195 ( 82) -0.1195 ( 84)  0.1893 ( 90)
           0.1302 ( 93) -0.1302 ( 94) -0.1893 ( 97)  0.1873 (114)  0.1635 (122)
          -0.1635 (130) -0.1873 (133) -0.1074 (136)  0.1074 (137)  0.2101 (139)
          -0.2101 (140) -0.1989 (143)  0.1989 (145)
 CRD 73=  -0.1289 (  3)  0.1289 (  4)  0.1915 ( 11) -0.1915 ( 12) -0.1320 ( 16)
           0.1320 ( 26)  0.1233 ( 28) -0.1233 ( 29)  0.1157 ( 39) -0.1157 ( 40)
          -0.1500 ( 51)  0.1500 ( 68)  0.1580 ( 82)  0.1144 ( 83)  0.1580 ( 84)
           0.1144 ( 85)  0.2210 ( 92)  0.2210 ( 99) -0.1042 (101) -0.1042 (104)
           0.1488 (105)  0.1081 (107)  0.1488 (108)  0.1081 (110) -0.2282 (112)
          -0.1757 (122) -0.1757 (130) -0.2282 (132) -0.1483 (149) -0.1483 (161)
 CRD 74=  -0.1465 (  1)  0.1437 ( 19)  0.1778 ( 21)  0.1437 ( 24)  0.1001 ( 31)
          -0.1081 ( 59) -0.1081 ( 61) -0.1059 ( 86)  0.1059 ( 87)  0.1227 ( 88)
          -0.1329 ( 93)  0.1329 ( 94) -0.1227 ( 95) -0.1376 (102)  0.1376 (103)
           0.1046 (107) -0.1046 (110) -0.2065 (117)  0.2065 (119)  0.1236 (120)
           0.1299 (125) -0.1299 (126) -0.1236 (128) -0.1255 (147)  0.1106 (152)
           0.1108 (153)  0.2169 (154) -0.1106 (155) -0.2169 (156) -0.1108 (158)
           0.1255 (162)
 CRD 75=   0.1307 (  1)  0.1871 ( 13)  0.1151 ( 15)  0.1151 ( 27) -0.1229 ( 31)
          -0.1203 ( 47)  0.1194 ( 49) -0.1428 ( 82)  0.1985 ( 83)  0.1428 ( 84)
          -0.1985 ( 85) -0.2074 ( 88)  0.2074 ( 95)  0.1213 (101)  0.1464 (102)
          -0.1464 (103) -0.1213 (104)  0.1178 (105)  0.1603 (107) -0.1178 (108)
          -0.1603 (110) -0.1225 (112) -0.1034 (117)  0.1842 (118)  0.1034 (119)
          -0.1124 (122) -0.1842 (123)  0.1124 (130)  0.1225 (132) -0.1203 (147)
           0.1203 (162)

 THE DETERMINANT OF THE G MATRIX IS 10**(   -21)


                     --------------------
                     INTERNAL COORDINATES
                     --------------------

                 - - ATOMS - -         COORDINATE      COORDINATE
 NO.   TYPE    I  J  K  L  M  N        (BOHR,RAD)       (ANG,DEG)
 ----------------------------------------------------------------
   1 STRETCH   1 10                     2.0596817       1.0899367
   2 STRETCH   1  4                     2.8911236       1.5299168
   3 STRETCH   1  2                     2.8912120       1.5299636
   4 STRETCH   1  3                     2.8912120       1.5299636
   5 STRETCH   2 13                     2.0598706       1.0900366
   6 STRETCH   2 11                     2.0598800       1.0900417
   7 STRETCH   2 12                     2.0597398       1.0899674
   8 STRETCH   3 15                     2.0597398       1.0899674
   9 STRETCH   3 14                     2.0598706       1.0900366
  10 STRETCH   3 16                     2.0598800       1.0900417
  11 STRETCH   4  5                     2.8912120       1.5299636
  12 STRETCH   4  9                     2.8912120       1.5299636
  13 STRETCH   4 17                     2.0598706       1.0900366
  14 STRETCH   5  6                     2.8913682       1.5300463
  15 STRETCH   5 19                     2.0596876       1.0899398
  16 STRETCH   5 18                     2.0598000       1.0899993
  17 STRETCH   6  7                     2.8912722       1.5299955
  18 STRETCH   6 21                     2.0598910       1.0900474
  19 STRETCH   6 20                     2.0596817       1.0899367
  20 STRETCH   7  8                     2.8912722       1.5299955
  21 STRETCH   7 23                     2.0596817       1.0899367
  22 STRETCH   7 22                     2.0599486       1.0900779
  23 STRETCH   8 25                     2.0598910       1.0900474
  24 STRETCH   8 24                     2.0596817       1.0899367
  25 STRETCH   8  9                     2.8913682       1.5300463
  26 STRETCH   9 27                     2.0598000       1.0899993
  27 STRETCH   9 26                     2.0596876       1.0899398
  28 BEND      1  4  9                  1.9106418     109.4717089
  29 BEND      1  4  5                  1.9106418     109.4717089
  30 BEND      1  2 13                  1.9106281     109.4709277
  31 BEND      1  4 17                  1.9106492     109.4721350
  32 BEND      1  3 14                  1.9106281     109.4709277
  33 BEND      1  3 15                  1.9106939     109.4746943
  34 BEND      1  2 12                  1.9106939     109.4746943
  35 BEND      1  2 11                  1.9106559     109.4725200
  36 BEND      1  3 16                  1.9106559     109.4725200
  37 BEND      2  1 10                  1.9106296     109.4710102
  38 BEND      2  1  3                  1.9106105     109.4699156
  39 BEND      2  1  4                  1.9106418     109.4717089
  40 BEND      3  1  4                  1.9106418     109.4717089
  41 BEND      3  1 10                  1.9106296     109.4710102
  42 BEND      4  9 26                  1.9106754     109.4736373
  43 BEND      4  9 27                  1.9106526     109.4723274
  44 BEND      4  9  8                  1.9106232     109.4706433
  45 BEND      4  5 19                  1.9106754     109.4736373
  46 BEND      4  5  6                  1.9106232     109.4706433
  47 BEND      4  1 10                  1.9106463     109.4719701
  48 BEND      4  5 18                  1.9106526     109.4723274
  49 BEND      5  4  9                  1.9106105     109.4699156
  50 BEND      5  6 20                  1.9106835     109.4741013
  51 BEND      5  4 17                  1.9106281     109.4709277
  52 BEND      5  6 21                  1.9105879     109.4686255
  53 BEND      5  6  7                  1.9105907     109.4687807
  54 BEND      6  5 19                  1.9105918     109.4688471
  55 BEND      6  7 22                  1.9105807     109.4682083
  56 BEND      6  7 23                  1.9106915     109.4745587
  57 BEND      6  7  8                  1.9105516     109.4665433
  58 BEND      6  5 18                  1.9105129     109.4643251
  59 BEND      7  8 24                  1.9106915     109.4745587
  60 BEND      7  8 25                  1.9105606     109.4670608
  61 BEND      7  6 20                  1.9106915     109.4745587
  62 BEND      7  6 21                  1.9105606     109.4670608
  63 BEND      7  8  9                  1.9105907     109.4687807
  64 BEND      8  9 27                  1.9105129     109.4643251
  65 BEND      8  9 26                  1.9105918     109.4688471
  66 BEND      8  7 22                  1.9105807     109.4682083
  67 BEND      8  7 23                  1.9106915     109.4745587
  68 BEND      9  4 17                  1.9106281     109.4709277
  69 BEND      9  8 24                  1.9106835     109.4741013
  70 BEND      9  8 25                  1.9105879     109.4686255
  71 BEND     11  2 12                  1.9105913     109.4688159
  72 BEND     11  2 13                  1.9106209     109.4705127
  73 BEND     12  2 13                  1.9106094     109.4698531
  74 BEND     14  3 16                  1.9106209     109.4705127
  75 BEND     14  3 15                  1.9106094     109.4698531
  76 BEND     15  3 16                  1.9105913     109.4688159
  77 BEND     18  5 19                  1.9107436     109.4775432
  78 BEND     20  6 21                  1.9106852     109.4741963
  79 BEND     22  7 23                  1.9107035     109.4752459
  80 BEND     24  8 25                  1.9106852     109.4741963
  81 BEND     26  9 27                  1.9107436     109.4775432
  82 TORSION   1  4  9 26              -1.0472628     -60.0037383
  83 TORSION   1  4  5 18              -1.0473051     -60.0061634
  84 TORSION   1  4  5 19               1.0472628      60.0037383
  85 TORSION   1  4  9 27               1.0473051      60.0061634
  86 TORSION   1  4  5  6              -3.1415585    -179.9980424
  87 TORSION   1  4  9  8               3.1415585     179.9980424
  88 TORSION   2  1  4  5               1.0472150      60.0010003
  89 TORSION   2  1  3 15              -3.1415646    -179.9983898
  90 TORSION   2  1  3 14               1.0472209      60.0013373
  91 TORSION   2  1  4  9               3.1415927     180.0000000
  92 TORSION   2  1  4 17              -1.0471888     -59.9994998
  93 TORSION   2  1  3 16              -1.0471698     -59.9984120
  94 TORSION   3  1  2 11               1.0471698      59.9984120
  95 TORSION   3  1  4  9              -1.0472150     -60.0010003
  96 TORSION   3  1  2 12               3.1415646     179.9983898
  97 TORSION   3  1  2 13              -1.0472209     -60.0013373
  98 TORSION   3  1  4  5               3.1415927     180.0000000
  99 TORSION   3  1  4 17               1.0471888      59.9994998
 100 TORSION   4  1  2 11               3.1415666     179.9985098
 101 TORSION   4  1  2 13               1.0471759      59.9987605
 102 TORSION   4  1  2 12              -1.0472239     -60.0015124
 103 TORSION   4  1  3 15               1.0472239      60.0015124
 104 TORSION   4  1  3 14              -1.0471759     -59.9987605
 105 TORSION   4  5  6 20               1.0471774      59.9988473
 106 TORSION   4  5  6 21              -3.1415461    -179.9973335
 107 TORSION   4  5  6  7              -1.0472937     -60.0055108
 108 TORSION   4  9  8 24              -1.0471774     -59.9988473
 109 TORSION   4  9  8 25               3.1415461     179.9973335
 110 TORSION   4  9  8  7               1.0472937      60.0055108
 111 TORSION   4  1  3 16              -3.1415666    -179.9985098
 112 TORSION   5  4  1 10              -1.0471888     -59.9994998
 113 TORSION   5  4  9 27              -3.1414834    -179.9937388
 114 TORSION   5  4  9 26               1.0471340      59.9963595
 115 TORSION   5  6  7 22               3.1415743     179.9989487
 116 TORSION   5  6  7 23              -1.0471264     -59.9959220
 117 TORSION   5  6  7  8               1.0473258      60.0073459
 118 TORSION   5  4  9  8              -1.0472300     -60.0018598
 119 TORSION   6  7  8  9              -1.0473258     -60.0073459
 120 TORSION   6  7  8 24               1.0471405      59.9967321
 121 TORSION   6  7  8 25               3.1415904     179.9998732
 122 TORSION   6  5  4 17              -1.0471418     -59.9968029
 123 TORSION   6  5  4  9               1.0472300      60.0018598
 124 TORSION   7  6  5 18               3.1415527     179.9977095
 125 TORSION   7  6  5 19               1.0471215      59.9956419
 126 TORSION   7  8  9 26              -1.0471215     -59.9956419
 127 TORSION   7  8  9 27              -3.1415527    -179.9977095
 128 TORSION   8  7  6 20              -1.0471405     -59.9967321
 129 TORSION   8  7  6 21              -3.1415904    -179.9998732
 130 TORSION   8  9  4 17               1.0471418      59.9968029
 131 TORSION   9  4  5 18               3.1414834     179.9937388
 132 TORSION   9  4  1 10               1.0471888      59.9994998
 133 TORSION   9  4  5 19              -1.0471340     -59.9963595
 134 TORSION   9  8  7 22              -3.1415743    -179.9989487
 135 TORSION   9  8  7 23               1.0471264      59.9959220
 136 TORSION  10  1  3 16               1.0472046      60.0004022
 137 TORSION  10  1  2 11              -1.0472046     -60.0004022
 138 TORSION  10  1  2 13               3.1415900     179.9998485
 139 TORSION  10  1  2 12               1.0471901      59.9995756
 140 TORSION  10  1  3 15              -1.0471901     -59.9995756
 141 TORSION  10  1  3 14              -3.1415900    -179.9998485
 142 TORSION  10  1  4 17               3.1415927     180.0000000
 143 TORSION  17  4  9 27              -1.0471116     -59.9950760
 144 TORSION  17  4  9 26               3.1415058     179.9950222
 145 TORSION  17  4  5 18               1.0471116      59.9950760
 146 TORSION  17  4  5 19              -3.1415058    -179.9950222
 147 TORSION  18  5  6 21               1.0473003      60.0058868
 148 TORSION  18  5  6 20              -1.0471615     -59.9979324
 149 TORSION  19  5  6 21              -1.0471309     -59.9961808
 150 TORSION  19  5  6 20               3.1415927     180.0000000
 151 TORSION  20  6  7 23               3.1415927     180.0000000
 152 TORSION  20  6  7 22               1.0471080      59.9948707
 153 TORSION  21  6  7 23               1.0471427      59.9968589
 154 TORSION  21  6  7 22              -1.0473419     -60.0082704
 155 TORSION  22  7  8 24              -1.0471080     -59.9948707
 156 TORSION  22  7  8 25               1.0473419      60.0082704
 157 TORSION  23  7  8 24               3.1415927     180.0000000
 158 TORSION  23  7  8 25              -1.0471427     -59.9968589
 159 TORSION  24  8  9 26               3.1415927     180.0000000
 160 TORSION  24  8  9 27               1.0471615      59.9979324
 161 TORSION  25  8  9 26               1.0471309      59.9961808
 162 TORSION  25  8  9 27              -1.0473003     -60.0058868

     ------------------------------------------
     THE POINT GROUP IS C1 , NAXIS= 1, ORDER= 1
     ------------------------------------------

     DIMENSIONS OF THE SYMMETRY SUBSPACES ARE
 A   =  279

 ..... DONE SETTING UP THE RUN .....
 STEP CPU TIME =     0.03 TOTAL CPU TIME =        0.0 (    0.0 MIN)
 TOTAL WALL CLOCK TIME=        0.0 SECONDS, CPU UTILIZATION IS 100.00%


          -----------------------------
          STATIONARY POINT LOCATION RUN
          -----------------------------

 OBTAINING INITIAL HESSIAN, HESS=GUESS   
 DIAGONAL GUESS HESSIAN IN INTERNAL COORDS IS
     1  0.3464     2  0.3672     3  0.3672     4  0.3672     5  0.3463
     6  0.3463     7  0.3464     8  0.3464     9  0.3463    10  0.3463
    11  0.3672    12  0.3672    13  0.3463    14  0.3671    15  0.3464
    16  0.3464    17  0.3672    18  0.3463    19  0.3464    20  0.3672
    21  0.3464    22  0.3463    23  0.3463    24  0.3464    25  0.3671
    26  0.3464    27  0.3464    28  0.2485    29  0.2485    30  0.2241
    31  0.2241    32  0.2241    33  0.2241    34  0.2241    35  0.2241
    36  0.2241    37  0.2241    38  0.2485    39  0.2485    40  0.2485
    41  0.2241    42  0.2241    43  0.2241    44  0.2485    45  0.2241
    46  0.2485    47  0.2241    48  0.2241    49  0.2485    50  0.2241
    51  0.2241    52  0.2241    53  0.2485    54  0.2241    55  0.2241
    56  0.2241    57  0.2485    58  0.2241    59  0.2241    60  0.2241
    61  0.2241    62  0.2241    63  0.2485    64  0.2241    65  0.2241
    66  0.2241    67  0.2241    68  0.2241    69  0.2241    70  0.2241
    71  0.2034    72  0.2034    73  0.2034    74  0.2034    75  0.2034
    76  0.2034    77  0.2034    78  0.2034    79  0.2034    80  0.2034
    81  0.2034    82  0.2500    83  0.2500    84  0.2500    85  0.2500
    86  0.2500    87  0.2500    88  0.2500    89  0.2500    90  0.2500
    91  0.2500    92  0.2500    93  0.2500    94  0.2500    95  0.2500
    96  0.2500    97  0.2500    98  0.2500    99  0.2500   100  0.2500
   101  0.2500   102  0.2500   103  0.2500   104  0.2500   105  0.2500
   106  0.2500   107  0.2500   108  0.2500   109  0.2500   110  0.2500
   111  0.2500   112  0.2500   113  0.2500   114  0.2500   115  0.2500
   116  0.2500   117  0.2500   118  0.2500   119  0.2500   120  0.2500
   121  0.2500   122  0.2500   123  0.2500   124  0.2500   125  0.2500
   126  0.2500   127  0.2500   128  0.2500   129  0.2500   130  0.2500
   131  0.2500   132  0.2500   133  0.2500   134  0.2500   135  0.2500
   136  0.2500   137  0.2500   138  0.2500   139  0.2500   140  0.2500
   141  0.2500   142  0.2500   143  0.2500   144  0.2500   145  0.2500
   146  0.2500   147  0.2500   148  0.2500   149  0.2500   150  0.2500
   151  0.2500   152  0.2500   153  0.2500   154  0.2500   155  0.2500
   156  0.2500   157  0.2500   158  0.2500   159  0.2500   160  0.2500
   161  0.2500   162  0.2500
 TRANSFORMING HESSIAN TO SYMMETRY COORDINATES

          PARAMETERS CONTROLLING GEOMETRY SEARCH ARE
          METHOD =QA                  UPHESS =BFGS    
          NNEG   =         0          NFRZ   =         3
          NSTEP  =        50          IFOLOW =         1
          HESS   =GUESS               RESTAR =         F
          IHREP  =         0          HSSEND =         F
          NPRT   =         0          NPUN   =         0
          OPTTOL = 5.000E-04          RMIN   = 1.500E-03
          RMAX   = 1.000E-01          RLIM   = 7.000E-02
          DXMAX  = 3.000E-01          PURIFY =         F
          MOVIE  =         F          TRUPD  =         T
          TRMAX  = 5.000E-01          TRMIN  = 5.000E-02
          ITBMAT =         5          STPT   =         F
          STSTEP = 1.000E-02          PROJCT=          F
          FROZEN COORD(S)=   1   2   3


      ***** EQUILIBRIUM GEOMETRY LOCATED *****
            (SUBJECT TO   3 CONSTRAINT(S))
 COORDINATES OF ALL ATOMS ARE (ANGS)
   ATOM   CHARGE       X              Y              Z
 ------------------------------------------------------------
 C           6.0   1.7634839970   0.0000402435   0.3257423477
 C           6.0   2.4844245721  -1.2788201826  -0.1146721186
 C           6.0   2.4845269058   1.2787602099  -0.1149193101
 C           6.0   0.3206010439   0.0000491006  -0.1982576046
 C           6.0  -0.4380437561  -1.2655486738   0.2201267678
 C           6.0  -1.8853820280  -1.2562192514  -0.2598642726
 C           6.0  -2.6162661999  -0.0000313850   0.2090621721
 C           6.0  -1.8854284262   1.2562210134  -0.2597680032
 C           6.0  -0.4381053403   1.2655603517   0.2202851740
 H           1.0   1.7286263777   0.0001432735   1.4158024107
 H           1.0   3.5405071795  -1.2517377015   0.1307255518
 H           1.0   2.0603446392  -2.1427619325   0.3859905900
 H           1.0   2.3808750971  -1.4389787463  -1.1858471477
 H           1.0   2.3809092035   1.4387697467  -1.1861070751
 H           1.0   2.0605602937   2.1428338902   0.3856048747
 H           1.0   3.5406262612   1.2516176754   0.1303995761
 H           1.0   0.3790326907   0.0001226452  -1.2897107921
 H           1.0   0.0553399945  -2.1423394043  -0.1820364569
 H           1.0  -0.4068725522  -1.3584244177   1.3065607815
 H           1.0  -1.8927964786  -1.2957581444  -1.3493058007
 H           1.0  -2.3913009527  -2.1517651923   0.0910188398
 H           1.0  -3.6418743677  -0.0000680130  -0.1471809217
 H           1.0  -2.6528287782  -0.0000498521   1.2985741165
 H           1.0  -1.8928303503   1.2958385249  -1.3492094152
 H           1.0  -2.3913815268   2.1517286411   0.0911716357
 H           1.0  -0.4069942104   1.3582271958   1.3067384576
 H           1.0   0.0552522382   2.1424657615  -0.1816500239


                     --------------------
                     INTERNAL COORDINATES
                     --------------------

                 - - ATOMS - -         COORDINATE      COORDINATE
 NO.   TYPE    I  J  K  L  M  N        (BOHR,RAD)       (ANG,DEG)
 ----------------------------------------------------------------
   1 STRETCH   1 10                     2.0609678       1.0906173
   2 STRETCH   1  4                     2.9008908       1.5350854
   3 STRETCH   1  2                     2.8964045       1.5327114
   4 STRETCH   1  3                     2.8964083       1.5327134
   5 STRETCH   2 13                     2.0560611       1.0880208
   6 STRETCH   2 11                     2.0495156       1.0845570
   7 STRETCH   2 12                     2.0500716       1.0848513
   8 STRETCH   3 15                     2.0500657       1.0848481
   9 STRETCH   3 14                     2.0560557       1.0880179
  10 STRETCH   3 16                     2.0495156       1.0845570
  11 STRETCH   4  5                     2.8983279       1.5337292
  12 STRETCH   4  9                     2.8983322       1.5337315
  13 STRETCH   4 17                     2.0655010       1.0930162
  14 STRETCH   5  6                     2.8816100       1.5248825
  15 STRETCH   5 19                     2.0613926       1.0908421
  16 STRETCH   5 18                     2.0474767       1.0834781
  17 STRETCH   6  7                     2.8858360       1.5271187
  18 STRETCH   6 21                     2.0537031       1.0867730
  19 STRETCH   6 20                     2.0601490       1.0901840
  20 STRETCH   7  8                     2.8858385       1.5271201
  21 STRETCH   7 23                     2.0600380       1.0901253
  22 STRETCH   7 22                     2.0517075       1.0857169
  23 STRETCH   8 25                     2.0537080       1.0867755
  24 STRETCH   8 24                     2.0601540       1.0901866
  25 STRETCH   8  9                     2.8816198       1.5248877
  26 STRETCH   9 27                     2.0474697       1.0834744
  27 STRETCH   9 26                     2.0613921       1.0908418
  28 BEND      1  4  9                  1.9517665     111.8279855
  29 BEND      1  4  5                  1.9517542     111.8272786
  30 BEND      1  2 13                  1.9400829     111.1585617
  31 BEND      1  4 17                  1.8656635     106.8946463
  32 BEND      1  3 14                  1.9400818     111.1585013
  33 BEND      1  3 15                  1.9262380     110.3653074
  34 BEND      1  2 12                  1.9262227     110.3644301
  35 BEND      1  2 11                  1.9521412     111.8494501
  36 BEND      1  3 16                  1.9521544     111.8502084
  37 BEND      2  1 10                  1.8779104     107.5963427
  38 BEND      2  1  3                  1.9738379     113.0925838
  39 BEND      2  1  4                  1.9220102     110.1230745
  40 BEND      3  1  4                  1.9220077     110.1229297
  41 BEND      3  1 10                  1.8779160     107.5966611
  42 BEND      4  9 26                  1.9047484     109.1340435
  43 BEND      4  9 27                  1.9191182     109.9573732
  44 BEND      4  9  8                  1.9590305     112.2441796
  45 BEND      4  5 19                  1.9047795     109.1358289
  46 BEND      4  5  6                  1.9590492     112.2452520
  47 BEND      4  1 10                  1.8871813     108.1275237
  48 BEND      4  5 18                  1.9190596     109.9540142
  49 BEND      5  4  9                  1.9409283     111.2070010
  50 BEND      5  6 20                  1.8973613     108.7107960
  51 BEND      5  4 17                  1.8743334     107.3913926
  52 BEND      5  6 21                  1.9125923     109.5834661
  53 BEND      5  6  7                  1.9418975     111.2625318
  54 BEND      6  5 19                  1.9189296     109.9465658
  55 BEND      6  7 22                  1.9297820     110.5683628
  56 BEND      6  7 23                  1.8996218     108.8403144
  57 BEND      6  7  8                  1.9319639     110.6933804
  58 BEND      6  5 18                  1.8968720     108.6827593
  59 BEND      7  8 24                  1.9107443     109.4775855
  60 BEND      7  8 25                  1.9346850     110.8492843
  61 BEND      7  6 20                  1.9107417     109.4774377
  62 BEND      7  6 21                  1.9346763     110.8487850
  63 BEND      7  8  9                  1.9418737     111.2611660
  64 BEND      8  9 27                  1.8969032     108.6845487
  65 BEND      8  9 26                  1.9189210     109.9460719
  66 BEND      8  7 22                  1.9298324     110.5712503
  67 BEND      8  7 23                  1.8995834     108.8381088
  68 BEND      9  4 17                  1.8743269     107.3910200
  69 BEND      9  8 24                  1.8973900     108.7124390
  70 BEND      9  8 25                  1.9125802     109.5827725
  71 BEND     11  2 12                  1.8714152     107.2241939
  72 BEND     11  2 13                  1.8955882     108.6092012
  73 BEND     12  2 13                  1.8754128     107.4532398
  74 BEND     14  3 16                  1.8955874     108.6091552
  75 BEND     14  3 15                  1.8753688     107.4507162
  76 BEND     15  3 16                  1.8714306     107.2250773
  77 BEND     18  5 19                  1.8626899     106.7242677
  78 BEND     20  6 21                  1.8645996     106.8336879
  79 BEND     22  7 23                  1.8715607     107.2325265
  80 BEND     24  8 25                  1.8645970     106.8335406
  81 BEND     26  9 27                  1.8626583     106.7224584
  82 TORSION   1  4  9 26              -0.9798102     -56.1389875
  83 TORSION   1  4  5 18              -1.0578589     -60.6108499
  84 TORSION   1  4  5 19               0.9797323      56.1345283
  85 TORSION   1  4  9 27               1.0577583      60.6050873
  86 TORSION   1  4  5  6               3.1115527     178.2788377
  87 TORSION   1  4  9  8              -3.1115853    -178.2807032
  88 TORSION   2  1  4  5               0.9523124      54.5634801
  89 TORSION   2  1  3 15              -2.9375251    -168.3077932
  90 TORSION   2  1  3 14               1.2665829      72.5698528
  91 TORSION   2  1  4  9              -3.1411079    -179.9722263
  92 TORSION   2  1  4 17              -1.0943983     -62.7044046
  93 TORSION   2  1  3 16              -0.8555925     -49.0218388
  94 TORSION   3  1  2 11               0.8556800      49.0268553
  95 TORSION   3  1  4  9              -0.9526563     -54.5831838
  96 TORSION   3  1  2 12               2.9375745     168.3106187
  97 TORSION   3  1  2 13              -1.2664878     -72.5644067
  98 TORSION   3  1  4  5               3.1407640     179.9525226
  99 TORSION   3  1  4 17               1.0940533      62.6846379
 100 TORSION   4  1  2 11               3.0142954     172.7064030
 101 TORSION   4  1  2 13               0.8921275      51.1151410
 102 TORSION   4  1  2 12              -1.1869955     -68.0098336
 103 TORSION   4  1  3 15               1.1870434      68.0125795
 104 TORSION   4  1  3 14              -0.8920338     -51.1097745
 105 TORSION   4  5  6 20               1.1466840      65.7001512
 106 TORSION   4  5  6 21              -3.1045099    -177.8753155
 107 TORSION   4  5  6  7              -0.9587747     -54.9337462
 108 TORSION   4  9  8 24              -1.1466143     -65.6961595
 109 TORSION   4  9  8 25               3.1045732     177.8789393
 110 TORSION   4  9  8  7               0.9588515      54.9381416
 111 TORSION   4  1  3 16              -3.0142092    -172.7014661
 112 TORSION   5  4  1 10              -1.0950518     -62.7418476
 113 TORSION   5  4  9 27              -3.0297079    -173.5894742
 114 TORSION   5  4  9 26               1.2159089      69.6664510
 115 TORSION   5  6  7 22               3.1314643     179.4196890
 116 TORSION   5  6  7 23              -1.1002557     -63.0400088
 117 TORSION   5  6  7  8               0.9867559      56.5369502
 118 TORSION   5  4  9  8              -0.9158661     -52.4752647
 119 TORSION   6  7  8  9              -0.9867925     -56.5390443
 120 TORSION   6  7  8 24               1.1107961      63.6439293
 121 TORSION   6  7  8 25              -3.1197738    -178.7498730
 122 TORSION   6  5  4 17              -1.1301439     -64.7524761
 123 TORSION   6  5  4  9               0.9158267      52.4730067
 124 TORSION   7  6  5 18              -3.0852541    -176.7720382
 125 TORSION   7  6  5 19               1.1649811      66.7485019
 126 TORSION   7  8  9 26              -1.1648459     -66.7407524
 127 TORSION   7  8  9 27               3.0854142     176.7812105
 128 TORSION   8  7  6 20              -1.1108104     -63.6447454
 129 TORSION   8  7  6 21               3.1197632     178.7492659
 130 TORSION   8  9  4 17               1.1301085      64.7504450
 131 TORSION   9  4  5 18               3.0296004     173.5833192
 132 TORSION   9  4  1 10               1.0947132      62.7224460
 133 TORSION   9  4  5 19              -1.2159936     -69.6713027
 134 TORSION   9  8  7 22              -3.1314716    -179.4201069
 135 TORSION   9  8  7 23               1.1002423      63.0392406
 136 TORSION  10  1  3 16               1.2158636      69.6638501
 137 TORSION  10  1  2 11              -1.2157792     -69.6590182
 138 TORSION  10  1  2 13               2.9452382     168.7497198
 139 TORSION  10  1  2 12               0.8661152      49.6247452
 140 TORSION  10  1  3 15              -0.8660691     -49.6221043
 141 TORSION  10  1  3 14              -2.9451464    -168.7444583
 142 TORSION  10  1  4 17               3.1414228     179.9902677
 143 TORSION  17  4  9 27              -0.9837333     -56.3637645
 144 TORSION  17  4  9 26              -3.0213018    -173.1078393
 145 TORSION  17  4  5 18               0.9836298      56.3578363
 146 TORSION  17  4  5 19               3.0212210     173.1032145
 147 TORSION  18  5  6 21               1.0521960      60.2863925
 148 TORSION  18  5  6 20              -0.9797954     -56.1381408
 149 TORSION  19  5  6 21              -0.9807540     -56.1930675
 150 TORSION  19  5  6 20              -3.0127455    -172.6176008
 151 TORSION  20  6  7 23               3.0853633     176.7782956
 152 TORSION  20  6  7 22               1.0338980      59.2379934
 153 TORSION  21  6  7 23               1.0327516      59.1723069
 154 TORSION  21  6  7 22              -1.0187137     -58.3679953
 155 TORSION  22  7  8 24              -1.0338830     -59.2371333
 156 TORSION  22  7  8 25               1.0187324      58.3690644
 157 TORSION  23  7  8 24              -3.0853544    -176.7777858
 158 TORSION  23  7  8 25              -1.0327390     -59.1715881
 159 TORSION  24  8  9 26               3.0128737     172.6249466
 160 TORSION  24  8  9 27               0.9799484      56.1469095
 161 TORSION  25  8  9 26               0.9808758      56.2000454
 162 TORSION  25  8  9 27              -1.0520494     -60.2779917

          INTERNUCLEAR DISTANCES (ANGS.)


 =====================================================
   GAMESS/COSab RESULTS
 =====================================================

   Dielectric Constant                  = INFTY
   Basic Grid Size                      =                 1082
   Number of Segments                   =                   92
   Number of Segments located on spheres=                  277
   Number of Segments of the cavity     =                  786
   Solvent Radius (rsolv)               = 1.40
   Outlying Charge Error Method         = double cavity

 =====================================================

  Total solvated Energy (a.u.)          =  -351.3897406901
  Total Energy corrected (a.u.)         =  -351.3896338614

  Outlying charge effect (a.u.)         =     0.0001068287
  Outlying charge effect (kcal/mol)     =     0.0670360990

  Dielectric Energy (a.u.)              =    -0.0013026240
  Dielectric energy corr. (a.u.)        =    -0.0011957952

  Sum of polarization charges           =     0.0318171686
  Sum of polarization charges(cor.)     =    -0.0318171686

  Total surface area of cavity (A**2)   =  180.61
  Total volume of cavity (A**3)         =  190.98

 =====================================================
 NPS=                   786
NR.  ATOM  (X, Y, Z)(a.u.)                  CHARGE(e)  AREA(A**2) SIGMA(e/A**2)
   1   1   6.243239  -0.035188   3.026085   0.000088   0.046456   0.001900
   2   1   5.902018  -0.093705   3.385588   0.000282   0.185824   0.001518
   3   2   3.831880  -5.583147  -2.090909   0.001398   0.278737   0.005014
   4   2   5.845744  -2.751990   3.367611   0.000847   0.278737   0.003037
   5   2   6.361745  -5.620640   0.896915   0.001720   0.371649   0.004627
   6   2   6.984966  -4.213944  -2.626981   0.001596   0.371649   0.004295
   7   2   7.750859  -3.714087  -2.022769   0.001719   0.371649   0.004626
   8   2   7.113698  -4.964770   1.176340   0.001213   0.278737   0.004351
   9   2   6.539362  -3.173111   2.994198   0.001065   0.278737   0.003820
  10   2   7.780537  -1.252843  -2.062944   0.000752   0.185824   0.004047
  11   2   6.485008  -2.075822   3.094424   0.000571   0.185824   0.003074
  12   2   5.707470  -4.034936   3.045199   0.001396   0.325193   0.004294
  13   2   6.300455  -4.941607   2.092167   0.002003   0.371649   0.005390
  14   2   6.885113  -5.495839  -0.141751   0.001799   0.511017   0.003520
  15   2   7.058163  -4.991099  -1.655894   0.001458   0.464561   0.003139
  16   2   7.358301  -2.898307  -2.854591   0.001809   0.325193   0.005563
  17   2   7.291832  -1.489315  -2.801312   0.001061   0.232280   0.004566
  18   2   6.658291  -1.165936  -3.194127   0.000414   0.092912   0.004451
  19   2   4.871578  -3.425686   3.421269   0.001102   0.325193   0.003390
  20   2   5.643667  -6.067995  -0.443842   0.001241   0.371649   0.003338
  21   2   4.398852  -6.035201  -1.266731   0.001550   0.371649   0.004171
  22   2   4.918767  -5.579521  -2.273460   0.001642   0.418105   0.003927
  23   2   6.128566  -5.057272  -2.509261   0.001017   0.325193   0.003129
  24   2   7.552715  -4.814660  -0.822102   0.000835   0.278737   0.002996
  25   2   6.593681  -4.134969   2.562889   0.001377   0.278737   0.004939
  26   2   6.704096  -1.376151   2.810626   0.000121   0.092912   0.001298
  27   2   7.789270  -2.225666  -2.378315   0.001461   0.278737   0.005240
  28   2   5.954386  -5.776166  -1.404737   0.001436   0.511017   0.002810
  29   2   6.869220  -1.845948  -3.254933   0.000428   0.092912   0.004602
  30   3   6.591208   5.208725   1.483539   0.002344   0.418105   0.005606
  31   3   4.375089   5.998026  -1.381003   0.001433   0.325193   0.004407
[...]
 529   6  -5.986196  -4.969022  -1.627803   0.000242   0.155607   0.001555
 530   6  -4.637609  -5.745363  -1.664772   0.000223   0.155607   0.001434
 531   6  -3.410376  -6.088448  -0.770933  -0.000041   0.155607  -0.000265
 532  22  -7.404970  -1.215365  -2.387493  -0.000056   0.205039  -0.000274
 533  22  -7.868579  -1.969346  -1.209227  -0.000763   0.420329  -0.001816
 534   6  -6.907947  -2.348255  -2.264769   0.001128   0.560967   0.002011
 535   6  -7.354697  -3.101143  -0.835899   0.000873   0.288792   0.003024
 536  23  -5.149797  -2.190197   3.640665  -0.000141   0.185477  -0.000759
 537   6  -4.636068  -3.075545   3.170955   0.000569   0.261429   0.002178
 538   7  -6.786055   1.080224  -2.732098   0.000042   0.026374   0.001596
 539   8  -6.523180   1.486361  -2.849742   0.000077   0.026374   0.002916
 540  22  -7.053411   1.003221  -2.613156   0.000024   0.026374   0.000900
 541   7  -7.679040   2.559104  -0.161341   0.000060   0.026374   0.002264
 542   8  -7.404353   2.945679  -0.312991   0.000118   0.026374   0.004456
 543  22  -7.866225   2.349329  -0.273198   0.000021   0.026374   0.000799
 544   7  -5.514120   2.540927   3.145539   0.000043   0.028860   0.001486
 545   8  -5.262566   2.928369   2.959613   0.000071   0.028860   0.002463
 546  23  -5.467416   2.333502   3.363912   0.000014   0.028860   0.000485
 547   7  -6.222955   1.170629  -3.083605   0.000070   0.028104   0.002473
 548   8  -6.010271   1.580335  -3.270265   0.000044   0.028104   0.001553
 549  24  -5.805796   1.648676  -3.485701   0.000016   0.028104   0.000581
 550   7  -7.338335   3.058426   0.220589   0.000119   0.026081   0.004562
 551   8  -7.138235   3.488390   0.069023   0.000068   0.026081   0.002595
 552  25  -7.047861   3.756261   0.178260   0.000027   0.026081   0.001041
 553   7  -5.660318   3.020849   2.735695   0.000075   0.026081   0.002888
 554   8  -5.437611   3.450307   2.618014   0.000052   0.026081   0.001990
 555  25  -5.500055   3.721600   2.498199   0.000035   0.026081   0.001323
 556   8  -7.266384   3.320290  -0.190474   0.000218   0.061947   0.003520
 557   7  -7.596421   2.752874   0.099480   0.000203   0.061947   0.003276
 558   8  -5.341704   3.308062   2.777070   0.000138   0.046166   0.002984
 559   7  -5.638269   2.705363   3.024659   0.000133   0.046166   0.002880
 560   8  -6.223479   1.610538  -3.146170   0.000148   0.051356   0.002883
 561   7  -6.605326   1.058399  -2.896045   0.000132   0.051356   0.002573
 562   7  -5.500521   0.000077  -3.418090   0.000239   0.166479   0.001438
 563  20  -5.089839  -0.547389  -3.737720   0.000042   0.166479   0.000252
 564  24  -5.089849   0.547583  -3.737681   0.000111   0.166479   0.000668
 565  20  -5.518822  -1.448845  -3.757532  -0.000136   0.186018  -0.000732
 566   7  -6.032254  -0.557125  -3.288620   0.000607   0.262130   0.002317
 567  21  -5.852025  -3.922434   2.271873  -0.000037   0.203063  -0.000183
 568  21  -6.722609  -3.949320   1.102832  -0.000685   0.415933  -0.001648
 569   7  -6.587333  -2.927448   2.153873   0.001240   0.555881   0.002230
 570   7  -7.449475  -2.939908   0.737952   0.000814   0.285986   0.002847
 571  22  -7.315720   0.492269  -2.637650  -0.000063   0.078796  -0.000799
 572  22  -7.315659  -0.492238  -2.637725  -0.000047   0.078796  -0.000600
 573   7  -6.924341   0.000048  -2.744668  -0.000202   0.167680  -0.001202
 574  22  -8.229749  -2.033110  -0.005900  -0.000042   0.072129  -0.000586
 575  22  -8.529521  -1.318261   0.857071  -0.000194   0.161717  -0.001203
 576  22  -8.683803  -0.000165   1.301114  -0.000082   0.161717  -0.000508
 577  22  -8.529599   1.317926   0.857027  -0.000170   0.161717  -0.001051
 578  22  -8.229870   2.032764  -0.005968  -0.000047   0.072129  -0.000653
 579   7  -8.080847  -2.002777   0.585119  -0.000052   0.156644  -0.000329
 580   7  -8.407178  -0.785915   1.524504   0.000240   0.156644   0.001533
 581   7  -8.407225   0.785609   1.524477   0.000190   0.156644   0.001214
 582   7  -8.080966   2.002459   0.585053  -0.000017   0.156644  -0.000111
 583  23  -5.839038   2.008998   3.600312  -0.000031   0.070395  -0.000447
 584  23  -6.704192   1.287568   3.571271  -0.000093   0.156515  -0.000595
 585  23  -7.146366  -0.000276   3.556421  -0.000011   0.156515  -0.000067
 586  23  -6.703967  -1.288043   3.571259  -0.000145   0.156515  -0.000925
 587  23  -5.838686  -2.009322   3.600294  -0.000045   0.070395  -0.000635
 588   7  -6.325994   1.971111   3.245910  -0.000016   0.154139  -0.000102
 589   7  -7.265586   0.764518   3.214367   0.000294   0.154139   0.001906
 590   7  -7.265453  -0.765088   3.214360   0.000314   0.154139   0.002038
 591   7  -6.325649  -1.971517   3.245892   0.000020   0.154139   0.000130
 592  24  -5.402614   1.312755  -3.816791  -0.000110   0.186005  -0.000589
 593   7  -6.138106   0.681325  -3.234538   0.000614   0.262113   0.002343
 594  25  -6.971656   3.947206   0.594324  -0.000042   0.203054  -0.000206
 595  25  -6.226401   3.937957   1.847154  -0.000689   0.415912  -0.001657
 596   7  -7.158764   2.939908   1.297842   0.001184   0.555856   0.002130
 597   7  -6.182562   2.911270   2.637319   0.000867   0.285973   0.003031
 598   8  -2.714756   6.037439  -0.040970   0.000039   0.027696   0.001399
 599   9  -2.244566   5.998205   0.115810   0.000068   0.027696   0.002442
 600  25  -2.986913   6.097374   0.078335   0.000019   0.027696   0.000690
 601   8  -3.599240   4.480801   2.656021   0.000066   0.027696   0.002375
 602   9  -3.117565   4.461778   2.777783   0.000114   0.027696   0.004133
 603  25  -3.792194   4.680127   2.533822   0.000028   0.027696   0.000996
 604   8  -3.203369   4.248633   2.895191   0.000099   0.027550   0.003587
 605   9  -2.744384   4.275870   3.084345   0.000059   0.027550   0.002152
 606  26  -2.582003   4.146852   3.308070   0.000029   0.027550   0.001039
 607   8  -2.152246   5.990361  -0.324376   0.000068   0.028515   0.002389
 608   9  -1.682028   6.035010  -0.169038   0.000038   0.028515   0.001347
 609  27  -1.414987   6.089163  -0.298329   0.000016   0.028515   0.000576
 610   9  -1.850933   6.063688  -0.015655   0.000113   0.042490   0.002659
 611   8  -2.543475   6.060186  -0.191484   0.000113   0.042490   0.002666
 612   9  -2.839433   4.397974   2.997066   0.000053   0.010449   0.005120
 613   8  -3.517970   4.383063   2.779236   0.000052   0.010449   0.005020
 614  22  -7.992957   2.188931  -0.694914  -0.000065   0.205016  -0.000317
 615  22  -7.608100   1.537542  -1.959349  -0.000771   0.420278  -0.001835
 616   8  -7.207933   2.844798  -1.401372   0.001103   0.560907   0.001967
 617   8  -6.689417   1.998854  -2.751538   0.000825   0.288759   0.002856
 618   8  -3.884416   2.910551   3.308805   0.000255   0.165891   0.001539
 619  23  -4.151081   2.283975   3.627716   0.000093   0.165891   0.000560
 620  26  -3.201226   2.857904   3.630574   0.000081   0.165891   0.000487
 621  23  -4.974125   2.159240   3.702643  -0.000168   0.185525  -0.000907
 622   8  -4.796621   3.103279   3.114742   0.000640   0.261497   0.002447
 623   8  -1.611743   4.295663  -3.119424   0.000100   0.031257   0.003193
 624  24  -1.766220   4.139107  -3.329786  -0.000018   0.031257  -0.000587
 625  27  -0.961941   4.470836  -2.804889   0.000081   0.031257   0.002588
 626  24  -5.712774   2.130566  -3.720770  -0.000039   0.069846  -0.000553
 627  24  -5.544502   3.235674  -3.681728  -0.000141   0.155032  -0.000908
 628  24  -4.682005   4.276557  -3.649732  -0.000012   0.155032  -0.000076
 629  24  -3.363164   4.574916  -3.647832  -0.000180   0.155032  -0.001162
 630  24  -2.300859   4.225326  -3.667752  -0.000074   0.069846  -0.001060
 631   8  -5.936307   2.561060  -3.365450  -0.000008   0.153186  -0.000051
 632   8  -5.396393   3.980027  -3.317517   0.000265   0.153186   0.001727
 633   8  -4.102037   4.774702  -3.297404   0.000216   0.153186   0.001413
 634   8  -2.591619   4.614545  -3.313477  -0.000027   0.153186  -0.000175
 635  25  -3.446827   6.245450  -0.184732  -0.000052   0.071454  -0.000732
 636  25  -4.230154   6.128639  -1.015991  -0.000164   0.159744  -0.001024
 637  25  -5.445907   5.600252  -1.420443  -0.000094   0.159744  -0.000587
 638  25  -6.495378   4.824492  -0.953928  -0.000141   0.159744  -0.000882
 639  25  -6.954803   4.225820  -0.088621  -0.000038   0.071454  -0.000529
 640   8  -3.410613   6.088472  -0.770522  -0.000102   0.155610  -0.000654
 641   8  -4.637856   5.745386  -1.664383   0.000214   0.155610   0.001376
 642   8  -5.986429   4.968978  -1.627435   0.000227   0.155610   0.001458
 643   8  -6.861371   4.101783  -0.675978  -0.000032   0.155610  -0.000206
 644  25  -5.193899   4.196444   2.525057  -0.000045   0.076453  -0.000585
 645  25  -4.359603   4.659988   2.545020  -0.000050   0.076453  -0.000658
 646   8  -4.588145   4.083942   2.646887  -0.000139   0.164013  -0.000847
 647  26  -2.622560   3.764206   3.610749  -0.000147   0.215233  -0.000685
 648   8  -3.657855   3.703110   3.143902   0.000695   0.303157   0.002292
 649  27  -0.655817   5.029905  -2.492644  -0.000213   0.211763  -0.001004
 650  27  -1.089426   5.872709  -1.282078  -0.001204   0.435826  -0.002764
 651   8  -1.876961   5.188789  -2.347555   0.000992   0.577982   0.001717
 652   8  -2.314051   6.015767  -0.870952   0.000757   0.298458   0.002536
 653   9   0.819129   2.938451  -3.154183   0.000416   0.231192   0.001800
 654  14   1.951186   2.914081  -3.429818   0.000253   0.231192   0.001096
 655  17   1.083870   2.346574  -3.535610   0.000043   0.231192   0.000186
 656   9   0.779515   3.739670  -2.857734  -0.000056   0.100424  -0.000557
 657  14   1.913493   3.669449  -3.084935   0.000235   0.100424   0.002337
 658  27   0.905119   4.005245  -2.774064  -0.000187   0.100424  -0.001864
 659  14   2.349101   3.446249  -3.614801   0.000004   0.097362   0.000040
 660   9   0.700767   3.550979  -3.171953   0.000419   0.141182   0.002971
 661   9   1.039207   4.621693   2.894767   0.000274   0.067064   0.004092
 662  15   1.958441   4.731129   2.674771   0.000050   0.067064   0.000740
 663  26   0.923047   4.453666   3.122825   0.000073   0.067064   0.001086
 664   9   0.908236   5.674174   1.486266   0.000103   0.074859   0.001371
 665  15   1.858414   5.727080   1.429094  -0.000207   0.074859  -0.002771
 666  27   1.017159   5.794206   1.229193  -0.000142   0.074859  -0.001890
 667  15   2.367218   5.554677   2.031613  -0.001651   0.366052  -0.004509
 668   9   1.028319   5.208550   2.396940   0.001851   0.516883   0.003582
 669   9  -0.477942   2.847184  -3.389752   0.000225   0.163169   0.001380
 670  17  -0.191297   2.223843  -3.686332   0.000129   0.163169   0.000791
 671  24  -1.151745   2.771324  -3.711141   0.000022   0.163169   0.000133
 672  17   0.454363   2.092035  -3.823110  -0.000092   0.080444  -0.001142
 673   9   0.116608   3.021677  -3.319408   0.000268   0.113524   0.002361
 674   9  -0.820352   4.176958  -2.933812   0.000070   0.030538   0.002288
 675  24  -1.467436   4.005428  -3.260729   0.000068   0.030538   0.002225
 676  27  -0.639341   4.382307  -2.808382  -0.000031   0.030538  -0.001010
 677  24  -1.719975   3.603520  -3.746762  -0.000226   0.188403  -0.001201
 678   9  -0.701316   3.589528  -3.270298   0.000566   0.265571   0.002130
 679  25  -3.772000   5.108646   2.299128  -0.000093   0.213918  -0.000434
 680  25  -3.324763   5.914569   1.064528  -0.001052   0.440138  -0.002391
 681   9  -2.541450   5.261810   2.162302   0.001193   0.583837   0.002043
 682   9  -2.087841   6.042999   0.661534   0.000800   0.301369   0.002654
 683  26   0.232285   4.581266   3.445347   0.000019   0.075753   0.000248
 684  26  -0.963637   4.728652   3.467028  -0.000226   0.171199  -0.001318
 685  26  -2.099292   4.330793   3.533487  -0.000050   0.075753  -0.000657
 686   9  -0.175984   4.894615   3.090551   0.000177   0.163372   0.001081
 687   9  -1.794421   4.720753   3.151733  -0.000020   0.163372  -0.000120
 688  27  -0.932354   6.245528  -0.028191  -0.000055   0.077662  -0.000711
 689  27  -0.026129   6.123622   0.818201  -0.000260   0.177668  -0.001463
 690   9  -0.904285   6.100674   0.587608  -0.000127   0.165534  -0.000768
 691   9   0.158205   5.891017   1.434363   0.000188   0.094882   0.001980
 692  27   0.179779   4.362390  -2.771561  -0.000185   0.077556  -0.002382
 693   9  -0.186917   4.104557  -2.886808  -0.000027   0.094752  -0.000289
 694  10   2.677786  -2.461397   3.632986   0.000350   0.311919   0.001122
 695  12   2.817626  -3.361271   3.177164   0.000254   0.311919   0.000816
 696  19   1.761238  -3.022125   3.559072   0.000465   0.311919   0.001491
 697  12   3.360856  -3.643366   3.326491   0.000053   0.014539   0.003632
 698  10   3.153739  -2.361723   3.940947   0.000064   0.014539   0.004433
 699  10   2.677862   2.462015   3.632607   0.000296   0.311950   0.000948
 700  15   2.817791   3.361768   3.176554   0.000239   0.311950   0.000766
 701  26   1.761247   3.022499   3.558724   0.000490   0.311950   0.001572
 702  15   3.352513   3.644545   3.324113   0.000049   0.014589   0.003347
 703  10   3.162585   2.361985   3.942221   0.000056   0.014589   0.003867
 704  10   1.037521  -0.000122   4.251342   0.000114   0.324379   0.000351
 705  19   0.131275  -0.580316   4.187044   0.000206   0.324379   0.000635
 706  26   0.131224   0.579866   4.187135   0.000190   0.324379   0.000585
 707  19   1.222385  -2.795127   4.236898   0.000160   0.283468   0.000566
 708  19   0.552214  -1.767909   4.562812  -0.000344   0.567082  -0.000607
 709  10   2.252200  -1.593077   4.464312   0.000005   0.567082   0.000008
 710  10   1.572554  -0.541321   4.670263   0.000110   0.283468   0.000386
 711  26   0.289094   1.357424   4.604806   0.000014   0.283572   0.000050
 712  26   0.968788   2.409706   4.398700  -0.000199   0.567293  -0.000351
 713  10   1.835624   0.951584   4.628518  -0.000224   0.567293  -0.000395
 714  10   2.505828   1.979302   4.302354   0.000287   0.283572   0.001010
 715  16   7.844026   0.751492   2.033533   0.000083   0.270451   0.000305
 716  16   8.571834   0.751323   1.043418  -0.000671   0.540996  -0.001240
 717  16   8.612391   0.751122  -0.446664  -0.000184   0.540996  -0.000340
 718  11   8.151400  -0.751432   1.674987  -0.000453   0.540996  -0.000838
 719  11   8.732797  -0.751645   0.302409  -0.000618   0.540996  -0.001143
 720  11   8.481441  -0.751793  -0.900442   0.000300   0.270451   0.001107
 721  18   1.597903  -6.159877  -0.662419  -0.000615   0.216791  -0.002835
 722  18   1.276734  -6.154148   0.471227  -0.001165   0.434017  -0.002685
 723  12   2.665448  -6.189016   0.108255  -0.001274   0.434017  -0.002935
 724  12   2.345601  -6.082881   1.237311  -0.000635   0.216791  -0.002928
 725  19   1.024935  -4.324713   3.511502   0.000631   0.239291   0.002638
 726  19   1.335559  -3.673106   3.788832   0.000391   0.239291   0.001634
 727  12   2.672299  -4.464546   3.073039  -0.000144   0.478234  -0.000301
 728  13   3.743805  -0.617008  -3.929477   0.000140   0.322499   0.000433
 729  14   3.743817   0.616422  -3.929608   0.000095   0.322499   0.000294
 730  17   2.900251  -0.000199  -4.013952  -0.000091   0.322499  -0.000281
 731  14   5.465893   0.877862  -4.006224   0.000534   0.321862   0.001658
 732  14   4.509461   0.877849  -4.253571   0.000217   0.321862   0.000675
 733  13   4.978292  -0.878595  -4.093518   0.000317   0.643261   0.000492
 734  17   2.384760  -0.552326  -4.433984   0.000089   0.284120   0.000314
 735  17   1.627009  -1.593651  -4.257408  -0.000095   0.568584  -0.000167
 736  13   3.291809  -1.821112  -4.342977  -0.000864   0.568584  -0.001520
 737  13   2.543602  -2.840053  -4.040210  -0.000117   0.284120  -0.000412
 738  18   1.051370  -4.425292  -2.843046   0.000235   0.236503   0.000992
 739  18   1.391811  -5.051865  -2.493375   0.000036   0.236503   0.000153
 740  13   2.628421  -4.301973  -3.255553   0.000453   0.472765   0.000958
 741  17   1.343117   1.977596  -4.102448   0.000302   0.284210   0.001063
 742  17   2.091411   0.958159  -4.405377  -0.000295   0.568765  -0.000519
 743  14   2.827219   2.456513  -4.195348  -0.000764   0.568765  -0.001343
 744  14   3.585072   1.414679  -4.371989  -0.000174   0.284210  -0.000612
 745  27   1.391310   5.051533  -2.493255  -0.000056   0.236228  -0.000239
 746  27   1.051169   4.425785  -2.842412   0.000212   0.236228   0.000899
 747  14   2.628158   4.301870  -3.255622   0.000465   0.472215   0.000985
 748  26   1.335680   3.673105   3.788605   0.000436   0.238947   0.001826
 749  26   1.025496   4.323738   3.511879   0.000621   0.238947   0.002601
 750  15   2.672892   4.464275   3.072816  -0.000168   0.477544  -0.000351
 751  27   1.155502   6.082488   0.901035  -0.000101   0.216966  -0.000467
 752  27   1.475124   6.188776  -0.228942  -0.001466   0.434370  -0.003375
 753  15   2.467433   6.154335   0.808597  -0.001536   0.434370  -0.003536
 754  15   2.788376   6.160066  -0.325980  -0.000151   0.216966  -0.000695
 755  17  -1.449212   0.000189  -4.161542   0.000282   0.329774   0.000855
 756  20  -2.417830  -0.552020  -4.189339   0.000184   0.329774   0.000558
 757  24  -2.417840   0.552328  -4.189307   0.000184   0.329774   0.000559
 758  20  -2.247378  -1.287715  -4.582816   0.000120   0.260469   0.000459
 759  20  -1.692806  -2.269095  -4.383911  -0.000017   0.520762  -0.000033
 760  17  -0.662603  -0.885735  -4.501094   0.000087   0.520762   0.000167
 761  17  -0.120582  -1.849564  -4.205346   0.000298   0.260469   0.001142
 762  24  -1.490241   2.631339  -4.241014   0.000212   0.260494   0.000814
 763  24  -2.032254   1.667407  -4.536901  -0.000072   0.520810  -0.000139
 764  17  -0.323181   1.488424  -4.347836   0.000196   0.520810   0.000377
 765  17  -0.877749   0.506927  -4.546860   0.000230   0.260494   0.000885
 766  20  -1.725686  -4.094923  -3.584912   0.000163   0.047145   0.003467
 767  18  -0.574263  -4.624111  -2.877063   0.000170   0.047145   0.003597
 768  19  -1.842671  -0.581080   4.098396   0.000317   0.344888   0.000918
 769  23  -2.800532  -0.000282   4.104278   0.000139   0.344888   0.000402
 770  26  -1.842724   0.580466   4.098487   0.000337   0.344888   0.000978
 771  23  -4.201190  -1.910423   4.166721   0.000204   0.274577   0.000742
 772  23  -3.602819  -0.919272   4.472790  -0.000196   0.549024  -0.000357
 773  19  -2.622053  -2.357373   4.321422   0.000078   0.549024   0.000141
 774  19  -2.011448  -1.346625   4.520564   0.000151   0.274577   0.000550
 775  26  -0.966206   0.822100   4.490545   0.000138   0.408071   0.000337
 776  19  -0.750153  -0.822748   4.499948   0.000101   0.408071   0.000247
 777  24  -3.145403   0.780596  -4.608969   0.000126   0.274479   0.000461
 778  24  -4.340636   0.780579  -4.421613  -0.000054   0.548893  -0.000098
 779  20  -3.608707  -0.780306  -4.571221  -0.000184   0.548893  -0.000336
 780  20  -4.781631  -0.780328  -4.274685   0.000226   0.274479   0.000823
 781  26  -2.846897   2.729257   4.171821   0.000294   0.274605   0.001072
 782  26  -2.248456   1.737923   4.477840  -0.000002   0.549081  -0.000003
 783  23  -3.976679   1.537754   4.316779  -0.000048   0.549081  -0.000087
 784  23  -3.366001   0.526829   4.515837   0.000114   0.274605   0.000416
 785  27  -0.559455   4.602522  -2.885180   0.000171   0.046734   0.003652
 786  24  -1.740801   4.117688  -3.575408   0.000185   0.046734   0.003952
 =====================================================


   1 warning(s) detected.
     A line exceeding 80 characters begins with "http://cactus.nci.ni".
 There may be a problem in your input file.

              6994392  WORDS OF DYNAMIC MEMORY USED
 EXECUTION OF GAMESS TERMINATED NORMALLY Thu Nov 24 13:11:41 2016
 DDI: 263640 bytes (0.3 MB / 0 MWords) used by master data server.

 ----------------------------------------
 CPU timing information for all processes
 ========================================
 0: 5080.184 + 1.448 = 5081.632
 ----------------------------------------
 ddikick.x: exited gracefully.
