----- GAMESS execution script -----

          ******************************************************
          *         GAMESS VERSION =  5 DEC 2014 (R1)          *
          *             FROM IOWA STATE UNIVERSITY             *
          * M.W.SCHMIDT, K.K.BALDRIDGE, J.A.BOATZ, S.T.ELBERT, *
          *   M.S.GORDON, J.H.JENSEN, S.KOSEKI, N.MATSUNAGA,   *
          *          K.A.NGUYEN, S.J.SU, T.L.WINDUS,           *
          *       TOGETHER WITH M.DUPUIS, J.A.MONTGOMERY       *
          *         J.COMPUT.CHEM.  14, 1347-1363(1993)        *
          **************** 64 BIT LINUX VERSION ****************

 EXECUTION OF GAMESS BEGUN Thu Nov 24 11:42:25 2016

            ECHO OF THE FIRST FEW INPUT CARDS -
 INPUT CARD>! SELECT RESTRICTED HARTREE-FOCK AS DEFAULT                                     
 INPUT CARD>$contrl scftyp=rhf $end                                                         
 INPUT CARD>                                                                                
 INPUT CARD>! THEORY: HF OR DFT                                                             
 INPUT CARD> $contrl mplevl=0 $end                                                          
 INPUT CARD>                                                                                
 INPUT CARD> $system timlim=10000 mwords=20 $end                                            
 INPUT CARD> $SCF DIRSCF=.TRUE. $end                                                        
 INPUT CARD>                                                                                
 INPUT CARD>                                                                                
 INPUT CARD>! BASIS SETS                                                                    
 INPUT CARD>! 6-311G(d,p)                                                                   
 INPUT CARD> $BASIS GBASIS=N311 NGAUSS=6 NDFUNC=1 NPFUNC=1 $END                             
 INPUT CARD>                                                                                
 INPUT CARD>! One of the following                                                          
 INPUT CARD> $guess guess=HUCKEL $end                                                       
 INPUT CARD>                                                                                
 INPUT CARD> $statpt projct=.FALSE. $end                                                    
 INPUT CARD> $STATPT IFREEZ(1)=1,2,3 $END                                                   
 INPUT CARD>                                                                                
 INPUT CARD>! Optimize the geometry with COSMO effects                                      
 INPUT CARD> $statpt opttol=0.0005 nstep=50 $end                                            
 INPUT CARD> $contrl nzvar=1 $end                                                           
 INPUT CARD> $zmat dlc=.t. auto=.t. $end                                                    
 INPUT CARD> $contrl runtyp=OPTIMIZE maxit=200 $end                                         
 INPUT CARD>                                                                                
 INPUT CARD>! Run COSMO on perfect conductor                                                
 INPUT CARD> $COSGMS PRFCND=.TRUE. $end                                                     
 INPUT CARD>                                                                                
 INPUT CARD>! Specifying RSOLV                                                              
 INPUT CARD> $COSGMS COSRAD = 1.4 $end                                                      
 INPUT CARD>                                                                                
 INPUT CARD>! available memory                                                              
 INPUT CARD> $SYSTEM MWORDS=40 $END                                                         
 INPUT CARD>                                                                                
 INPUT CARD> $DATA                                                                          
 INPUT CARD>Isopropyl alcohol, ID: C67630                                                   
 INPUT CARD>C1                                                                              
 INPUT CARD>C      6.0      0.6260000000    1.1983000000    1.9895000000                    
 INPUT CARD>C      6.0      2.0749000000    1.6664000000    2.1149000000                    
 INPUT CARD>C      6.0      2.9289000000    1.0968000000    0.9873000000                    
 INPUT CARD>O      8.0      2.1848000000    3.0771000000    2.0364000000                    
 INPUT CARD>H      1.0      0.1728000000    1.5238000000    1.0437000000                    
 INPUT CARD>H      1.0      0.5683000000    0.1031000000    2.0231000000                    
 INPUT CARD>H      1.0      0.0000000000    1.5856000000    2.8045000000                    
 INPUT CARD>H      1.0      2.4883000000    1.3367000000    3.1002000000                    
 INPUT CARD>H      1.0      2.9269000000    0.0000000000    1.0198000000                    
 INPUT CARD>H      1.0      2.5569000000    1.4015000000    0.0000000000                    
 INPUT CARD>H      1.0      3.9716000000    1.4313000000    1.0619000000                    
 INPUT CARD>H      1.0      1.5951000000    3.4319000000    2.6879000000                    
   40000000 WORDS OF MEMORY AVAILABLE

     BASIS OPTIONS
     -------------
     GBASIS=N311         IGAUSS=       6      POLAR=POPN311 
     NDFUNC=       1     NFFUNC=       0     DIFFSP=       F
     NPFUNC=       1      DIFFS=       F     BASNAM=        


     RUN TITLE
     ---------
 Isopropyl alcohol, ID: C67630                                                   

 THE POINT GROUP OF THE MOLECULE IS C1      
 THE ORDER OF THE PRINCIPAL AXIS IS     0

 ATOM      ATOMIC                      COORDINATES (BOHR)
           CHARGE         X                   Y                   Z
 C           6.0     1.1829684683        2.2644586511        3.7596098526
 C           6.0     3.9209924519        3.1490393859        3.9965814914
 C           6.0     5.5348184454        2.0726514633        1.8657264677
 O           8.0     4.1286733380        5.8148758368        3.8482380014
 H           1.0     0.3265446507        2.8795644601        1.9723070134
 H           1.0     1.0739312788        0.1948307493        3.8231046458
 H           1.0     0.0000000000        2.9963495261        5.2997365326
 H           1.0     4.7022051752        2.5259967278        5.8585285071
 H           1.0     5.5310389935        0.0000000000        1.9271425623
 H           1.0     4.8318403780        2.6484509718        0.0000000000
 H           1.0     7.5052357328        2.7047648062        2.0067000264
 H           1.0     3.0143019230        6.4853506173        5.0793944824

          INTERNUCLEAR DISTANCES (ANGS.)




     $CONTRL OPTIONS
     ---------------
 SCFTYP=RHF          RUNTYP=OPTIMIZE     EXETYP=RUN     
 MPLEVL=       0     CITYP =NONE         CCTYP =NONE         VBTYP =NONE    
 DFTTYP=NONE         TDDFT =NONE    
 MULT  =       1     ICHARG=       0     NZVAR =       1     COORD =UNIQUE  
 PP    =NONE         RELWFN=NONE         LOCAL =NONE         NUMGRD=       F
 ISPHER=      -1     NOSYM =       0     MAXIT =     200     UNITS =ANGS    
 PLTORB=       F     MOLPLT=       F     AIMPAC=       F     FRIEND=        
 NPRINT=       7     IREST =       0     GEOM  =INPUT   
 NORMF =       0     NORMP =       0     ITOL  =      20     ICUT  =       9
 INTTYP=BEST         GRDTYP=BEST         QMTTOL= 1.0E-06

     $SYSTEM OPTIONS
     ---------------
  REPLICATED MEMORY=    40000000 WORDS (ON EVERY NODE).
 DISTRIBUTED MEMDDI=           0 MILLION WORDS IN AGGREGATE,
 MEMDDI DISTRIBUTED OVER   1 PROCESSORS IS           0 WORDS/PROCESSOR.
 TOTAL MEMORY REQUESTED ON EACH PROCESSOR=    40000000 WORDS.
 TIMLIM=       10000.00 MINUTES, OR       6.9 DAYS.
 PARALL= F  BALTYP=  DLB     KDIAG=    0  COREFL= F
 MXSEQ2=     300 MXSEQ3=     150  mem10=         0

     $COSGMS OPTIONS
     ---------------
     EPSI  =   INFTY     NSPA  =      92     COSRAD=    1.40
     DISEX =   10.00     OUTCHG=DBLCAV       COSBUG=       F
     COSWRT=       F     DCOSMO=       F

     SYMMETRY COORDINATES WILL NOT BE USED FOR 
     THE COSMO CALCULATION, EVEN IF SPECIFIED:
         -- SWITCHING TO C1 POINT GROUP --


     DEFINITION OF CAVITY
     ---------------------------
     ATOM         COORDINATES           RADIUS 
     1    1.1830    2.2645    3.7596    2.0000
     2    3.9210    3.1490    3.9966    2.0000
     3    5.5348    2.0727    1.8657    2.0000
     4    4.1287    5.8149    3.8482    1.7200
     5    0.3265    2.8796    1.9723    1.3000
     6    1.0739    0.1948    3.8231    1.3000
     7    0.0000    2.9963    5.2997    1.3000
     8    4.7022    2.5260    5.8585    1.3000
     9    5.5310    0.0000    1.9271    1.3000
    10    4.8318    2.6485    0.0000    1.3000
    11    7.5052    2.7048    2.0067    1.3000
    12    3.0143    6.4854    5.0794    1.3000

          ----------------
          PROPERTIES INPUT
          ----------------

     MOMENTS            FIELD           POTENTIAL          DENSITY
 IEMOM =       1   IEFLD =       0   IEPOT =       0   IEDEN =       0
 WHERE =COMASS     WHERE =NUCLEI     WHERE =NUCLEI     WHERE =NUCLEI  
 OUTPUT=BOTH       OUTPUT=BOTH       OUTPUT=BOTH       OUTPUT=BOTH    
 IEMINT=       0   IEFINT=       0                     IEDINT=       0
                                                       MORB  =       0
          EXTRAPOLATION IN EFFECT
          SOSCF IN EFFECT
 ORBITAL PRINTING OPTION: NPREO=     1   124     2     1

     -------------------------------
     INTEGRAL TRANSFORMATION OPTIONS
     -------------------------------
     NWORD  =            0
     CUTOFF = 1.0E-09     MPTRAN =       0
     DIRTRF =       T     AOINTS =DUP     

          ----------------------
          INTEGRAL INPUT OPTIONS
          ----------------------
 NOPK  =       1 NORDER=       0 SCHWRZ=       T


 -----------------------------------------------
  STATISTICS ON AUTOMATIC COORDINATE GENERATION 
 -----------------------------------------------
  NUMBER OF USER SPECIFIED BONDS                             0
  NUMBER OF BONDS                                           11
  NUMBER OF ANGLES                                          19
  NUMBER OF TORSIONS                                        21
  NUMBER OF EXTRA COORD.                                     0
  NUMBER OF EXTRA COORD. FOR CONSTRAINTS                     0
  NUMBER OF CONSTRAINED COORD.                               0

  TOTAL NUMBER OF PRIMITIVES                                51
 -----------------------------------------------

   --- ENCODED Z MATRIX ---
 COORD  TYPE   I   J   K   L   M   N
    1      1    1   5
    2      1    1   7
    3      1    1   6
    4      1    1   2
    5      1    2   4
    6      1    2   8
    7      1    2   3
    8      1    3  11
    9      1    3  10
   10      1    3   9
   11      1    4  12
   12      2    1   2   3
   13      2    1   2   8
   14      2    1   2   4
   15      2    2   4  12
   16      2    2   1   5
   17      2    2   3  11
   18      2    2   1   7
   19      2    2   3   9
   20      2    2   1   6
   21      2    2   3  10
   22      2    3   2   8
   23      2    3   2   4
   24      2    4   2   8
   25      2    5   1   7
   26      2    5   1   6
   27      2    6   1   7
   28      2    9   3  10
   29      2    9   3  11
   30      2   10   3  11
   31      3    1   2   4  12
   32      3    1   2   3   9
   33      3    1   2   3  10
   34      3    1   2   3  11
   35      3    3   2   1   6
   36      3    3   2   1   5
   37      3    3   2   4  12
   38      3    3   2   1   7
   39      3    4   2   3   9
   40      3    4   2   1   6
   41      3    4   2   1   7
   42      3    4   2   3  11
   43      3    4   2   1   5
   44      3    4   2   3  10
   45      3    5   1   2   8
   46      3    6   1   2   8
   47      3    7   1   2   8
   48      3    8   2   4  12
   49      3    8   2   3   9
   50      3    8   2   3  11
   51      3    8   2   3  10

          INDEP./SYM. INTERNAL COORDINATES
          --------------------------------
 CRD  1=   0.1651 (  4)  0.1765 (  7)  0.6422 ( 12) -0.1730 ( 13) -0.2376 ( 14)
           0.1193 ( 16) -0.1461 ( 17) -0.1614 ( 18)  0.1493 ( 19)  0.1593 ( 20)
           0.1227 ( 21) -0.1801 ( 22) -0.2301 ( 23)  0.1684 ( 24) -0.2759 ( 31)
           0.2229 ( 37)
 CRD  2=  -0.2709 (  4) -0.1643 (  5)  0.1381 (  7)  0.1158 ( 11)  0.1643 ( 13)
          -0.4300 ( 14) -0.3608 ( 15) -0.1335 ( 16)  0.1175 ( 17) -0.1248 ( 18)
          -0.1015 ( 19) -0.1201 ( 22)  0.4298 ( 23) -0.1421 ( 32) -0.1786 ( 33)
          -0.1163 ( 34) -0.1104 ( 35) -0.1397 ( 36)  0.1258 ( 39)  0.1311 ( 40)
           0.1713 ( 41)  0.1516 ( 42)  0.1018 ( 43)
 CRD  3=  -0.3729 (  4) -0.2550 (  5) -0.5072 (  7) -0.1587 ( 11) -0.1838 ( 15)
          -0.1613 ( 16) -0.2105 ( 17) -0.1888 ( 18)  0.1045 ( 19) -0.2957 ( 21)
          -0.1854 ( 23)  0.1002 ( 24)  0.1577 ( 25)  0.1110 ( 28)  0.1027 ( 29)
           0.2143 ( 30)  0.1200 ( 35)  0.1021 ( 36)  0.1445 ( 38)
 CRD  4=  -0.1489 (  4) -0.1068 (  6) -0.2687 (  7)  0.3744 ( 16) -0.2301 ( 17)
          -0.1900 ( 18) -0.3659 ( 19) -0.3080 ( 20)  0.3738 ( 21) -0.1104 ( 22)
           0.1861 ( 27)  0.2277 ( 29)  0.1122 ( 33)  0.1916 ( 34) -0.1192 ( 36)
           0.1084 ( 37) -0.1948 ( 38)
 CRD  5=   0.4824 (  4) -0.2291 (  5) -0.3047 (  7) -0.1237 ( 11)  0.2048 ( 13)
          -0.3111 ( 15)  0.1626 ( 18) -0.3071 ( 19)  0.2721 ( 20) -0.1330 ( 22)
          -0.1046 ( 25) -0.1462 ( 26) -0.1855 ( 27)  0.1679 ( 28)  0.1102 ( 29)
           0.1272 ( 31) -0.1131 ( 32) -0.1189 ( 33)  0.1205 ( 37) -0.1121 ( 39)
          -0.1178 ( 44)
 CRD  6=  -0.1034 (  3) -0.3349 (  5)  0.1601 (  7) -0.1192 ( 11) -0.1210 ( 13)
          -0.4507 ( 15)  0.3081 ( 16)  0.2557 ( 17)  0.1383 ( 18)  0.1034 ( 19)
          -0.3967 ( 20) -0.2200 ( 21)  0.1637 ( 22) -0.1882 ( 25) -0.1388 ( 29)
           0.1304 ( 35)  0.1392 ( 36)  0.1064 ( 43)
 CRD  7=  -0.1336 (  2)  0.1524 (  5)  0.1127 (  8)  0.1659 ( 15)  0.3428 ( 16)
           0.4198 ( 17) -0.4761 ( 18) -0.1625 ( 19)  0.1990 ( 20) -0.3445 ( 21)
          -0.2306 ( 26)  0.1026 ( 27)  0.2143 ( 28) -0.1010 ( 29)
 CRD  8=   0.1424 (  1)  0.1473 (  4) -0.1049 (  8)  0.1657 ( 10)  0.1032 ( 11)
          -0.1388 ( 12)  0.2148 ( 13)  0.3165 ( 16) -0.3676 ( 17) -0.1691 ( 18)
           0.4708 ( 19) -0.1484 ( 21)  0.1857 ( 23) -0.1672 ( 24) -0.1557 ( 26)
          -0.1409 ( 28)  0.2434 ( 30)  0.1517 ( 31) -0.1015 ( 32) -0.1055 ( 34)
          -0.1056 ( 39) -0.1096 ( 42)
 CRD  9=   0.1037 (  2) -0.1393 (  3)  0.1103 (  5) -0.1858 (  7) -0.1455 (  9)
           0.1437 ( 12)  0.1061 ( 13) -0.2169 ( 14)  0.2116 ( 15)  0.3380 ( 18)
          -0.3610 ( 20) -0.2815 ( 21) -0.2853 ( 22)  0.1840 ( 24) -0.1919 ( 25)
           0.1425 ( 26)  0.1306 ( 28)  0.1301 ( 30) -0.1800 ( 35) -0.1484 ( 36)
          -0.1726 ( 38) -0.1487 ( 40) -0.1413 ( 41) -0.1170 ( 43) -0.1938 ( 48)
 CRD 10=  -0.1100 (  1)  0.1319 (  3) -0.7054 (  6)  0.1024 ( 10)  0.1109 ( 11)
          -0.1105 ( 15) -0.1984 ( 16) -0.1951 ( 21)  0.1086 ( 25)  0.1308 ( 32)
           0.1478 ( 33)  0.1675 ( 34)  0.2113 ( 37)  0.1549 ( 40)  0.1139 ( 41)
           0.1430 ( 43)  0.1175 ( 48)
 CRD 11=  -0.4109 (  1) -0.3092 (  2) -0.2680 (  3)  0.1123 (  5)  0.1781 (  8)
           0.2576 (  9)  0.2136 ( 10)  0.1311 ( 16) -0.1781 ( 17)  0.1952 ( 18)
           0.1704 ( 20) -0.1668 ( 25) -0.1531 ( 26) -0.2115 ( 27)  0.1418 ( 29)
           0.1414 ( 30)  0.1425 ( 32)  0.1248 ( 33)  0.1283 ( 34) -0.1146 ( 37)
           0.1831 ( 39)  0.1689 ( 42)  0.1654 ( 44)
 CRD 12=  -0.2917 (  1) -0.2698 (  2) -0.2321 (  3) -0.1208 (  6) -0.1331 (  7)
          -0.4134 (  8) -0.4410 (  9) -0.3644 ( 10)  0.1442 ( 17)  0.1804 ( 19)
           0.1270 ( 20)  0.1373 ( 21) -0.1150 ( 26) -0.1191 ( 27) -0.1704 ( 28)
          -0.1772 ( 29) -0.1445 ( 30)
 CRD 13=   0.1502 (  1)  0.2455 (  2)  0.3507 (  3)  0.2103 (  4)  0.1720 (  5)
           0.1578 (  6) -0.1403 (  7) -0.1787 (  8) -0.1302 (  9) -0.1891 ( 10)
           0.1103 ( 11) -0.1539 ( 15)  0.2027 ( 32)  0.1760 ( 33)  0.1865 ( 34)
          -0.1097 ( 37)  0.2631 ( 39)  0.2469 ( 42)  0.2364 ( 44)  0.1403 ( 45)
           0.1500 ( 46)  0.1294 ( 47) -0.1197 ( 48)  0.1893 ( 49)  0.1731 ( 50)
           0.1626 ( 51)
 CRD 14=   0.1577 (  2)  0.1479 (  3)  0.2596 ( 10) -0.3078 ( 11) -0.1091 ( 12)
          -0.2736 ( 15)  0.1019 ( 19)  0.1083 ( 20) -0.1037 ( 26) -0.1096 ( 31)
           0.1268 ( 32)  0.1156 ( 34) -0.2720 ( 35) -0.2099 ( 36) -0.1729 ( 37)
          -0.2547 ( 38) -0.2526 ( 40) -0.2352 ( 41) -0.1904 ( 43) -0.1935 ( 45)
          -0.2557 ( 46) -0.2383 ( 47)
 CRD 15=  -0.2509 (  1)  0.2928 (  2) -0.5403 (  8)  0.4212 (  9) -0.1442 ( 26)
           0.1301 ( 27)  0.2755 ( 28) -0.2201 ( 29) -0.1820 ( 32)  0.1133 ( 33)
          -0.1001 ( 35) -0.1859 ( 39)  0.1094 ( 44) -0.1702 ( 49)  0.1251 ( 51)
 CRD 16=   0.1659 (  1) -0.4808 (  2)  0.3430 (  3) -0.3172 (  8)  0.3929 ( 10)
          -0.1622 ( 25)  0.2477 ( 26)  0.1608 ( 28) -0.1872 ( 30)  0.1325 ( 33)
           0.1120 ( 35) -0.1607 ( 36)  0.1083 ( 40) -0.1644 ( 43)  0.1299 ( 44)
          -0.1805 ( 45)  0.1342 ( 51)
 CRD 17=  -0.3292 (  1) -0.1804 (  2)  0.5049 (  3)  0.1583 (  8)  0.2235 (  9)
          -0.3627 ( 10) -0.2635 ( 25)  0.1819 ( 27) -0.1227 ( 29)  0.1937 ( 30)
          -0.1335 ( 33) -0.1580 ( 36)  0.1298 ( 38)  0.1359 ( 41) -0.1519 ( 43)
          -0.1258 ( 44) -0.1638 ( 45)  0.1240 ( 47) -0.1228 ( 51)
 CRD 18=   0.4337 (  1) -0.2262 (  2) -0.1778 (  3)  0.3995 (  9) -0.3122 ( 10)
           0.1280 ( 25)  0.1138 ( 26) -0.2515 ( 27) -0.2327 ( 29)  0.2029 ( 30)
           0.2048 ( 34) -0.2087 ( 38) -0.1725 ( 41)  0.1659 ( 42) -0.1773 ( 47)
           0.1546 ( 50)
 CRD 19=   0.6234 (  5)  0.2245 (  6) -0.1739 ( 13) -0.4696 ( 15)  0.1258 ( 24)
          -0.1094 ( 39) -0.1089 ( 42) -0.1179 ( 44)  0.1067 ( 48) -0.2434 ( 49)
          -0.2429 ( 50) -0.2520 ( 51)
 CRD 20=   0.1164 (  1)  0.1823 (  2) -0.2158 (  6) -0.1842 (  8)  0.5478 ( 11)
          -0.1453 ( 13)  0.1130 ( 16) -0.1203 ( 17)  0.1180 ( 18)  0.2061 ( 22)
          -0.1503 ( 25) -0.1151 ( 27)  0.1627 ( 29) -0.2989 ( 31) -0.1016 ( 34)
          -0.3386 ( 37) -0.1581 ( 45) -0.1028 ( 46) -0.1267 ( 47) -0.1119 ( 48)
          -0.1651 ( 50) -0.1501 ( 51)
 CRD 21=   0.1446 (  1)  0.1296 (  5) -0.3968 (  6)  0.1694 (  9) -0.5944 ( 11)
           0.1037 ( 15)  0.1192 ( 16) -0.1048 ( 25) -0.1184 ( 28) -0.1918 ( 31)
          -0.1109 ( 34) -0.2739 ( 37)  0.1094 ( 38)  0.1131 ( 41)  0.1177 ( 45)
           0.1271 ( 46)  0.1521 ( 47) -0.2170 ( 48) -0.1293 ( 50) -0.1093 ( 51)
 CRD 22=  -0.1617 (  2)  0.1045 (  4) -0.1222 (  6) -0.2706 (  7)  0.2348 (  8)
           0.2532 (  9)  0.1846 ( 10)  0.3172 ( 11)  0.1031 ( 14) -0.1931 ( 15)
           0.2178 ( 17) -0.1047 ( 18)  0.2129 ( 19)  0.2230 ( 21) -0.1371 ( 23)
           0.1060 ( 25)  0.1326 ( 27) -0.2245 ( 28) -0.2111 ( 29) -0.2603 ( 30)
          -0.1184 ( 37) -0.1405 ( 40)  0.1112 ( 45) -0.2785 ( 48)
 CRD 23=  -0.2178 (  1) -0.1956 (  2) -0.2622 (  3)  0.4004 (  4)  0.1118 (  5)
           0.2114 (  7) -0.1151 (  8) -0.1605 ( 10) -0.2064 ( 16) -0.1096 ( 17)
          -0.2307 ( 18) -0.1251 ( 19) -0.2319 ( 20) -0.1142 ( 21) -0.1156 ( 24)
           0.2089 ( 25)  0.2646 ( 26)  0.2423 ( 27)  0.1247 ( 28)  0.1583 ( 29)
          -0.1797 ( 31) -0.1604 ( 37) -0.2057 ( 48)
 CRD 24=   0.2837 (  1) -0.1588 (  3)  0.3051 (  5) -0.2901 (  6)  0.1409 (  9)
          -0.2367 ( 10) -0.1365 ( 15) -0.1591 ( 25)  0.1746 ( 27)  0.1507 ( 29)
          -0.1325 ( 30)  0.2066 ( 31) -0.1345 ( 34)  0.1093 ( 37)  0.1696 ( 38)
           0.1579 ( 39) -0.2592 ( 40) -0.1652 ( 43)  0.2117 ( 44) -0.1463 ( 45)
          -0.2403 ( 46)  0.1393 ( 48)  0.1718 ( 49)  0.2256 ( 51)
 CRD 25=  -0.1336 (  1)  0.3087 (  2) -0.2300 (  3)  0.1550 (  5) -0.4169 (  7)
           0.1259 (  9) -0.1089 ( 11)  0.1181 ( 15)  0.1540 ( 22)  0.1060 ( 23)
          -0.1652 ( 24) -0.1379 ( 25)  0.2672 ( 26) -0.1297 ( 30)  0.1527 ( 35)
          -0.1964 ( 36)  0.2485 ( 40)  0.1253 ( 41) -0.1005 ( 43) -0.3672 ( 45)
          -0.1414 ( 47)  0.1786 ( 48)
 CRD 26=  -0.1186 (  2)  0.3504 (  4) -0.1278 (  5) -0.1066 (  6) -0.3052 (  8)
           0.1595 (  9)  0.1935 ( 10) -0.1556 ( 13) -0.1205 ( 14)  0.1897 ( 24)
           0.1119 ( 27) -0.2594 ( 28)  0.1148 ( 30)  0.1784 ( 31)  0.1740 ( 32)
          -0.1741 ( 33)  0.1519 ( 37)  0.2949 ( 39)  0.1447 ( 42)  0.3212 ( 48)
          -0.1156 ( 50) -0.3135 ( 51)
 CRD 27=  -0.2380 (  1)  0.2649 (  3)  0.2749 (  9) -0.2626 ( 10) -0.1038 ( 14)
           0.1043 ( 16)  0.1269 ( 19) -0.1290 ( 20) -0.1210 ( 21)  0.2012 ( 25)
          -0.1743 ( 27)  0.2010 ( 29) -0.2010 ( 30) -0.2907 ( 34) -0.2869 ( 38)
           0.1110 ( 39) -0.2306 ( 41) -0.2307 ( 42)  0.1117 ( 43)  0.1069 ( 44)
          -0.2490 ( 47) -0.2523 ( 50)
 CRD 28=   0.2083 (  2) -0.2633 (  4)  0.2281 (  7) -0.2608 (  8)  0.1271 (  9)
           0.1775 ( 13)  0.1420 ( 14) -0.1150 ( 15)  0.1435 ( 17) -0.1256 ( 21)
          -0.1922 ( 22) -0.1478 ( 23)  0.1066 ( 26) -0.1530 ( 28)  0.1377 ( 29)
           0.1859 ( 32) -0.1531 ( 33)  0.1161 ( 35) -0.1428 ( 36)  0.1093 ( 37)
          -0.1185 ( 42) -0.2148 ( 43) -0.2512 ( 44)  0.2192 ( 46) -0.2088 ( 48)
           0.3014 ( 49)
 CRD 29=   0.1182 (  1) -0.1815 (  2) -0.1547 (  4)  0.1717 (  5)  0.1640 (  6)
          -0.1915 (  7) -0.1256 (  8)  0.2504 ( 12)  0.1555 ( 17)  0.1859 ( 18)
          -0.2361 ( 24) -0.1586 ( 26) -0.1232 ( 28) -0.2524 ( 31)  0.1084 ( 32)
          -0.1179 ( 33) -0.1449 ( 35)  0.1533 ( 36)  0.1581 ( 41) -0.1084 ( 42)
           0.3007 ( 43) -0.2360 ( 44) -0.3179 ( 46) -0.1622 ( 47)  0.2625 ( 49)
           0.1637 ( 50)
 CRD 30=   0.1586 (  1) -0.1464 (  3) -0.2166 (  5)  0.2067 (  6)  0.1431 (  9)
          -0.1486 ( 10) -0.1634 ( 13)  0.1507 ( 14) -0.1515 ( 16)  0.1459 ( 19)
           0.1411 ( 20) -0.1402 ( 21) -0.1533 ( 22)  0.1458 ( 23) -0.1049 ( 25)
           0.1182 ( 27)  0.1058 ( 29) -0.1083 ( 30) -0.1429 ( 31)  0.2704 ( 32)
           0.2817 ( 33) -0.2852 ( 35) -0.2691 ( 36)  0.2494 ( 41) -0.2352 ( 42)
           0.2636 ( 47) -0.2616 ( 50)

 THE DETERMINANT OF THE G MATRIX IS 10**(    -9)


                     --------------------
                     INTERNAL COORDINATES
                     --------------------

                 - - ATOMS - -         COORDINATE      COORDINATE
 NO.   TYPE    I  J  K  L  M  N        (BOHR,RAD)       (ANG,DEG)
 ----------------------------------------------------------------
   1 STRETCH   1  5                     2.0751550       1.0981248
   2 STRETCH   1  7                     2.0753479       1.0982269
   3 STRETCH   1  6                     2.0734706       1.0972335
   4 STRETCH   1  2                     2.8871117       1.5277938
   5 STRETCH   2  4                     2.6780256       1.4171502
   6 STRETCH   2  8                     2.1131309       1.1182208
   7 STRETCH   2  3                     2.8815948       1.5248744
   8 STRETCH   3 11                     2.0741227       1.0975786
   9 STRETCH   3 10                     2.0752490       1.0981746
  10 STRETCH   3  9                     2.0735646       1.0972832
  11 STRETCH   4 12                     1.7908396       0.9476716
  12 BEND      1  2  3                  1.9347614     110.8536615
  13 BEND      1  2  8                  1.9098443     109.4260164
  14 BEND      1  2  4                  1.9541079     111.9621345
  15 BEND      2  4 12                  1.8612111     106.6395413
  16 BEND      2  1  5                  1.9511698     111.7937965
  17 BEND      2  3 11                  1.9475926     111.5888377
  18 BEND      2  1  7                  1.9515416     111.8150965
  19 BEND      2  3  9                  1.9288495     110.5149383
  20 BEND      2  1  6                  1.9317638     110.6819107
  21 BEND      2  3 10                  1.9513745     111.8055221
  22 BEND      3  2  8                  1.9117540     109.5354379
  23 BEND      3  2  4                  1.8623554     106.7051020
  24 BEND      4  2  8                  1.8898204     108.2787313
  25 BEND      5  1  7                  1.8748463     107.4207817
  26 BEND      5  1  6                  1.8760520     107.4898602
  27 BEND      6  1  7                  1.8747612     107.4159072
  28 BEND      9  3 10                  1.8790017     107.6588671
  29 BEND      9  3 11                  1.8800481     107.7188225
  30 BEND     10  3 11                  1.8737631     107.3587150
  31 TORSION   1  2  4 12               0.9372069      53.6979991
  32 TORSION   1  2  3  9              -1.0568117     -60.5508493
  33 TORSION   1  2  3 10               1.0359145      59.3535304
  34 TORSION   1  2  3 11               3.1348224     179.6120950
  35 TORSION   3  2  1  6               1.0348145      59.2905015
  36 TORSION   3  2  1  5              -1.0560181     -60.5053818
  37 TORSION   3  2  4 12               3.0569301     175.1491905
  38 TORSION   3  2  1  7               3.1242609     179.0069642
  39 TORSION   4  2  3  9               3.0944178     177.2970815
  40 TORSION   4  2  1  6               3.1122937     178.3212924
  41 TORSION   4  2  1  7              -1.0814452     -61.9622449
  42 TORSION   4  2  3 11               1.0028666      57.4600258
  43 TORSION   4  2  1  5               1.0214611      58.5254091
  44 TORSION   4  2  3 10              -1.0960413     -62.7985388
  45 TORSION   5  1  2  8               3.1167928     178.5790744
  46 TORSION   6  1  2  8              -1.0755599     -61.6250423
  47 TORSION   7  1  2  8               1.0138866      58.0914203
  48 TORSION   8  2  4 12              -1.1697844     -67.0237116
  49 TORSION   8  2  3  9               1.0524331      60.2999771
  50 TORSION   8  2  3 11              -1.0391180     -59.5370787
  51 TORSION   8  2  3 10              -3.1380260    -179.7956432

     ------------------------------------------
     THE POINT GROUP IS C1 , NAXIS= 1, ORDER= 1
     ------------------------------------------

     DIMENSIONS OF THE SYMMETRY SUBSPACES ARE
 A   =  124

 ..... DONE SETTING UP THE RUN .....
 STEP CPU TIME =     0.01 TOTAL CPU TIME =        0.0 (    0.0 MIN)
 TOTAL WALL CLOCK TIME=        0.0 SECONDS, CPU UTILIZATION IS 100.00%


          -----------------------------
          STATIONARY POINT LOCATION RUN
          -----------------------------

 OBTAINING INITIAL HESSIAN, HESS=GUESS   
 DIAGONAL GUESS HESSIAN IN INTERNAL COORDS IS
     1  0.3409     2  0.3409     3  0.3415     4  0.3687     5  0.3692
     6  0.3279     7  0.3708     8  0.3413     9  0.3409    10  0.3415
    11  0.3688    12  0.2490    13  0.2225    14  0.2439    15  0.2161
    16  0.2237    17  0.2239    18  0.2237    19  0.2239    20  0.2238
    21  0.2239    22  0.2227    23  0.2441    24  0.2185    25  0.2026
    26  0.2026    27  0.2026    28  0.2026    29  0.2027    30  0.2026
    31  0.2500    32  0.2500    33  0.2500    34  0.2500    35  0.2500
    36  0.2500    37  0.2500    38  0.2500    39  0.2500    40  0.2500
    41  0.2500    42  0.2500    43  0.2500    44  0.2500    45  0.2500
    46  0.2500    47  0.2500    48  0.2500    49  0.2500    50  0.2500
    51  0.2500
 TRANSFORMING HESSIAN TO SYMMETRY COORDINATES

          PARAMETERS CONTROLLING GEOMETRY SEARCH ARE
          METHOD =QA                  UPHESS =BFGS    
          NNEG   =         0          NFRZ   =         3
          NSTEP  =        50          IFOLOW =         1
          HESS   =GUESS               RESTAR =         F
          IHREP  =         0          HSSEND =         F
          NPRT   =         0          NPUN   =         0
          OPTTOL = 5.000E-04          RMIN   = 1.500E-03
          RMAX   = 1.000E-01          RLIM   = 7.000E-02
          DXMAX  = 3.000E-01          PURIFY =         F
          MOVIE  =         F          TRUPD  =         T
          TRMAX  = 5.000E-01          TRMIN  = 5.000E-02
          ITBMAT =         5          STPT   =         F
          STSTEP = 1.000E-02          PROJCT=          F
          FROZEN COORD(S)=   1   2   3


      ***** EQUILIBRIUM GEOMETRY LOCATED *****
            (SUBJECT TO   3 CONSTRAINT(S))
 COORDINATES OF ALL ATOMS ARE (ANGS)
   ATOM   CHARGE       X              Y              Z
 ------------------------------------------------------------
 C           6.0   0.6272761039   1.2075600731   1.9928999209
 C           6.0   2.0772320850   1.6610676360   2.1027248238
 C           6.0   2.9396103601   1.0910158548   0.9881998936
 O           8.0   2.1651768522   3.0738415492   2.0362738671
 H           1.0   0.1971038898   1.5468066884   1.0544510994
 H           1.0   0.5612111758   0.1242704215   2.0303740481
 H           1.0   0.0298185874   1.6095780210   2.8069259911
 H           1.0   2.4799015989   1.3307584350   3.0581202031
 H           1.0   2.9361879066   0.0062080575   1.0336114229
 H           1.0   2.5599407408   1.3915120768   0.0151674782
 H           1.0   3.9661615070   1.4324631349   1.0765561797
 H           1.0   1.6905195931   3.4461213982   2.7616659822


                     --------------------
                     INTERNAL COORDINATES
                     --------------------

                 - - ATOMS - -         COORDINATE      COORDINATE
 NO.   TYPE    I  J  K  L  M  N        (BOHR,RAD)       (ANG,DEG)
 ----------------------------------------------------------------
   1 STRETCH   1  5                     2.0534832       1.0866566
   2 STRETCH   1  7                     2.0538221       1.0868359
   3 STRETCH   1  6                     2.0521462       1.0859491
   4 STRETCH   1  2                     2.8784087       1.5231884
   5 STRETCH   2  4                     2.6778692       1.4170674
   6 STRETCH   2  8                     2.0562678       1.0881302
   7 STRETCH   2  3                     2.8726453       1.5201385
   8 STRETCH   3 11                     2.0512019       1.0854494
   9 STRETCH   3 10                     2.0538453       1.0868482
  10 STRETCH   3  9                     2.0517951       1.0857633
  11 STRETCH   4 12                     1.7828496       0.9434434
  12 BEND      1  2  3                  1.9557469     112.0560442
  13 BEND      1  2  8                  1.9020107     108.9771883
  14 BEND      1  2  4                  1.9310694     110.6421272
  15 BEND      2  4 12                  1.9029952     109.0335939
  16 BEND      2  1  5                  1.9242628     110.2521375
  17 BEND      2  3 11                  1.9378598     111.0311873
  18 BEND      2  1  7                  1.9381608     111.0484337
  19 BEND      2  3  9                  1.9200717     110.0120074
  20 BEND      2  1  6                  1.9309624     110.6359970
  21 BEND      2  3 10                  1.9332151     110.7650650
  22 BEND      3  2  8                  1.8964942     108.6611128
  23 BEND      3  2  4                  1.8799740     107.7145736
  24 BEND      4  2  8                  1.8974167     108.7139683
  25 BEND      5  1  7                  1.8899226     108.2845886
  26 BEND      5  1  6                  1.8935161     108.4904803
  27 BEND      6  1  7                  1.8856765     108.0413067
  28 BEND      9  3 10                  1.8887087     108.2150385
  29 BEND      9  3 11                  1.8900599     108.2924525
  30 BEND     10  3 11                  1.8926008     108.4380398
  31 TORSION   1  2  4 12               1.0748501      61.5843749
  32 TORSION   1  2  3  9              -1.0596996     -60.7163139
  33 TORSION   1  2  3 10               1.0276394      58.8794027
  34 TORSION   1  2  3 11               3.1315026     179.4218824
  35 TORSION   3  2  1  6               1.0298896      59.0083281
  36 TORSION   3  2  1  5              -1.0647024     -61.0029525
  37 TORSION   3  2  4 12              -3.0652241    -175.6244036
  38 TORSION   3  2  1  7               3.1237320     178.9766622
  39 TORSION   4  2  3  9               3.0956007     177.3648562
  40 TORSION   4  2  1  6               3.1282795     179.2372113
  41 TORSION   4  2  1  7              -1.0610634     -60.7944546
  42 TORSION   4  2  3 11               1.0036176      57.5030525
  43 TORSION   4  2  1  5               1.0336875      59.2259307
  44 TORSION   4  2  3 10              -1.1002456     -63.0394272
  45 TORSION   5  1  2  8               3.1189916     178.7050522
  46 TORSION   6  1  2  8              -1.0696018     -61.2836672
  47 TORSION   7  1  2  8               1.0242407      58.6846669
  48 TORSION   8  2  4 12              -1.0132189     -58.0531639
  49 TORSION   8  2  3  9               1.0429983      59.7594026
  50 TORSION   8  2  3 11              -1.0489848     -60.1024011
  51 TORSION   8  2  3 10               3.1303374     179.3551191

          INTERNUCLEAR DISTANCES (ANGS.)


 =====================================================
   GAMESS/COSab RESULTS
 =====================================================

   Dielectric Constant                  = INFTY
   Basic Grid Size                      =                 1082
   Number of Segments                   =                   92
   Number of Segments located on spheres=                  184
   Number of Segments of the cavity     =                  430
   Solvent Radius (rsolv)               = 1.40
   Outlying Charge Error Method         = double cavity

 =====================================================

  Total solvated Energy (a.u.)          =  -193.1837316461
  Total Energy corrected (a.u.)         =  -193.1836462385

  Outlying charge effect (a.u.)         =     0.0000854076
  Outlying charge effect (kcal/mol)     =     0.0535941028

  Dielectric Energy (a.u.)              =    -0.0102067015
  Dielectric energy corr. (a.u.)        =    -0.0101212939

  Sum of polarization charges           =     0.0201442020
  Sum of polarization charges(cor.)     =    -0.0201442020

  Total surface area of cavity (A**2)   =  106.32
  Total volume of cavity (A**3)         =   91.58

 =====================================================
 NPS=                   430
NR.  ATOM  (X, Y, Z)(a.u.)                  CHARGE(e)  AREA(A**2) SIGMA(e/A**2)
   1   1  -1.236075   0.212583   5.800355   0.001766   0.418105   0.004224
   2   1  -1.126948  -0.027825   1.868054   0.001559   0.418105   0.003729
   3   1  -2.498458   3.121480   3.859511   0.001224   0.371649   0.003294
   4   1   1.460000   1.950674   7.520902   0.000498   0.278737   0.001788
   5   1   2.017665  -0.224658   6.469445   0.000433   0.232280   0.001865
   6   1   1.483215   0.553428   7.113825   0.000733   0.325193   0.002253
   7   1   0.202266   0.412712   6.900300   0.001252   0.325193   0.003851
   8   1  -2.272078   3.510532   2.860054   0.001317   0.371649   0.003543
   9   1  -1.081588   0.673548   1.205142   0.001019   0.278737   0.003657
  10   1   0.965006   0.734966   0.324729   0.000368   0.139368   0.002639
  11   1  -0.284162   5.583304   2.658885   0.000592   0.232280   0.002549
  12   1  -0.186403  -0.172138   6.291871   0.000775   0.232280   0.003335
  13   1  -0.696251   0.704345   6.639152   0.001020   0.278737   0.003661
  14   1   0.801351   0.087708   0.712819   0.000528   0.139368   0.003787
  15   1  -0.115425  -0.137577   1.170255   0.000984   0.232280   0.004236
  16   1  -2.005121   0.914609   2.270935   0.001210   0.464561   0.002604
  17   1  -2.543624   2.073660   3.186926   0.001097   0.464561   0.002362
  18   1  -1.935617   4.406631   3.594761   0.001703   0.371649   0.004582
  19   1  -0.874094   5.450933   3.747094   0.001426   0.418105   0.003411
  20   1  -1.737549  -0.029897   3.136689   0.000876   0.418105   0.002095
  21   1  -1.794658   0.104564   4.580013   0.001050   0.418105   0.002512
  22   1  -2.051582   1.014519   5.249235   0.001255   0.464561   0.002702
  23   1  -2.525455   2.068588   4.450417   0.000715   0.325193   0.002198
  24   1   1.109674  -0.158882   6.650615   0.000583   0.232280   0.002509
  25   1   0.856882   1.207307   7.374554   0.000669   0.232280   0.002882
  26   1  -2.262629   1.988909   2.246298   0.000627   0.278737   0.002248
  27   1   0.114572   0.394700   0.671531   0.000785   0.185824   0.004224
  28   1  -1.291875   5.007869   2.919378   0.001188   0.325193   0.003654
  29   1   0.772643  -0.443004   1.179809   0.000567   0.185824   0.003053
  30   1  -2.347092   0.938744   3.725470   0.000823   0.464561   0.001773
  31   2   7.239241   4.309419   5.363796   0.000526   0.139368   0.003775
  32   2   7.166627   3.708658   5.832103   0.000126   0.185824   0.000677
  33   2   4.125401  -0.178195   5.773787  -0.000337   0.139368  -0.002415
  34   2   2.703152   4.033872   7.436153  -0.000255   0.046456  -0.005499
  35   2   3.107527   3.794780   7.604716  -0.000389   0.185824  -0.002094
  36   2   6.697990   4.403234   6.209325   0.000146   0.139368   0.001051
  37   2   4.635720  -0.224386   5.544446  -0.000064   0.046456  -0.001385
  38   3   7.524166   3.336205  -1.096100   0.001687   0.371649   0.004540
  39   3   7.696806   0.211148   4.371939   0.000760   0.325193   0.002338
  40   3   5.406171   0.092308  -1.354918   0.001573   0.418105   0.003762
  41   3   8.748893   0.364584   0.770439   0.001185   0.371649   0.003189
  42   3   6.870788   5.219033   0.259816   0.000367   0.185824   0.001973
  43   3   7.115545   4.743406  -0.290725   0.000849   0.185824   0.004566
  44   3   8.236427  -0.512314   1.182690   0.001168   0.371649   0.003141
  45   3   5.329144  -0.656275  -0.749010   0.000899   0.278737   0.003226
  46   3   3.357471  -0.575979   0.287091   0.000290   0.139368   0.002082
  47   3   7.414403  -0.507474   3.923240   0.000451   0.185824   0.002426
  48   3   6.850062   4.350576  -0.847032   0.000835   0.232280   0.003595
  49   3   7.777686   4.036703  -0.465714   0.001072   0.278737   0.003846
  50   3   3.361820   0.053399  -0.465092   0.000967   0.232280   0.004164
  51   3   4.161523   0.014396  -0.987534   0.001196   0.278737   0.004292
  52   3   6.665190  -0.189261  -0.958337   0.001104   0.464561   0.002377
  53   3   8.012872   0.055031  -0.186006   0.000993   0.464561   0.002138
  54   3   8.719487   0.015201   2.154478   0.001633   0.371649   0.004394
  55   3   8.464096   0.316238   3.533276   0.001446   0.371649   0.003890
  56   3   8.192876   1.237244   4.445491   0.000856   0.371649   0.002303
  57   3   6.505599   0.933355  -1.612156   0.000962   0.418105   0.002300
  58   3   7.328364   2.119645  -1.469673   0.001160   0.418105   0.002775
  59   3   8.235327   2.337851  -0.782876   0.001325   0.464561   0.002853
  60   3   8.630571   1.156168  -0.133925   0.000734   0.325193   0.002257
  61   3   6.072629   5.158890  -0.235867   0.000677   0.185824   0.003642
  62   3   7.555083   4.893668   0.362718   0.000589   0.185824   0.003172
  63   3   7.292572  -0.616645  -0.155359   0.000482   0.278737   0.001728
  64   3   4.037139  -0.538470  -0.417136   0.000723   0.185824   0.003892
  65   3   6.743277  -0.354685   4.519488   0.000316   0.232280   0.001362
  66   3   8.140007  -0.465417   2.970101   0.001169   0.325193   0.003594
  67   3   8.080620   2.252833   4.672647   0.000045   0.092912   0.000489
  68   3   7.664494   0.917862  -1.052520   0.000820   0.464561   0.001766
  69   4   7.071169   7.023953   3.389862   0.005602   0.274871   0.020379
  70   4   4.526337   7.832761   1.342240   0.005045   0.274871   0.018354
  71   4   4.782123   8.928833   4.441877   0.001685   0.274871   0.006129
  72   4   1.835463   7.988024   2.996424   0.003204   0.309230   0.010361
  73   4   5.780517   6.380414   6.565600   0.002010   0.240512   0.008357
  74   4   5.159255   7.222907   1.123164   0.005768   0.274871   0.020986
  75   4   6.604589   7.487498   2.651710   0.006906   0.343589   0.020100
  76   4   5.664896   7.808713   1.825798   0.005097   0.274871   0.018542
  77   4   3.812171   7.142715   0.897243   0.007679   0.377948   0.020318
  78   4   2.848502   6.581248   0.945840   0.005516   0.240512   0.022933
  79   4   7.258484   6.376407   4.309628   0.003980   0.171795   0.023169
  80   4   3.753919   9.039400   3.963440   0.000764   0.274871   0.002780
  81   4   2.598018   8.660424   3.398915   0.001719   0.309230   0.005560
  82   4   1.323792   7.365815   3.155596   0.001789   0.206154   0.008680
  83   4   5.775671   7.510631   6.046185   0.002758   0.309230   0.008919
  84   4   5.416182   8.388839   5.315337   0.002055   0.309230   0.006645
  85   4   6.535151   7.946896   3.700349   0.006156   0.343589   0.017916
  86   4   5.772784   8.569838   4.186266   0.004914   0.377948   0.013002
  87   4   4.738905   8.946373   3.299612   0.005489   0.481025   0.011411
  88   4   4.739293   8.511237   2.162333   0.006186   0.377948   0.016368
  89   4   3.582337   8.213019   1.720887   0.007101   0.412307   0.017222
  90   4   2.543640   8.130847   2.181805   0.005696   0.377948   0.015072
  91   4   1.762674   7.220709   2.073999   0.005566   0.309230   0.018001
  92   4   6.388362   6.160963   6.120752   0.003522   0.240512   0.014645
  93   4   6.512059   6.956713   5.688671   0.004177   0.274871   0.015195
  94   4   6.983953   7.068993   4.629375   0.006579   0.343589   0.019149
  95   4   6.278158   7.149469   1.851536   0.004864   0.240512   0.020223
  96   4   5.797461   8.363668   2.786480   0.006380   0.377948   0.016881
  97   4   2.662104   7.354991   1.372070   0.005773   0.309230   0.018670
  98   4   7.011760   6.079563   5.249378   0.004865   0.274871   0.017700
  99   4   3.511682   8.834399   2.811855   0.004504   0.412307   0.010923
 100   4   6.348369   7.875969   4.942552   0.005811   0.377948   0.015375
 101   5  -1.055656   3.822895   0.207736  -0.002578   0.471065  -0.005473
 102   5  -0.518779   5.004601   1.039778  -0.001530   0.412182  -0.003711
 103   5  -1.875280   3.476211   1.169993  -0.001150   0.392554  -0.002930
 104   5  -0.857374   1.805085   0.183556  -0.000763   0.333671  -0.002287
 105   5   0.162148   2.044986  -0.292077  -0.001309   0.353299  -0.003706
 106   5   0.231034   4.665535   0.266693  -0.002101   0.392554  -0.005351
 107   5  -1.410860   4.491417   1.364092  -0.001060   0.392554  -0.002699
 108   5  -1.635927   2.495619   0.644020  -0.001388   0.431809  -0.003215
 109   5  -0.572049   2.804854  -0.272106  -0.001862   0.372926  -0.004994
 110   5   0.168523   3.703241  -0.327893  -0.002448   0.412182  -0.005940
 111   6   0.441020  -2.126839   4.108430  -0.002952   0.490692  -0.006016
 112   6   0.273766  -1.352648   5.538593  -0.001098   0.372926  -0.002944
 113   6   2.135439  -1.455357   5.259140  -0.001342   0.333671  -0.004023
 114   6   0.737690  -1.546716   2.176443  -0.001384   0.392554  -0.003526
 115   6  -0.817759  -1.348528   3.832440  -0.001173   0.372926  -0.003146
 116   6   1.173869  -1.695712   5.351841  -0.001666   0.412182  -0.004041
 117   6   1.775856  -2.085014   4.213282  -0.002876   0.451437  -0.006372
 118   6   1.167289  -2.074021   3.004457  -0.002763   0.451437  -0.006121
 119   6  -0.288691  -1.556790   2.834484  -0.001797   0.490692  -0.003663
 120   6  -0.437521  -1.467446   4.781890  -0.001349   0.372926  -0.003616
 121   7  -1.573011   3.460808   7.094453  -0.002373   0.412182  -0.005757
 122   7   0.390127   3.653597   7.659995  -0.001753   0.353299  -0.004961
 123   7  -0.089475   2.492178   7.694278  -0.000945   0.372926  -0.002533
 124   7  -1.963062   2.342736   6.516169  -0.001293   0.412182  -0.003136
 125   7  -2.060694   4.280672   5.438654  -0.000985   0.353299  -0.002788
 126   7  -1.232800   5.087925   5.735542  -0.001534   0.392554  -0.003909
 127   7  -0.638104   3.479862   7.619658  -0.001849   0.353299  -0.005233
 128   7  -1.133779   2.158984   7.263803  -0.001349   0.412182  -0.003273
 129   7  -2.319456   3.270343   5.885985  -0.001515   0.431809  -0.003508
 130   7  -1.596741   4.413736   6.495858  -0.002006   0.372926  -0.005380
 131   7  -0.559154   4.609179   7.092924  -0.002672   0.412182  -0.006482
 132   8   5.619762   1.839559   7.948786  -0.002946   0.549575  -0.005360
 133   8   6.190472   0.855648   6.788952  -0.001268   0.333671  -0.003800
 134   8   4.504801   0.435284   7.074356  -0.000964   0.353299  -0.002727
 135   8   3.879871   2.387082   8.096006  -0.001305   0.372926  -0.003498
 136   8   5.357753   3.692375   7.827804  -0.001480   0.372926  -0.003968
 137   8   6.875020   2.854953   6.841555  -0.000921   0.353299  -0.002607
 138   8   5.411858   0.520775   7.017042  -0.001746   0.412182  -0.004236
 139   8   4.375486   1.338012   7.912965  -0.001927   0.471065  -0.004091
 140   8   4.659416   2.973964   8.192215  -0.001567   0.431809  -0.003629
 141   8   6.192817   3.129179   7.619692  -0.001683   0.451437  -0.003728
 142   8   6.658620   1.778218   7.044976  -0.001902   0.451437  -0.004214
 143   9   6.132138  -2.359188   2.223917  -0.002672   0.451437  -0.005920
 144   9   6.622545  -1.636407   3.424746  -0.001167   0.392554  -0.002973
 145   9   7.124155  -1.763015   1.318475  -0.001308   0.392554  -0.003332
 146   9   5.184235  -1.768883   0.300451  -0.001166   0.392554  -0.002969
 147   9   4.248804  -1.840981   0.997693  -0.001753   0.392554  -0.004466
 148   9   5.518369  -1.866463   3.536446  -0.002560   0.490692  -0.005217
 149   9   7.191705  -1.745511   2.450570  -0.001344   0.392554  -0.003424
 150   9   6.270203  -1.969293   0.692340  -0.002008   0.471065  -0.004263
 151   9   5.193579  -2.354074   1.394690  -0.002031   0.353299  -0.005749
 152   9   4.883469  -2.304977   2.428142  -0.002649   0.392554  -0.006749
 153  10   4.455773   3.218070  -2.325701  -0.002740   0.490692  -0.005584
 154  10   5.655908   4.198719  -1.675240  -0.000936   0.353299  -0.002651
 155  10   3.809808   4.440941  -1.274305  -0.001673   0.314043  -0.005326
 156  10   3.718875   1.421326  -1.794448  -0.001034   0.392554  -0.002635
 157  10   5.609049   2.268416  -2.275588  -0.001020   0.372926  -0.002735
 158  10   4.782798   4.531523  -1.525274  -0.001740   0.412182  -0.004222
 159  10   3.506169   3.666805  -1.756439  -0.002207   0.372926  -0.005919
 160  10   3.338932   2.404940  -1.904905  -0.002562   0.471065  -0.005440
 161  10   4.693830   1.759097  -2.264096  -0.001380   0.412182  -0.003347
 162  10   5.745227   3.282324  -2.158862  -0.001165   0.372926  -0.003123
 163  11   9.860118   3.360792   2.150987  -0.003565   0.588831  -0.006054
 164  11   8.673554   4.741364   1.322237  -0.001066   0.353299  -0.003017
 165  11   9.316538   3.058815   0.424085  -0.000966   0.353299  -0.002734
 166  11   9.667456   1.561335   1.980664  -0.000915   0.372926  -0.002454
 167  11   9.212499   2.440860   3.770585  -0.001226   0.412182  -0.002973
 168  11   9.144155   4.463020   2.515515  -0.002678   0.510320  -0.005247
 169  11   9.234841   4.003932   0.882994  -0.001900   0.490692  -0.003872
 170  11   9.746989   2.335813   1.125729  -0.001958   0.490692  -0.003990
 171  11   9.719756   2.096510   2.878624  -0.001899   0.471065  -0.004032
 172  11   9.177556   3.613358   3.577899  -0.002471   0.529948  -0.004662
 173  12   2.188746   7.697067   7.121295  -0.006367   0.353299  -0.018020
 174  12   1.649590   8.410844   5.010756  -0.005534   0.412182  -0.013426
 175  12   3.621695   8.738011   6.166750  -0.006885   0.471065  -0.014615
 176  12   4.203487   6.820581   7.437398  -0.006590   0.471065  -0.013989
 177  12   2.291848   8.538169   6.275063  -0.007846   0.451437  -0.017379
 178  12   3.253128   7.841958   7.283623  -0.007714   0.451437  -0.017087
 179  12   2.965143   6.385130   7.661395  -0.009946   0.549575  -0.018097
 180  12   1.801750   6.826613   7.217846  -0.007432   0.353299  -0.021035
 181  12   1.234648   7.660889   6.153797  -0.009389   0.490692  -0.019134
 182  12   2.716480   8.921721   5.248105  -0.005082   0.392554  -0.012947
 183  12   4.349222   7.978366   6.816429  -0.004533   0.372926  -0.012155
 184  12   1.024168   7.617310   4.897742  -0.004354   0.294415  -0.014789
 185   1   2.941350  -0.534834   5.588417  -0.000091   0.026273  -0.003461
 186   2   3.403011  -0.352347   5.601370  -0.000110   0.026273  -0.004177
 187   6   2.778181  -0.744109   5.442816  -0.000119   0.026273  -0.004535
 188   1   1.679987   3.043968   7.441874  -0.000086   0.025785  -0.003325
 189   2   2.155151   3.188026   7.434681  -0.000096   0.025785  -0.003737
 190   7   1.399764   3.156927   7.466015  -0.000091   0.025785  -0.003512
 191   1   2.246235   2.739017   7.476085  -0.000055   0.028504  -0.001940
 192   2   2.713248   2.889370   7.553260  -0.000088   0.028504  -0.003101
 193   8   2.973086   2.761505   7.645146  -0.000100   0.028504  -0.003507
 194   1   3.228393  -0.066049   6.092368  -0.000089   0.028504  -0.003132
 195   2   3.708174   0.047840   6.151555  -0.000095   0.028504  -0.003319
 196   8   3.879054   0.174039   6.368769  -0.000166   0.028504  -0.005835
 197   2   2.527173   3.106046   7.545434  -0.000047   0.045402  -0.001030
 198   1   1.865395   2.842014   7.499424  -0.000017   0.045402  -0.000371
 199   2   3.663882  -0.139847   5.941603  -0.000092   0.067925  -0.001357
 200   1   3.004327  -0.393175   5.822048  -0.000048   0.067925  -0.000709
 201   1   1.869956  -0.632934   1.398194   0.000043   0.065249   0.000664
 202   3   2.652645  -0.605353   1.116403   0.000048   0.065249   0.000741
 203   6   1.817302  -0.838464   1.616233  -0.000175   0.065249  -0.002683
 204   1   1.928614   1.152933  -0.012140   0.000102   0.065354   0.001568
 205   3   2.654742   1.081067  -0.412570   0.000081   0.065354   0.001237
 206  10   2.717606   1.304887  -0.609484  -0.000133   0.065354  -0.002034
 207   3   2.805950  -0.037140   0.281910   0.000834   0.559200   0.001492
 208   1   1.634411   0.336838   0.526962   0.000902   0.559200   0.001613
 209   1   0.336639   5.649687   2.195961   0.000277   0.058243   0.004759
 210   4   0.972296   6.169580   2.289710   0.000983   0.058243   0.016870
 211   5   0.260160   5.510998   1.936480   0.000016   0.058243   0.000277
 212   1   0.409755   6.196854   3.771105   0.000161   0.075651   0.002126
 213   4   0.950220   6.823406   3.782788   0.000211   0.075651   0.002793
 214  12   0.925737   6.898358   4.096980  -0.000336   0.075651  -0.004447
 215   4   1.050289   6.728142   2.859147   0.003465   0.344861   0.010049
 216   1   0.137607   5.949070   3.053312   0.001224   0.380964   0.003212
 217   1   1.397754   1.383903   0.032409  -0.000028   0.088498  -0.000315
 218   5   1.231645   1.621433  -0.066184  -0.000115   0.088498  -0.001301
 219  10   2.256191   1.600906  -0.433512   0.000029   0.088498   0.000324
 220   5   0.500888   1.447366   0.032141  -0.000111   0.068210  -0.001622
 221   5  -0.508792   1.307340   0.444351  -0.000276   0.150995  -0.001830
 222   5  -1.556662   1.796650   1.101577  -0.000351   0.150995  -0.002321
 223   5  -2.015280   2.888876   1.706654  -0.000385   0.150995  -0.002548
 224   5  -1.699723   4.143618   2.015604  -0.000289   0.150995  -0.001914
 225   5  -0.737230   5.054948   1.903857  -0.000310   0.150995  -0.002056
 226   1   0.267050   1.020107   0.373106   0.000000   0.149950   0.000001
 227   1  -1.073233   1.125796   1.025690  -0.000038   0.149950  -0.000250
 228   1  -1.965670   2.062690   1.773473  -0.000156   0.149950  -0.001038
 229   1  -2.050418   3.453024   2.314938  -0.000077   0.149950  -0.000515
 230   1  -1.293307   4.736195   2.431761  -0.000015   0.149950  -0.000100
 231   1  -0.297994   5.395513   2.213865  -0.000023   0.083333  -0.000280
 232   6   2.313512  -0.967515   5.576308  -0.000185   0.066965  -0.002755
 233   6   1.301170  -0.892840   5.950326  -0.000416   0.147758  -0.002815
 234   6   0.012215  -0.821887   5.729118  -0.000387   0.147758  -0.002617
 235   6  -0.895790  -0.799155   4.785518  -0.000418   0.147758  -0.002826
 236   6  -1.068562  -0.833514   3.487695  -0.000440   0.147758  -0.002975
 237   6  -0.438689  -0.911558   2.342033  -0.000328   0.147758  -0.002217
 238   6   0.748067  -1.002835   1.795543  -0.000461   0.147758  -0.003121
 239   1   2.068825  -0.603396   5.970194  -0.000405   0.147674  -0.002740
 240   1   0.616394  -0.507327   6.186816  -0.000139   0.147674  -0.000944
 241   1  -0.682879  -0.451922   5.497954  -0.000146   0.147674  -0.000990
 242   1  -1.322046  -0.458798   4.172386  -0.000235   0.147674  -0.001589
 243   1  -1.051718  -0.525273   2.727320  -0.000193   0.147674  -0.001307
 244   1   0.022628  -0.625409   1.726589  -0.000035   0.147674  -0.000237
 245   1   1.180494  -0.705726   1.446019  -0.000015   0.081813  -0.000182
 246   1  -0.217095   5.684057   4.845150  -0.000189   0.080069  -0.002365
 247   7  -0.321585   5.584822   5.114742  -0.000312   0.080069  -0.003898
 248  12   0.428886   6.304114   5.092519  -0.000950   0.080069  -0.011868
 249   7  -0.970294   5.257612   5.033377  -0.000178   0.068175  -0.002616
 250   7  -1.764638   4.532628   4.808406  -0.000308   0.150886  -0.002039
 251   7  -2.311090   3.335863   4.998371  -0.000403   0.150886  -0.002669
 252   7  -2.165982   2.196525   5.667545  -0.000447   0.150886  -0.002965
 253   7  -1.387722   1.573197   6.546588  -0.000359   0.150886  -0.002378
 254   7  -0.289559   1.716769   7.281684  -0.000370   0.150886  -0.002450
 255   7   0.686497   2.569453   7.576957  -0.000571   0.150886  -0.003785
 256   1  -1.193605   5.060809   4.518844  -0.000080   0.149907  -0.000535
 257   1  -2.120330   3.894337   4.414745  -0.000055   0.149907  -0.000365
 258   1  -2.358062   2.510568   4.923648  -0.000210   0.149907  -0.001401
 259   1  -1.811114   1.466470   5.840720  -0.000198   0.149907  -0.001319
 260   1  -0.699633   1.182291   6.796839  -0.000109   0.149907  -0.000727
 261   1   0.529012   1.772413   7.407169  -0.000255   0.149907  -0.001700
 262   1   1.308031   2.694502   7.523550  -0.000177   0.083291  -0.002129
 263   8   3.158572   2.301646   7.720466  -0.000703   0.219273  -0.003206
 264   8   3.595111   0.904514   7.122836  -0.002481   0.452250  -0.005486
 265   1   2.244044   1.558082   7.302610  -0.000326   0.597570  -0.000546
 266   1   2.815040   0.064249   6.482321   0.000063   0.308962   0.000203
 267  10   2.698739   1.405250  -0.829422   0.000006   0.030343   0.000208
 268   1   1.460919   1.146145  -0.066861   0.000171   0.043111   0.003965
 269  12   0.765248   6.949286   4.582478  -0.001946   0.238889  -0.008147
 270   1  -0.155454   5.949787   4.321494   0.000188   0.337065   0.000559
 271   2   7.348090   2.686361   5.531539  -0.000055   0.028833  -0.001911
 272   3   7.595177   2.499649   5.144547  -0.000011   0.028833  -0.000373
 273   8   7.230307   2.574807   5.788446  -0.000077   0.028833  -0.002683
 274   2   5.390022  -0.043836   5.412892  -0.000126   0.028833  -0.004368
 275   3   5.662010  -0.195829   5.027408  -0.000086   0.028833  -0.002978
 276   8   5.447120   0.088451   5.680395  -0.000139   0.028833  -0.004818
 277   2   5.293587  -0.378119   4.902021  -0.000108   0.027038  -0.003977
 278   3   5.582431  -0.597045   4.563990  -0.000086   0.027038  -0.003182
 279   9   5.564827  -0.819659   4.359740  -0.000093   0.027038  -0.003445
 280   2   7.670606   3.003541   5.006567  -0.000016   0.025678  -0.000638
 281   3   7.985228   2.820788   4.670113  -0.000034   0.025678  -0.001316
 282  11   8.198003   2.909636   4.474416  -0.000071   0.025678  -0.002760
 283   3   7.894326   2.659723   4.846140   0.000046   0.056585   0.000804
 284   2   7.478175   2.862893   5.389237   0.000016   0.056585   0.000290
 285   3   5.707874  -0.463194   4.751645  -0.000016   0.039092  -0.000398
 286   2   5.267161  -0.218948   5.254728  -0.000070   0.039092  -0.001795
 287   2   5.721253   4.745557   6.888034   0.000025   0.005620   0.004408
 288   4   5.681649   5.195383   6.750003   0.000067   0.005620   0.011851
 289   8   5.731576   4.478908   7.032186  -0.000015   0.005620  -0.002628
 290   2   7.389583   4.568720   4.705024   0.000554   0.097588   0.005674
 291   4   7.296270   5.029372   4.636309   0.001216   0.097588   0.012457
 292  11   7.859549   4.342026   4.158328   0.000225   0.097588   0.002310
 293   4   6.065253   5.520490   6.405879   0.001687   0.179797   0.009380
 294   4   6.948291   5.415071   5.333068   0.002609   0.179797   0.014511
 295   2   6.536040   4.800154   5.959168   0.002558   0.386214   0.006624
 296   2   4.042473  -0.638846   4.732002  -0.000692   0.167042  -0.004142
 297   6   3.369821  -0.956422   4.583114  -0.000671   0.167042  -0.004019
 298   9   4.373118  -1.006767   4.162480  -0.000735   0.167042  -0.004399
 299   6   2.838413  -1.031722   5.088236  -0.000471   0.128029  -0.003680
 300   2   3.758810  -0.474436   5.429432  -0.000204   0.180477  -0.001129
 301   2   2.294505   4.345259   7.240653  -0.001415   0.147295  -0.009609
 302   7   1.542743   4.238420   7.211678  -0.001137   0.147295  -0.007722
 303  12   2.241382   5.012503   7.204985  -0.002741   0.147295  -0.018608
 304   7   1.213840   3.483791   7.488133  -0.000538   0.149432  -0.003599
 305   2   2.321190   3.728213   7.473309  -0.000331   0.210577  -0.001570
 306   2   3.890504   4.480154   7.518118  -0.000194   0.020274  -0.009553
 307   8   4.061648   4.242990   7.597993  -0.000175   0.020274  -0.008614
 308  12   3.732199   5.121705   7.441208  -0.000415   0.020274  -0.020476
 309   8   3.996145   3.693794   7.819258  -0.000326   0.071005  -0.004594
 310   8   3.425135   3.015485   7.825408  -0.000254   0.071005  -0.003583
 311   2   3.425914   3.592687   7.641516  -0.000775   0.154986  -0.005002
 312   8   4.635484   0.182265   6.335784  -0.000677   0.126719  -0.005341
 313   2   4.720146   0.017771   5.860118  -0.000723   0.154815  -0.004669
 314   8   7.060230   2.886825   6.248882  -0.000239   0.080127  -0.002980
 315   8   6.386654   3.788954   6.844654  -0.000734   0.184160  -0.003985
 316   2   6.914451   3.504023   6.140586  -0.000550   0.170162  -0.003230
 317   2   6.070443   4.407426   6.808629  -0.000028   0.097892  -0.000286
 318   9   5.303689  -1.074502   4.196695  -0.000569   0.160894  -0.003534
 319   2   4.716024  -0.530804   4.988780  -0.000338   0.226804  -0.001491
 320  11   8.317971   3.635725   4.165249  -0.000667   0.255271  -0.002614
 321   2   7.593026   3.634893   5.053683   0.000260   0.359301   0.000724
 322  12   2.933697   5.428045   7.472641  -0.003579   0.230368  -0.015538
 323   2   3.313937   4.531787   7.498375  -0.001837   0.281445  -0.006528
 324   3   5.218543   5.337938  -0.045888   0.000336   0.055065   0.006101
 325   4   4.933522   5.908595   0.453312   0.001028   0.055065   0.018664
 326  10   5.069125   5.192945  -0.267276   0.000038   0.055065   0.000692
 327   3   7.397242   5.378859   1.508223   0.000409   0.058549   0.006987
 328   4   7.010834   5.950060   1.933412   0.001138   0.058549   0.019433
 329  11   7.656007   5.250539   1.601471   0.000060   0.058549   0.001017
 330   4   6.513977   6.470719   1.660481   0.005075   0.315803   0.016069
 331   4   5.333856   6.451149   0.825500   0.005139   0.315803   0.016274
 332   3   6.342423   5.544406   0.672974   0.004125   0.692756   0.005955
 333   3   3.160520  -0.832629   1.040444  -0.000076   0.088481  -0.000860
 334   6   2.365444  -0.943186   1.637369  -0.000063   0.088481  -0.000713
 335   9   3.334302  -1.053335   1.161138  -0.000193   0.088481  -0.002180
 336   6   1.759533  -1.058036   1.680300  -0.000005   0.023332  -0.000228
 337   3   2.971559  -0.833776   0.867645   0.000133   0.033149   0.004024
 338   8   5.752135   0.256488   5.904830  -0.000566   0.166195  -0.003404
 339   8   6.649979   1.096551   6.006934  -0.001395   0.337758  -0.004130
 340   8   7.160190   2.219784   5.990150  -0.000431   0.166195  -0.002592
 341   3   6.548085   0.147394   5.023999  -0.000105   0.458519  -0.000230
 342   3   7.555532   1.552110   5.085044   0.000089   0.458519   0.000194
 343   9   3.862708  -1.221897   0.657265  -0.000151   0.066240  -0.002273
 344   9   4.752370  -1.249639   0.061517  -0.000328   0.145862  -0.002251
 345   9   6.046220  -1.257668  -0.032868  -0.000414   0.145862  -0.002840
 346   9   7.148412  -1.232520   0.650915  -0.000457   0.145862  -0.003135
 347   9   7.637603  -1.183807   1.851472  -0.000351   0.145862  -0.002403
 348   9   7.326789  -1.130152   3.109858  -0.000364   0.145862  -0.002493
 349   9   6.334784  -1.092066   3.945020  -0.000535   0.145862  -0.003670
 350   3   4.024105  -0.907096   0.189207  -0.000068   0.146359  -0.000464
 351   3   5.373916  -0.934372  -0.360736  -0.000107   0.146359  -0.000729
 352   3   6.789479  -0.924258  -0.012524  -0.000231   0.146359  -0.001578
 353   3   7.729656  -0.880621   1.100729  -0.000176   0.146359  -0.001202
 354   3   7.835039  -0.820143   2.553454  -0.000086   0.146359  -0.000587
 355   3   7.065344  -0.765943   3.790305  -0.000279   0.146359  -0.001904
 356   3   6.032938  -0.738601   4.365735  -0.000146   0.080926  -0.001807
 357  10   5.365157   4.881443  -0.800981  -0.000083   0.068285  -0.001212
 358  10   6.084699   4.207584  -1.289837  -0.000294   0.151178  -0.001942
 359  10   6.381197   3.004775  -1.776982  -0.000332   0.151178  -0.002194
 360  10   5.887900   1.782324  -1.962032  -0.000382   0.151178  -0.002526
 361  10   4.803976   1.033788  -1.770272  -0.000292   0.151178  -0.001930
 362  10   3.567050   1.061384  -1.279126  -0.000405   0.151178  -0.002681
 363   3   5.936062   4.759452  -0.686749  -0.000015   0.150103  -0.000101
 364   3   6.684356   3.633616  -1.326405  -0.000030   0.150103  -0.000202
 365   3   6.567766   2.196804  -1.724638  -0.000162   0.150103  -0.001077
 366   3   5.633363   1.029120  -1.720663  -0.000151   0.150103  -0.001003
 367   3   4.258407   0.602008  -1.316085   0.000002   0.150103   0.000013
 368   3   3.180295   0.854913  -0.817324   0.000045   0.083426   0.000539
 369  11   8.586469   2.621531   4.232859  -0.000145   0.069601  -0.002088
 370  11   8.936972   1.711651   3.676789  -0.000384   0.154847  -0.002482
 371  11   9.236154   1.118173   2.494267  -0.000282   0.154847  -0.001821
 372  11   9.273496   1.351560   1.158519  -0.000396   0.154847  -0.002556
 373  11   9.033255   2.313420   0.232671  -0.000422   0.154847  -0.002725
 374  11   8.616713   3.598252   0.107041  -0.000295   0.154847  -0.001904
 375  11   8.199475   4.664398   0.834593  -0.000318   0.154847  -0.002055
 376   3   8.422889   2.044665   4.254814  -0.000305   0.152264  -0.002005
 377   3   8.858792   0.997402   3.237439  -0.000027   0.152264  -0.000176
 378   3   9.058624   0.783575   1.742057  -0.000039   0.152264  -0.000257
 379   3   8.938141   1.493329   0.399091  -0.000182   0.152264  -0.001197
 380   3   8.548134   2.827444  -0.225291  -0.000149   0.152264  -0.000981
 381   3   8.053024   4.223486   0.132139  -0.000020   0.152264  -0.000131
 382   3   7.705617   5.045634   0.991282   0.000132   0.085033   0.001551
 383   4   2.654686   5.309808   0.718121   0.003572   0.295169   0.012100
 384   5   1.894033   4.638103   0.474778   0.000048   0.295169   0.000164
 385  10   2.898328   4.573131   0.031788  -0.000025   0.295169  -0.000084
 386   5   0.356961   5.475445   1.441328   0.000210   0.301935   0.000696
 387   5   1.087765   5.043922   0.647581  -0.000070   0.301935  -0.000231
 388   4   1.760266   6.230999   1.471994   0.010376   0.745476   0.013918
 389   4   5.009260   5.536946   6.991082  -0.000138   0.064242  -0.002146
 390   8   5.056238   4.791633   7.184394  -0.000208   0.064242  -0.003242
 391  12   4.745573   5.687554   7.101322  -0.000546   0.064242  -0.008497
 392   8   5.583063   4.397331   7.261044  -0.000128   0.130795  -0.000978
 393   4   5.404293   5.460331   6.943141   0.000512   0.159591   0.003208
 394  10   3.589332   4.871519  -0.465321  -0.000112   0.284800  -0.000395
 395  10   4.651087   5.178966  -0.513846   0.000256   0.284800   0.000897
 396   4   3.858948   6.083994   0.501959   0.009246   0.702905   0.013155
 397  11   8.021026   5.259192   1.925020   0.000296   0.279117   0.001059
 398  11   8.280602   4.778062   3.234999  -0.000222   0.563122  -0.000393
 399   4   7.312267   6.169574   2.960591   0.010114   0.687577   0.014709
 400   4   7.487376   5.541005   4.364224   0.004024   0.346905   0.011598
 401  12   4.761222   6.382820   7.105291  -0.000504   0.080304  -0.006273
 402  12   4.877560   7.470343   6.623278  -0.001489   0.173305  -0.008589
 403  12   4.376968   8.521179   5.756408  -0.001797   0.173305  -0.010370
 404  12   3.289725   8.875948   4.862901  -0.001922   0.173305  -0.011092
 405  12   2.043942   8.394955   4.294584  -0.001724   0.173305  -0.009946
 406  12   1.215258   7.539871   4.191183  -0.000502   0.080304  -0.006247
 407   4   5.202781   6.647126   6.719081  -0.000370   0.172548  -0.002147
 408   4   5.078894   8.005516   5.940865  -0.000555   0.172548  -0.003216
 409   4   4.174140   8.806434   4.937797  -0.001102   0.172548  -0.006386
 410   4   2.844776   8.734511   4.104845  -0.001067   0.172548  -0.006184
 411   4   1.614249   7.818068   3.769991  -0.000670   0.172548  -0.003884
 412  10   2.499634   1.843534  -1.026895   0.000052   0.280166   0.000186
 413  10   2.534786   3.073245  -1.130733  -0.001070   0.560320  -0.001910
 414  10   2.794518   4.204209  -0.709227  -0.000281   0.280166  -0.001001
 415   5   1.075755   2.406442  -0.473639  -0.000594   0.560320  -0.001059
 416   5   1.259588   3.878100  -0.275603  -0.001024   0.560320  -0.001828
 417   9   4.463336  -1.556183   3.847464  -0.000309   0.248248  -0.001245
 418   9   4.044241  -1.935999   2.893875  -0.001254   0.496333  -0.002527
 419   9   3.541908  -1.671124   1.665595  -0.000699   0.496333  -0.001409
 420   6   2.876412  -1.656838   4.093214  -0.001089   0.496333  -0.002195
 421   6   2.349881  -1.845263   2.860969  -0.001151   0.496333  -0.002319
 422   6   1.974488  -1.406413   1.914542  -0.000078   0.248248  -0.000314
 423  12   0.548096   6.758506   5.500741  -0.002198   0.230542  -0.009534
 424  12   0.891684   6.471810   6.474384  -0.005812   0.460991  -0.012607
 425  12   1.692314   5.766609   7.235913  -0.005903   0.460991  -0.012806
 426   7  -0.334722   5.563977   5.909754  -0.001441   0.460991  -0.003125
 427   7   0.251349   5.060113   6.968472  -0.001946   0.460991  -0.004221
 428   7   0.982394   4.409836   7.405440  -0.000606   0.230542  -0.002629
 429  12   4.076318   5.573020   7.482257  -0.002933   0.350321  -0.008373
 430   8   4.749189   4.378467   7.597109  -0.000726   0.350321  -0.002074
 =====================================================

              1471849  WORDS OF DYNAMIC MEMORY USED
 EXECUTION OF GAMESS TERMINATED NORMALLY Thu Nov 24 11:46:50 2016
 DDI: 263640 bytes (0.3 MB / 0 MWords) used by master data server.

 ----------------------------------------
 CPU timing information for all processes
 ========================================
 0: 264.380 + 0.168 = 264.548
 ----------------------------------------
 ddikick.x: exited gracefully.
