----- GAMESS execution script -----

          ******************************************************
          *         GAMESS VERSION =  5 DEC 2014 (R1)          *
          *             FROM IOWA STATE UNIVERSITY             *
          * M.W.SCHMIDT, K.K.BALDRIDGE, J.A.BOATZ, S.T.ELBERT, *
          *   M.S.GORDON, J.H.JENSEN, S.KOSEKI, N.MATSUNAGA,   *
          *          K.A.NGUYEN, S.J.SU, T.L.WINDUS,           *
          *       TOGETHER WITH M.DUPUIS, J.A.MONTGOMERY       *
          *         J.COMPUT.CHEM.  14, 1347-1363(1993)        *
          **************** 64 BIT LINUX VERSION ****************

 EXECUTION OF GAMESS BEGUN Thu Nov 24 09:52:52 2016

            ECHO OF THE FIRST FEW INPUT CARDS -
 INPUT CARD>! SELECT RESTRICTED HARTREE-FOCK AS DEFAULT                                     
 INPUT CARD>$contrl scftyp=rhf $end                                                         
 INPUT CARD>                                                                                
 INPUT CARD>! THEORY: HF OR DFT                                                             
 INPUT CARD> $contrl mplevl=0 $end                                                          
 INPUT CARD>                                                                                
 INPUT CARD> $system timlim=10000 mwords=20 $end                                            
 INPUT CARD> $SCF DIRSCF=.TRUE. $end                                                        
 INPUT CARD>                                                                                
 INPUT CARD>                                                                                
 INPUT CARD>! BASIS SETS                                                                    
 INPUT CARD>! 6-311G(d,p)                                                                   
 INPUT CARD> $BASIS GBASIS=N311 NGAUSS=6 NDFUNC=1 NPFUNC=1 $END                             
 INPUT CARD>                                                                                
 INPUT CARD>! One of the following                                                          
 INPUT CARD> $guess guess=HUCKEL $end                                                       
 INPUT CARD>                                                                                
 INPUT CARD> $statpt projct=.FALSE. $end                                                    
 INPUT CARD> $STATPT IFREEZ(1)=1,2,3 $END                                                   
 INPUT CARD>                                                                                
 INPUT CARD>! Optimize the geometry with COSMO effects                                      
 INPUT CARD> $statpt opttol=0.0005 nstep=50 $end                                            
 INPUT CARD> $contrl nzvar=1 $end                                                           
 INPUT CARD> $zmat dlc=.t. auto=.t. $end                                                    
 INPUT CARD> $contrl runtyp=OPTIMIZE maxit=200 $end                                         
 INPUT CARD>                                                                                
 INPUT CARD>! Run COSMO on perfect conductor                                                
 INPUT CARD> $COSGMS PRFCND=.TRUE. $end                                                     
 INPUT CARD>                                                                                
 INPUT CARD>! Specifying RSOLV                                                              
 INPUT CARD> $COSGMS COSRAD = 1.4 $end                                                      
 INPUT CARD>                                                                                
 INPUT CARD>! available memory                                                              
 INPUT CARD> $SYSTEM MWORDS=40 $END                                                         
 INPUT CARD>                                                                                
 INPUT CARD> $DATA                                                                          
 INPUT CARD>1-Butanol, 3-methyl-, acetate, ID: C123922                                      
 INPUT CARD>C1                                                                              
 INPUT CARD>C      6.0      1.9886000000    2.1289000000    2.3776000000                    
 INPUT CARD>C      6.0      3.3611000000    2.4338000000    1.7741000000                    
 INPUT CARD>C      6.0      1.4927000000    0.7655000000    1.9212000000                    
 INPUT CARD>C      6.0      0.9936000000    3.2118000000    1.9974000000                    
 INPUT CARD>C      6.0      4.4060000000    1.4638000000    2.3209000000                    
 INPUT CARD>O      8.0      5.5977000000    1.6772000000    1.5641000000                    
 INPUT CARD>C      6.0      6.6924000000    0.9150000000    1.8498000000                    
 INPUT CARD>O      8.0      6.6246000000    0.0719000000    2.7231000000                    
 INPUT CARD>C      6.0      7.8815000000    1.2579000000    0.9981000000                    
 INPUT CARD>H      1.0      2.0893000000    2.1162000000    3.4911000000                    
 INPUT CARD>H      1.0      3.3070000000    2.3730000000    0.6683000000                    
 INPUT CARD>H      1.0      3.6496000000    3.4791000000    2.0013000000                    
   40000000 WORDS OF MEMORY AVAILABLE

     BASIS OPTIONS
     -------------
     GBASIS=N311         IGAUSS=       6      POLAR=POPN311 
     NDFUNC=       1     NFFUNC=       0     DIFFSP=       F
     NPFUNC=       1      DIFFS=       F     BASNAM=        


     RUN TITLE
     ---------
 1-Butanol, 3-methyl-, acetate, ID: C123922                                      

 THE POINT GROUP OF THE MOLECULE IS C1      
 THE ORDER OF THE PRINCIPAL AXIS IS     0

 ATOM      ATOMIC                      COORDINATES (BOHR)
           CHARGE         X                   Y                   Z
 C           6.0     3.7579090992        4.0230376553        4.4930125084
 C           6.0     6.3515580173        4.5992151089        3.3525628748
 C           6.0     2.8207939819        1.4465852436        3.6305415676
 C           6.0     1.8776317414        6.0694219274        3.7745386879
 C           6.0     8.3261327019        2.7661809008        4.3858650449
 O           8.0    10.5781191615        3.1694484266        2.9557204174
 C           6.0    12.6468022002        1.7290992788        3.4956151321
 O           8.0    12.5186787783        0.1358712985        5.1459128372
 C           6.0    14.8938753722        2.3770863200        1.8861355083
 H           1.0     3.9482045061        3.9990381352        6.5972223957
 H           1.0     6.2493238414        4.4843197689        1.2629038776
 H           1.0     6.8967439648        6.5745456839        3.7819086192
 H           1.0     1.1277884695        0.8641716942        4.6738592854
 H           1.0     4.2910008003        0.0000000000        3.9315749175
 H           1.0     2.3457168686        1.4390263397        1.6104244867
 H           1.0     1.6691949650        6.2283478829        1.7154932517
 H           1.0     2.4672262496        7.9274005185        4.4846977141
 H           1.0     0.0000000000        5.6676661824        4.5593418906
 H           1.0     7.6630278528        0.7814016959        4.1742157343
 H           1.0     8.7023771461        3.1002844555        6.4146748653
 H           1.0    14.3483114796        3.0471831552        0.0000000000
 H           1.0    16.0027665818        3.8780956720        2.7939598728
 H           1.0    16.1303230860        0.7290562861        1.6478410613

          INTERNUCLEAR DISTANCES (ANGS.)




     $CONTRL OPTIONS
     ---------------
 SCFTYP=RHF          RUNTYP=OPTIMIZE     EXETYP=RUN     
 MPLEVL=       0     CITYP =NONE         CCTYP =NONE         VBTYP =NONE    
 DFTTYP=NONE         TDDFT =NONE    
 MULT  =       1     ICHARG=       0     NZVAR =       1     COORD =UNIQUE  
 PP    =NONE         RELWFN=NONE         LOCAL =NONE         NUMGRD=       F
 ISPHER=      -1     NOSYM =       0     MAXIT =     200     UNITS =ANGS    
 PLTORB=       F     MOLPLT=       F     AIMPAC=       F     FRIEND=        
 NPRINT=       7     IREST =       0     GEOM  =INPUT   
 NORMF =       0     NORMP =       0     ITOL  =      20     ICUT  =       9
 INTTYP=BEST         GRDTYP=BEST         QMTTOL= 1.0E-06

     $SYSTEM OPTIONS
     ---------------
  REPLICATED MEMORY=    40000000 WORDS (ON EVERY NODE).
 DISTRIBUTED MEMDDI=           0 MILLION WORDS IN AGGREGATE,
 MEMDDI DISTRIBUTED OVER   1 PROCESSORS IS           0 WORDS/PROCESSOR.
 TOTAL MEMORY REQUESTED ON EACH PROCESSOR=    40000000 WORDS.
 TIMLIM=       10000.00 MINUTES, OR       6.9 DAYS.
 PARALL= F  BALTYP=  DLB     KDIAG=    0  COREFL= F
 MXSEQ2=     300 MXSEQ3=     150  mem10=         0

     $COSGMS OPTIONS
     ---------------
     EPSI  =   INFTY     NSPA  =      92     COSRAD=    1.40
     DISEX =   10.00     OUTCHG=DBLCAV       COSBUG=       F
     COSWRT=       F     DCOSMO=       F

     SYMMETRY COORDINATES WILL NOT BE USED FOR 
     THE COSMO CALCULATION, EVEN IF SPECIFIED:
         -- SWITCHING TO C1 POINT GROUP --


     DEFINITION OF CAVITY
     ---------------------------
     ATOM         COORDINATES           RADIUS 
     1    3.7579    4.0230    4.4930    2.0000
     2    6.3516    4.5992    3.3526    2.0000
     3    2.8208    1.4466    3.6305    2.0000
     4    1.8776    6.0694    3.7745    2.0000
     5    8.3261    2.7662    4.3859    2.0000
     6   10.5781    3.1694    2.9557    1.7200
     7   12.6468    1.7291    3.4956    2.0000
     8   12.5187    0.1359    5.1459    1.7200
     9   14.8939    2.3771    1.8861    2.0000
    10    3.9482    3.9990    6.5972    1.3000
    11    6.2493    4.4843    1.2629    1.3000
    12    6.8967    6.5745    3.7819    1.3000
    13    1.1278    0.8642    4.6739    1.3000
    14    4.2910    0.0000    3.9316    1.3000
    15    2.3457    1.4390    1.6104    1.3000
    16    1.6692    6.2283    1.7155    1.3000
    17    2.4672    7.9274    4.4847    1.3000
    18    0.0000    5.6677    4.5593    1.3000
    19    7.6630    0.7814    4.1742    1.3000
    20    8.7024    3.1003    6.4147    1.3000
    21   14.3483    3.0472    0.0000    1.3000
    22   16.0028    3.8781    2.7940    1.3000
    23   16.1303    0.7291    1.6478    1.3000

          ----------------
          PROPERTIES INPUT
          ----------------

     MOMENTS            FIELD           POTENTIAL          DENSITY
 IEMOM =       1   IEFLD =       0   IEPOT =       0   IEDEN =       0
 WHERE =COMASS     WHERE =NUCLEI     WHERE =NUCLEI     WHERE =NUCLEI  
 OUTPUT=BOTH       OUTPUT=BOTH       OUTPUT=BOTH       OUTPUT=BOTH    
 IEMINT=       0   IEFINT=       0                     IEDINT=       0
                                                       MORB  =       0
          EXTRAPOLATION IN EFFECT
          SOSCF IN EFFECT
 ORBITAL PRINTING OPTION: NPREO=     1   255     2     1

     -------------------------------
     INTEGRAL TRANSFORMATION OPTIONS
     -------------------------------
     NWORD  =            0
     CUTOFF = 1.0E-09     MPTRAN =       0
     DIRTRF =       T     AOINTS =DUP     

          ----------------------
          INTEGRAL INPUT OPTIONS
          ----------------------
 NOPK  =       1 NORDER=       0 SCHWRZ=       T


 -----------------------------------------------
  STATISTICS ON AUTOMATIC COORDINATE GENERATION 
 -----------------------------------------------
  NUMBER OF USER SPECIFIED BONDS                             0
  NUMBER OF BONDS                                           22
  NUMBER OF ANGLES                                          40
  NUMBER OF TORSIONS                                        47
  NUMBER OF EXTRA COORD.                                     0
  NUMBER OF EXTRA COORD. FOR CONSTRAINTS                     0
  NUMBER OF CONSTRAINED COORD.                               0

  TOTAL NUMBER OF PRIMITIVES                               109
 -----------------------------------------------

   --- ENCODED Z MATRIX ---
 COORD  TYPE   I   J   K   L   M   N
    1      1    1   2
    2      1    1   3
    3      1    1  10
    4      1    1   4
    5      1    2  11
    6      1    2   5
    7      1    2  12
    8      1    3  15
    9      1    3  13
   10      1    3  14
   11      1    4  16
   12      1    4  17
   13      1    4  18
   14      1    5   6
   15      1    5  20
   16      1    5  19
   17      1    6   7
   18      1    7   8
   19      1    7   9
   20      1    9  23
   21      1    9  22
   22      1    9  21
   23      2    1   2  11
   24      2    1   3  15
   25      2    1   4  18
   26      2    1   3  13
   27      2    1   2   5
   28      2    1   3  14
   29      2    1   4  16
   30      2    1   4  17
   31      2    1   2  12
   32      2    2   5  19
   33      2    2   1  10
   34      2    2   5   6
   35      2    2   5  20
   36      2    2   1   4
   37      2    2   1   3
   38      2    3   1   4
   39      2    3   1  10
   40      2    4   1  10
   41      2    5   6   7
   42      2    5   2  11
   43      2    5   2  12
   44      2    6   5  19
   45      2    6   5  20
   46      2    6   7   9
   47      2    6   7   8
   48      2    7   9  21
   49      2    7   9  22
   50      2    7   9  23
   51      2    8   7   9
   52      2   11   2  12
   53      2   13   3  14
   54      2   13   3  15
   55      2   14   3  15
   56      2   16   4  18
   57      2   16   4  17
   58      2   17   4  18
   59      2   19   5  20
   60      2   21   9  22
   61      2   21   9  23
   62      2   22   9  23
   63      3    1   2   5  19
   64      3    1   2   5  20
   65      3    1   2   5   6
   66      3    2   1   4  18
   67      3    2   1   4  17
   68      3    2   1   4  16
   69      3    2   1   3  13
   70      3    2   5   6   7
   71      3    2   1   3  14
   72      3    2   1   3  15
   73      3    3   1   2  12
   74      3    3   1   2   5
   75      3    3   1   4  17
   76      3    3   1   4  16
   77      3    3   1   2  11
   78      3    3   1   4  18
   79      3    4   1   2  12
   80      3    4   1   2   5
   81      3    4   1   2  11
   82      3    4   1   3  13
   83      3    4   1   3  15
   84      3    4   1   3  14
   85      3    5   2   1  10
   86      3    5   6   7   9
   87      3    5   6   7   8
   88      3    6   7   9  21
   89      3    6   7   9  22
   90      3    6   7   9  23
   91      3    6   5   2  12
   92      3    6   5   2  11
   93      3    7   6   5  19
   94      3    7   6   5  20
   95      3    8   7   9  23
   96      3    8   7   9  22
   97      3    8   7   9  21
   98      3   10   1   2  12
   99      3   10   1   4  17
  100      3   10   1   4  16
  101      3   10   1   3  13
  102      3   10   1   3  15
  103      3   10   1   3  14
  104      3   10   1   4  18
  105      3   10   1   2  11
  106      3   11   2   5  20
  107      3   11   2   5  19
  108      3   12   2   5  20
  109      3   12   2   5  19

          INDEP./SYM. INTERNAL COORDINATES
          --------------------------------
 CRD  1=  -0.1118 ( 23)  0.4252 ( 27) -0.1403 ( 31)  0.1263 ( 32) -0.4573 ( 34)
           0.1002 ( 35) -0.1679 ( 36)  0.1333 ( 37)  0.5070 ( 41) -0.1385 ( 42)
          -0.1316 ( 43)  0.1591 ( 44)  0.1359 ( 45) -0.2290 ( 46)  0.1390 ( 47)
 CRD  2=   0.1942 (  1)  0.1068 (  6)  0.1452 ( 14)  0.1165 ( 17)  0.2477 ( 27)
          -0.1823 ( 31)  0.2112 ( 34) -0.1020 ( 35) -0.1320 ( 36)  0.3189 ( 37)
          -0.1216 ( 38) -0.1575 ( 41) -0.1867 ( 45)  0.2379 ( 46) -0.1158 ( 47)
          -0.1225 ( 51)  0.1173 ( 63)  0.1365 ( 64)  0.2895 ( 65)  0.1345 ( 66)
           0.1268 ( 67)  0.1235 ( 68) -0.1575 ( 70) -0.1221 ( 74) -0.1041 ( 75)
          -0.1074 ( 76)  0.2488 ( 86)  0.1613 ( 87)  0.1622 ( 91)  0.1288 ( 92)
 CRD  3=   0.1911 (  1)  0.2018 (  6)  0.2031 ( 14)  0.1722 ( 17)  0.1280 ( 19)
          -0.1984 ( 23)  0.2828 ( 27)  0.1169 ( 34)  0.1283 ( 36) -0.1261 ( 38)
          -0.1647 ( 43) -0.1611 ( 44)  0.1847 ( 46)  0.1359 ( 49) -0.1282 ( 51)
          -0.1102 ( 63) -0.1999 ( 65) -0.1220 ( 70) -0.1246 ( 73) -0.1374 ( 74)
          -0.3917 ( 86) -0.3368 ( 87) -0.1065 ( 91) -0.1409 ( 92) -0.1254 ( 94)
 CRD  4=   0.1583 (  1)  0.1136 (  4)  0.1708 (  6)  0.1986 ( 14)  0.1733 ( 17)
           0.1269 ( 19)  0.1264 ( 30) -0.2128 ( 32)  0.1834 ( 35)  0.1155 ( 36)
          -0.1027 ( 38)  0.1857 ( 41) -0.1682 ( 42)  0.1152 ( 43)  0.1313 ( 46)
          -0.1130 ( 51) -0.1163 ( 65)  0.4179 ( 70)  0.2010 ( 74)  0.1013 ( 79)
           0.2759 ( 80)  0.1190 ( 81)  0.1703 ( 85)  0.1510 ( 86)  0.2295 ( 87)
           0.1129 ( 89)  0.1974 ( 93)  0.1755 ( 94)
 CRD  5=   0.1744 (  6)  0.1449 ( 17)  0.1239 ( 23) -0.1096 ( 25) -0.2447 ( 27)
          -0.1317 ( 33) -0.1130 ( 35)  0.3385 ( 36) -0.1957 ( 38)  0.1277 ( 39)
           0.4416 ( 41)  0.1052 ( 42) -0.2372 ( 46)  0.2187 ( 47)  0.1119 ( 50)
           0.1562 ( 65) -0.1254 ( 69) -0.1679 ( 70) -0.1444 ( 71) -0.1466 ( 72)
          -0.1201 ( 74)  0.1183 ( 82)  0.1300 ( 86)
 CRD  6=   0.2094 (  4)  0.1829 ( 14)  0.1759 ( 17)  0.1353 ( 19)  0.1486 ( 25)
           0.1425 ( 26) -0.1766 ( 28)  0.1130 ( 29) -0.1113 ( 30)  0.1654 ( 33)
          -0.1212 ( 36) -0.2993 ( 37)  0.4608 ( 38) -0.1433 ( 40)  0.2027 ( 41)
           0.1208 ( 46) -0.1147 ( 51) -0.1108 ( 68) -0.1181 ( 70)  0.1332 ( 73)
           0.1416 ( 74)  0.1614 ( 77)  0.1200 ( 78) -0.1639 ( 79) -0.1555 ( 80)
          -0.1357 ( 81)  0.1040 ( 86)
 CRD  7=  -0.2206 (  2)  0.1786 (  4) -0.1197 ( 14) -0.2037 ( 17) -0.1174 ( 24)
           0.2790 ( 27)  0.1063 ( 30)  0.1923 ( 32) -0.2283 ( 34)  0.1013 ( 35)
           0.2824 ( 36) -0.2785 ( 37)  0.1257 ( 39) -0.1058 ( 40) -0.3227 ( 41)
          -0.1260 ( 42) -0.1165 ( 43) -0.1390 ( 47) -0.1109 ( 49) -0.1018 ( 66)
          -0.1179 ( 67)  0.1102 ( 76)  0.1042 ( 83)  0.1904 ( 86)  0.1019 ( 87)
          -0.1040 ( 90)  0.1066 ( 91)
 CRD  8=  -0.2492 (  1) -0.2154 (  2) -0.2624 (  4) -0.2285 (  6)  0.2016 ( 14)
           0.2547 ( 19) -0.1110 ( 24) -0.1861 ( 27) -0.1130 ( 29) -0.2646 ( 34)
           0.1575 ( 41)  0.1835 ( 44)  0.1692 ( 45)  0.3742 ( 46) -0.2180 ( 47)
           0.2393 ( 48) -0.1564 ( 51) -0.1397 ( 93)
 CRD  9=  -0.1905 (  1) -0.4128 (  2) -0.2457 (  4)  0.1169 (  6)  0.1061 ( 17)
          -0.1114 ( 23) -0.1948 ( 24)  0.1278 ( 27) -0.1276 ( 28) -0.2730 ( 29)
          -0.1325 ( 31)  0.2854 ( 34) -0.1098 ( 36) -0.1253 ( 44) -0.1185 ( 45)
          -0.1546 ( 46)  0.1416 ( 47)  0.1151 ( 50)  0.1069 ( 54)  0.1449 ( 55)
           0.1042 ( 57) -0.1257 ( 66) -0.1158 ( 70)  0.1009 ( 72)  0.1509 ( 80)
           0.1452 ( 81) -0.1045 ( 89) -0.1257 ( 94)
 CRD 10=   0.1398 (  2) -0.2189 (  4) -0.2264 ( 23) -0.2128 ( 24)  0.1767 ( 26)
           0.1447 ( 28) -0.1350 ( 30)  0.1300 ( 31)  0.1353 ( 39)  0.1765 ( 42)
          -0.1641 ( 43) -0.1254 ( 49) -0.1473 ( 63) -0.1306 ( 64) -0.1092 ( 65)
           0.1051 ( 69)  0.1882 ( 70) -0.1850 ( 73) -0.2631 ( 74) -0.1507 ( 77)
           0.1022 ( 78) -0.1133 ( 79) -0.1914 ( 80) -0.1201 ( 85)  0.2436 ( 86)
           0.2565 ( 87)  0.2075 ( 93)  0.2162 ( 94)
 CRD 11=   0.3228 (  2)  0.2369 (  4) -0.1081 (  6) -0.1242 ( 24)  0.1692 ( 25)
           0.1838 ( 26)  0.2083 ( 28) -0.3296 ( 29)  0.3541 ( 30)  0.1045 ( 31)
           0.1034 ( 40)  0.1244 ( 48) -0.2355 ( 49)  0.1226 ( 50) -0.1741 ( 53)
          -0.1995 ( 58) -0.1138 ( 70)  0.1107 ( 79)  0.1236 ( 80) -0.1037 ( 84)
           0.1004 ( 86) -0.1162 ( 88) -0.1566 ( 89) -0.1899 ( 90) -0.1279 ( 93)
 CRD 12=  -0.1146 ( 18) -0.4632 ( 19)  0.1146 ( 46)  0.3457 ( 47)  0.2068 ( 48)
          -0.1153 ( 49) -0.4865 ( 50) -0.4603 ( 51)  0.1485 ( 61)  0.2299 ( 62)
 CRD 13=   0.2186 (  1) -0.2325 (  4) -0.1163 (  6)  0.3240 ( 24) -0.2208 ( 25)
          -0.1526 ( 26) -0.1537 ( 28)  0.1123 ( 29)  0.1196 ( 31)  0.1038 ( 33)
           0.1910 ( 48) -0.3953 ( 49)  0.1393 ( 50)  0.1016 ( 53)  0.1265 ( 58)
          -0.1023 ( 61) -0.1056 ( 63) -0.1060 ( 64) -0.1640 ( 65) -0.1018 ( 67)
           0.1066 ( 71) -0.1414 ( 75)  0.1449 ( 84)  0.1034 ( 86) -0.1091 ( 88)
          -0.1563 ( 89) -0.2086 ( 90) -0.1006 ( 92)
 CRD 14=  -0.4655 (  1)  0.2050 (  4)  0.2343 (  6) -0.1230 (  9) -0.1622 ( 23)
           0.1392 ( 24) -0.4209 ( 26)  0.2793 ( 28)  0.1496 ( 29)  0.1150 ( 30)
           0.1449 ( 42) -0.1494 ( 49)  0.1202 ( 50)  0.1229 ( 54) -0.1728 ( 55)
          -0.1353 ( 57) -0.1234 ( 91)
 CRD 15=   0.2121 (  1) -0.2843 (  2)  0.2121 (  4) -0.1689 (  6) -0.1200 ( 12)
           0.1362 ( 13) -0.1768 ( 24)  0.4773 ( 25) -0.2778 ( 26)  0.2060 ( 28)
          -0.3463 ( 30)  0.1081 ( 31)  0.2130 ( 54) -0.2456 ( 56)  0.1109 ( 57)
 CRD 16=  -0.3135 (  6) -0.1130 (  8)  0.1074 ( 10) -0.3395 ( 24) -0.3487 ( 25)
           0.3419 ( 28)  0.3351 ( 29) -0.1743 ( 32)  0.1021 ( 33)  0.1173 ( 34)
          -0.1481 ( 42) -0.1544 ( 53)  0.1491 ( 54) -0.1760 ( 57)  0.1163 ( 59)
           0.1350 ( 69)  0.1108 ( 82) -0.1308 ( 93)
 CRD 17=  -0.2518 (  6) -0.1182 ( 23)  0.2786 ( 24) -0.3264 ( 26) -0.2729 ( 29)
           0.3046 ( 30)  0.1235 ( 31)  0.1067 ( 33) -0.1491 ( 35) -0.1015 ( 37)
          -0.1846 ( 43) -0.1851 ( 48)  0.2724 ( 49) -0.1203 ( 50)  0.1250 ( 53)
          -0.1223 ( 55)  0.1150 ( 56) -0.1400 ( 58)  0.1264 ( 61) -0.1415 ( 66)
          -0.1142 ( 67) -0.1038 ( 68)  0.1263 ( 87)  0.1078 ( 91)  0.1174 ( 94)
 CRD 18=  -0.1256 (  2)  0.1702 (  4) -0.2169 (  6) -0.1156 (  7)  0.1508 ( 26)
          -0.2635 ( 28)  0.1703 ( 30)  0.2227 ( 32) -0.3892 ( 35)  0.1092 ( 40)
          -0.2108 ( 44)  0.2611 ( 45) -0.1567 ( 49)  0.1250 ( 50)  0.1344 ( 55)
          -0.1259 ( 57)  0.1088 ( 64) -0.1106 ( 85) -0.1096 ( 91) -0.1058 ( 92)
           0.1853 ( 93)  0.3014 ( 94)
 CRD 19=   0.1498 (  1)  0.1206 (  6) -0.1334 ( 14)  0.2875 ( 18)  0.2436 ( 19)
          -0.1483 ( 20)  0.1284 ( 22) -0.1322 ( 24) -0.1298 ( 25)  0.1150 ( 30)
           0.1583 ( 32)  0.1015 ( 33) -0.1068 ( 35) -0.1002 ( 36) -0.1280 ( 39)
          -0.1260 ( 44) -0.1848 ( 46)  0.4087 ( 48)  0.1552 ( 49) -0.3152 ( 50)
           0.1676 ( 51) -0.2715 ( 60)  0.1228 ( 93)
 CRD 20=   0.1840 (  4)  0.1483 ( 11) -0.2358 ( 23)  0.1514 ( 26) -0.2502 ( 28)
           0.2619 ( 29)  0.2311 ( 31) -0.2296 ( 32)  0.1532 ( 35)  0.1194 ( 37)
           0.2041 ( 40)  0.1884 ( 42) -0.1940 ( 43)  0.1851 ( 44) -0.1561 ( 45)
           0.1306 ( 55) -0.1248 ( 56) -0.1355 ( 57) -0.1822 ( 63) -0.1636 ( 64)
           0.1360 ( 79)  0.1134 ( 81) -0.1285 ( 82) -0.1061 ( 83) -0.1121 ( 84)
          -0.1282 ( 85)  0.1025 ( 92) -0.1546 ( 93) -0.1035 ( 94)
 CRD 21=  -0.1918 (  1) -0.1530 (  5) -0.2653 (  6) -0.1635 (  7) -0.1389 ( 16)
           0.2289 ( 18)  0.1484 ( 19)  0.1113 ( 22)  0.1566 ( 24)  0.1174 ( 25)
           0.1848 ( 27) -0.1385 ( 31) -0.2618 ( 32) -0.1251 ( 33)  0.1925 ( 34)
           0.1149 ( 36)  0.1437 ( 39) -0.1364 ( 42) -0.1051 ( 45) -0.1632 ( 46)
           0.3421 ( 48) -0.1210 ( 50)  0.1001 ( 51)  0.1207 ( 52)  0.1389 ( 59)
          -0.1364 ( 60) -0.1098 ( 61)  0.1113 ( 75)  0.1052 ( 76)  0.1143 ( 78)
          -0.1277 ( 93)
 CRD 22=   0.1506 (  2) -0.2409 (  5)  0.1789 (  7) -0.1053 ( 12)  0.1024 ( 21)
           0.1068 ( 24)  0.1103 ( 29) -0.2274 ( 30)  0.2056 ( 32) -0.2321 ( 35)
          -0.1584 ( 44)  0.1335 ( 45) -0.1286 ( 48)  0.2935 ( 49) -0.1441 ( 50)
          -0.1056 ( 56)  0.1406 ( 61) -0.1115 ( 65) -0.1117 ( 70)  0.1745 ( 80)
           0.1547 ( 85)  0.2350 ( 86)  0.1633 ( 87) -0.1750 ( 88) -0.1699 ( 89)
          -0.1646 ( 90)
 CRD 23=  -0.1081 (  3) -0.1176 (  7)  0.2771 ( 15) -0.2724 ( 16)  0.1567 ( 23)
          -0.1514 ( 31) -0.1148 ( 32) -0.1489 ( 42)  0.1239 ( 43)  0.1569 ( 49)
           0.1126 ( 70) -0.1142 ( 73) -0.1332 ( 77) -0.1559 ( 79) -0.1750 ( 81)
           0.1693 ( 86) -0.2319 ( 88) -0.2435 ( 89) -0.2474 ( 90) -0.1901 ( 91)
          -0.1885 ( 92) -0.1394 ( 95) -0.1355 ( 96) -0.1239 ( 97) -0.1350 ( 98)
          -0.1540 (105)
 CRD 24=   0.6978 (  3)  0.1216 (  5) -0.1371 ( 10) -0.1284 ( 13)  0.1105 ( 16)
           0.1129 ( 23)  0.1449 ( 24)  0.1427 ( 29)  0.1510 ( 43) -0.1624 ( 66)
          -0.1305 ( 67) -0.1505 ( 68) -0.1888 ( 73) -0.1636 ( 77) -0.1003 ( 82)
          -0.1239 ( 83) -0.1378 ( 84) -0.1041 ( 98)
 CRD 25=  -0.2453 ( 14) -0.1738 ( 15)  0.1926 ( 17) -0.2770 ( 20) -0.3166 ( 21)
          -0.3659 ( 22)  0.1105 ( 32)  0.2147 ( 47)  0.1137 ( 48)  0.1670 ( 49)
           0.2651 ( 50) -0.2656 ( 51) -0.1248 ( 60) -0.2082 ( 61) -0.2439 ( 62)
 CRD 26=   0.1879 (  3)  0.1863 (  5)  0.2739 (  8)  0.1328 (  9)  0.1741 ( 10)
          -0.2881 ( 11) -0.2539 ( 12) -0.2189 ( 13) -0.1190 ( 16) -0.1388 ( 20)
          -0.1521 ( 21) -0.1708 ( 22)  0.1072 ( 25) -0.1014 ( 26) -0.1350 ( 28)
           0.1192 ( 29)  0.1456 ( 30)  0.1385 ( 53) -0.1186 ( 56) -0.1377 ( 57)
          -0.1415 ( 58) -0.1027 ( 62)  0.1086 ( 66)  0.1060 ( 68)  0.1671 ( 69)
           0.1499 ( 71)  0.1592 ( 72)  0.1122 ( 75)  0.1185 ( 76)  0.1211 ( 78)
           0.1102 ( 82)  0.1022 ( 83)  0.1025 (100)  0.1105 (101)  0.1026 (102)
           0.1051 (104)
 CRD 27=   0.1222 (  2)  0.1978 (  3)  0.1046 (  4)  0.3997 (  8)  0.3271 (  9)
           0.3665 ( 10)  0.3490 ( 11)  0.3128 ( 12)  0.2773 ( 13) -0.1182 ( 24)
          -0.1475 ( 25) -0.1691 ( 26) -0.1228 ( 28) -0.1105 ( 30)  0.1613 ( 53)
           0.1572 ( 54)  0.1173 ( 55)  0.1303 ( 56)  0.1025 ( 57)  0.1447 ( 58)
 CRD 28=  -0.1160 (  2)  0.2232 (  3)  0.1161 (  4)  0.3037 (  5) -0.1993 (  7)
          -0.2067 (  8) -0.2891 (  9) -0.2135 ( 10)  0.2553 ( 11)  0.2043 ( 12)
           0.2532 ( 13)  0.2571 ( 15) -0.1851 ( 16)  0.1307 ( 42)  0.1122 ( 81)
 CRD 29=  -0.1043 (  6) -0.2702 ( 14) -0.1645 ( 15) -0.2875 ( 16)  0.3013 ( 17)
           0.2465 ( 18)  0.2473 ( 19)  0.3454 ( 20)  0.3179 ( 21)  0.3131 ( 22)
           0.1454 ( 32) -0.1115 ( 34)  0.1594 ( 35)  0.1624 ( 47) -0.1201 ( 48)
          -0.2207 ( 51) -0.1255 ( 59)  0.1226 ( 60) -0.1028 ( 94)
 CRD 30=   0.4299 ( 20)  0.1598 ( 21) -0.5633 ( 22) -0.2824 ( 60) -0.1021 ( 61)
           0.3869 ( 62) -0.2541 ( 89)  0.1835 ( 90)  0.1784 ( 95) -0.2592 ( 96)
 CRD 31=   0.4164 ( 20) -0.5930 ( 21)  0.1567 ( 22) -0.2767 ( 60)  0.3794 ( 61)
          -0.1045 ( 62)  0.2644 ( 88) -0.1744 ( 90) -0.1646 ( 95)  0.2742 ( 97)
 CRD 32=   0.1081 (  2) -0.1863 (  4) -0.3401 (  7)  0.1832 (  9)  0.1228 ( 10)
          -0.2114 ( 12) -0.2781 ( 13)  0.2630 ( 15)  0.1044 ( 28) -0.1608 ( 43)
          -0.1051 ( 55)  0.1376 ( 63) -0.1689 ( 69) -0.1914 ( 71) -0.1205 ( 72)
           0.1754 ( 73)  0.1433 ( 77)  0.1480 ( 79)  0.1160 ( 81) -0.1372 ( 82)
          -0.1597 ( 84)  0.1884 ( 98) -0.1594 (101) -0.1109 (102) -0.1819 (103)
           0.1564 (105)  0.1119 (108)  0.1548 (109)
 CRD 33=  -0.1128 (  7) -0.5128 ( 15) -0.5659 ( 16) -0.2029 ( 17) -0.2473 ( 18)
          -0.1505 ( 20)  0.1736 ( 41) -0.1782 ( 47)  0.1409 ( 51) -0.2163 ( 59)
           0.1178 ( 64)  0.1243 ( 93) -0.1277 ( 94)  0.1165 (106)  0.1111 (108)
 CRD 34=  -0.1439 (  1)  0.1286 (  5) -0.2069 (  7) -0.2844 (  8)  0.2421 (  9)
           0.2527 ( 10) -0.2059 ( 11)  0.3152 ( 12)  0.1009 ( 25) -0.1053 ( 30)
          -0.1056 ( 38)  0.1294 ( 53) -0.1728 ( 54) -0.2273 ( 56)  0.1170 ( 57)
          -0.2282 ( 66) -0.1214 ( 67)  0.1847 ( 69) -0.1295 ( 75) -0.2364 ( 78)
           0.2124 ( 82) -0.1351 ( 99)  0.1954 (101) -0.2420 (104)
 CRD 35=   0.3316 (  8) -0.4182 ( 10)  0.4491 ( 12) -0.3560 ( 13) -0.1790 ( 53)
           0.2130 ( 54) -0.2284 ( 56)  0.1817 ( 57)  0.1544 ( 68) -0.1403 ( 69)
           0.1503 ( 76) -0.1317 ( 82)  0.1675 (100) -0.1320 (101)
 CRD 36=  -0.1207 (  8)  0.5186 (  9) -0.4021 ( 10) -0.2156 ( 11)  0.3496 ( 13)
           0.1966 ( 54) -0.2708 ( 55) -0.1738 ( 57)  0.1156 ( 58)  0.1080 ( 67)
          -0.1105 ( 71)  0.1859 ( 72)  0.1253 ( 75)  0.1686 ( 83) -0.1278 ( 84)
           0.1999 (102)
 CRD 37=   0.1912 (  7) -0.2994 (  8)  0.2875 (  9)  0.4532 ( 11) -0.3580 ( 13)
           0.1802 ( 53) -0.1686 ( 55)  0.1920 ( 57) -0.2579 ( 58)  0.1545 ( 66)
          -0.1136 ( 67)  0.1069 ( 68)  0.1082 ( 72) -0.1185 ( 75)  0.1020 ( 76)
           0.1496 ( 78)  0.1005 ( 82)  0.1110 ( 83) -0.1145 ( 99)  0.1061 (100)
           0.1058 (102)  0.1537 (104)
 CRD 38=   0.1373 (  1)  0.2715 (  7) -0.2852 (  8)  0.1815 ( 10) -0.2887 ( 11)
           0.3067 ( 12) -0.1259 ( 13)  0.1862 ( 53) -0.1054 ( 56)  0.1912 ( 58)
           0.1962 ( 67)  0.1649 ( 68) -0.1787 ( 71)  0.2342 ( 75)  0.2028 ( 76)
          -0.1436 ( 83) -0.2255 ( 84)  0.2249 ( 99)  0.1935 (100) -0.1168 (102)
          -0.1988 (103)
 CRD 39=  -0.1172 (  1)  0.6182 (  5)  0.4901 (  7) -0.1029 ( 43)  0.2530 ( 52)
           0.1456 ( 73)  0.1432 ( 79)  0.1140 ( 92)  0.1482 ( 98)  0.1422 (106)
           0.1242 (107)
 CRD 40=  -0.5451 ( 14) -0.2271 ( 17) -0.4464 ( 18)  0.1384 ( 19)  0.1168 ( 20)
           0.1601 ( 34)  0.3341 ( 41) -0.1722 ( 44) -0.1428 ( 45)  0.1863 ( 46)
          -0.1164 ( 47)  0.2230 ( 59)  0.1328 ( 63)  0.1448 (107)  0.1508 (109)
 CRD 41=   0.3401 (  5) -0.3417 (  7) -0.3044 ( 15)  0.3218 ( 16) -0.1281 ( 45)
          -0.1437 ( 63) -0.1729 ( 64)  0.1070 ( 73) -0.1456 ( 91) -0.1583 ( 92)
          -0.2891 (106) -0.2599 (107) -0.2764 (108) -0.2471 (109)
 CRD 42=   0.2499 ( 15) -0.2405 ( 16)  0.1520 ( 21)  0.1043 ( 61) -0.1174 ( 65)
          -0.2162 ( 70)  0.1809 ( 86)  0.2408 ( 88)  0.1849 ( 89)  0.1246 ( 90)
          -0.1487 ( 91) -0.1622 ( 92) -0.1647 ( 93) -0.1741 ( 94)  0.2932 ( 95)
           0.3534 ( 96)  0.4093 ( 97) -0.1386 (106) -0.1361 (107) -0.1250 (108)
          -0.1226 (109)
 CRD 43=   0.1535 ( 14) -0.3720 ( 17) -0.2422 ( 18)  0.2488 ( 20)  0.2101 ( 21)
           0.1879 ( 22) -0.2187 ( 41)  0.1014 ( 44)  0.1095 ( 45) -0.1708 ( 46)
           0.3961 ( 47)  0.1713 ( 48)  0.1922 ( 49)  0.2163 ( 50) -0.2253 ( 51)
          -0.1825 ( 60) -0.2072 ( 61) -0.2229 ( 62)  0.1129 (106) -0.1078 (109)
 CRD 44=  -0.1346 (  1)  0.1412 (  3) -0.1314 ( 11) -0.1022 ( 13)  0.2217 ( 14)
           0.1166 ( 15)  0.2153 ( 17) -0.4005 ( 18)  0.1982 ( 22)  0.1199 ( 23)
          -0.1106 ( 29)  0.1180 ( 31)  0.1463 ( 32)  0.1606 ( 35) -0.1367 ( 42)
          -0.1474 ( 43) -0.1223 ( 44) -0.1573 ( 45) -0.1585 ( 46)  0.1074 ( 48)
           0.1056 ( 51)  0.1225 ( 56)  0.1078 ( 57) -0.1058 ( 59) -0.1401 ( 60)
           0.1243 ( 73) -0.1110 ( 81)  0.1675 ( 93) -0.1376 ( 94)  0.1138 (101)
           0.1573 (102)  0.1574 (103) -0.1796 (105) -0.1076 (106)
 CRD 45=  -0.1341 (  2)  0.2234 (  4)  0.1216 (  6)  0.1158 (  9)  0.1750 ( 10)
          -0.2059 ( 11) -0.2161 ( 12) -0.1657 ( 13) -0.3003 ( 17)  0.2845 ( 18)
           0.1036 ( 20) -0.1194 ( 22) -0.1807 ( 25)  0.1071 ( 26)  0.1235 ( 28)
          -0.1960 ( 29) -0.1901 ( 30) -0.1147 ( 39)  0.1131 ( 40) -0.1093 ( 51)
          -0.1689 ( 53) -0.1126 ( 55)  0.1855 ( 56)  0.2242 ( 57)  0.1961 ( 58)
           0.1062 ( 60) -0.1497 ( 85) -0.1370 ( 98)  0.1173 (102)  0.1208 (103)
          -0.1590 (105)
 CRD 46=  -0.2981 (  2) -0.2278 (  3)  0.3146 (  8)  0.2092 (  9)  0.1797 ( 10)
           0.1514 ( 11)  0.1609 ( 17) -0.1447 ( 18)  0.2460 ( 24)  0.2236 ( 26)
           0.2163 ( 28)  0.1142 ( 33) -0.1834 ( 53) -0.2840 ( 54) -0.2608 ( 55)
          -0.1367 ( 56) -0.1238 ( 98)  0.1475 ( 99)  0.1501 (100) -0.1022 (105)
 CRD 47=   0.1266 (  1)  0.2238 (  4) -0.1401 ( 11) -0.1153 ( 12) -0.2597 ( 14)
           0.4464 ( 17) -0.2643 ( 18) -0.1447 ( 20)  0.1330 ( 22) -0.1432 ( 23)
          -0.1028 ( 25) -0.1121 ( 29) -0.1079 ( 30) -0.1503 ( 31) -0.1140 ( 32)
          -0.1568 ( 34) -0.1106 ( 35) -0.1666 ( 41)  0.1383 ( 42)  0.1214 ( 43)
           0.1628 ( 44)  0.1696 ( 45)  0.1081 ( 51)  0.1087 ( 56)  0.1458 ( 57)
           0.1026 ( 77) -0.1380 ( 93)  0.1346 ( 94)  0.1147 (106) -0.1323 (109)
 CRD 48=   0.1292 (  1)  0.1575 (  2) -0.3895 (  3)  0.2082 (  4)  0.2025 (  5)
           0.1396 (  8) -0.2299 (  9) -0.1239 ( 12) -0.2276 ( 13) -0.1199 ( 15)
          -0.1044 ( 25)  0.2221 ( 53)  0.2295 ( 58) -0.1037 ( 66)  0.1334 ( 69)
          -0.1322 ( 73)  0.1519 ( 75) -0.1685 ( 84)  0.1058 ( 91) -0.1186 (100)
           0.1721 (101)  0.1330 (102) -0.1470 (104)  0.1481 (108)  0.1798 (109)
 CRD 49=  -0.1226 (  3)  0.1214 (  7)  0.1079 ( 11)  0.2016 ( 15) -0.2778 ( 16)
           0.1439 ( 20) -0.3371 ( 21)  0.1940 ( 22) -0.1195 ( 35)  0.1290 ( 44)
           0.1010 ( 60) -0.2372 ( 61)  0.1353 ( 62) -0.1028 ( 66) -0.1619 ( 70)
           0.2146 ( 87)  0.2855 ( 90) -0.1656 ( 96) -0.3152 ( 97) -0.1155 (104)
          -0.1686 (106) -0.1647 (107)
 CRD 50=  -0.1586 ( 17) -0.2570 ( 18)  0.6542 ( 19) -0.1717 ( 20) -0.1887 ( 21)
          -0.1490 ( 22) -0.1294 ( 46)  0.2547 ( 47) -0.1885 ( 48) -0.1735 ( 49)
          -0.1793 ( 50) -0.1252 ( 51)  0.1889 ( 60)  0.1774 ( 61)  0.2062 ( 62)
 CRD 51=   0.2014 (  2)  0.2208 (  4) -0.3209 (  6) -0.1974 ( 10) -0.1884 ( 12)
           0.1603 ( 15) -0.1502 ( 19)  0.1335 ( 20)  0.1747 ( 32)  0.1635 ( 33)
           0.1041 ( 35)  0.1528 ( 41)  0.1103 ( 43)  0.1260 ( 55)  0.1453 ( 57)
          -0.1607 ( 59) -0.1189 ( 61)  0.1102 ( 92)  0.1269 ( 93) -0.1943 ( 94)
          -0.1003 ( 97)  0.1123 ( 99)  0.2254 (100) -0.2287 (102) -0.1331 (103)
 CRD 52=   0.2073 (  1) -0.3334 (  2)  0.1790 (  4) -0.2840 (  6)  0.1221 (  7)
           0.1483 (  8)  0.1851 ( 12) -0.2068 ( 13)  0.1161 ( 15)  0.1088 ( 35)
           0.1545 ( 39)  0.1394 ( 42) -0.1014 ( 54) -0.1014 ( 55)  0.2002 ( 56)
          -0.1427 ( 59) -0.1371 ( 68) -0.1495 ( 76)  0.1249 ( 85)  0.1368 ( 93)
           0.1596 ( 98) -0.1010 ( 99) -0.2841 (100)  0.2527 (105) -0.1330 (109)
 CRD 53=   0.2705 (  1)  0.1132 (  2) -0.2422 (  4) -0.1189 (  5) -0.1163 (  7)
          -0.1750 (  9)  0.2018 ( 10)  0.1460 ( 11) -0.2275 ( 14)  0.1468 ( 15)
           0.1457 ( 16) -0.1314 ( 31)  0.1061 ( 40)  0.1842 ( 52)  0.1859 ( 54)
          -0.2158 ( 59)  0.1421 ( 64) -0.1014 ( 69)  0.1383 ( 72)  0.1502 ( 83)
          -0.1094 ( 85) -0.1061 ( 91)  0.1333 ( 92)  0.1038 ( 93)  0.2491 (102)
          -0.1624 (105)  0.2466 (106) -0.2319 (109)
 CRD 54=   0.1976 ( 17) -0.1816 ( 18)  0.3633 ( 20) -0.3737 ( 22) -0.2321 ( 46)
           0.2227 ( 48) -0.2271 ( 50)  0.2370 ( 51)  0.2591 ( 60) -0.2570 ( 62)
          -0.1553 ( 88)  0.3111 ( 89) -0.1561 ( 90) -0.1680 ( 95)  0.2991 ( 96)
          -0.1673 ( 97)
 CRD 55=  -0.1132 (  5)  0.2245 (  7)  0.1170 ( 11) -0.2240 ( 12)  0.1300 ( 15)
          -0.1502 ( 16) -0.1435 ( 20)  0.2480 ( 21) -0.1041 ( 22) -0.1479 ( 45)
          -0.1275 ( 49) -0.1608 ( 56) -0.1006 ( 60)  0.1733 ( 61)  0.1722 ( 65)
          -0.1926 ( 66)  0.1221 ( 76)  0.1087 ( 77) -0.1505 ( 78) -0.2084 ( 86)
          -0.1132 ( 87)  0.1628 ( 88) -0.1454 ( 90)  0.1632 ( 93)  0.1457 ( 94)
          -0.2500 ( 95) -0.1241 ( 96)  0.1198 (100) -0.1528 (104)  0.1206 (105)
          -0.1771 (106) -0.1253 (107) -0.1148 (108)
 CRD 56=  -0.1317 (  5)  0.2625 (  6)  0.1868 (  9) -0.2555 ( 10)  0.1262 ( 11)
          -0.1330 ( 13) -0.2230 ( 14)  0.1106 ( 15)  0.1091 ( 23)  0.1090 ( 28)
          -0.1386 ( 42) -0.1393 ( 43)  0.1406 ( 44)  0.1357 ( 52) -0.1869 ( 54)
           0.1451 ( 55) -0.1048 ( 59) -0.1132 ( 63)  0.1148 ( 64)  0.1981 ( 69)
           0.1181 ( 71) -0.1207 ( 72)  0.1680 ( 73)  0.1291 ( 75)  0.1450 ( 79)
          -0.1150 ( 81)  0.1722 ( 82) -0.1465 ( 83)  0.1675 ( 98)  0.1247 ( 99)
           0.1565 (101) -0.1623 (102) -0.1465 (107) -0.1442 (109)
 CRD 57=   0.1404 (  6)  0.2746 (  8) -0.2231 (  9) -0.2161 ( 11)  0.2362 ( 13)
          -0.1259 ( 14) -0.1172 ( 24) -0.1212 ( 25)  0.1166 ( 26) -0.1216 ( 36)
           0.1946 ( 53) -0.1753 ( 55)  0.1854 ( 57) -0.1522 ( 58) -0.2123 ( 67)
           0.1451 ( 69) -0.1881 ( 71)  0.1342 ( 73) -0.2606 ( 75)  0.1128 ( 79)
          -0.2595 ( 84)  0.1218 ( 98) -0.2281 ( 99)  0.1025 (101) -0.2306 (103)
 CRD 58=  -0.1481 (  2)  0.1462 (  7)  0.1288 ( 11) -0.2113 ( 12)  0.1896 ( 16)
          -0.1515 ( 21)  0.1286 ( 30) -0.1310 ( 32) -0.1033 ( 40) -0.1293 ( 43)
           0.1083 ( 45)  0.1197 ( 49) -0.1447 ( 56)  0.1074 ( 58) -0.1052 ( 61)
           0.1624 ( 64) -0.1289 ( 66)  0.1564 ( 68)  0.1352 ( 70) -0.1159 ( 74)
           0.1406 ( 76) -0.1446 ( 78) -0.1870 ( 80)  0.1637 ( 86) -0.1958 ( 88)
          -0.2086 ( 92)  0.2822 ( 95)  0.1726 ( 96) -0.2489 (104)  0.1268 (105)
          -0.1153 (107)  0.1434 (108)
 CRD 59=   0.1800 (  1) -0.2112 (  5)  0.1387 (  8)  0.2168 ( 14) -0.1586 ( 15)
          -0.1437 ( 27) -0.1129 ( 31) -0.1743 ( 34)  0.1098 ( 35)  0.1274 ( 42)
           0.1923 ( 52)  0.1024 ( 53)  0.1783 ( 59)  0.2165 ( 63) -0.1034 ( 64)
           0.1068 ( 69)  0.1767 ( 73) -0.1249 ( 78) -0.1017 ( 80)  0.1666 ( 82)
          -0.2207 ( 91)  0.1051 ( 95)  0.1555 (101)  0.2886 (107) -0.3427 (108)
 CRD 60=   0.2297 (  1) -0.2316 (  4) -0.1394 (  6)  0.1395 (  9) -0.1647 ( 10)
           0.1356 ( 13) -0.1362 ( 26)  0.1598 ( 28) -0.1798 ( 33) -0.1600 ( 37)
           0.1636 ( 38)  0.1773 ( 40) -0.1215 ( 54)  0.1038 ( 55) -0.2699 ( 72)
           0.1037 ( 74)  0.1871 ( 76)  0.1808 ( 77)  0.1240 ( 78) -0.2742 ( 83)
          -0.1885 ( 98) -0.2104 ( 99)  0.3062 (101)  0.2642 (103)
 CRD 61=   0.1273 (  1) -0.1859 (  2) -0.1365 (  7) -0.1062 ( 12) -0.1336 ( 36)
           0.1400 ( 39) -0.1040 ( 49) -0.1378 ( 65)  0.1708 ( 68) -0.1519 ( 70)
           0.1361 ( 76) -0.1561 ( 77) -0.1854 ( 81)  0.1469 ( 85)  0.3176 ( 87)
           0.2333 ( 88)  0.1591 ( 89) -0.2189 ( 93) -0.1863 ( 94) -0.2687 ( 95)
          -0.1943 ( 96) -0.1201 ( 97)  0.1519 ( 98) -0.1432 ( 99) -0.1851 (104)
           0.1334 (107)
 CRD 62=  -0.1455 (  1)  0.1094 (  3)  0.1364 (  7) -0.1079 ( 15)  0.1494 ( 16)
          -0.1027 ( 24)  0.1193 ( 27) -0.1076 ( 32)  0.1472 ( 36) -0.1505 ( 39)
           0.1131 ( 45) -0.1059 ( 52)  0.1438 ( 64) -0.1709 ( 71) -0.1563 ( 76)
           0.1977 ( 77) -0.1245 ( 78)  0.1707 ( 82)  0.1142 ( 83) -0.1732 ( 85)
           0.2871 ( 87)  0.1670 ( 88)  0.1220 ( 89) -0.2217 ( 92) -0.2036 ( 93)
          -0.2319 ( 94) -0.1779 ( 95) -0.1343 ( 96) -0.1322 ( 98)  0.1628 ( 99)
           0.1137 (108)
 CRD 63=  -0.1206 (  2)  0.2065 (  3)  0.1759 (  5) -0.1100 (  7)  0.1029 ( 11)
          -0.1464 ( 23) -0.1155 ( 29)  0.1062 ( 31) -0.1322 ( 33) -0.1011 ( 35)
           0.1300 ( 37)  0.1044 ( 38) -0.1149 ( 40)  0.1165 ( 43) -0.2186 ( 63)
          -0.1822 ( 64)  0.2413 ( 67)  0.1871 ( 68) -0.1979 ( 71) -0.1082 ( 72)
           0.2472 ( 74) -0.2045 ( 78) -0.2643 ( 79) -0.1843 ( 81)  0.1756 ( 82)
           0.1233 ( 83)  0.1745 ( 85)  0.1636 ( 91)  0.1232 ( 92) -0.1277 (104)

 THE DETERMINANT OF THE G MATRIX IS 10**(   -29)


                     --------------------
                     INTERNAL COORDINATES
                     --------------------

                 - - ATOMS - -         COORDINATE      COORDINATE
 NO.   TYPE    I  J  K  L  M  N        (BOHR,RAD)       (ANG,DEG)
 ----------------------------------------------------------------
   1 STRETCH   1  2                     2.8913008       1.5300106
   2 STRETCH   1  3                     2.8740473       1.5208804
   3 STRETCH   1 10                     2.1129334       1.1181163
   4 STRETCH   1  4                     2.8704244       1.5189633
   5 STRETCH   2 11                     2.0953108       1.1087908
   6 STRETCH   2  5                     2.8855975       1.5269926
   7 STRETCH   2 12                     2.0936801       1.1079279
   8 STRETCH   3 15                     2.0752418       1.0981707
   9 STRETCH   3 13                     2.0721933       1.0965575
  10 STRETCH   3 14                     2.0844035       1.1030189
  11 STRETCH   4 16                     2.0756617       1.0983929
  12 STRETCH   4 17                     2.0746161       1.0978396
  13 STRETCH   4 18                     2.0743251       1.0976857
  14 STRETCH   5  6                     2.6980329       1.4277376
  15 STRETCH   5 20                     2.0902761       1.1061266
  16 STRETCH   5 19                     2.1032955       1.1130161
  17 STRETCH   6  7                     2.5778948       1.3641633
  18 STRETCH   7  8                     2.2974494       1.2157579
  19 STRETCH   7  9                     2.8389522       1.5023089
  20 STRETCH   9 23                     2.0740275       1.0975282
  21 STRETCH   9 22                     2.0752865       1.0981944
  22 STRETCH   9 21                     2.0746510       1.0978581
  23 BEND      1  2 11                  1.9163115     109.7965615
  24 BEND      1  3 15                  1.9498347     111.7172972
  25 BEND      1  4 18                  1.9392355     111.1100117
  26 BEND      1  3 13                  1.9468621     111.5469790
  27 BEND      1  2  5                  1.9241069     110.2432048
  28 BEND      1  3 14                  1.9271090     110.4152139
  29 BEND      1  4 16                  1.9483680     111.6332630
  30 BEND      1  4 17                  1.9461831     111.5080764
  31 BEND      1  2 12                  1.9184754     109.9205463
  32 BEND      2  5 19                  1.9258847     110.3450626
  33 BEND      2  1 10                  1.8905010     108.3177264
  34 BEND      2  5  6                  1.8612625     106.6424870
  35 BEND      2  5 20                  1.9489392     111.6659920
  36 BEND      2  1  4                  1.9249705     110.2926858
  37 BEND      2  1  3                  1.9313276     110.6569185
  38 BEND      3  1  4                  1.9287952     110.5118218
  39 BEND      3  1 10                  1.8944513     108.5440637
  40 BEND      4  1 10                  1.8926883     108.4430526
  41 BEND      5  6  7                  2.0660759     118.3774312
  42 BEND      5  2 11                  1.9344361     110.8350269
  43 BEND      5  2 12                  1.9259236     110.3472921
  44 BEND      6  5 19                  1.9292790     110.5395437
  45 BEND      6  5 20                  1.9180876     109.8983249
  46 BEND      6  7  9                  1.9702385     112.8863482
  47 BEND      6  7  8                  2.0865078     119.5480907
  48 BEND      7  9 21                  1.9616669     112.3952343
  49 BEND      7  9 22                  1.9177335     109.8780342
  50 BEND      7  9 23                  1.9343923     110.8325172
  51 BEND      8  7  9                  2.2264277     127.5649125
  52 BEND     11  2 12                  1.8431036     105.6020598
  53 BEND     13  3 14                  1.8844081     107.9686327
  54 BEND     13  3 15                  1.8776404     107.5808720
  55 BEND     14  3 15                  1.8749940     107.4292413
  56 BEND     16  4 18                  1.8746974     107.4122468
  57 BEND     16  4 17                  1.8750025     107.4297306
  58 BEND     17  4 18                  1.8767392     107.5292350
  59 BEND     19  5 20                  1.8809938     107.7730070
  60 BEND     21  9 22                  1.8803088     107.7337559
  61 BEND     21  9 23                  1.8849021     107.9969372
  62 BEND     22  9 23                  1.8822405     107.8444352
  63 TORSION   1  2  5 19               0.8932513      51.1795285
  64 TORSION   1  2  5 20              -1.1983877     -68.6625575
  65 TORSION   1  2  5  6               2.9892632     171.2721628
  66 TORSION   2  1  4 18               3.1283651     179.2421179
  67 TORSION   2  1  4 17              -1.0613909     -60.8132199
  68 TORSION   2  1  4 16               1.0360557      59.3616201
  69 TORSION   2  1  3 13               2.9727777     170.3276185
  70 TORSION   2  5  6  7              -3.1298015    -179.3244168
  71 TORSION   2  1  3 14               0.8773784      50.2700819
  72 TORSION   2  1  3 15              -1.2081096     -69.2195823
  73 TORSION   3  1  2 12               3.0092451     172.4170441
  74 TORSION   3  1  2  5              -1.1470951     -65.7237079
  75 TORSION   3  1  4 17               3.0806650     176.5091018
  76 TORSION   3  1  4 16              -1.1050737     -63.3160582
  77 TORSION   3  1  2 11               0.9889798      56.6643687
  78 TORSION   3  1  4 18               0.9872357      56.5644395
  79 TORSION   4  1  2 12               0.8696009      49.8244592
  80 TORSION   4  1  2  5               2.9964460     171.6837072
  81 TORSION   4  1  2 11              -1.1506644     -65.9282162
  82 TORSION   4  1  3 13              -1.1729938     -67.2075940
  83 TORSION   4  1  3 15               0.9293041      53.2452053
  84 TORSION   4  1  3 14               3.0147922     172.7348695
  85 TORSION   5  2  1 10               0.9275967      53.1473750
  86 TORSION   5  6  7  9              -3.1240233    -178.9933506
  87 TORSION   5  6  7  8               0.0128374       0.7355284
  88 TORSION   6  7  9 21              -0.5412081     -31.0089418
  89 TORSION   6  7  9 22               1.5523828      88.9449798
  90 TORSION   6  7  9 23              -2.6522474    -151.9625838
  91 TORSION   6  5  2 12              -1.1714927     -67.1215858
  92 TORSION   6  5  2 11               0.8638931      49.4974298
  93 TORSION   7  6  5 19              -1.0359784     -59.3571881
  94 TORSION   7  6  5 20               1.0380756      59.4773489
  95 TORSION   8  7  9 23               0.4945385      28.3349697
  96 TORSION   8  7  9 22              -1.5840166     -90.7574666
  97 TORSION   8  7  9 21               2.6055778     149.2886117
  98 TORSION  10  1  2 12              -1.1992484     -68.7118731
  99 TORSION  10  1  4 17               1.0061196      57.6464094
 100 TORSION  10  1  4 16               3.1035663     177.8212494
 101 TORSION  10  1  3 13               0.9004804      51.5937246
 102 TORSION  10  1  3 15               3.0027783     172.0465238
 103 TORSION  10  1  3 14              -1.1949189     -68.4638120
 104 TORSION  10  1  4 18              -1.0873096     -62.2982529
 105 TORSION  10  1  2 11               3.0636716     175.5354515
 106 TORSION  11  2  5 20               2.9594276     169.5627095
 107 TORSION  11  2  5 19              -1.2321188     -70.5952046
 108 TORSION  12  2  5 20               0.9240418      52.9436939
 109 TORSION  12  2  5 19               3.0156808     172.7857798

     ------------------------------------------
     THE POINT GROUP IS C1 , NAXIS= 1, ORDER= 1
     ------------------------------------------

     DIMENSIONS OF THE SYMMETRY SUBSPACES ARE
 A   =  255

 ..... DONE SETTING UP THE RUN .....
 STEP CPU TIME =     0.01 TOTAL CPU TIME =        0.0 (    0.0 MIN)
 TOTAL WALL CLOCK TIME=        0.0 SECONDS, CPU UTILIZATION IS  50.00%


          -----------------------------
          STATIONARY POINT LOCATION RUN
          -----------------------------

 OBTAINING INITIAL HESSIAN, HESS=GUESS   
 DIAGONAL GUESS HESSIAN IN INTERNAL COORDS IS
     1  0.3672     2  0.3737     3  0.3279     4  0.3751     5  0.3339
     6  0.3693     7  0.3345     8  0.3409     9  0.3420    10  0.3377
    11  0.3408    12  0.3411    13  0.3412    14  0.3617    15  0.3357
    16  0.3312    17  0.4093    18  0.5461    19  0.3875    20  0.3413
    21  0.3409    22  0.3411    23  0.2230    24  0.2241    25  0.2243
    26  0.2242    27  0.2487    28  0.2238    29  0.2242    30  0.2243
    31  0.2230    32  0.2229    33  0.2224    34  0.2433    35  0.2233
    36  0.2493    37  0.2491    38  0.2499    39  0.2230    40  0.2231
    41  0.2421    42  0.2231    43  0.2232    44  0.2182    45  0.2186
    46  0.2494    47  0.2570    48  0.2253    49  0.2252    50  0.2253
    51  0.2602    52  0.2016    53  0.2024    54  0.2027    55  0.2023
    56  0.2026    57  0.2026    58  0.2026    59  0.2014    60  0.2026
    61  0.2026    62  0.2026    63  0.2500    64  0.2500    65  0.2500
    66  0.2500    67  0.2500    68  0.2500    69  0.2500    70  0.2500
    71  0.2500    72  0.2500    73  0.2500    74  0.2500    75  0.2500
    76  0.2500    77  0.2500    78  0.2500    79  0.2500    80  0.2500
    81  0.2500    82  0.2500    83  0.2500    84  0.2500    85  0.2500
    86  0.2500    87  0.2500    88  0.2500    89  0.2500    90  0.2500
    91  0.2500    92  0.2500    93  0.2500    94  0.2500    95  0.2500
    96  0.2500    97  0.2500    98  0.2500    99  0.2500   100  0.2500
   101  0.2500   102  0.2500   103  0.2500   104  0.2500   105  0.2500
   106  0.2500   107  0.2500   108  0.2500   109  0.2500
 TRANSFORMING HESSIAN TO SYMMETRY COORDINATES

          PARAMETERS CONTROLLING GEOMETRY SEARCH ARE
          METHOD =QA                  UPHESS =BFGS    
          NNEG   =         0          NFRZ   =         3
          NSTEP  =        50          IFOLOW =         1
          HESS   =GUESS               RESTAR =         F
          IHREP  =         0          HSSEND =         F
          NPRT   =         0          NPUN   =         0
          OPTTOL = 5.000E-04          RMIN   = 1.500E-03
          RMAX   = 1.000E-01          RLIM   = 7.000E-02
          DXMAX  = 3.000E-01          PURIFY =         F
          MOVIE  =         F          TRUPD  =         T
          TRMAX  = 5.000E-01          TRMIN  = 5.000E-02
          ITBMAT =         5          STPT   =         F
          STSTEP = 1.000E-02          PROJCT=          F
          FROZEN COORD(S)=   1   2   3


      ***** EQUILIBRIUM GEOMETRY LOCATED *****
            (SUBJECT TO   3 CONSTRAINT(S))
 COORDINATES OF ALL ATOMS ARE (ANGS)
   ATOM   CHARGE       X              Y              Z
 ------------------------------------------------------------
 C           6.0   1.9864534933   2.1132250776   2.3577462967
 C           6.0   3.3662185121   2.4058019984   1.7470440051
 C           6.0   1.4656246763   0.7332944073   1.9370570226
 C           6.0   0.9786183313   3.2015175335   1.9807656730
 C           6.0   4.4515290614   1.5500894994   2.3713211290
 O           8.0   5.6632958810   1.7537316032   1.6393984158
 C           6.0   6.6571388473   0.9183069885   1.8480295732
 O           8.0   6.6102467751   0.0321352297   2.6447864755
 C           6.0   7.8531071825   1.2207452757   0.9950833551
 H           1.0   2.0906576279   2.1204789351   3.4423710923
 H           1.0   3.3388603913   2.2205372619   0.6753122799
 H           1.0   3.6203795557   3.4536635253   1.8843685805
 H           1.0   0.5078995293   0.5237119110   2.4039735711
 H           1.0   2.1445822335  -0.0648831414   2.2177922974
 H           1.0   1.3305237368   0.6896843498   0.8583982205
 H           1.0   0.8544948707   3.2586303672   0.9012962653
 H           1.0   1.3004064336   4.1771777186   2.3340822166
 H           1.0   0.0054761455   2.9914329609   2.4162594717
 H           1.0   4.2073084522   0.5007217195   2.3312612327
 H           1.0   4.6210562632   1.8251203923   3.4052372380
 H           1.0   7.5540767020   1.6496126023   0.0488266397
 H           1.0   8.4707544082   1.9395475602   1.5244774754
 H           1.0   8.4221541702   0.3143366525   0.8429394381


                     --------------------
                     INTERNAL COORDINATES
                     --------------------

                 - - ATOMS - -         COORDINATE      COORDINATE
 NO.   TYPE    I  J  K  L  M  N        (BOHR,RAD)       (ANG,DEG)
 ----------------------------------------------------------------
   1 STRETCH   1  2                     2.9044726       1.5369808
   2 STRETCH   1  3                     2.8984053       1.5337701
   3 STRETCH   1 10                     2.0591269       1.0896431
   4 STRETCH   1  4                     2.8920999       1.5304335
   5 STRETCH   2 11                     2.0559666       1.0879708
   6 STRETCH   2  5                     2.8658271       1.5165305
   7 STRETCH   2 12                     2.0540458       1.0869543
   8 STRETCH   3 15                     2.0559480       1.0879609
   9 STRETCH   3 13                     2.0520487       1.0858975
  10 STRETCH   3 14                     2.0500549       1.0848424
  11 STRETCH   4 16                     2.0561771       1.0880821
  12 STRETCH   4 17                     2.0530227       1.0864129
  13 STRETCH   4 18                     2.0534602       1.0866444
  14 STRETCH   5  6                     2.7027441       1.4302307
  15 STRETCH   5 20                     2.0469876       1.0832193
  16 STRETCH   5 19                     2.0374202       1.0781564
  17 STRETCH   6  7                     2.4849610       1.3149848
  18 STRETCH   7  8                     2.2537079       1.1926109
  19 STRETCH   7  9                     2.8341647       1.4997755
  20 STRETCH   9 23                     2.0427744       1.0809897
  21 STRETCH   9 22                     2.0513957       1.0855519
  22 STRETCH   9 21                     2.0429574       1.0810866
  23 BEND      1  2 11                  1.9139083     109.6588680
  24 BEND      1  3 15                  1.9285497     110.4977560
  25 BEND      1  4 18                  1.9321560     110.7043828
  26 BEND      1  3 13                  1.9339254     110.8057653
  27 BEND      1  2  5                  1.9513941     111.8066478
  28 BEND      1  3 14                  1.9589202     112.2378602
  29 BEND      1  4 16                  1.9356583     110.9050490
  30 BEND      1  4 17                  1.9427640     111.3121783
  31 BEND      1  2 12                  1.9211427     110.0733682
  32 BEND      2  5 19                  1.9517299     111.8258864
  33 BEND      2  1 10                  1.8842989     107.9623720
  34 BEND      2  5  6                  1.8916077     108.3811398
  35 BEND      2  5 20                  1.9408317     111.2014627
  36 BEND      2  1  4                  1.9368481     110.9732234
  37 BEND      2  1  3                  1.9467080     111.5381550
  38 BEND      3  1  4                  1.9268672     110.4013576
  39 BEND      3  1 10                  1.8875513     108.1487213
  40 BEND      4  1 10                  1.8790873     107.6637689
  41 BEND      5  6  7                  2.0586013     117.9491679
  42 BEND      5  2 11                  1.9043634     109.1119852
  43 BEND      5  2 12                  1.9014015     108.9422807
  44 BEND      6  5 19                  1.8875513     108.1487237
  45 BEND      6  5 20                  1.8962194     108.6453707
  46 BEND      6  7  9                  1.9652895     112.6027965
  47 BEND      6  7  8                  2.1511834     123.2537323
  48 BEND      7  9 21                  1.9360789     110.9291520
  49 BEND      7  9 22                  1.8858789     108.0529034
  50 BEND      7  9 23                  1.9078777     109.3133424
  51 BEND      8  7  9                  2.1665603     124.1347588
  52 BEND     11  2 12                  1.8697216     107.1271557
  53 BEND     13  3 14                  1.8741388     107.3802462
  54 BEND     13  3 15                  1.8849887     108.0018954
  55 BEND     14  3 15                  1.8805174     107.7457086
  56 BEND     16  4 18                  1.8813491     107.7933624
  57 BEND     16  4 17                  1.8852422     108.0164189
  58 BEND     17  4 18                  1.8844580     107.9714889
  59 BEND     19  5 20                  1.8944548     108.5442617
  60 BEND     21  9 22                  1.8981659     108.7568965
  61 BEND     21  9 23                  1.9337615     110.7963702
  62 BEND     22  9 23                  1.9011093     108.9255409
  63 TORSION   1  2  5 19               0.9347660      53.5581458
  64 TORSION   1  2  5 20              -1.1861873     -67.9635261
  65 TORSION   1  2  5  6               3.0138211     172.6792269
  66 TORSION   2  1  4 18              -3.1396539    -179.8889189
  67 TORSION   2  1  4 17              -1.0435141     -59.7889519
  68 TORSION   2  1  4 16               1.0559719      60.5027312
  69 TORSION   2  1  3 13               3.1051115     177.9097847
  70 TORSION   2  5  6  7              -2.9150426    -167.0196358
  71 TORSION   2  1  3 14               1.0100383      57.8709317
  72 TORSION   2  1  3 15              -1.0894358     -62.4200741
  73 TORSION   3  1  2 12               2.9366824     168.2595096
  74 TORSION   3  1  2  5              -1.2306644     -70.5118782
  75 TORSION   3  1  4 17               3.0720123     176.0133408
  76 TORSION   3  1  4 16              -1.1116871     -63.6949761
  77 TORSION   3  1  2 11               0.8839563      50.6469635
  78 TORSION   3  1  4 18               0.9758725      55.9133737
  79 TORSION   4  1  2 12               0.7803514      44.7108435
  80 TORSION   4  1  2  5               2.8961899     165.9394557
  81 TORSION   4  1  2 11              -1.2723747     -72.9017026
  82 TORSION   4  1  3 13              -1.0160937     -58.2178799
  83 TORSION   4  1  3 15               1.0725443      61.4522613
  84 TORSION   4  1  3 14              -3.1111669    -178.2567329
  85 TORSION   5  2  1 10               0.8407615      48.1720881
  86 TORSION   5  6  7  9               3.1158728     178.5263613
  87 TORSION   5  6  7  8              -0.0437768      -2.5082254
  88 TORSION   6  7  9 21              -0.5452701     -31.2416770
  89 TORSION   6  7  9 22               1.5338887      87.8853510
  90 TORSION   6  7  9 23              -2.6827368    -153.7094980
  91 TORSION   6  5  2 12              -1.1421373     -65.4396461
  92 TORSION   6  5  2 11               0.8936801      51.2041007
  93 TORSION   7  6  5 19              -0.7959798     -45.6062840
  94 TORSION   7  6  5 20               1.2571295      72.0282147
  95 TORSION   8  7  9 23               0.4770989      27.3357522
  96 TORSION   8  7  9 22              -1.5894609     -91.0693988
  97 TORSION   8  7  9 21               2.6145656     149.8035731
  98 TORSION  10  1  2 12              -1.2750769     -73.0565241
  99 TORSION  10  1  4 17               1.0150826      58.1599474
 100 TORSION  10  1  4 16               3.1145685     178.4516304
 101 TORSION  10  1  3 13               1.0356279      59.3371079
 102 TORSION  10  1  3 15               3.1242659     179.0072491
 103 TORSION  10  1  3 14              -1.0594453     -60.7017451
 104 TORSION  10  1  4 18              -1.0810573     -61.9400197
 105 TORSION  10  1  2 11               2.9553822     169.3309297
 106 TORSION  11  2  5 20               2.9768571     170.5613477
 107 TORSION  11  2  5 19              -1.1853749     -67.9169804
 108 TORSION  12  2  5 20               0.9410397      53.9176009
 109 TORSION  12  2  5 19               3.0619929     175.4392728

          INTERNUCLEAR DISTANCES (ANGS.)


 =====================================================
   GAMESS/COSab RESULTS
 =====================================================

   Dielectric Constant                  = INFTY
   Basic Grid Size                      =                 1082
   Number of Segments                   =                   92
   Number of Segments located on spheres=                  314
   Number of Segments of the cavity     =                  794
   Solvent Radius (rsolv)               = 1.40
   Outlying Charge Error Method         = double cavity

 =====================================================

  Total solvated Energy (a.u.)          =  -423.0989902107
  Total Energy corrected (a.u.)         =  -423.0986429122

  Outlying charge effect (a.u.)         =     0.0003472985
  Outlying charge effect (kcal/mol)     =     0.2179332912

  Dielectric Energy (a.u.)              =    -0.0133284936
  Dielectric energy corr. (a.u.)        =    -0.0129811951

  Sum of polarization charges           =     0.0262012111
  Sum of polarization charges(cor.)     =    -0.0262012111

  Total surface area of cavity (A**2)   =  187.09
  Total volume of cavity (A**3)         =  181.43

 =====================================================
 NPS=                   794
NR.  ATOM  (X, Y, Z)(a.u.)                  CHARGE(e)  AREA(A**2) SIGMA(e/A**2)
   1   1   1.301853   3.581368   7.301912   0.000069   0.092912   0.000737
   2   1   4.882741   6.520603   7.029039   0.000080   0.185824   0.000430
   3   1   1.458671   3.218747   7.356566   0.000029   0.046456   0.000631
   4   2   8.259399   6.943644   1.080181   0.000801   0.325193   0.002464
   5   2   6.700803   6.632406   6.434654  -0.000002   0.139368  -0.000013
   6   2   7.465941   6.588863   0.319517   0.000703   0.185824   0.003783
   7   2   5.926173   7.409213   0.872707   0.000784   0.232280   0.003375
   8   2   6.947505   7.201995   0.676966   0.001612   0.371649   0.004337
   9   2   8.310276   6.215790   0.526853   0.000640   0.232280   0.002754
  10   2   7.170833   6.787373   6.235093  -0.000009   0.046456  -0.000190
  11   2   6.080508   6.791907   0.274437   0.000427   0.139368   0.003063
  12   3  -0.343383   1.123139   1.533423   0.001126   0.232280   0.004846
  13   3   1.511882  -2.137906   3.125321   0.000839   0.371649   0.002258
  14   3   2.746218  -0.910908   6.662048   0.001784   0.418105   0.004266
  15   3   4.733504  -0.236638   0.868489   0.000568   0.139368   0.004074
  16   3   1.268498   1.652453   7.118797   0.000103   0.092912   0.001106
  17   3   1.688115  -0.873325   6.490940   0.001149   0.278737   0.004122
  18   3   0.663439  -1.750486   3.772196   0.001162   0.418105   0.002780
  19   3  -0.698284   0.909823   2.235239   0.001071   0.232280   0.004610
  20   3   4.011502  -1.171653   1.170160   0.001337   0.278737   0.004797
  21   3   4.638375  -1.207505   1.643776   0.000986   0.232280   0.004243
  22   3  -0.480242   1.899191   1.800678   0.000857   0.185824   0.004614
  23   3  -0.146228  -0.116451   1.782863   0.002477   0.511017   0.004848
  24   3   0.612973  -1.447556   2.393357   0.001191   0.418105   0.002849
  25   3   1.953002  -2.248417   4.301178   0.001445   0.418105   0.003457
  26   3   2.167435  -1.713059   5.738783   0.001760   0.371649   0.004736
  27   3   2.285650  -0.050515   7.122774   0.000953   0.278737   0.003420
  28   3   2.318777   0.812656   7.368961   0.000364   0.139368   0.002614
  29   3   2.695646  -1.528182   1.254690   0.001250   0.371649   0.003363
  30   3   1.881324  -1.900524   2.018622   0.001165   0.464561   0.002507
  31   3   2.582995  -2.339350   3.049524   0.000837   0.325193   0.002575
  32   3   3.823808  -0.048978   6.994368   0.000416   0.185824   0.002238
  33   3   4.158184   0.489117   7.059373   0.000051   0.092912   0.000546
  34   3   5.110151  -0.364956   1.264405   0.000877   0.232280   0.003776
  35   3   1.721334   0.646553   7.215646   0.000500   0.185824   0.002693
  36   3   1.385297  -1.856476   5.022894   0.001275   0.325193   0.003922
  37   3  -0.100119  -0.829693   2.592430   0.000949   0.278737   0.003406
  38   3  -0.822343   1.849891   2.580426   0.000471   0.139368   0.003381
  39   3   3.348212  -1.971125   2.023104   0.001525   0.418105   0.003647
  40   3   1.028170  -1.094678   1.402361   0.001056   0.371649   0.002841
  41   3   3.207998   0.279925   7.247893   0.000589   0.232280   0.002537
  42   4  -1.465072   5.127094   2.178702   0.001073   0.232280   0.004619
  43   4  -0.216180   8.987420   2.564333   0.000849   0.371649   0.002285
  44   4   3.458800   8.896384   1.847896   0.001677   0.371649   0.004513
  45   4   0.799319   6.368691   7.359771   0.001343   0.418105   0.003213
  46   4   0.183644   7.163768   6.947692   0.000704   0.185824   0.003788
  47   4   1.919333   7.147511   7.359025   0.000739   0.232280   0.003183
  48   4   1.523912   7.595761   7.176621   0.000630   0.185824   0.003389
  49   4   3.037002   8.484788   1.107699   0.001213   0.278737   0.004350
  50   4   0.035297   8.538866   1.552425   0.001207   0.418105   0.002888
  51   4  -1.110359   5.380169   1.490127   0.001085   0.232280   0.004669
  52   4  -0.312956   8.196603   5.979389   0.001783   0.371649   0.004797
  53   4   0.295485   8.575727   6.086305   0.001033   0.232280   0.004447
  54   4  -1.080893   4.408516   2.009990   0.000859   0.185824   0.004622
  55   4  -1.525872   6.401481   2.079126   0.002436   0.511017   0.004767
  56   4  -1.047900   7.970009   2.258540   0.001171   0.418105   0.002801
  57   4   0.938283   9.428987   2.315991   0.001548   0.418105   0.003702
  58   4   2.302530   9.277998   1.830309   0.001709   0.325193   0.005255
  59   4  -1.037555   8.331661   4.605814   0.001256   0.371649   0.003381
  60   4  -0.894041   8.636103   3.477953   0.001145   0.464561   0.002465
  61   4   0.166866   9.424784   3.489317   0.000913   0.325193   0.002807
  62   4   0.583391   5.210773   7.203955   0.000161   0.092912   0.001729
  63   4   0.743435   7.773822   6.919544   0.001660   0.371649   0.004466
  64   4   2.946441   7.459810   7.073726   0.000344   0.185824   0.001849
  65   4   1.385697   9.059062   1.503736   0.001341   0.325193   0.004123
  66   4  -1.038191   7.248172   1.619213   0.000954   0.278737   0.003424
  67   4  -0.607464   4.524060   1.309999   0.000504   0.139368   0.003617
  68   4  -0.219484   9.061140   4.711275   0.001555   0.418105   0.003720
  69   4  -1.574216   7.542645   3.163712   0.001016   0.371649   0.002734
  70   5   7.300649   1.170789   7.636554  -0.000605   0.371649  -0.001627
  71   5   9.871782   6.225060   5.617570  -0.000280   0.139368  -0.002010
  72   5  10.143462   5.874751   6.096988  -0.000113   0.139368  -0.000809
  73   5   7.552148   0.395418   7.150287  -0.000304   0.185824  -0.001633
  74   5   7.985569   0.915440   1.311477  -0.000490   0.139368  -0.003517
  75   5   8.342602   0.815489   7.613467   0.000564   0.325193   0.001734
  76   5  10.667194   5.500162   6.090358  -0.000152   0.092912  -0.001632
  77   5   9.235519   6.139764   6.297458  -0.000177   0.139368  -0.001273
  78   5   8.051855   0.438070   1.661853  -0.000441   0.092912  -0.004745
  79   6  10.266517   3.696188  -0.100262   0.002040   0.103077   0.019794
  80   6  11.414572   6.213662   1.813716   0.003924   0.240512   0.016317
  81   6  10.848622   6.174033   1.560537   0.002085   0.137436   0.015174
  82   6  10.504120   4.900492   0.268035   0.003563   0.206154   0.017282
  83   6  10.909434   5.702058   0.902741   0.004504   0.240512   0.018726
  84   6  11.303991   6.501206   2.886953   0.003798   0.240512   0.015792
  85   6  11.236857   6.388306   4.007820   0.002512   0.206154   0.012187
  86   6  11.939344   6.298319   2.740065   0.002677   0.206154   0.012986
  87   6  12.168619   5.911806   4.388630   0.001469   0.137436   0.010686
  88   6  11.663308   5.858129   4.878027   0.001686   0.206154   0.008178
  89   6  10.033191   1.969553   0.215388   0.000103   0.034359   0.002996
  90   6  10.114416   2.623638  -0.023306   0.002066   0.137436   0.015032
  91   6  11.934458   6.224255   3.857446   0.002699   0.206154   0.013090
  92   6   9.612206   1.855034   0.405794   0.000914   0.103077   0.008866
  93   7  13.445713   5.065302   5.056378  -0.000995   0.185824  -0.005355
  94   7  15.130262   2.348029   6.213646  -0.000340   0.139368  -0.002439
  95   7  10.922576  -1.267542   1.905023  -0.000313   0.185824  -0.001685
  96   7  10.994109   0.885153   0.168737  -0.001468   0.232280  -0.006318
  97   7  14.319643   2.924228   6.629947  -0.000582   0.185824  -0.003130
  98   7  13.335114   3.160975   6.910143  -0.000573   0.232280  -0.002469
  99   7  13.109709  -1.613242   1.821683  -0.000093   0.092912  -0.001001
 100   7  14.703310   3.103138   6.303968  -0.000674   0.139368  -0.004834
 101   7  14.085475   4.180205   5.950101  -0.002235   0.232280  -0.009623
 102   7  13.187962   4.594799   5.887749  -0.002559   0.325193  -0.007870
 103   7  13.052176   3.892872   6.559271  -0.001200   0.185824  -0.006456
 104   7  10.456855   0.048666   0.859603  -0.001834   0.232280  -0.007894
 105   7  10.818794  -0.782064   1.291247  -0.002208   0.325193  -0.006790
 106   7  12.037905  -1.254981   1.245449  -0.001673   0.464561  -0.003601
 107   7  11.336235  -0.188742   0.486473  -0.003484   0.371649  -0.009375
 108   7  13.875087   3.639179   6.489406  -0.001087   0.185824  -0.005848
 109   8  12.445240  -2.388570   7.134155   0.005170   0.377948   0.013679
 110   8  14.859573  -0.316682   7.192162   0.004141   0.274871   0.015064
 111   8  14.624832  -2.382034   4.781936   0.005282   0.274871   0.019215
 112   8  11.306361  -2.821510   4.074513   0.004158   0.309230   0.013448
 113   8  12.136202   0.827017   8.136588   0.004109   0.274871   0.014949
 114   8  13.407715  -1.772826   7.520502   0.005766   0.412307   0.013985
 115   8  14.350511  -1.109418   7.393688   0.005143   0.343589   0.014969
 116   8  13.361585  -2.715092   6.447935   0.006061   0.412307   0.014700
 117   8  14.126987  -2.686871   5.581615   0.005724   0.343589   0.016660
 118   8  11.949238  -2.923200   6.167005   0.005643   0.412307   0.013687
 119   8  11.357303  -2.981182   5.155847   0.005204   0.377948   0.013768
 120   8  11.281018  -2.157941   7.041649   0.005478   0.377948   0.014494
 121   8  10.427975  -1.633203   6.851826   0.005321   0.274871   0.019358
 122   8  12.099644  -1.444175   7.852109   0.006281   0.446666   0.014061
 123   8  12.061756  -0.368201   8.191040   0.004436   0.309230   0.014345
 124   8  15.142475  -1.097444   6.479772   0.004535   0.274871   0.016497
 125   8  15.002530  -1.916127   5.590935   0.004894   0.274871   0.017805
 126   8  13.591521  -2.949046   4.453897   0.005440   0.343589   0.015834
 127   8  12.363313  -3.057051   4.088167   0.005793   0.412307   0.014050
 128   8  10.468079  -2.469549   4.737289   0.004516   0.274871   0.016431
 129   8  11.362482  -0.050986   8.043810   0.003770   0.206154   0.018286
 130   8  13.009558   0.426283   8.185825   0.004616   0.343589   0.013435
 131   8  14.109100   0.158949   7.815467   0.005648   0.412307   0.013698
 132   8  15.411877  -0.130299   6.412078   0.003262   0.240512   0.013563
 133   8  14.124650  -2.553334   3.966280   0.003126   0.171795   0.018196
 134   8  12.377408  -2.473909   2.966370   0.002419   0.206154   0.011736
 135   8  11.606380  -2.444602   3.125913   0.002982   0.240512   0.012399
 136   8  10.823268  -2.278064   3.477552   0.003161   0.240512   0.013143
 137   8  12.849053   1.558230   7.860501   0.003622   0.274871   0.013178
 138   8  14.917675   0.842848   7.014566   0.004860   0.377948   0.012859
 139   8  14.385815  -2.012198   6.634809   0.006705   0.412307   0.016262
 140   8  12.788515  -3.160776   5.311587   0.007029   0.481025   0.014613
 141   8  10.628824  -2.409370   5.994697   0.006566   0.412307   0.015925
 142   8  10.909887  -1.047797   7.612157   0.006637   0.377948   0.017559
 143   8  13.246330  -0.700250   8.066458   0.005171   0.377948   0.013681
 144   8  15.431803  -1.192804   5.588006   0.005024   0.240512   0.020890
 145   8  13.184108  -2.672750   3.381420   0.004210   0.274871   0.015315
 146   8  13.902188   1.365082   7.619644   0.005023   0.412307   0.012183
 147   9  18.594787   2.219653   2.304553   0.000777   0.418105   0.001859
 148   9  13.497593  -0.136458  -0.671367  -0.000097   0.325193  -0.000300
 149   9  17.126419   5.044891   0.631088   0.000108   0.325193   0.000331
 150   9  17.285091   1.678708  -0.932438   0.000046   0.325193   0.000143
 151   9  17.026139   0.410314   4.311286  -0.000081   0.185824  -0.000433
 152   9  16.740314   2.041051   5.136695  -0.000361   0.185824  -0.001945
 153   9  17.198257   1.169164   4.606148  -0.000071   0.232280  -0.000304
 154   9  18.018998   1.468372   3.744980   0.000399   0.232280   0.001717
 155   9  16.367152   2.095927  -1.570396   0.000131   0.325193   0.000403
 156   9  16.230109   5.204471  -0.108650   0.000290   0.371649   0.000780
 157   9  13.874715   5.800306   0.808959  -0.000081   0.185824  -0.000437
 158   9  13.574454   0.728343  -1.311790   0.000213   0.325193   0.000656
 159   9  18.262160   2.156373   3.477910   0.000169   0.232280   0.000727
 160   9  18.346027   1.286925   2.856783   0.000305   0.278737   0.001096
 161   9  12.693162   0.620198  -0.732895   0.000339   0.232280   0.001460
 162   9  14.383437   6.046239   1.575747   0.000064   0.232280   0.000278
 163   9  16.032602   5.722455   0.786655   0.000557   0.371649   0.001500
 164   9  17.143643   4.258216  -0.393505  -0.000005   0.464561  -0.000010
 165   9  17.369892   2.782520  -0.887016  -0.000143   0.464561  -0.000308
 166   9  15.879714   1.043431  -1.526528   0.000596   0.325193   0.001834
 167   9  14.470608   0.049048  -1.127857   0.000439   0.278737   0.001576
 168   9  14.239436  -0.802036  -0.183041  -0.000294   0.325193  -0.000904
 169   9  13.505981  -0.750862   0.104413  -0.000426   0.185824  -0.002295
 170   9  14.405113   5.975675   2.677251  -0.000279   0.232280  -0.001203
 171   9  17.896472   4.182468   0.686381  -0.000193   0.418105  -0.000462
 172   9  18.483255   3.160872   1.348214  -0.000136   0.418105  -0.000325
 173   9  18.517744   2.042104   1.049792   0.000067   0.464561   0.000144
 174   9  18.005376   1.719720  -0.099788  -0.000160   0.418105  -0.000383
 175   9  16.695904   0.917730  -1.104686   0.000177   0.278737   0.000635
 176   9  17.486644   1.918595   4.550628  -0.000061   0.232280  -0.000263
 177   9  17.670326   0.820993   3.897086   0.000087   0.185824   0.000467
 178   9  16.770621   3.525437  -1.131697  -0.000246   0.278737  -0.000881
 179   9  14.844568   5.906530   0.728573   0.000339   0.278737   0.001216
 180   9  12.729810   1.188529  -1.048679  -0.000328   0.092912  -0.003533
 181   9  14.845041   0.970445  -1.654840   0.000395   0.325193   0.001215
 182   9  15.344955   6.038058   1.552038   0.000211   0.232280   0.000908
 183   9  18.059531   3.122130   0.076089  -0.000301   0.418105  -0.000719
 184   9  15.352600   0.121671  -1.160382   0.000375   0.278737   0.001347
 185  10   3.587318   3.913670   8.932938  -0.001528   0.353299  -0.004324
 186  10   3.363956   2.724960   8.516794  -0.000787   0.294415  -0.002673
 187  10   2.418749   4.217368   8.413996  -0.000892   0.333671  -0.002674
 188  10   3.956310   5.699865   8.285491  -0.000791   0.294415  -0.002688
 189  10   2.624449   3.251043   8.429782  -0.000894   0.333671  -0.002680
 190  10   3.258351   4.990959   8.647021  -0.001297   0.412182  -0.003147
 191  10   4.623852   4.812730   8.726180  -0.001578   0.353299  -0.004466
 192  10   4.632048   3.712048   8.846902  -0.001785   0.353299  -0.005054
 193  10   4.383405   2.616546   8.483571  -0.001453   0.412182  -0.003524
 194  10   4.902688   5.604975   8.110069  -0.000778   0.274788  -0.002830
 195  11   6.545414   4.214139  -1.169066  -0.001993   0.392554  -0.005078
 196  11   6.720720   2.329600  -0.267156  -0.001519   0.294415  -0.005159
 197  11   6.972000   5.493513  -0.702021  -0.001034   0.392554  -0.002633
 198  11   6.120422   3.088157  -0.908234  -0.001963   0.333671  -0.005883
 199  11   7.253588   3.260018  -0.789610  -0.001960   0.372926  -0.005257
 200  11   7.595703   4.547146  -0.787254  -0.001731   0.392554  -0.004409
 201  11   5.861223   5.365771  -0.837183  -0.001716   0.431809  -0.003974
 202  11   5.370400   4.157379  -0.993560  -0.002713   0.431809  -0.006282
 203  12   7.431736   8.908487   3.674136  -0.002469   0.431809  -0.005718
 204  12   8.316200   8.059679   4.789658  -0.001305   0.294415  -0.004434
 205  12   6.910159   8.064966   5.474963  -0.001279   0.314043  -0.004072
 206  12   6.985664   8.387721   1.964034  -0.000744   0.314043  -0.002368
 207  12   8.531141   8.029648   2.601372  -0.000941   0.274788  -0.003425
 208  12   7.758091   7.926950   5.359193  -0.000995   0.274788  -0.003620
 209  12   7.101370   8.757368   4.556305  -0.002128   0.353299  -0.006023
 210  12   6.707863   8.852536   2.782017  -0.001859   0.333671  -0.005571
 211  12   7.870348   8.492655   2.507004  -0.001494   0.392554  -0.003806
 212  12   8.592885   8.226684   3.838696  -0.002257   0.431809  -0.005228
 213  13  -1.066173   0.077387   5.590821  -0.002561   0.471065  -0.005438
 214  13  -1.339875   0.959678   3.679309  -0.000897   0.392554  -0.002284
 215  13   0.028895   1.277842   6.797940  -0.001226   0.353299  -0.003470
 216  13   0.124728  -0.655207   6.165223  -0.000944   0.372926  -0.002531
 217  13  -0.547707  -0.939773   4.343443  -0.000569   0.274788  -0.002071
 218  13  -1.481642   1.063103   4.805640  -0.002314   0.431809  -0.005358
 219  13  -0.978753   1.258923   6.027635  -0.002445   0.431809  -0.005661
 220  13  -0.016143   0.263840   6.677273  -0.001514   0.451437  -0.003354
 221  13  -0.319237  -0.957593   5.322146  -0.001229   0.392554  -0.003130
 222  13  -1.159968  -0.177113   4.118234  -0.001691   0.510320  -0.003313
 223  14   5.128213  -2.316352   4.447625  -0.002132   0.372926  -0.005718
 224  14   4.485942  -2.398956   3.375139  -0.000888   0.314043  -0.002828
 225  14   3.907536  -2.384432   5.138781  -0.001042   0.333671  -0.003124
 226  14   4.686137  -1.077745   6.363939  -0.001131   0.314043  -0.003601
 227  14   5.247536  -1.969581   3.097350  -0.001398   0.353299  -0.003957
 228  14   3.922501  -2.575783   4.203270  -0.000893   0.314043  -0.002845
 229  14   4.006991  -1.836561   5.950405  -0.000739   0.314043  -0.002354
 230  14   5.012772  -1.950411   5.522372  -0.002086   0.353299  -0.005905
 231  15   2.052947   0.794912  -0.736620  -0.002301   0.451437  -0.005098
 232  15   3.754879   0.215557  -0.197990  -0.000967   0.392554  -0.002464
 233  15   0.523882   1.134512   0.192190  -0.000690   0.353299  -0.001953
 234  15   1.842588  -0.478534   0.070090  -0.000838   0.372926  -0.002248
 235  15   3.318631   1.122677  -0.692065  -0.002065   0.412182  -0.005011
 236  15   2.384450   2.011046  -0.726766  -0.002511   0.431809  -0.005816
 237  15   1.115740   1.744286  -0.348805  -0.001907   0.412182  -0.004628
 238  15   1.060658   0.211213  -0.029907  -0.001196   0.412182  -0.002901
 239  15   2.786656  -0.286040  -0.231195  -0.001220   0.412182  -0.002961
 240  16   1.033335   6.629553  -0.636591  -0.002160   0.431809  -0.005003
 241  16  -0.049209   5.225339   0.155108  -0.000850   0.353299  -0.002405
 242  16   2.206725   7.847751   0.021185  -0.000736   0.372926  -0.001974
 243  16   0.197495   7.534880   0.243605  -0.000874   0.412182  -0.002121
 244  16   0.792239   5.435570  -0.496069  -0.001895   0.392554  -0.004829
 245  16   1.961660   5.713295  -0.687848  -0.002651   0.451437  -0.005872
 246  16   2.529755   6.893045  -0.454928  -0.002114   0.451437  -0.004684
 247  16   1.215713   7.746683  -0.127564  -0.001411   0.431809  -0.003267
 248  16  -0.204955   6.393636   0.069752  -0.001345   0.490692  -0.002742
 249  17   2.693513  10.253974   5.049946  -0.002418   0.451437  -0.005357
 250  17   3.659418   8.786023   6.358616  -0.001657   0.412182  -0.004019
 251  17   2.442532   8.949468   6.628951  -0.000612   0.314043  -0.001948
 252  17   1.345651   9.988182   5.052898  -0.000955   0.372926  -0.002561
 253  17   2.727548  10.118995   3.405672  -0.000873   0.372926  -0.002341
 254  17   3.085992   9.656781   6.001877  -0.001859   0.392554  -0.004735
 255  17   1.680047   9.551321   6.048819  -0.001238   0.451437  -0.002741
 256  17   1.877502  10.258895   4.087154  -0.001383   0.451437  -0.003064
 257  17   3.632284   9.944263   3.739954  -0.001871   0.451437  -0.004145
 258  17   3.871470   9.780982   5.099074  -0.002408   0.412182  -0.005843
 259  18  -2.268339   5.692171   5.483210  -0.002395   0.451437  -0.005305
 260  18  -1.252625   6.671393   6.410753  -0.000756   0.353299  -0.002140
 261  18  -0.797105   4.910396   6.764169  -0.001381   0.392554  -0.003519
 262  18  -2.139383   4.820638   3.716989  -0.001093   0.392554  -0.002784
 263  18  -2.127659   6.862549   4.597895  -0.000918   0.372926  -0.002461
 264  18  -1.309769   5.787097   6.633530  -0.001436   0.412182  -0.003483
 265  18  -1.756511   4.676459   5.965951  -0.002239   0.392554  -0.005704
 266  18  -2.210765   4.629668   4.799630  -0.002301   0.431809  -0.005329
 267  18  -2.357588   5.947653   3.981978  -0.001392   0.471065  -0.002955
 268  18  -1.838993   6.908564   5.585180  -0.001097   0.372926  -0.002941
 269  19   7.901384  -1.508000   4.502806  -0.001716   0.176649  -0.009714
 270  19   7.667752  -0.678364   6.226371  -0.001121   0.157022  -0.007141
 271  19   7.825539  -0.759173   2.641615  -0.002067   0.235532  -0.008778
 272  19   7.775958  -1.188805   5.608041  -0.001501   0.176649  -0.008497
[...]
 535  18  -1.747535   4.784150   3.167092  -0.000268   0.146489  -0.001827
 536   4   0.218653   5.473872   7.056884  -0.000165   0.146921  -0.001125
 537   4  -0.208164   6.840037   6.762164   0.000054   0.146921   0.000369
 538   4  -0.842026   7.687770   5.754687   0.000125   0.146921   0.000850
 539   4  -1.439634   7.691677   4.421161  -0.000075   0.146921  -0.000513
 540   4  -1.771603   6.850260   3.273444  -0.000088   0.146921  -0.000602
 541   4  -1.710511   5.486485   2.752072   0.000103   0.146921   0.000702
 542   4  -1.412392   4.345206   2.867690   0.000127   0.081254   0.001564
 543   5  11.331906   5.021703   5.953283  -0.000062   0.052267  -0.001191
 544   6  11.714156   5.058866   5.668950   0.000131   0.052267   0.002511
 545   7  12.059688   4.815994   5.783003  -0.000177   0.052267  -0.003378
 546   5   9.064087   1.114779   1.111718  -0.000052   0.052267  -0.000999
 547   6   9.484046   1.216907   0.907890   0.000111   0.052267   0.002115
 548   7   9.789556   0.905084   0.936498  -0.000169   0.052267  -0.003242
 549   5   8.346374   1.724228   0.856329  -0.000180   0.098725  -0.001825
 550   6   8.785481   1.858082   0.716905   0.000365   0.098725   0.003693
 551  11   7.882364   2.162649   0.470888  -0.000242   0.098725  -0.002453
 552   5   9.862546   6.444697   4.765648  -0.000146   0.093826  -0.001551
 553   6  10.238268   6.387582   4.473656   0.000413   0.093826   0.004405
 554  12   9.354381   6.915716   4.494374  -0.000284   0.093826  -0.003026
 555   6   9.269605   1.451618   0.794494   0.000227   0.054523   0.004168
 556   5   8.618464   1.337211   1.003071  -0.000049   0.059653  -0.000827
 557   6  11.050432   5.858642   4.968940   0.001815   0.277927   0.006530
 558   5  10.683845   5.651276   5.622757  -0.000131   0.303907  -0.000432
 559   5   8.714825   0.034601   2.010799  -0.000520   0.063414  -0.008199
 560   7   9.461398  -0.129075   1.885006  -0.000662   0.063414  -0.010435
 561  19   8.616740  -0.173272   2.204590  -0.000483   0.063414  -0.007610
 562   5  11.085899   4.814119   6.429108  -0.000317   0.053932  -0.005885
 563   7  11.779395   4.549689   6.209544  -0.000377   0.053932  -0.006990
 564  20  10.948561   4.747279   6.689906  -0.000361   0.053932  -0.006690
 565   7   9.820483   0.140751   1.298924  -0.001603   0.308000  -0.005206
 566   5   8.803135   0.625119   1.397735  -0.000843   0.308000  -0.002736
 567   7  12.247231   4.721687   5.996590  -0.000224   0.067552  -0.003310
 568   5  11.210782   4.984365   6.282549  -0.000009   0.067552  -0.000133
 569   5   8.672393  -0.227912   6.658054   0.000172   0.078920   0.002174
 570   8   9.480500  -0.650725   6.639548   0.001755   0.078920   0.022241
 571  19   8.579139  -0.432227   6.456590  -0.000012   0.078920  -0.000155
 572   5   9.413987   1.134196   7.706280   0.000275   0.071893   0.003824
 573   8  10.192341   0.667546   7.623450   0.001423   0.071893   0.019793
 574  20   9.434818   1.396781   7.856442  -0.000114   0.071893  -0.001583
 575   8  10.228609  -0.216635   7.420228   0.008073   0.454889   0.017748
 576   5   8.979012   0.243771   7.229197   0.002136   0.505031   0.004229
 577   5   6.770046   2.284378   7.887319  -0.000451   0.081266  -0.005552
 578  10   5.891943   2.642182   7.982449  -0.000418   0.081266  -0.005146
 579  20   6.949713   2.479481   8.035834  -0.000557   0.081266  -0.006858
 580  10   5.132503   2.230856   7.925073  -0.000608   0.224434  -0.002709
 581   5   6.479675   1.826257   7.756321  -0.000652   0.317284  -0.002055
 582  11   7.197353   2.067132   0.310456  -0.000670   0.166097  -0.004034
 583   5   7.703746   1.348303   1.003678  -0.000412   0.234214  -0.001761
 584   5   8.401031   6.188753   6.423464  -0.000097   0.023055  -0.004193
 585  12   8.029327   6.673293   6.001775  -0.000070   0.023055  -0.003028
 586  20   8.456373   6.023185   6.668345  -0.000146   0.023055  -0.006318
 587  12   8.115170   7.198941   5.596641  -0.000607   0.183705  -0.003305
 588  12   8.829495   7.317716   4.841706  -0.000736   0.183705  -0.004007
 589   5   9.083048   6.478177   5.674295  -0.001110   0.504719  -0.002199
 590   5   6.805429   0.030021   6.496466  -0.000618   0.073879  -0.008370
 591  14   5.932010  -0.402153   6.191419  -0.000669   0.073879  -0.009059
 592  19   6.794298  -0.211156   6.316497  -0.000644   0.073879  -0.008712
 593  14   5.362698  -0.455961   6.411713  -0.000527   0.169857  -0.003103
 594   5   6.559479   0.328990   6.892461  -0.000466   0.241766  -0.001928
 595  19   7.772744  -0.325797   6.471021  -0.000571   0.095434  -0.005983
 596   5   7.638389   0.032701   6.751890  -0.000553   0.116594  -0.004739
 597  19   7.837445  -0.178531   2.219307  -0.000487   0.060418  -0.008063
 598   5   8.071012   0.114458   1.973291  -0.000528   0.073813  -0.007152
 599  20  10.439786   5.131964   6.953722  -0.000495   0.073442  -0.006740
 600  20   9.392195   5.682748   6.978975  -0.001091   0.165664  -0.006585
 601   5  10.135352   5.493154   6.558979  -0.001070   0.158566  -0.006747
 602   5   8.932543   5.999006   6.621634  -0.000387   0.089726  -0.004312
 603  20   7.688569   2.133381   8.202448  -0.000581   0.090658  -0.006404
 604  20   8.735268   1.709625   8.143551  -0.000462   0.090658  -0.005091
 605   5   8.086563   1.647325   7.917905  -0.001238   0.185477  -0.006675
 606   6  10.936761   2.061369  -0.006778   0.000163   0.051722   0.003149
 607   7  11.241646   1.752000  -0.058251  -0.000289   0.051722  -0.005589
 608   9  11.652741   1.856926  -0.302375  -0.000439   0.051722  -0.008493
 609   6  12.996847   5.541637   4.115876   0.000033   0.051722   0.000631
 610   7  13.383364   5.370174   4.227765  -0.000345   0.051722  -0.006664
 611   9  13.769058   5.432187   3.932807  -0.000489   0.051722  -0.009456
 612   7  10.459708   1.140749   0.455719  -0.000704   0.228991  -0.003072
 613   6  10.210778   1.773627   0.315904   0.001219   0.214606   0.005679
 614   7  12.893894   5.158475   4.948474  -0.000812   0.254956  -0.003184
 615   6  12.216920   5.343060   5.052569   0.001050   0.238939   0.004394
 616   6  11.217450   2.256077  -0.170499  -0.000036   0.064486  -0.000551
 617   9  11.894770   2.030348  -0.532193  -0.000462   0.064486  -0.007168
 618  21  11.995563   2.251962  -0.710906  -0.000455   0.064486  -0.007049
 619   6  12.334912   5.497966   0.945662   0.000615   0.064486   0.009530
 620   9  13.077301   5.461010   0.648962  -0.000107   0.064486  -0.001657
 621  21  13.069546   5.367715   0.361828  -0.000288   0.064486  -0.004459
 622   9  13.205356   5.759073   1.146286   0.000185   0.302148   0.000612
 623   9  13.705399   5.814028   2.800315  -0.001075   0.600389  -0.001791
 624   6  12.317384   5.951588   2.114814   0.005614   0.553724   0.010138
 625   6  12.766628   5.865975   3.712475   0.001687   0.273900   0.006158
 626  11   8.335478   4.848466  -0.234427   0.000192   0.236524   0.000814
 627  11   8.150952   3.624881  -0.381976  -0.000579   0.476091  -0.001217
 628  11   7.779555   2.486183  -0.037867  -0.000294   0.236524  -0.001243
 629   6   9.642078   4.163550   0.002833   0.006352   0.581976   0.010915
 630   6   9.262126   2.549021   0.137174   0.004615   0.581976   0.007930
 631  12   9.249621   7.395840   4.147865  -0.000286   0.237619  -0.001205
 632  12   9.152391   7.452182   2.946075  -0.000506   0.477648  -0.001059
 633   6  10.502571   6.678777   3.575305   0.004162   0.587911   0.007080
 634   6  10.328006   6.657139   2.269714   0.002497   0.296002   0.008434
 635  21  11.947872   2.618430  -0.955404  -0.000827   0.220413  -0.003753
 636  21  12.051052   3.816620  -0.911183  -0.002065   0.443701  -0.004653
 637  21  12.632905   5.012945  -0.297820  -0.001556   0.443701  -0.003507
 638   6  10.790258   3.129685  -0.268472   0.004234   0.540477   0.007835
 639   6  11.135290   4.670826   0.040800   0.005443   0.540477   0.010071
 640   6  11.777293   5.570266   0.745100   0.002548   0.272360   0.009355
 641   7  15.485069   1.702176   5.922893   0.000016   0.037822   0.000421
 642   8  15.365776   1.379774   6.115167   0.000380   0.037822   0.010044
 643   9  15.846951   1.799267   5.608683  -0.000199   0.037822  -0.005250
 644   7  10.124792  -1.137265   2.749149   0.000159   0.102779   0.001547
 645   8  10.167995  -1.372088   3.066812   0.000952   0.102779   0.009263
 646  19   9.286157  -1.029148   3.071138  -0.000260   0.102779  -0.002534
 647   7  12.211600   2.819644   7.169549   0.000035   0.113768   0.000304
 648   8  12.188814   2.462751   7.343971   0.000746   0.113768   0.006559
 649  20  11.312290   3.079223   7.460656  -0.000274   0.113768  -0.002408
 650   7  13.629105  -1.645125   2.088076  -0.000015   0.072705  -0.000210
 651   8  13.588379  -1.838059   2.430498   0.000624   0.072705   0.008578
 652  23  14.307847  -1.563790   1.810834  -0.000368   0.072705  -0.005058
 653   8  14.783674   1.493415   6.715668   0.001696   0.200906   0.008441
 654   8  13.213029   2.131108   7.332465   0.001750   0.200906   0.008712
 655   7  14.042486   2.246826   6.687166   0.000980   0.423938   0.002311
 656   8  11.031415  -1.803958   2.827435   0.001770   0.189119   0.009357
 657   8  12.699898  -2.083431   2.614812   0.001878   0.189119   0.009931
 658   7  11.876067  -1.571198   2.313205   0.001211   0.396319   0.003056
 659   7  13.922679   5.308372   4.199293  -0.000389   0.029063  -0.013391
 660   9  14.312265   5.443903   3.936718  -0.000365   0.029063  -0.012545
 661  22  14.607758   5.471055   3.996141  -0.000310   0.029063  -0.010661
 662   7  15.620594   2.761167   5.676822  -0.000374   0.029063  -0.012872
 663   9  16.031254   2.865083   5.432586  -0.000303   0.029063  -0.010425
 664  22  16.173812   3.121668   5.358924  -0.000282   0.029063  -0.009694
 665   7  13.729662  -1.416109   1.536605  -0.000226   0.027326  -0.008257
 666   9  14.117059  -1.355777   1.244497  -0.000236   0.027326  -0.008643
 667  23  14.409047  -1.426148   1.248765  -0.000236   0.027326  -0.008628
 668   9  16.047812   2.449138   5.499625  -0.000677   0.125727  -0.005382
 669   7  15.521048   2.157806   5.890145  -0.000440   0.125727  -0.003501
 670   9  13.626680  -1.108592   0.843260  -0.001095   0.238305  -0.004593
 671   9  12.491119   0.487317  -0.183082  -0.004675   0.490180  -0.009538
 672   7  12.608259  -0.680372   0.799545  -0.005427   0.490180  -0.011071
 673   7  11.549285   1.055291  -0.069853  -0.001950   0.238305  -0.008182
 674   9  14.149727   5.485394   3.914839  -0.000069   0.007201  -0.009560
 675   7  13.596109   5.341098   4.319845  -0.000073   0.007201  -0.010189
 676  19   8.620889  -0.610163   2.528365  -0.001661   0.266943  -0.006221
 677   7   9.907974  -0.818044   2.174652  -0.001103   0.375957  -0.002934
 678  20  10.996838   3.752536   7.619820  -0.001077   0.220690  -0.004878
 679  20  10.956896   4.561473   7.096524  -0.001041   0.220690  -0.004717
 680   7  12.245090   3.839154   6.770025  -0.002450   0.617137  -0.003969
 681  22  14.898452   5.397199   4.293864  -0.001372   0.168038  -0.008164
 682  22  15.491774   4.587111   5.062722  -0.003622   0.342045  -0.010588
 683  22  16.134866   3.542336   5.369794  -0.001360   0.168038  -0.008096
 684   7  14.149103   4.854021   5.029166  -0.003950   0.463225  -0.008528
 685   7  15.033514   3.527231   5.798782  -0.003655   0.463225  -0.007890
 686  23  14.626350  -1.564052   1.354365  -0.000298   0.052513  -0.005684
 687   7  13.592949  -1.601042   1.731642  -0.000068   0.074151  -0.000911
 688   8  15.868621  -0.703909   4.568788   0.000948   0.062275   0.015228
 689   9  16.425719  -0.387721   4.066405  -0.000068   0.062275  -0.001097
 690  23  16.502082  -0.553083   3.825892  -0.000254   0.062275  -0.004076
 691   9  16.267198   1.376971   5.364339  -0.000604   0.366999  -0.001645
 692   9  16.484127   0.050305   4.571906   0.000233   0.366999   0.000635
 693   8  15.610591   0.167348   5.673266   0.008204   0.676510   0.012127
 694  19   8.760443  -1.293374   3.359624  -0.000712   0.215365  -0.003305
 695  19   8.567766  -1.517076   4.501979  -0.001159   0.433410  -0.002674
 696  19   8.477840  -1.066673   5.864312  -0.000303   0.433410  -0.000699
 697   8   9.959871  -1.876236   3.887933   0.005751   0.528123   0.010889
 698   8   9.757580  -1.865526   5.454307   0.007449   0.528123   0.014104
 699   8   9.733492  -1.238812   6.575561   0.003939   0.266077   0.014804
 700  20   9.654957   1.686855   8.166103  -0.000104   0.269696  -0.000387
 701  20  10.516051   2.669356   8.102019  -0.001479   0.542341  -0.002728
 702   8  11.128759   1.013217   7.972042   0.008171   0.670442   0.012187
 703   8  12.035377   2.101351   7.777981   0.002685   0.337705   0.007949
 704  23  16.507328  -0.961605   3.600679  -0.000548   0.251566  -0.002179
 705  23  15.775199  -1.651553   2.756403  -0.002045   0.506840  -0.004034
 706  23  14.863922  -1.781666   1.819661  -0.000896   0.251566  -0.003563
 707   8  15.363439  -1.585929   4.361519   0.007664   0.618905   0.012383
 708   8  14.240670  -2.146192   3.144733   0.006228   0.618905   0.010063
 709  21  13.642867   5.488017   0.001624  -0.000401   0.069710  -0.005752
 710  21  14.712846   5.432902  -0.361477  -0.000813   0.155599  -0.005227
 711  21  15.692528   4.720674  -0.993860  -0.001002   0.155599  -0.006438
 712  21  15.918980   3.521715  -1.608812  -0.001027   0.155599  -0.006597
 713  21  15.294612   2.352718  -1.941320  -0.000887   0.155599  -0.005700
 714  21  14.088497   1.717465  -1.848088  -0.000868   0.155599  -0.005578
 715  21  12.820414   1.889720  -1.369294  -0.001040   0.155599  -0.006686
 716   9  14.170402   5.601352   0.264583  -0.000702   0.151986  -0.004622
 717   9  15.532136   5.226323  -0.335705  -0.000685   0.151986  -0.004505
 718   9  16.249231   4.090045  -1.077296  -0.000801   0.151986  -0.005273
 719   9  16.012654   2.682198  -1.640600  -0.000803   0.151986  -0.005287
 720   9  14.924357   1.609498  -1.782859  -0.000639   0.151986  -0.004203
 721   9  13.453346   1.334227  -1.442767  -0.000783   0.151986  -0.005151
 722   9  12.381557   1.717965  -0.930155  -0.000610   0.085167  -0.007168
 723  22  16.689833   3.168929   5.186616  -0.000459   0.070576  -0.006498
 724  22  17.574255   2.895013   4.526674  -0.000997   0.157481  -0.006330
 725  22  18.291464   3.124426   3.378423  -0.000979   0.157481  -0.006219
 726  22  18.311446   3.927470   2.264771  -0.001047   0.157481  -0.006647
 727  22  17.625550   4.956448   1.667903  -0.001086   0.157481  -0.006899
 728  22  16.530752   5.765837   1.846248  -0.000993   0.157481  -0.006303
 729  22  15.501073   6.005192   2.722587  -0.001060   0.157481  -0.006728
 730  22  14.976479   5.739295   3.695652  -0.000525   0.070576  -0.007438
 731   9  16.896623   2.642961   4.973685  -0.001088   0.153964  -0.007065
 732   9  17.979634   2.515614   3.883045  -0.000748   0.153964  -0.004856
 733   9  18.418040   3.129614   2.537896  -0.000822   0.153964  -0.005341
 734   9  18.022023   4.219115   1.520653  -0.000931   0.153964  -0.006048
 735   9  16.963047   5.312388   1.271758  -0.000804   0.153964  -0.005224
 736   9  15.699625   5.936074   1.898977  -0.000807   0.153964  -0.005244
 737   9  14.778785   5.820131   3.130738  -0.001135   0.153964  -0.007369
 738  23  14.751289  -1.436067   0.842912  -0.000367   0.066492  -0.005518
 739  23  15.191525  -1.009910  -0.049389  -0.000836   0.146953  -0.005687
 740  23  16.143055  -0.316118  -0.623809  -0.000837   0.146953  -0.005697
 741  23  17.252452   0.341585  -0.392777  -0.000858   0.146953  -0.005837
 742  23  18.083525   0.704604   0.552870  -0.000855   0.146953  -0.005815
 743  23  18.309511   0.630206   1.841322  -0.000734   0.146953  -0.004993
 744  23  17.841557   0.147645   2.965985  -0.000851   0.146953  -0.005793
 745  23  17.088365  -0.415215   3.502184  -0.000408   0.066492  -0.006133
 746   9  14.521102  -1.113075   0.409815  -0.000857   0.146357  -0.005854
 747   9  15.332261  -0.432182  -0.612774  -0.000611   0.146357  -0.004172
 748   9  16.551558   0.367397  -0.815931  -0.000632   0.146357  -0.004319
 749   9  17.699590   0.971282  -0.119778  -0.000758   0.146357  -0.005178
 750   9  18.324972   1.142038   1.201972  -0.000699   0.146357  -0.004774
 751   9  18.181818   0.812527   2.629632  -0.000561   0.146357  -0.003832
 752   9  17.326412   0.112306   3.601875  -0.000679   0.146357  -0.004643
 753  20   7.300533   5.152936   7.920604  -0.000815   0.279625  -0.002915
 754  20   7.176935   4.027997   8.446038  -0.002444   0.559323  -0.004369
 755  20   7.031639   2.789886   8.392971  -0.000682   0.279625  -0.002439
 756  10   5.733851   4.914015   8.177758  -0.001217   0.559323  -0.002175
 757  10   5.566243   3.441071   8.472195  -0.001506   0.559323  -0.002692
 758  11   3.964424   3.997909  -0.179195  -0.000665   0.331544  -0.002006
 759  15   3.107887   3.347298  -0.109976  -0.000588   0.331544  -0.001774
 760  16   2.904389   4.441986  -0.074872  -0.000450   0.331544  -0.001356
 761  15   3.331955   2.670916  -0.536179  -0.000254   0.230332  -0.001104
 762  15   3.970175   1.836911  -0.508712  -0.000504   0.460511  -0.001094
 763  15   4.576256   1.092914  -0.081187   0.000192   0.230332   0.000833
 764  11   4.780725   3.271776  -0.661098  -0.000920   0.460511  -0.001998
 765  11   5.557417   2.286788  -0.377093  -0.000789   0.460511  -0.001714
 766  16   3.467692   6.498997  -0.244895   0.000074   0.245945   0.000303
 767  16   3.051996   5.549598  -0.453626  -0.000507   0.491581  -0.001031
 768  11   4.812641   5.514987  -0.486698  -0.000223   0.491581  -0.000454
 769  11   4.398212   4.550508  -0.612235  -0.000162   0.245945  -0.000660
 770  17   4.622099   8.492248   5.854394  -0.000145   0.241594  -0.000601
 771  17   4.665028   9.179610   4.970025  -0.000885   0.483146  -0.001832
 772  17   4.466469   9.375334   3.630822  -0.000374   0.483146  -0.000774
 773  12   6.039650   8.341927   5.264194  -0.000817   0.483146  -0.001690
 774  12   5.993287   8.953325   4.041393  -0.001173   0.483146  -0.002428
 775  12   5.761158   8.889453   2.946653  -0.000233   0.241594  -0.000964
 776  20   8.492019   6.088462   6.887965   0.000038   0.008559   0.004395
 777  12   7.887934   7.063365   5.978937   0.000052   0.008559   0.006107
 778  18  -1.631745   3.665731   3.848983   0.000074   0.254509   0.000291
 779  18  -1.629127   3.660502   5.006023  -0.000790   0.508970  -0.001552
 780  18  -0.882776   3.806551   6.192242  -0.000753   0.508970  -0.001480
 781  13  -1.359416   2.175279   4.283889  -0.000365   0.508970  -0.000717
 782  13  -1.056922   2.230018   5.659021  -0.000820   0.508970  -0.001611
 783  13  -0.251812   2.389877   6.474507  -0.000106   0.254509  -0.000417
 784  19   6.845006  -0.630173   6.177086  -0.001007   0.214509  -0.004696
 785  19   7.076313  -1.294058   5.281416  -0.003172   0.429304  -0.007388
 786  19   7.193969  -1.446956   3.904649  -0.003105   0.429304  -0.007232
 787  19   7.128471  -0.998545   2.860089  -0.001030   0.214509  -0.004800
 788  14   5.712374  -1.242087   5.785657  -0.002417   0.429304  -0.005631
 789  14   5.938593  -1.817290   4.540396  -0.002593   0.429304  -0.006039
 790  14   5.935059  -1.531474   3.179880  -0.001913   0.429304  -0.004455
 791  16   2.066824   4.566716  -0.409122  -0.000245   0.303601  -0.000808
 792  16   0.842795   4.332906   0.010112  -0.000412   0.607342  -0.000678
 793  15   1.869233   2.926324  -0.312509  -0.000919   0.607342  -0.001513
 794  15   0.693818   2.699444   0.231180   0.000206   0.303601   0.000678
 =====================================================

              5732344  WORDS OF DYNAMIC MEMORY USED
 EXECUTION OF GAMESS TERMINATED NORMALLY Thu Nov 24 10:56:11 2016
 DDI: 263640 bytes (0.3 MB / 0 MWords) used by master data server.

 ----------------------------------------
 CPU timing information for all processes
 ========================================
 0: 3771.608 + 2.156 = 3773.764
 ----------------------------------------
 ddikick.x: exited gracefully.
