----- GAMESS execution script -----

          ******************************************************
          *         GAMESS VERSION =  5 DEC 2014 (R1)          *
          *             FROM IOWA STATE UNIVERSITY             *
          * M.W.SCHMIDT, K.K.BALDRIDGE, J.A.BOATZ, S.T.ELBERT, *
          *   M.S.GORDON, J.H.JENSEN, S.KOSEKI, N.MATSUNAGA,   *
          *          K.A.NGUYEN, S.J.SU, T.L.WINDUS,           *
          *       TOGETHER WITH M.DUPUIS, J.A.MONTGOMERY       *
          *         J.COMPUT.CHEM.  14, 1347-1363(1993)        *
          **************** 64 BIT LINUX VERSION ****************

 EXECUTION OF GAMESS BEGUN Thu Nov 24 13:11:44 2016

            ECHO OF THE FIRST FEW INPUT CARDS -
 INPUT CARD>! SELECT RESTRICTED HARTREE-FOCK AS DEFAULT                                     
 INPUT CARD>$contrl scftyp=rhf $end                                                         
 INPUT CARD>                                                                                
 INPUT CARD>! THEORY: HF OR DFT                                                             
 INPUT CARD> $contrl mplevl=0 $end                                                          
 INPUT CARD>                                                                                
 INPUT CARD> $system timlim=10000 mwords=20 $end                                            
 INPUT CARD> $SCF DIRSCF=.TRUE. $end                                                        
 INPUT CARD>                                                                                
 INPUT CARD>                                                                                
 INPUT CARD>! BASIS SETS                                                                    
 INPUT CARD>! 6-311G(d,p)                                                                   
 INPUT CARD> $BASIS GBASIS=N311 NGAUSS=6 NDFUNC=1 NPFUNC=1 $END                             
 INPUT CARD>                                                                                
 INPUT CARD>! One of the following                                                          
 INPUT CARD> $guess guess=HUCKEL $end                                                       
 INPUT CARD>                                                                                
 INPUT CARD> $statpt projct=.FALSE. $end                                                    
 INPUT CARD> $STATPT IFREEZ(1)=1,2,3 $END                                                   
 INPUT CARD>                                                                                
 INPUT CARD>! Optimize the geometry with COSMO effects                                      
 INPUT CARD> $statpt opttol=0.0005 nstep=50 $end                                            
 INPUT CARD> $contrl nzvar=1 $end                                                           
 INPUT CARD> $zmat dlc=.t. auto=.t. $end                                                    
 INPUT CARD> $contrl runtyp=OPTIMIZE maxit=200 $end                                         
 INPUT CARD>                                                                                
 INPUT CARD>! Run COSMO on perfect conductor                                                
 INPUT CARD> $COSGMS PRFCND=.TRUE. $end                                                     
 INPUT CARD>                                                                                
 INPUT CARD>! Specifying RSOLV                                                              
 INPUT CARD> $COSGMS COSRAD = 1.4 $end                                                      
 INPUT CARD>                                                                                
 INPUT CARD>! available memory                                                              
 INPUT CARD> $SYSTEM MWORDS=40 $END                                                         
 INPUT CARD>                                                                                
 INPUT CARD> $DATA                                                                          
 INPUT CARD>file:/home/renata/açucares/keto_D-fructose.mol                                 
 INPUT CARD>C1                                                                              
 INPUT CARD>C      6.0      0.0766100000    0.0092300000    0.0010200000                    
 INPUT CARD>C      6.0      1.4436600000    0.4859300000   -0.5030900000                    
 INPUT CARD>H      1.0      0.0112700000    0.0839300000    1.0908400000                    
 INPUT CARD>O      8.0     -0.9231000000    0.8779900000   -0.5454400000                    
 INPUT CARD>H      1.0     -0.1337600000   -1.0179200000   -0.3121200000                    
 INPUT CARD>C      6.0      2.5968600000   -0.2989900000    0.1395100000                    
 INPUT CARD>O      8.0      1.5743600000    1.8860700000   -0.2221100000                    
 INPUT CARD>H      1.0      1.4611700000    0.3765200000   -1.5937500000                    
 INPUT CARD>O      8.0      2.4824300000   -1.6710700000   -0.2633300000                    
 INPUT CARD>H      1.0      2.4876600000   -0.2676700000    1.2311800000                    
 INPUT CARD>C      6.0      3.9771500000    0.2947200000   -0.2288900000                    
 INPUT CARD>H      1.0      4.0435700000    1.3317200000    0.1202000000                    
   40000000 WORDS OF MEMORY AVAILABLE

     BASIS OPTIONS
     -------------
     GBASIS=N311         IGAUSS=       6      POLAR=POPN311 
     NDFUNC=       1     NFFUNC=       0     DIFFSP=       F
     NPFUNC=       1      DIFFS=       F     BASNAM=        


     RUN TITLE
     ---------
 file:/home/renata/açucares/keto_D-fructose.mol                                 

 THE POINT GROUP OF THE MOLECULE IS C1      
 THE ORDER OF THE PRINCIPAL AXIS IS     0

 ATOM      ATOMIC                      COORDINATES (BOHR)
           CHARGE         X                   Y                   Z
 C           6.0     0.1447719079        0.0174421709        0.0019275205
 C           6.0     2.7281218194        0.9182745492       -0.9507022472
 H           1.0     0.0212972119        0.1586047021        2.0613886964
 O           8.0    -1.7444060593        1.6591605200       -1.0307321427
 H           1.0    -0.2527697481       -1.9235898774       -0.5898212753
 C           6.0     4.9073538285       -0.5650091731        0.2636356725
 O           8.0     2.9751090060        3.5641554937       -0.4197270391
 H           1.0     2.7612109215        0.7115196289       -3.0117507929
 O           8.0     4.6911124837       -3.1578644063       -0.4976215443
 H           1.0     4.7009957506       -0.5058229551        2.3265928416
 C           6.0     7.5157237121        0.5569400431       -0.4325393813
 H           1.0     7.6412393122        2.5165858924        0.2271450637
 O           8.0     7.9814088872        0.5255138999       -3.0860359215
 C           6.0     9.6443299619       -0.8916672073        0.8701810228
 C           6.0    12.3084656594        0.1231534426        0.4749826270
 H           1.0    12.3138702757        2.1718620777        0.7374088749
 H           1.0    12.9331334819       -0.3391869175       -1.4390263397
 O           8.0    14.0416278490       -0.9404221378        2.2283081929
 H           1.0    -3.3723672032        0.9571273155       -0.5337153107
 H           1.0    13.4881460045       -2.6802928547        2.5099718514
 H           1.0     6.8076055899        1.7207466899       -3.8522064260
 H           1.0     1.3002070686        4.2623336571       -0.8065350516
 H           1.0     6.0777178245       -4.0630809489        0.3340657601
 O           8.0     9.2674997027       -2.8099847492        2.1496577973

          INTERNUCLEAR DISTANCES (ANGS.)




     $CONTRL OPTIONS
     ---------------
 SCFTYP=RHF          RUNTYP=OPTIMIZE     EXETYP=RUN     
 MPLEVL=       0     CITYP =NONE         CCTYP =NONE         VBTYP =NONE    
 DFTTYP=NONE         TDDFT =NONE    
 MULT  =       1     ICHARG=       0     NZVAR =       1     COORD =UNIQUE  
 PP    =NONE         RELWFN=NONE         LOCAL =NONE         NUMGRD=       F
 ISPHER=      -1     NOSYM =       0     MAXIT =     200     UNITS =ANGS    
 PLTORB=       F     MOLPLT=       F     AIMPAC=       F     FRIEND=        
 NPRINT=       7     IREST =       0     GEOM  =INPUT   
 NORMF =       0     NORMP =       0     ITOL  =      20     ICUT  =       9
 INTTYP=BEST         GRDTYP=BEST         QMTTOL= 1.0E-06

     $SYSTEM OPTIONS
     ---------------
  REPLICATED MEMORY=    40000000 WORDS (ON EVERY NODE).
 DISTRIBUTED MEMDDI=           0 MILLION WORDS IN AGGREGATE,
 MEMDDI DISTRIBUTED OVER   1 PROCESSORS IS           0 WORDS/PROCESSOR.
 TOTAL MEMORY REQUESTED ON EACH PROCESSOR=    40000000 WORDS.
 TIMLIM=       10000.00 MINUTES, OR       6.9 DAYS.
 PARALL= F  BALTYP=  DLB     KDIAG=    0  COREFL= F
 MXSEQ2=     300 MXSEQ3=     150  mem10=         0

     $COSGMS OPTIONS
     ---------------
     EPSI  =   INFTY     NSPA  =      92     COSRAD=    1.40
     DISEX =   10.00     OUTCHG=DBLCAV       COSBUG=       F
     COSWRT=       F     DCOSMO=       F

     SYMMETRY COORDINATES WILL NOT BE USED FOR 
     THE COSMO CALCULATION, EVEN IF SPECIFIED:
         -- SWITCHING TO C1 POINT GROUP --


     DEFINITION OF CAVITY
     ---------------------------
     ATOM         COORDINATES           RADIUS 
     1    0.1448    0.0174    0.0019    2.0000
     2    2.7281    0.9183   -0.9507    2.0000
     3    0.0213    0.1586    2.0614    1.3000
     4   -1.7444    1.6592   -1.0307    1.7200
     5   -0.2528   -1.9236   -0.5898    1.3000
     6    4.9074   -0.5650    0.2636    2.0000
     7    2.9751    3.5642   -0.4197    1.7200
     8    2.7612    0.7115   -3.0118    1.3000
     9    4.6911   -3.1579   -0.4976    1.7200
    10    4.7010   -0.5058    2.3266    1.3000
    11    7.5157    0.5569   -0.4325    2.0000
    12    7.6412    2.5166    0.2271    1.3000
    13    7.9814    0.5255   -3.0860    1.7200
    14    9.6443   -0.8917    0.8702    2.0000
    15   12.3085    0.1232    0.4750    2.0000
    16   12.3139    2.1719    0.7374    1.3000
    17   12.9331   -0.3392   -1.4390    1.3000
    18   14.0416   -0.9404    2.2283    1.7200
    19   -3.3724    0.9571   -0.5337    1.3000
    20   13.4881   -2.6803    2.5100    1.3000
    21    6.8076    1.7207   -3.8522    1.3000
    22    1.3002    4.2623   -0.8065    1.3000
    23    6.0777   -4.0631    0.3341    1.3000
    24    9.2675   -2.8100    2.1497    1.7200

          ----------------
          PROPERTIES INPUT
          ----------------

     MOMENTS            FIELD           POTENTIAL          DENSITY
 IEMOM =       1   IEFLD =       0   IEPOT =       0   IEDEN =       0
 WHERE =COMASS     WHERE =NUCLEI     WHERE =NUCLEI     WHERE =NUCLEI  
 OUTPUT=BOTH       OUTPUT=BOTH       OUTPUT=BOTH       OUTPUT=BOTH    
 IEMINT=       0   IEFINT=       0                     IEDINT=       0
                                                       MORB  =       0
          EXTRAPOLATION IN EFFECT
          SOSCF IN EFFECT
 ORBITAL PRINTING OPTION: NPREO=     1   300     2     1

     -------------------------------
     INTEGRAL TRANSFORMATION OPTIONS
     -------------------------------
     NWORD  =            0
     CUTOFF = 1.0E-09     MPTRAN =       0
     DIRTRF =       T     AOINTS =DUP     

          ----------------------
          INTEGRAL INPUT OPTIONS
          ----------------------
 NOPK  =       1 NORDER=       0 SCHWRZ=       T


 -----------------------------------------------
  STATISTICS ON AUTOMATIC COORDINATE GENERATION 
 -----------------------------------------------
  NUMBER OF USER SPECIFIED BONDS                             0
  NUMBER OF BONDS                                           23
  NUMBER OF ANGLES                                          38
  NUMBER OF TORSIONS                                        54
  NUMBER OF EXTRA COORD.                                     0
  NUMBER OF EXTRA COORD. FOR CONSTRAINTS                     0
  NUMBER OF CONSTRAINED COORD.                               0

  TOTAL NUMBER OF PRIMITIVES                               115
 -----------------------------------------------

   --- ENCODED Z MATRIX ---
 COORD  TYPE   I   J   K   L   M   N
    1      1    1   2
    2      1    1   5
    3      1    1   4
    4      1    1   3
    5      1    2   7
    6      1    2   8
    7      1    2   6
    8      1    4  19
    9      1    6  11
   10      1    6  10
   11      1    6   9
   12      1    7  22
   13      1    9  23
   14      1   11  14
   15      1   11  13
   16      1   11  12
   17      1   13  21
   18      1   14  15
   19      1   14  24
   20      1   15  16
   21      1   15  18
   22      1   15  17
   23      1   18  20
   24      2    1   2   8
   25      2    1   2   7
   26      2    1   2   6
   27      2    1   4  19
   28      2    2   6  10
   29      2    2   1   5
   30      2    2   1   3
   31      2    2   1   4
   32      2    2   7  22
   33      2    2   6   9
   34      2    2   6  11
   35      2    3   1   4
   36      2    3   1   5
   37      2    4   1   5
   38      2    6   2   8
   39      2    6   2   7
   40      2    6   9  23
   41      2    6  11  12
   42      2    6  11  13
   43      2    6  11  14
   44      2    7   2   8
   45      2    9   6  10
   46      2    9   6  11
   47      2   10   6  11
   48      2   11  13  21
   49      2   11  14  24
   50      2   11  14  15
   51      2   12  11  13
   52      2   12  11  14
   53      2   13  11  14
   54      2   14  15  17
   55      2   14  15  18
   56      2   14  15  16
   57      2   15  14  24
   58      2   15  18  20
   59      2   16  15  17
   60      2   16  15  18
   61      2   17  15  18
   62      3    1   2   7  22
   63      3    1   2   6   9
   64      3    1   2   6  10
   65      3    1   2   6  11
   66      3    2   1   4  19
   67      3    2   6  11  12
   68      3    2   6  11  13
   69      3    2   6  11  14
   70      3    2   6   9  23
   71      3    3   1   2   8
   72      3    3   1   2   7
   73      3    3   1   2   6
   74      3    3   1   4  19
   75      3    4   1   2   7
   76      3    4   1   2   8
   77      3    4   1   2   6
   78      3    5   1   4  19
   79      3    5   1   2   8
   80      3    5   1   2   7
   81      3    5   1   2   6
   82      3    6  11  13  21
   83      3    6  11  14  24
   84      3    6  11  14  15
   85      3    6   2   7  22
   86      3    7   2   6  11
   87      3    7   2   6  10
   88      3    7   2   6   9
   89      3    8   2   7  22
   90      3    8   2   6  11
   91      3    8   2   6  10
   92      3    8   2   6   9
   93      3    9   6  11  13
   94      3    9   6  11  12
   95      3    9   6  11  14
   96      3   10   6  11  14
   97      3   10   6  11  13
   98      3   10   6  11  12
   99      3   10   6   9  23
  100      3   11   6   9  23
  101      3   11  14  15  17
  102      3   11  14  15  18
  103      3   11  14  15  16
  104      3   12  11  14  15
  105      3   12  11  14  24
  106      3   12  11  13  21
  107      3   13  11  14  15
  108      3   13  11  14  24
  109      3   14  15  18  20
  110      3   14  11  13  21
  111      3   16  15  18  20
  112      3   16  15  14  24
  113      3   17  15  18  20
  114      3   17  15  14  24
  115      3   18  15  14  24

          INDEP./SYM. INTERNAL COORDINATES
          --------------------------------
 CRD  1=   0.2893 ( 26)  0.1129 ( 28) -0.1469 ( 31)  0.1412 ( 33) -0.4231 ( 34)
          -0.1332 ( 39) -0.1500 ( 42)  0.4134 ( 43)  0.1564 ( 46)  0.1157 ( 47)
           0.1758 ( 49) -0.3103 ( 50) -0.1159 ( 52) -0.1402 ( 53)  0.1413 ( 55)
           0.1344 ( 57)  0.1114 ( 62) -0.1555 ( 70) -0.1705 ( 82) -0.1155 ( 85)
           0.1770 (100)  0.1555 (110)
 CRD  2=  -0.1910 (  7) -0.1549 (  9) -0.1527 ( 14) -0.1101 ( 18)  0.1174 ( 24)
          -0.2115 ( 26) -0.1086 ( 30) -0.1393 ( 34)  0.1214 ( 38)  0.1191 ( 42)
           0.1603 ( 46) -0.1647 ( 50)  0.1071 ( 53)  0.1038 ( 57) -0.1415 ( 62)
           0.2397 ( 65)  0.1003 ( 66) -0.1319 ( 67) -0.1609 ( 68) -0.3262 ( 69)
          -0.1125 ( 73) -0.1625 ( 77)  0.1410 ( 83)  0.2688 ( 84)  0.1023 ( 85)
           0.1713 ( 86)  0.1495 ( 90) -0.1963 ( 95) -0.1424 ( 96) -0.1634 (102)
 CRD  3=   0.1084 (  7)  0.1519 (  9)  0.1140 ( 14) -0.3067 ( 26)  0.2634 ( 31)
          -0.2120 ( 33)  0.2542 ( 34)  0.1560 ( 39)  0.2812 ( 43)  0.1720 ( 49)
          -0.3019 ( 50) -0.2031 ( 53)  0.3248 ( 55) -0.1158 ( 56)  0.1295 ( 57)
           0.1058 ( 58) -0.1228 ( 62)  0.1295 ( 70)  0.1481 (110)
 CRD  4=   0.1695 (  1)  0.2588 (  7)  0.3042 (  9)  0.2274 ( 14)  0.1904 ( 18)
          -0.2502 ( 25)  0.2845 ( 26)  0.1118 ( 27) -0.1104 ( 28)  0.1287 ( 29)
          -0.1106 ( 31)  0.1962 ( 34) -0.1043 ( 47)  0.1723 ( 50) -0.1117 ( 57)
           0.1084 ( 58)  0.1179 ( 62)  0.1130 ( 63)  0.1120 ( 64)  0.1917 ( 65)
          -0.1110 ( 68) -0.1951 ( 69) -0.1112 ( 77)  0.1771 ( 84) -0.1105 ( 96)
          -0.1256 (100) -0.1087 (102)
 CRD  5=   0.1029 (  5)  0.1320 ( 14) -0.1103 ( 24)  0.1970 ( 25) -0.1302 ( 28)
           0.1624 ( 31)  0.1620 ( 32)  0.1704 ( 33)  0.1163 ( 38) -0.2051 ( 39)
           0.1171 ( 41) -0.2807 ( 42) -0.1886 ( 46)  0.1352 ( 47) -0.1342 ( 52)
           0.2031 ( 53)  0.1307 ( 55)  0.1362 ( 58) -0.1103 ( 60) -0.1309 ( 64)
          -0.2124 ( 65) -0.1516 ( 67) -0.1079 ( 68) -0.2114 ( 69) -0.1052 ( 73)
          -0.2010 ( 83) -0.1576 ( 84) -0.1182 ( 86) -0.1384 ( 90) -0.1274 ( 95)
          -0.1380 ( 96) -0.1432 (102) -0.1132 (103) -0.1113 (105) -0.1006 (115)
 CRD  6=   0.1086 (  9)  0.2148 ( 14)  0.2081 ( 18) -0.1421 ( 26)  0.1232 ( 28)
           0.1536 ( 31) -0.1564 ( 33) -0.1972 ( 34)  0.1434 ( 40) -0.1955 ( 42)
           0.1933 ( 43)  0.3040 ( 46) -0.1340 ( 48) -0.1463 ( 49)  0.3958 ( 50)
           0.1235 ( 54) -0.1545 ( 55)  0.1077 ( 56) -0.2491 ( 57)  0.1592 ( 68)
          -0.1549 ( 82)  0.1338 ( 86)  0.1400 ( 97)  0.1294 (100)  0.1041 (107)
 CRD  7=   0.2779 (  1)  0.1246 (  7)  0.1959 (  9) -0.1088 ( 14) -0.1308 ( 21)
           0.1757 ( 25)  0.2913 ( 31)  0.1756 ( 32) -0.1190 ( 35) -0.1370 ( 37)
          -0.2317 ( 39)  0.1849 ( 42)  0.1016 ( 43)  0.1575 ( 48) -0.2671 ( 53)
           0.1184 ( 54) -0.3464 ( 55) -0.2215 ( 58)  0.1269 ( 60) -0.1285 ( 68)
           0.1008 ( 95)
 CRD  8=  -0.1858 (  1)  0.1306 (  9) -0.1381 ( 21) -0.2360 ( 31) -0.1548 ( 33)
           0.1424 ( 34)  0.1102 ( 37)  0.1426 ( 39)  0.1690 ( 40)  0.2122 ( 43)
           0.1371 ( 49) -0.1610 ( 52) -0.3763 ( 55)  0.1878 ( 56) -0.1950 ( 58)
           0.1516 ( 61) -0.1238 ( 83) -0.1074 ( 84)  0.1111 ( 85) -0.1452 ( 86)
          -0.1581 ( 88) -0.1648 ( 93) -0.1171 ( 94) -0.1579 ( 95) -0.1050 (101)
          -0.1094 (109)  0.1145 (110)
 CRD  9=   0.2978 (  7) -0.2547 (  9) -0.1354 ( 15)  0.1269 ( 24) -0.1873 ( 25)
          -0.1514 ( 30)  0.2136 ( 31) -0.1157 ( 32)  0.2265 ( 33)  0.1836 ( 39)
          -0.1679 ( 40) -0.2179 ( 42)  0.1743 ( 43) -0.2441 ( 46) -0.1572 ( 48)
           0.1230 ( 49)  0.1115 ( 51) -0.1778 ( 55) -0.1161 ( 58)  0.2216 ( 63)
           0.1203 ( 66) -0.1388 ( 75) -0.1289 ( 82)  0.1036 ( 92)  0.1324 (107)
           0.1274 (108)
 CRD 10=   0.2766 (  1)  0.1065 (  7)  0.1346 ( 11) -0.1219 ( 14) -0.1557 ( 15)
          -0.1439 ( 18)  0.1682 ( 26)  0.1236 ( 28)  0.2443 ( 31) -0.1430 ( 33)
          -0.1083 ( 35) -0.1353 ( 37) -0.1262 ( 38)  0.2075 ( 40)  0.1526 ( 41)
          -0.1075 ( 43) -0.1184 ( 47) -0.2660 ( 48) -0.1467 ( 50) -0.1218 ( 51)
           0.1684 ( 53) -0.1226 ( 54)  0.1313 ( 61)  0.1499 ( 68) -0.1359 ( 83)
          -0.1312 ( 84) -0.1459 ( 85)  0.1228 ( 86)  0.1168 ( 88) -0.1185 (102)
          -0.1056 (103) -0.1548 (107) -0.1594 (108) -0.1063 (109) -0.1005 (112)
          -0.1134 (115)
 CRD 11=   0.1227 (  1)  0.2501 (  5) -0.1686 (  9) -0.1302 ( 18)  0.1021 ( 27)
           0.1587 ( 30) -0.1975 ( 31)  0.3237 ( 32) -0.1343 ( 33)  0.1643 ( 34)
           0.1097 ( 45) -0.1273 ( 47)  0.1567 ( 49) -0.1020 ( 50)  0.1194 ( 53)
           0.1457 ( 54) -0.1541 ( 56) -0.1058 ( 64) -0.1533 ( 66)  0.1261 ( 73)
           0.1183 ( 75)  0.2164 ( 77)  0.1123 ( 81)  0.2000 ( 84)  0.1210 ( 88)
          -0.1106 ( 95) -0.1211 (100)  0.1354 (104)  0.2257 (107)  0.1205 (108)
           0.1098 (109)
 CRD 12=  -0.1120 (  1) -0.1209 (  2)  0.1764 (  7)  0.2633 ( 11)  0.2252 ( 15)
          -0.1955 ( 25) -0.1647 ( 27) -0.1786 ( 29)  0.2486 ( 31) -0.1523 ( 34)
          -0.1039 ( 37) -0.1547 ( 38)  0.2150 ( 39)  0.3441 ( 40) -0.1034 ( 43)
           0.3043 ( 48) -0.1375 ( 66)  0.1424 ( 73)  0.2122 ( 77)  0.1368 ( 81)
          -0.1269 ( 86)
 CRD 13=  -0.3404 (  5) -0.3232 (  7) -0.2924 ( 11) -0.1555 ( 12) -0.1790 ( 13)
           0.1129 ( 15)  0.1656 ( 26) -0.1308 ( 27)  0.2042 ( 31) -0.4226 ( 32)
          -0.1505 ( 33) -0.2429 ( 40)  0.1059 ( 48)  0.1099 ( 49) -0.1100 ( 95)
           0.1237 (107)
 CRD 14=  -0.1492 (  1)  0.1442 (  7)  0.1553 (  9)  0.1482 ( 14)  0.1033 ( 17)
          -0.1398 ( 18)  0.1064 ( 21)  0.1140 ( 33) -0.1119 ( 34) -0.2649 ( 40)
           0.1779 ( 42) -0.1648 ( 45)  0.2232 ( 49) -0.1372 ( 51) -0.1064 ( 55)
          -0.1931 ( 57)  0.2048 ( 58)  0.1657 ( 61) -0.1189 ( 63)  0.1291 ( 68)
           0.1202 ( 84) -0.1126 ( 88)  0.2280 ( 93)  0.1357 ( 94)  0.1201 ( 95)
           0.1022 (100) -0.1195 (101) -0.2532 (102) -0.1397 (103) -0.1345 (108)
           0.1219 (110) -0.1291 (111) -0.1990 (115)
 CRD 15=   0.2981 ( 14)  0.2456 ( 15)  0.1034 ( 17) -0.2755 ( 18)  0.1037 ( 21)
           0.3696 ( 48)  0.3379 ( 49) -0.2521 ( 54) -0.3679 ( 57)  0.1025 ( 63)
          -0.1275 ( 84)  0.1056 ( 88)  0.1383 (102) -0.1383 (104) -0.1160 (109)
           0.1266 (113)
 CRD 16=  -0.4157 (  3)  0.1025 (  5) -0.1124 (  7) -0.1631 (  8)  0.1232 ( 18)
          -0.5542 ( 27)  0.2291 ( 29)  0.1835 ( 32) -0.1518 ( 37) -0.1034 ( 38)
          -0.1179 ( 40) -0.1199 ( 53)  0.1417 ( 56)  0.1282 ( 63)  0.1141 ( 72)
           0.1231 ( 73) -0.1251 ( 78)
 CRD 17=  -0.1170 (  1) -0.2663 (  3)  0.1385 (  7) -0.1207 (  8)  0.1329 (  9)
           0.1347 ( 11)  0.1390 ( 14) -0.1621 ( 18) -0.1534 ( 24) -0.3683 ( 27)
           0.1364 ( 38) -0.1250 ( 39)  0.1675 ( 40)  0.1462 ( 41) -0.1012 ( 43)
          -0.1261 ( 48)  0.1643 ( 49) -0.1062 ( 51)  0.1608 ( 53) -0.1979 ( 56)
          -0.1725 ( 58)  0.1604 ( 60) -0.1548 ( 61)  0.1017 ( 62) -0.1232 ( 77)
          -0.1505 ( 81) -0.1120 ( 88)  0.1641 (102)  0.1180 (109)  0.1726 (115)
 CRD 18=   0.1643 (  1)  0.1513 ( 14)  0.2566 ( 15)  0.1921 ( 17)  0.2099 ( 18)
           0.1855 ( 19) -0.3159 ( 21) -0.1799 ( 23)  0.1334 ( 24)  0.1222 ( 39)
          -0.1654 ( 40)  0.2306 ( 48) -0.1006 ( 50)  0.1585 ( 53)  0.1013 ( 57)
          -0.4275 ( 58) -0.1374 ( 61) -0.1148 ( 62) -0.1135 (101)
 CRD 19=   0.3079 (  1) -0.1561 (  3)  0.1139 ( 21)  0.1166 ( 25) -0.1039 ( 26)
          -0.1205 ( 27)  0.4328 ( 30) -0.1592 ( 31) -0.2425 ( 32) -0.2114 ( 35)
          -0.1421 ( 36)  0.1668 ( 37) -0.1931 ( 44)  0.1632 ( 58) -0.1318 ( 62)
          -0.1261 ( 72)  0.2163 ( 74) -0.2337 ( 75) -0.1210 ( 77) -0.1873 ( 80)
          -0.1311 ( 85) -0.1231 ( 89)
 CRD 20=   0.2128 (  1)  0.1070 (  2)  0.1055 (  5) -0.1643 (  7)  0.2202 (  9)
          -0.1279 ( 14) -0.1081 ( 19)  0.1852 ( 21)  0.1497 ( 23)  0.1874 ( 24)
           0.2812 ( 29) -0.1665 ( 30) -0.1068 ( 37) -0.1260 ( 38)  0.1467 ( 41)
           0.1881 ( 47)  0.2363 ( 54) -0.1003 ( 55) -0.2587 ( 56)  0.2281 ( 58)
           0.2333 ( 60)  0.1099 ( 64)  0.1674 ( 66) -0.1093 ( 83) -0.1105 ( 86)
          -0.1418 ( 90)  0.1126 (100)  0.1659 (109)
 CRD 21=  -0.1154 (  2)  0.1296 (  4) -0.2225 (  7)  0.1663 ( 11)  0.2081 ( 14)
          -0.1527 ( 15) -0.1662 ( 28) -0.1524 ( 29)  0.1225 ( 30)  0.1449 ( 33)
           0.1589 ( 40) -0.1128 ( 41)  0.1632 ( 42) -0.1519 ( 46)  0.1139 ( 47)
          -0.1663 ( 48)  0.1120 ( 49)  0.1338 ( 52) -0.1169 ( 53)  0.2244 ( 54)
          -0.1869 ( 56) -0.1551 ( 57)  0.1138 ( 60) -0.2009 ( 61)  0.1206 ( 63)
          -0.1459 ( 66) -0.1470 ( 67)  0.1294 ( 88)  0.1002 ( 96) -0.1275 ( 99)
          -0.1083 (101)  0.1171 (106) -0.1575 (107) -0.1718 (108)  0.1353 (109)
 CRD 22=   0.1977 (  1)  0.1316 (  4) -0.1584 (  7)  0.1445 (  9) -0.1805 ( 10)
          -0.2035 ( 18) -0.1660 ( 19) -0.1044 ( 21) -0.1818 ( 22)  0.1293 ( 24)
          -0.1017 ( 25) -0.1591 ( 28)  0.1190 ( 30) -0.1135 ( 38)  0.1363 ( 47)
          -0.2487 ( 48) -0.3031 ( 54)  0.1741 ( 55)  0.1040 ( 56) -0.1381 ( 58)
           0.1279 ( 59) -0.1739 ( 60) -0.1047 ( 67)  0.1448 ( 70)  0.1151 ( 77)
           0.1089 ( 83) -0.1218 ( 88)  0.1176 ( 89)  0.1003 (100)  0.1236 (104)
           0.1442 (105)  0.1098 (108) -0.1111 (109)  0.1070 (113)
 CRD 23=   0.1330 (  4) -0.1440 (  5)  0.1504 ( 11) -0.1475 ( 12)  0.1537 ( 13)
           0.1162 ( 17)  0.2140 ( 18)  0.2684 ( 19)  0.1740 ( 20)  0.1350 ( 21)
           0.1075 ( 23) -0.1194 ( 28) -0.1935 ( 32)  0.1120 ( 33)  0.1687 ( 35)
          -0.1125 ( 37)  0.1030 ( 38) -0.1104 ( 46) -0.1788 ( 50) -0.1828 ( 55)
           0.2057 ( 56)  0.1450 ( 57)  0.1467 ( 58) -0.1363 ( 59)  0.1428 ( 61)
          -0.1045 ( 66)  0.1679 ( 75)  0.1938 ( 76)  0.1289 ( 77)  0.1258 ( 93)
           0.1145 ( 97)  0.1138 (101)  0.1029 (105)
 CRD 24=   0.1726 (  1)  0.1271 (  7) -0.1471 (  9) -0.1913 ( 20) -0.1535 ( 21)
          -0.1586 ( 23)  0.1095 ( 25)  0.3406 ( 29) -0.1866 ( 30) -0.2723 ( 32)
           0.2336 ( 35) -0.2309 ( 37)  0.1328 ( 38)  0.1670 ( 40) -0.1169 ( 41)
           0.1038 ( 52) -0.1042 ( 58) -0.1238 ( 60) -0.1080 ( 64) -0.1004 ( 65)
           0.1488 ( 76) -0.1662 ( 78) -0.1739 (102) -0.1599 (115)
 CRD 25=  -0.1565 (  1) -0.1455 (  2)  0.1316 (  4) -0.1143 (  5)  0.1787 (  7)
           0.2158 (  9) -0.2158 ( 14) -0.1600 ( 18) -0.3454 ( 19)  0.1039 ( 25)
           0.1382 ( 35)  0.1090 ( 38) -0.2113 ( 40) -0.1027 ( 44)  0.1486 ( 50)
          -0.1990 ( 52) -0.1144 ( 56) -0.1217 ( 66) -0.1001 ( 70) -0.1103 ( 74)
           0.1781 ( 76)  0.1158 ( 77)  0.1455 ( 86)  0.1604 ( 87)  0.1719 ( 88)
          -0.1196 ( 89)  0.1014 ( 91)  0.1129 ( 92) -0.1225 ( 96)  0.1094 (110)
 CRD 26=   0.2026 (  1)  0.1461 (  4)  0.1751 (  6)  0.1221 (  7) -0.2514 (  9)
          -0.2666 ( 10) -0.1331 ( 16)  0.1537 ( 20)  0.1004 ( 21)  0.1314 ( 23)
           0.1110 ( 28) -0.1093 ( 37) -0.1491 ( 40) -0.1035 ( 41) -0.1013 ( 45)
           0.1684 ( 46) -0.1183 ( 47)  0.1974 ( 60) -0.1317 ( 61) -0.1014 ( 63)
          -0.1127 ( 66) -0.1152 ( 69)  0.1153 ( 76) -0.1051 ( 78)  0.1136 ( 85)
          -0.1074 ( 87) -0.1721 ( 88) -0.1321 ( 92) -0.1420 ( 96) -0.1078 ( 98)
           0.1452 ( 99)  0.1456 (102) -0.1927 (104) -0.1759 (105) -0.1548 (107)
          -0.1380 (108)  0.1287 (115)
 CRD 27=  -0.1069 (  2)  0.1223 (  4)  0.3811 (  6) -0.2042 ( 10)  0.3779 ( 16)
          -0.1908 ( 20)  0.1693 ( 22) -0.1098 ( 29)  0.1495 ( 30) -0.1584 ( 42)
           0.2020 ( 48)  0.1269 ( 51)  0.1313 ( 64)  0.1607 ( 65)  0.1003 ( 70)
           0.1297 ( 72)  0.1035 ( 75)  0.1254 ( 80) -0.1005 ( 83) -0.1177 ( 84)
           0.1385 ( 85)  0.1100 ( 90)  0.1322 ( 94)  0.1465 ( 95) -0.1242 (102)
          -0.1422 (115)
 CRD 28=   0.3609 (  6) -0.1671 (  9)  0.2442 ( 10) -0.1304 ( 14) -0.4943 ( 16)
           0.1952 ( 17) -0.2040 ( 19)  0.1810 ( 40)  0.1206 ( 43) -0.1018 ( 46)
           0.1334 ( 67)  0.1620 ( 68)  0.1202 ( 72)  0.1163 ( 80)  0.1402 ( 85)
          -0.1176 ( 86)  0.1064 ( 93)  0.1619 ( 97)  0.1333 ( 98)  0.1641 (110)
 CRD 29=  -0.1398 (  4) -0.4580 (  6) -0.1213 (  7) -0.1394 (  9) -0.5448 ( 10)
           0.1680 ( 13) -0.1229 ( 16)  0.1336 ( 17) -0.1430 ( 19) -0.1000 ( 28)
           0.1314 ( 34)  0.1161 ( 43)  0.1293 ( 48) -0.1055 ( 52)  0.1680 ( 70)
          -0.1036 ( 85)  0.1366 ( 93)  0.1769 ( 94)  0.1055 ( 97)  0.1458 ( 98)
 CRD 30=  -0.2239 ( 16) -0.5438 ( 20) -0.1712 ( 21)  0.1043 ( 41)  0.1045 ( 49)
           0.2118 ( 54)  0.1186 ( 56)  0.2374 ( 58) -0.1608 ( 59) -0.2019 ( 60)
           0.2291 (101)  0.2347 (103)  0.1113 (109)  0.1131 (111)  0.2294 (112)
          -0.1683 (113)  0.2238 (114)
 CRD 31=   0.1972 ( 16) -0.1164 ( 20) -0.1458 ( 21) -0.7021 ( 22)  0.1362 ( 54)
           0.1963 ( 56)  0.2225 ( 58) -0.2222 ( 59) -0.1717 ( 61) -0.1272 (101)
          -0.1959 (103)  0.2361 (111) -0.1779 (112) -0.1092 (114)
 CRD 32=  -0.6386 (  2) -0.5972 (  4)  0.1778 ( 27)  0.1394 ( 29)  0.1394 ( 30)
          -0.2593 ( 36)  0.1585 ( 74) -0.1600 ( 78)
 CRD 33=  -0.3485 (  2)  0.3650 (  4) -0.1211 (  7)  0.2080 ( 12) -0.1423 ( 22)
           0.1944 ( 32)  0.1338 ( 35) -0.1607 ( 37)  0.1043 ( 40) -0.2400 ( 71)
          -0.2221 ( 72) -0.2470 ( 73) -0.2511 ( 79) -0.2332 ( 80) -0.2580 ( 81)
          -0.1103 ( 85)  0.1086 ( 96)  0.1088 ( 97)  0.1091 ( 98) -0.1014 (112)
 CRD 34=   0.1200 ( 14)  0.1044 ( 15) -0.4769 ( 20)  0.3354 ( 21) -0.2126 ( 22)
          -0.1050 ( 41) -0.1720 ( 49) -0.1068 ( 54) -0.1075 ( 56)  0.1736 ( 57)
          -0.3513 ( 58) -0.2009 ( 59)  0.1929 ( 60)  0.2583 ( 61)  0.2249 (101)
          -0.1521 (103) -0.1748 (112)  0.2022 (114)
 CRD 35=   0.1015 ( 10)  0.5529 ( 15)  0.1134 ( 16) -0.1385 ( 18) -0.2455 ( 21)
          -0.2137 ( 41) -0.4344 ( 48)  0.1379 ( 51)  0.2237 ( 58) -0.1526 ( 82)
           0.1008 (103) -0.2448 (104) -0.2174 (105) -0.1152 (110)
 CRD 36=   0.4154 (  5) -0.1392 (  7)  0.1742 ( 10)  0.5132 ( 11)  0.1315 ( 16)
          -0.3113 ( 32) -0.4042 ( 40)  0.1235 ( 45) -0.1217 ( 47) -0.1523 ( 64)
          -0.1270 ( 79) -0.1305 ( 87)  0.1200 ( 90)  0.1192 ( 98)
 CRD 37=   0.6193 (  3) -0.1608 (  8)  0.1384 ( 11) -0.5340 ( 27)  0.1588 ( 35)
          -0.2106 ( 36)  0.1570 ( 37) -0.1689 ( 71) -0.1413 ( 72) -0.1510 ( 73)
           0.1187 ( 79)  0.1463 ( 80)  0.1366 ( 81)
 CRD 38=   0.1527 (  3)  0.5307 (  5)  0.1920 (  6) -0.1909 ( 10) -0.3797 ( 11)
          -0.1249 ( 24) -0.1280 ( 27) -0.3742 ( 32)  0.2721 ( 40)  0.1042 ( 44)
           0.1053 ( 47) -0.1365 ( 71)  0.1252 ( 87)  0.1283 ( 90)  0.2363 ( 91)
           0.1565 ( 92)
 CRD 39=   0.1461 (  6) -0.1099 ( 10)  0.2146 ( 13)  0.3259 ( 15)  0.2242 ( 16)
          -0.2470 ( 17)  0.2235 ( 18) -0.1226 ( 19)  0.2743 ( 21)  0.1129 ( 28)
          -0.2591 ( 48)  0.1811 ( 49) -0.1415 ( 52) -0.1998 ( 57) -0.1971 ( 58)
           0.1373 ( 67) -0.1164 ( 70)  0.1932 ( 82) -0.1076 ( 91)  0.1432 ( 94)
          -0.1041 ( 96) -0.1141 ( 97) -0.1069 (100)  0.1889 (110)
 CRD 40=   0.1342 (  3)  0.1462 (  4) -0.3147 (  6)  0.2739 (  8) -0.2044 (  9)
           0.2733 ( 10) -0.1223 ( 11)  0.2298 ( 12) -0.1336 ( 14)  0.1616 ( 16)
           0.1381 ( 18)  0.1817 ( 21) -0.1024 ( 24)  0.1249 ( 30)  0.1205 ( 38)
           0.1482 ( 49) -0.1421 ( 57) -0.1078 ( 58)  0.2388 ( 62)  0.1474 ( 70)
           0.1333 ( 74)  0.1092 ( 82)  0.2579 ( 85)  0.1062 ( 89)  0.1094 ( 90)
           0.1549 ( 91)  0.1053 ( 92)  0.1607 (100)
 CRD 41=   0.2510 (  2) -0.1703 (  4) -0.1390 (  5)  0.2413 (  6)  0.5146 (  8)
          -0.2074 ( 10)  0.4140 ( 12) -0.1263 ( 13)  0.1009 ( 16)  0.1755 ( 17)
          -0.1002 ( 19) -0.1107 ( 27) -0.1777 ( 66) -0.1667 ( 70) -0.1245 ( 74)
          -0.1967 ( 78) -0.1111 ( 89) -0.1620 ( 99) -0.1402 (100)
 CRD 42=  -0.1209 (  7)  0.4040 (  8)  0.5026 ( 13) -0.2241 ( 16) -0.4753 ( 17)
           0.2493 ( 19)  0.1929 ( 23) -0.1022 (106)
 CRD 43=  -0.1216 (  1)  0.4251 (  8)  0.1028 ( 11) -0.3820 ( 12) -0.1888 ( 13)
          -0.1398 ( 16)  0.1667 ( 21) -0.5691 ( 23) -0.1231 ( 62) -0.1348 ( 85)
          -0.1193 ( 89) -0.1021 (106) -0.1370 (110)
 CRD 44=  -0.1698 (  4) -0.3427 (  8)  0.4614 ( 12) -0.1899 ( 16) -0.2616 ( 17)
           0.1979 ( 19)  0.1408 ( 21) -0.4058 ( 23) -0.1712 ( 66) -0.1716 ( 74)
          -0.1393 ( 78) -0.1171 ( 82) -0.1398 (106) -0.1512 (110)
 CRD 45=  -0.1056 (  6) -0.1309 ( 11)  0.5149 ( 13)  0.1375 ( 14)  0.1023 ( 16)
           0.2662 ( 17) -0.1574 ( 19)  0.1357 ( 20) -0.4742 ( 23) -0.1184 ( 55)
           0.1192 ( 57)  0.1295 ( 58)  0.1080 ( 62) -0.1697 ( 70)  0.1406 ( 85)
           0.1399 ( 89) -0.1130 ( 98) -0.1066 ( 99) -0.1651 (100)
 CRD 46=   0.2815 ( 13) -0.2894 ( 14) -0.1241 ( 15)  0.4867 ( 17)  0.1224 ( 19)
          -0.1098 ( 20)  0.1618 ( 21)  0.1327 ( 22)  0.2240 ( 23)  0.1789 ( 49)
           0.1031 ( 55) -0.1687 ( 57) -0.1407 ( 58) -0.2320 ( 82) -0.2547 (106)
          -0.2684 (110)  0.1594 (111)
 CRD 47=   0.1844 (  2) -0.2061 (  4) -0.1104 (  9)  0.2128 ( 10) -0.2878 ( 12)
           0.1800 ( 13)  0.1242 ( 14)  0.1219 ( 16) -0.1607 ( 19) -0.3360 ( 66)
           0.2622 ( 70) -0.3099 ( 74) -0.2887 ( 78) -0.1034 ( 85)  0.2022 ( 99)
           0.2114 (100)  0.1353 (106)  0.1017 (110)
 CRD 48=   0.1099 (  2) -0.1207 (  6) -0.3002 ( 12) -0.1748 ( 13)  0.1728 ( 19)
           0.1079 ( 32)  0.2637 ( 62) -0.2145 ( 66) -0.2194 ( 70) -0.1276 ( 72)
          -0.1525 ( 74) -0.1196 ( 75) -0.1920 ( 78) -0.1306 ( 79) -0.1585 ( 80)
           0.3067 ( 85)  0.2922 ( 89) -0.1821 ( 99) -0.1915 (100) -0.1509 (109)
          -0.2111 (111) -0.1442 (113)
 CRD 49=  -0.1254 ( 13) -0.1897 ( 17) -0.1333 ( 18)  0.1646 ( 22)  0.1451 ( 56)
           0.1082 ( 62) -0.1434 ( 70)  0.1214 ( 85)  0.1164 ( 89) -0.1410 ( 99)
          -0.1237 (100) -0.1092 (102)  0.3975 (109)  0.5073 (111)  0.4405 (113)
 CRD 50=  -0.1453 ( 14) -0.1061 ( 15)  0.2032 ( 17) -0.1232 ( 18)  0.5953 ( 19)
          -0.1349 ( 20) -0.1051 ( 22)  0.1316 ( 43) -0.1550 ( 49)  0.2069 ( 50)
           0.1096 ( 51) -0.1067 ( 52) -0.1218 ( 54) -0.1012 ( 56)  0.1722 ( 59)
           0.2031 ( 82)  0.1765 (106)  0.1369 (109)  0.2946 (110)  0.1055 (112)
           0.2597 (113)
 CRD 51=  -0.1647 (  1)  0.1054 (  2)  0.2853 (  3)  0.1114 (  6) -0.2481 (  8)
          -0.1866 ( 12)  0.1148 ( 13) -0.1612 ( 24) -0.1069 ( 25)  0.1439 ( 27)
           0.1924 ( 29)  0.1633 ( 30)  0.1642 ( 31)  0.1795 ( 32) -0.1935 ( 35)
          -0.1019 ( 36) -0.2448 ( 37)  0.1458 ( 38)  0.1289 ( 39) -0.1107 ( 40)
           0.1448 ( 71)  0.2252 ( 74)  0.1013 ( 76) -0.1381 ( 78) -0.1424 ( 80)
          -0.2981 ( 89)  0.1234 ( 91) -0.1915 ( 99)
 CRD 52=   0.2284 (  1) -0.1266 (  4)  0.1193 (  7)  0.1047 ( 13) -0.1849 ( 14)
          -0.1047 ( 17) -0.1512 ( 18)  0.1366 ( 20)  0.2020 ( 21) -0.1204 ( 22)
          -0.1090 ( 27) -0.1500 ( 28) -0.1281 ( 29) -0.1327 ( 30) -0.1035 ( 33)
           0.1227 ( 35)  0.1468 ( 36) -0.1242 ( 40) -0.1279 ( 41)  0.1279 ( 47)
           0.1368 ( 48)  0.1081 ( 52)  0.1137 ( 54) -0.1288 ( 58) -0.1842 ( 60)
           0.2049 ( 78) -0.1194 ( 94)  0.1014 ( 96)  0.1865 ( 97) -0.2281 ( 99)
          -0.1869 (105)  0.1925 (106)  0.2001 (112) -0.1466 (113)
 CRD 53=   0.1103 (  1)  0.1046 ( 13)  0.1770 ( 15) -0.1178 ( 16) -0.1283 ( 18)
          -0.2124 ( 20)  0.3061 ( 22) -0.1036 ( 42)  0.1230 ( 60) -0.1807 ( 61)
          -0.1084 ( 67)  0.1986 ( 82)  0.1724 ( 83) -0.1060 ( 93) -0.1802 ( 94)
           0.1401 (102)  0.2610 (105)  0.2354 (106)  0.2776 (108) -0.1232 (109)
           0.1620 (110) -0.2780 (112) -0.2553 (114)
 CRD 54=  -0.1162 (  1)  0.1365 (  4) -0.1782 (  6)  0.1146 (  9)  0.1671 ( 10)
          -0.1113 ( 11) -0.1581 ( 15) -0.3792 ( 18)  0.1768 ( 21)  0.1660 ( 22)
          -0.1256 ( 36)  0.1313 ( 54)  0.1804 ( 56) -0.1062 ( 58) -0.1292 ( 59)
          -0.1937 ( 61) -0.1615 ( 62) -0.1764 ( 78)  0.1699 ( 80) -0.1141 ( 87)
          -0.1325 ( 88)  0.1201 ( 93)  0.1391 ( 94) -0.1456 (100)  0.1037 (106)
          -0.1497 (109) -0.2434 (113)
 CRD 55=  -0.1110 (  1)  0.1036 (  2) -0.1738 (  5)  0.1073 (  6) -0.1488 ( 10)
           0.2360 ( 11)  0.1053 ( 15) -0.1874 ( 16) -0.2720 ( 18)  0.1739 ( 20)
           0.1676 ( 21)  0.1244 ( 28)  0.1581 ( 54) -0.1446 ( 58) -0.1875 ( 60)
          -0.1588 ( 71)  0.1198 ( 74) -0.1006 ( 76) -0.1347 ( 79)  0.1497 ( 87)
           0.1370 ( 88)  0.1387 ( 89)  0.1567 ( 91)  0.1441 ( 92) -0.2224 ( 97)
          -0.1844 ( 98)  0.1817 ( 99)  0.1110 (100) -0.1260 (102) -0.1302 (113)
 CRD 56=   0.1633 (  3)  0.1647 (  5) -0.1162 (  7) -0.1595 ( 11)  0.1137 ( 15)
           0.1124 ( 16) -0.2378 ( 18)  0.1792 ( 21)  0.1067 ( 36)  0.1159 ( 41)
          -0.1757 ( 44)  0.1843 ( 45) -0.1369 ( 47) -0.1605 ( 49) -0.1609 ( 51)
           0.1005 ( 57) -0.1041 ( 61)  0.1095 ( 63) -0.1449 ( 64)  0.1966 ( 71)
           0.1120 ( 76) -0.1306 ( 80) -0.1139 ( 82) -0.1086 ( 87)  0.1458 ( 88)
          -0.2518 ( 91)  0.2231 ( 99)  0.1265 (100)  0.1337 (104)  0.1299 (105)
          -0.1983 (106) -0.1289 (107) -0.1327 (108)
 CRD 57=  -0.1451 (  1) -0.1255 (  3)  0.2235 (  4) -0.1633 (  6)  0.2885 (  7)
          -0.1388 ( 10) -0.1924 ( 14)  0.2117 ( 15)  0.1072 ( 18)  0.1225 ( 21)
          -0.1694 ( 22) -0.1823 ( 36) -0.1037 ( 39)  0.1208 ( 45) -0.1707 ( 51)
           0.1189 ( 52)  0.1568 ( 59) -0.1080 ( 67)  0.1078 ( 68) -0.1055 ( 71)
          -0.1348 ( 76) -0.1172 ( 77) -0.2455 ( 78)  0.2116 ( 80) -0.2265 ( 94)
           0.1101 ( 96)  0.1375 ( 97)  0.1113 (113)
 CRD 58=  -0.1125 (  1)  0.2722 (  2) -0.1091 (  4) -0.1937 (  5)  0.1293 (  6)
           0.1239 (  7)  0.2122 ( 16) -0.2079 ( 20)  0.1342 ( 22)  0.1594 ( 35)
          -0.1242 ( 36) -0.1227 ( 37) -0.1474 ( 38) -0.1138 ( 61) -0.1224 ( 69)
          -0.2474 ( 71) -0.1483 ( 72)  0.2876 ( 74)  0.1096 ( 75)  0.1893 ( 77)
           0.1630 ( 78) -0.1283 ( 79) -0.1202 ( 82)  0.1074 ( 89)  0.1307 ( 97)
           0.1477 (102) -0.1600 (109)  0.1569 (115)
 CRD 59=   0.2075 (  1) -0.1040 (  7) -0.1713 (  9)  0.2279 ( 14) -0.1276 ( 19)
          -0.2345 ( 20)  0.3155 ( 21) -0.1291 ( 22) -0.1268 ( 45) -0.1426 ( 50)
          -0.2057 ( 55)  0.1082 ( 56)  0.1925 ( 57)  0.2720 ( 59) -0.1382 ( 61)
          -0.1175 ( 88) -0.1446 ( 89)  0.1511 ( 91) -0.2356 (101)  0.1897 (103)
          -0.1323 (106)  0.1738 (112)  0.1322 (113) -0.2516 (114)
 CRD 60=  -0.2056 (  1)  0.1713 (  3)  0.3107 (  9) -0.1211 ( 15)  0.1890 ( 18)
          -0.1265 ( 19) -0.1620 ( 20)  0.1252 ( 21)  0.1075 ( 24) -0.1631 ( 41)
          -0.1177 ( 42) -0.1157 ( 44)  0.1482 ( 49) -0.1889 ( 50)  0.1339 ( 51)
           0.1386 ( 52)  0.1231 ( 53) -0.1247 ( 55)  0.1718 ( 59)  0.1173 ( 71)
           0.1472 ( 89) -0.1213 ( 90) -0.1268 ( 91) -0.1042 ( 92)  0.1010 ( 99)
          -0.1204 (101) -0.1560 (104) -0.1586 (105)  0.2527 (106)  0.1318 (107)
           0.1292 (108)  0.1139 (113) -0.1165 (114)
 CRD 61=  -0.1406 (  1) -0.1995 (  2)  0.1267 (  3)  0.1208 (  4)  0.1847 (  7)
          -0.2320 (  9)  0.1626 ( 11)  0.1113 ( 16)  0.1197 ( 22)  0.1682 ( 25)
           0.1543 ( 29) -0.1013 ( 33) -0.1600 ( 35)  0.1353 ( 42)  0.1849 ( 47)
          -0.1214 ( 63) -0.1688 ( 65)  0.1183 ( 67)  0.1493 ( 72)  0.1611 ( 73)
          -0.1488 ( 74) -0.1120 ( 75) -0.2067 ( 76) -0.1001 ( 77) -0.1376 ( 78)
          -0.1026 ( 79)  0.1507 ( 84)  0.2081 ( 87)  0.1384 ( 89) -0.1270 ( 90)
          -0.1159 ( 99) -0.1255 (106) -0.1203 (108) -0.1309 (109)  0.1775 (115)
 CRD 62=   0.2130 (  1) -0.1187 (  2)  0.1603 (  4) -0.2361 (  7)  0.2251 (  9)
          -0.1307 ( 10) -0.1068 ( 14) -0.1999 ( 24)  0.1664 ( 28) -0.1408 ( 30)
           0.1421 ( 37)  0.1275 ( 38)  0.1060 ( 39) -0.1292 ( 41) -0.1684 ( 46)
          -0.1284 ( 64) -0.1436 ( 65)  0.1282 ( 68) -0.1284 ( 74) -0.1666 ( 75)
          -0.1161 ( 78)  0.1316 ( 79)  0.1360 ( 81) -0.1042 ( 82)  0.1265 ( 84)
           0.1030 ( 85) -0.1451 ( 86) -0.1299 ( 87) -0.1373 ( 89)  0.2416 ( 92)
          -0.1168 ( 96) -0.1181 ( 98)  0.1977 ( 99)  0.1464 (115)
 CRD 63=   0.1085 (  1)  0.2090 (  3) -0.1493 (  4) -0.1197 (  5) -0.1007 (  6)
          -0.2075 ( 14)  0.1226 ( 15) -0.1433 ( 26) -0.1579 ( 31)  0.1871 ( 36)
           0.1447 ( 43)  0.1574 ( 44) -0.1551 ( 51) -0.1870 ( 62) -0.1577 ( 67)
           0.1123 ( 68)  0.2452 ( 72)  0.1495 ( 73)  0.1237 ( 75)  0.1019 ( 78)
          -0.2947 ( 79) -0.1667 ( 81) -0.1523 ( 82)  0.1045 ( 91)  0.2197 ( 93)
           0.1001 ( 95) -0.2486 ( 98) -0.1599 (100)
 CRD 64=   0.1279 (  1)  0.1060 (  3) -0.1186 (  5) -0.1263 (  6)  0.2308 (  7)
           0.1429 (  9) -0.1480 ( 10) -0.1280 ( 11)  0.1389 ( 14) -0.1947 ( 26)
          -0.1121 ( 31) -0.2150 ( 34)  0.1013 ( 36) -0.1469 ( 43)  0.1633 ( 44)
           0.1870 ( 45)  0.1256 ( 51) -0.1527 ( 62)  0.1111 ( 63) -0.1154 ( 64)
           0.1352 ( 67)  0.1750 ( 72)  0.1065 ( 75) -0.2079 ( 79) -0.1024 ( 81)
           0.1514 ( 82) -0.1137 ( 86) -0.2222 ( 87)  0.1096 ( 90)  0.2277 ( 92)
          -0.2249 ( 93) -0.1187 ( 95)  0.1331 ( 96)  0.2475 ( 98)  0.1910 (100)
 CRD 65=  -0.1047 (  2)  0.1025 (  4) -0.1639 (  5)  0.1587 (  6) -0.1102 ( 11)
          -0.1076 ( 22) -0.1127 ( 24)  0.1062 ( 25)  0.1126 ( 29) -0.1052 ( 30)
          -0.1175 ( 38)  0.1080 ( 39)  0.1125 ( 54) -0.1774 ( 63) -0.2130 ( 64)
          -0.1029 ( 68) -0.1963 ( 69)  0.2034 ( 73) -0.1462 ( 75) -0.1639 ( 76)
           0.1965 ( 81)  0.1945 ( 83) -0.1328 ( 84)  0.1135 ( 86)  0.1309 ( 90)
           0.1713 (101)  0.2110 (103) -0.1915 (104)  0.1358 (105) -0.1766 (107)
           0.1507 (108)  0.1529 (109) -0.1100 (112) -0.1497 (114) -0.2657 (115)
 CRD 66=  -0.1008 (  6) -0.1365 ( 10)  0.1465 ( 11) -0.1439 ( 15)  0.1424 ( 16)
           0.1078 ( 28)  0.1055 ( 38) -0.1223 ( 41)  0.1158 ( 42) -0.1153 ( 46)
           0.1203 ( 47) -0.1144 ( 52)  0.1036 ( 53)  0.1506 ( 63)  0.1693 ( 64)
           0.2132 ( 67)  0.2055 ( 68) -0.1495 ( 73) -0.1467 ( 81)  0.3107 ( 83)
          -0.2038 ( 86) -0.2056 ( 90) -0.2101 ( 95) -0.2259 ( 96)  0.1640 (101)
           0.1867 (103) -0.1900 (104) -0.1830 (107) -0.1111 (114) -0.1807 (115)

 THE DETERMINANT OF THE G MATRIX IS 10**(   -39)


                     --------------------
                     INTERNAL COORDINATES
                     --------------------

                 - - ATOMS - -         COORDINATE      COORDINATE
 NO.   TYPE    I  J  K  L  M  N        (BOHR,RAD)       (ANG,DEG)
 ----------------------------------------------------------------
   1 STRETCH   1  2                     2.8970156       1.5330347
   2 STRETCH   1  5                     2.0678035       1.0942346
   3 STRETCH   1  4                     2.7075115       1.4327535
   4 STRETCH   1  3                     2.0679829       1.0943295
   5 STRETCH   2  7                     2.7099120       1.4340238
   6 STRETCH   2  8                     2.0716572       1.0962739
   7 STRETCH   2  6                     2.9023782       1.5358725
   8 STRETCH   4 19                     1.8412316       0.9743379
   9 STRETCH   6 11                     2.9235292       1.5470652
  10 STRETCH   6 10                     2.0740971       1.0975650
  11 STRETCH   6  9                     2.7109355       1.4345654
  12 STRETCH   7 22                     1.8553624       0.9818156
  13 STRETCH   9 23                     1.8530502       0.9805920
  14 STRETCH  11 14                     2.8855689       1.5269774
  15 STRETCH  11 13                     2.6942335       1.4257271
  16 STRETCH  11 12                     2.0715090       1.0961954
  17 STRETCH  13 21                     1.8421218       0.9748090
  18 STRETCH  14 15                     2.8781351       1.5230436
  19 STRETCH  14 24                     2.3364512       1.2363968
  20 STRETCH  15 16                     2.0654549       1.0929917
  21 STRETCH  15 18                     2.6849944       1.4208379
  22 STRETCH  15 17                     2.0657683       1.0931576
  23 STRETCH  18 20                     1.8473837       0.9775934
  24 BEND      1  2  8                  1.8863648     108.0807426
  25 BEND      1  2  7                  1.8969986     108.6900148
  26 BEND      1  2  6                  1.9530934     111.9040062
  27 BEND      1  4 19                  1.8574908     106.4263853
  28 BEND      2  6 10                  1.9037752     109.0782857
  29 BEND      2  1  5                  1.9489693     111.6677155
  30 BEND      2  1  3                  1.9385215     111.0691008
  31 BEND      2  1  4                  1.8841400     107.9532685
  32 BEND      2  7 22                  1.8175783     104.1395663
  33 BEND      2  6  9                  1.8874798     108.1446278
  34 BEND      2  6 11                  1.9542699     111.9714192
  35 BEND      3  1  4                  1.8721173     107.2644175
  36 BEND      3  1  5                  1.9151522     109.7301395
  37 BEND      4  1  5                  1.9027488     109.0194774
  38 BEND      6  2  8                  1.9318438     110.6864991
  39 BEND      6  2  7                  1.9268409     110.3998534
  40 BEND      6  9 23                  1.8561556     106.3498800
  41 BEND      6 11 12                  1.9190618     109.9541402
  42 BEND      6 11 13                  1.9652065     112.5980393
  43 BEND      6 11 14                  1.9369091     110.9767148
  44 BEND      7  2  8                  1.8659873     106.9131983
  45 BEND      9  6 10                  1.8740828     107.3770371
  46 BEND      9  6 11                  1.9512571     111.7987976
  47 BEND     10  6 11                  1.8909008     108.3406369
  48 BEND     11 13 21                  1.8670334     106.9731369
  49 BEND     11 14 24                  2.1417430     122.7128331
  50 BEND     11 14 15                  2.0306582     116.3481432
  51 BEND     12 11 13                  1.8904126     108.3126661
  52 BEND     12 11 14                  1.8613071     106.6450392
  53 BEND     13 11 14                  1.8873313     108.1361182
  54 BEND     14 15 17                  1.9052093     109.1604534
  55 BEND     14 15 18                  1.9478355     111.6027516
  56 BEND     14 15 16                  1.9120980     109.5551444
  57 BEND     15 14 24                  2.1106147     120.9293118
  58 BEND     15 18 20                  1.8537921     106.2144644
  59 BEND     16 15 17                  1.9165709     109.8114230
  60 BEND     16 15 18                  1.8841489     107.9537776
  61 BEND     17 15 18                  1.8977805     108.7348129
  62 TORSION   1  2  7 22              -0.7081582     -40.5744771
  63 TORSION   1  2  6  9               1.1095857      63.5745804
  64 TORSION   1  2  6 10              -0.9233840     -52.9060044
  65 TORSION   1  2  6 11              -3.0161224    -172.8110862
  66 TORSION   2  1  4 19               3.0493280     174.7136237
  67 TORSION   2  6 11 12               1.0517476      60.2606973
  68 TORSION   2  6 11 13              -1.0579376     -60.6153607
  69 TORSION   2  6 11 14               3.1068153     178.0074029
  70 TORSION   2  6  9 23              -3.1191309    -178.7130338
  71 TORSION   3  1  2  8               3.1269994     179.1638702
  72 TORSION   3  1  2  7              -1.1370001     -65.1453052
  73 TORSION   3  1  2  6               0.9954933      57.0375633
  74 TORSION   3  1  4 19              -1.1435878     -65.5227571
  75 TORSION   4  1  2  7               0.9108346      52.1869772
  76 TORSION   4  1  2  8              -1.1083512     -63.5038474
  77 TORSION   4  1  2  6               3.0433279     174.3698456
  78 TORSION   5  1  4 19               0.9290737      53.2320038
  79 TORSION   5  1  2  8               0.9829832      56.3207915
  80 TORSION   5  1  2  7               3.0021691     172.0116162
  81 TORSION   5  1  2  6              -1.1485229     -65.8055154
  82 TORSION   6 11 13 21               1.1845471      67.8695493
  83 TORSION   6 11 14 24               0.0840664       4.8166489
  84 TORSION   6 11 14 15              -3.0771650    -176.3085672
  85 TORSION   6  2  7 22              -2.8565120    -163.6660798
  86 TORSION   7  2  6 11              -0.9007890     -51.6114104
  87 TORSION   7  2  6 10               1.1919494      68.2936713
  88 TORSION   7  2  6  9              -3.0582662    -175.2257439
  89 TORSION   8  2  7 22               1.3241596      75.8687570
  90 TORSION   8  2  6 11               1.1618000      66.5662350
  91 TORSION   8  2  6 10              -3.0286469    -173.5286833
  92 TORSION   8  2  6  9              -0.9956771     -57.0480984
  93 TORSION   9  6 11 13               1.0632546      60.9200033
  94 TORSION   9  6 11 12              -3.1102455    -178.2039386
  95 TORSION   9  6 11 14              -1.0551778     -60.4572331
  96 TORSION  10  6 11 14               1.0065613      57.6717150
  97 TORSION  10  6 11 13               3.1249937     179.0489514
  98 TORSION  10  6 11 12              -1.0485064     -60.0749906
  99 TORSION  10  6  9 23              -1.0669940     -61.1342516
 100 TORSION  11  6  9 23               1.0047604      57.5685276
 101 TORSION  11 14 15 17              -1.2974095     -74.3360892
 102 TORSION  11 14 15 18               2.8875630     165.4451743
 103 TORSION  11 14 15 16               0.8018239      45.9411240
 104 TORSION  12 11 14 15              -0.9872683     -56.5663086
 105 TORSION  12 11 14 24               2.1739630     124.5589075
 106 TORSION  12 11 13 21              -0.9414582     -53.9415839
 107 TORSION  13 11 14 15               1.0424867      59.7300885
 108 TORSION  13 11 14 24              -2.0794672    -119.1446954
 109 TORSION  14 15 18 20               0.6072941      34.7953871
 110 TORSION  14 11 13 21              -2.9522130    -169.1493428
 111 TORSION  16 15 18 20               2.7094872     155.2421789
 112 TORSION  16 15 14 24              -2.3590317    -135.1625607
 113 TORSION  17 15 18 20              -1.4952755     -85.6729770
 114 TORSION  17 15 14 24               1.8249202     104.5602261
 115 TORSION  18 15 14 24              -0.2732926     -15.6585104

     ------------------------------------------
     THE POINT GROUP IS C1 , NAXIS= 1, ORDER= 1
     ------------------------------------------

     DIMENSIONS OF THE SYMMETRY SUBSPACES ARE
 A   =  300

 ..... DONE SETTING UP THE RUN .....
 STEP CPU TIME =     0.02 TOTAL CPU TIME =        0.0 (    0.0 MIN)
 TOTAL WALL CLOCK TIME=        0.0 SECONDS, CPU UTILIZATION IS  66.67%


          -----------------------------
          STATIONARY POINT LOCATION RUN
          -----------------------------

 OBTAINING INITIAL HESSIAN, HESS=GUESS   
 DIAGONAL GUESS HESSIAN IN INTERNAL COORDS IS
     1  0.3650     2  0.3435     3  0.3582     4  0.3435     5  0.3573
     6  0.3422     7  0.3630     8  0.3502     9  0.3552    10  0.3413
    11  0.3569    12  0.3451    13  0.3460    14  0.3693    15  0.3631
    16  0.3422    17  0.3499    18  0.3722    19  0.5247    20  0.3444
    21  0.3666    22  0.3442    23  0.3480    24  0.2235    25  0.2424
    26  0.2479    27  0.2137    28  0.2233    29  0.2236    30  0.2236
    31  0.2425    32  0.2132    33  0.2422    34  0.2469    35  0.2190
    36  0.2030    37  0.2190    38  0.2234    39  0.2423    40  0.2133
    41  0.2227    42  0.2421    43  0.2475    44  0.2188    45  0.2187
    46  0.2415    47  0.2226    48  0.2141    49  0.2568    50  0.2492
    51  0.2193    52  0.2239    53  0.2434    54  0.2243    55  0.2440
    56  0.2243    57  0.2571    58  0.2142    59  0.2031    60  0.2197
    61  0.2197    62  0.2500    63  0.2500    64  0.2500    65  0.2500
    66  0.2500    67  0.2500    68  0.2500    69  0.2500    70  0.2500
    71  0.2500    72  0.2500    73  0.2500    74  0.2500    75  0.2500
    76  0.2500    77  0.2500    78  0.2500    79  0.2500    80  0.2500
    81  0.2500    82  0.2500    83  0.2500    84  0.2500    85  0.2500
    86  0.2500    87  0.2500    88  0.2500    89  0.2500    90  0.2500
    91  0.2500    92  0.2500    93  0.2500    94  0.2500    95  0.2500
    96  0.2500    97  0.2500    98  0.2500    99  0.2500   100  0.2500
   101  0.2500   102  0.2500   103  0.2500   104  0.2500   105  0.2500
   106  0.2500   107  0.2500   108  0.2500   109  0.2500   110  0.2500
   111  0.2500   112  0.2500   113  0.2500   114  0.2500   115  0.2500
 TRANSFORMING HESSIAN TO SYMMETRY COORDINATES

          PARAMETERS CONTROLLING GEOMETRY SEARCH ARE
          METHOD =QA                  UPHESS =BFGS    
          NNEG   =         0          NFRZ   =         3
          NSTEP  =        50          IFOLOW =         1
          HESS   =GUESS               RESTAR =         F
          IHREP  =         0          HSSEND =         F
          NPRT   =         0          NPUN   =         0
          OPTTOL = 5.000E-04          RMIN   = 1.500E-03
          RMAX   = 1.000E-01          RLIM   = 7.000E-02
          DXMAX  = 3.000E-01          PURIFY =         F
          MOVIE  =         F          TRUPD  =         T
          TRMAX  = 5.000E-01          TRMIN  = 5.000E-02
          ITBMAT =         5          STPT   =         F
          STSTEP = 1.000E-02          PROJCT=          F
          FROZEN COORD(S)=   1   2   3


      ***** EQUILIBRIUM GEOMETRY LOCATED *****
            (SUBJECT TO   3 CONSTRAINT(S))
 COORDINATES OF ALL ATOMS ARE (ANGS)
   ATOM   CHARGE       X              Y              Z
 ------------------------------------------------------------
 C           6.0   0.0873108661   0.0015999407   0.0231875877
 C           6.0   1.4387468735   0.4348701416  -0.5102131239
 H           1.0   0.0667707215   0.1317663065   1.1022782766
 O           8.0  -0.8733805364   0.8309894623  -0.5899169344
 H           1.0  -0.0919540060  -1.0415209493  -0.2106747094
 C           6.0   2.5810393915  -0.3447969205   0.1265094130
 O           8.0   1.6518086304   1.7985280308  -0.2355442675
 H           1.0   1.4623800399   0.2669043656  -1.5839608310
 O           8.0   2.5156621001  -1.6549882003  -0.3751651970
 H           1.0   2.4479768084  -0.3482358711   1.2039462983
 C           6.0   3.9303091758   0.3090919075  -0.1553535407
 H           1.0   3.9362251622   1.2882657547   0.3121271994
 O           8.0   4.2209323118   0.4234719397  -1.5219286011
 C           6.0   5.0662505925  -0.4515998024   0.5031358538
 C           6.0   6.4789072651  -0.0729784264   0.1191757299
 H           1.0   6.5632776177   1.0048499501   0.0586564796
 H           1.0   6.6668165281  -0.4765521182  -0.8722020168
 O           8.0   7.3977220056  -0.5477862660   1.0548521998
 H           1.0  -1.7159414911   0.6852725588  -0.1940361365
 H           1.0   7.0570110476  -1.3455286360   1.4295666133
 H           1.0   3.8279021738   1.2110281191  -1.8612571489
 H           1.0   0.8779976838   2.2743861798  -0.4910859869
 H           1.0   3.0428089363  -2.2162857724   0.1694069515
 O           8.0   4.8724467605  -1.2984860095   1.3220916337


                     --------------------
                     INTERNAL COORDINATES
                     --------------------

                 - - ATOMS - -         COORDINATE      COORDINATE
 NO.   TYPE    I  J  K  L  M  N        (BOHR,RAD)       (ANG,DEG)
 ----------------------------------------------------------------
   1 STRETCH   1  2                     2.8650506       1.5161196
   2 STRETCH   1  5                     2.0483520       1.0839413
   3 STRETCH   1  4                     2.6635834       1.4095078
   4 STRETCH   1  3                     2.0543346       1.0871071
   5 STRETCH   2  7                     2.6593495       1.4072673
   6 STRETCH   2  8                     2.0542505       1.0870626
   7 STRETCH   2  6                     2.8771837       1.5225402
   8 STRETCH   4 19                     1.7806233       0.9422653
   9 STRETCH   6 11                     2.8830223       1.5256298
  10 STRETCH   6 10                     2.0515391       1.0856278
  11 STRETCH   6  9                     2.6540748       1.4044760
  12 STRETCH   7 22                     1.7832906       0.9436768
  13 STRETCH   9 23                     1.7822607       0.9431318
  14 STRETCH  11 14                     2.8675451       1.5174396
  15 STRETCH  11 13                     2.6490373       1.4018103
  16 STRETCH  11 12                     2.0504656       1.0850598
  17 STRETCH  13 21                     1.7826250       0.9433246
  18 STRETCH  14 15                     2.8574122       1.5120775
  19 STRETCH  14 24                     2.2561973       1.1939283
  20 STRETCH  15 16                     2.0462294       1.0828181
  21 STRETCH  15 18                     2.6355774       1.3946876
  22 STRETCH  15 17                     2.0536474       1.0867435
  23 STRETCH  18 20                     1.7856538       0.9449274
  24 BEND      1  2  8                  1.8994120     108.8282934
  25 BEND      1  2  7                  1.9211263     110.0724291
  26 BEND      1  2  6                  1.9555053     112.0422027
  27 BEND      1  4 19                  1.9131568     109.6158127
  28 BEND      2  6 10                  1.9014990     108.9478657
  29 BEND      2  1  5                  1.9246617     110.2749909
  30 BEND      2  1  3                  1.9090599     109.3810729
  31 BEND      2  1  4                  1.8612153     106.6397827
  32 BEND      2  7 22                  1.8877063     108.1576028
  33 BEND      2  6  9                  1.8685814     107.0618263
  34 BEND      2  6 11                  1.9463455     111.5173843
  35 BEND      3  1  4                  1.9266987     110.3917015
  36 BEND      3  1  5                  1.9031442     109.0421316
  37 BEND      4  1  5                  1.9387393     111.0815774
  38 BEND      6  2  8                  1.8940366     108.5203035
  39 BEND      6  2  7                  1.8765392     107.5177748
  40 BEND      6  9 23                  1.8996127     108.8397881
  41 BEND      6 11 12                  1.8880956     108.1799090
  42 BEND      6 11 13                  1.9806049     113.4803004
  43 BEND      6 11 14                  1.9466043     111.5322104
  44 BEND      7  2  8                  1.9168860     109.8294796
  45 BEND      9  6 10                  1.9239318     110.2331740
  46 BEND      9  6 11                  1.9551987     112.0246345
  47 BEND     10  6 11                  1.8682791     107.0445068
  48 BEND     11 13 21                  1.9096610     109.4155131
  49 BEND     11 14 24                  2.1314386     122.1224363
  50 BEND     11 14 15                  2.0529110     117.6231357
  51 BEND     12 11 13                  1.9232934     110.1965950
  52 BEND     12 11 14                  1.8352056     105.1495331
  53 BEND     13 11 14                  1.8846704     107.9836571
  54 BEND     14 15 17                  1.8756976     107.4695574
  55 BEND     14 15 18                  1.9389319     111.0926147
  56 BEND     14 15 16                  1.9137081     109.6473948
  57 BEND     15 14 24                  2.0983767     120.2281275
  58 BEND     15 18 20                  1.8922156     108.4159669
  59 BEND     16 15 17                  1.8809350     107.7696366
  60 BEND     16 15 18                  1.9018461     108.9677567
  61 BEND     17 15 18                  1.9516084     111.8189272
  62 TORSION   1  2  7 22              -0.8357741     -47.8863312
  63 TORSION   1  2  6  9               1.2343624      70.7237553
  64 TORSION   1  2  6 10              -0.8460638     -48.4758871
  65 TORSION   1  2  6 11              -2.9044267    -166.4113909
  66 TORSION   2  1  4 19              -2.9957103    -171.6415585
  67 TORSION   2  6 11 12               1.1109313      63.6516759
  68 TORSION   2  6 11 13              -1.0289283     -58.9532506
  69 TORSION   2  6 11 14               3.1209973     178.8199751
  70 TORSION   2  6  9 23              -2.8668065    -164.2559147
  71 TORSION   3  1  2  8               3.1057298     177.9452090
  72 TORSION   3  1  2  7              -1.0759192     -61.6456295
  73 TORSION   3  1  2  6               1.0111970      57.9373212
  74 TORSION   3  1  4 19              -0.9235651     -52.9163831
  75 TORSION   4  1  2  7               1.0077111      57.7375943
  76 TORSION   4  1  2  8              -1.0938252     -62.6715672
  77 TORSION   4  1  2  6               3.0948273     177.3205450
  78 TORSION   5  1  4 19               1.1898106      68.1711265
  79 TORSION   5  1  2  8               1.0128790      58.0336894
  80 TORSION   5  1  2  7               3.1144153     178.4428509
  81 TORSION   5  1  2  6              -1.0816538     -61.9741984
  82 TORSION   6 11 13 21               1.4820834      84.9171231
  83 TORSION   6 11 14 24              -0.2162192     -12.3884472
  84 TORSION   6 11 14 15               2.9578859     169.4743771
  85 TORSION   6  2  7 22              -2.9702803    -170.1845232
  86 TORSION   7  2  6 11              -0.7913669     -45.3419829
  87 TORSION   7  2  6 10               1.2669960      72.5935209
  88 TORSION   7  2  6  9              -2.9357631    -168.2068367
  89 TORSION   8  2  7 22               1.2551913      71.9171622
  90 TORSION   8  2  6 11               1.2810914      73.4011312
  91 TORSION   8  2  6 10              -2.9437310    -168.6633649
  92 TORSION   8  2  6  9              -0.8633048     -49.4637225
  93 TORSION   9  6 11 13               1.0651209      61.0269314
  94 TORSION   9  6 11 12              -3.0782048    -176.3681421
  95 TORSION   9  6 11 14              -1.0681388     -61.1998429
  96 TORSION  10  6 11 14               1.0427621      59.7458672
  97 TORSION  10  6 11 13              -3.1071636    -178.0273586
  98 TORSION  10  6 11 12              -0.9673039     -55.4224320
  99 TORSION  10  6  9 23              -0.8009132     -45.8889439
 100 TORSION  11  6  9 23               1.2774887      73.1947099
 101 TORSION  11 14 15 17              -1.3081240     -74.9499821
 102 TORSION  11 14 15 18               2.8349929     162.4331265
 103 TORSION  11 14 15 16               0.7317739      41.9275580
 104 TORSION  12 11 14 15              -1.2829031     -73.5049345
 105 TORSION  12 11 14 24               1.8261771     104.6322411
 106 TORSION  12 11 13 21              -0.6382059     -36.5665045
 107 TORSION  13 11 14 15               0.7703201      44.1360932
 108 TORSION  13 11 14 24              -2.4037849    -137.7267312
 109 TORSION  14 15 18 20               0.5325223      30.5112788
 110 TORSION  14 11 13 21              -2.6338400    -150.9079152
 111 TORSION  16 15 18 20               2.6427387     151.4177717
 112 TORSION  16 15 14 24              -2.3779505    -136.2465276
 113 TORSION  17 15 18 20              -1.5630392     -89.5555492
 114 TORSION  17 15 14 24               1.8653369     106.8759323
 115 TORSION  18 15 14 24              -0.2747316     -15.7409591

          INTERNUCLEAR DISTANCES (ANGS.)


 =====================================================
   GAMESS/COSab RESULTS
 =====================================================

   Dielectric Constant                  = INFTY
   Basic Grid Size                      =                 1082
   Number of Segments                   =                   92
   Number of Segments located on spheres=                  336
   Number of Segments of the cavity     =                  795
   Solvent Radius (rsolv)               = 1.40
   Outlying Charge Error Method         = double cavity

 =====================================================

  Total solvated Energy (a.u.)          =  -683.5654348245
  Total Energy corrected (a.u.)         =  -683.5655481158

  Outlying charge effect (a.u.)         =    -0.0001132912
  Outlying charge effect (kcal/mol)     =    -0.0710913633

  Dielectric Energy (a.u.)              =    -0.0334671576
  Dielectric energy corr. (a.u.)        =    -0.0335804488

  Sum of polarization charges           =     0.0161034427
  Sum of polarization charges(cor.)     =    -0.0161034427

  Total surface area of cavity (A**2)   =  195.54
  Total volume of cavity (A**3)         =  198.91

 =====================================================
 NPS=                   795
NR.  ATOM  (X, Y, Z)(a.u.)                  CHARGE(e)  AREA(A**2) SIGMA(e/A**2)
   1   1  -2.669611  -1.499332   2.041855  -0.000441   0.325193  -0.001357
   2   1   0.496229  -2.998217   2.316943  -0.000331   0.325193  -0.001017
   3   1  -0.334483  -1.560677  -3.360546  -0.000230   0.278737  -0.000824
   4   1  -1.020067  -1.762808  -3.080568  -0.000189   0.185824  -0.001018
   5   1   0.296331  -2.439072   2.925338  -0.000119   0.232280  -0.000511
   6   1  -1.995870  -1.459904   2.777810  -0.000110   0.232280  -0.000472
   7   1  -1.176285   2.558150   2.484406   0.000083   0.046456   0.001786
   8   1  -2.530910  -1.923526  -1.774090  -0.000006   0.139368  -0.000045
   9   1  -2.586489  -0.464090   2.592412  -0.000773   0.232280  -0.003326
  10   1  -2.096117  -2.305115   2.004455   0.000045   0.325193   0.000139
  11   1  -0.544005  -2.864571   2.401458   0.000460   0.325193   0.001416
  12   1  -2.759338  -2.199459   0.982746  -0.000936   0.325193  -0.002878
  13   1  -1.823135  -1.799981  -2.617163   0.000205   0.092912   0.002202
  14   1  -1.245489  -2.238265   2.740368   0.000299   0.278737   0.001074
  15   1  -0.606019   2.930913   2.305935   0.000056   0.139368   0.000399
  16   1  -2.945313  -2.126123  -0.233633  -0.000264   0.139368  -0.001895
  17   1  -1.398698  -2.881514   1.919598   0.000042   0.185824   0.000225
  18   2   1.510338   2.628937  -4.055761  -0.000438   0.092912  -0.004710
  19   2   2.016045   3.001427  -3.970737  -0.000078   0.046456  -0.001670
  20   3  -0.357395   0.609965   4.464386  -0.003362   0.510320  -0.006588
  21   3  -1.028388   1.841425   3.554828  -0.001601   0.353299  -0.004531
  22   3   0.822521   1.663384   3.967072  -0.001939   0.314043  -0.006174
  23   3   0.027016  -1.309607   3.979329  -0.001596   0.353299  -0.004518
  24   3  -1.603100  -0.082145   3.796211  -0.001508   0.372926  -0.004045
  25   3  -0.128986   1.965696   3.821665  -0.002148   0.412182  -0.005211
  26   3   0.776346   0.750482   4.398366  -0.002252   0.314043  -0.007169
  27   3   0.540095  -0.429319   4.407585  -0.002992   0.431809  -0.006928
  28   3  -0.882826  -0.793354   4.065566  -0.001921   0.412182  -0.004660
  29   3  -1.443890   0.897326   3.857739  -0.001981   0.372926  -0.005312
  30   4  -1.787518   2.793687  -4.122974   0.004122   0.240512   0.017140
  31   4  -1.522491   0.075183  -3.997956   0.002404   0.137436   0.017490
  32   4  -3.843058   3.887379  -1.738063   0.001372   0.274871   0.004992
  33   4  -4.029738   0.577267  -3.094032   0.002828   0.343589   0.008232
  34   4  -2.706913   3.679970   1.120853   0.001531   0.206154   0.007425
  35   4  -0.894963   2.858000  -4.001950   0.004899   0.240512   0.020368
  36   4  -1.468426   3.700383  -3.563124   0.004891   0.274871   0.017795
  37   4  -1.478202   1.823506  -4.350644   0.006985   0.343589   0.020331
  38   4  -1.459377   0.809692  -4.269059   0.003635   0.206154   0.017633
  39   4  -4.232747   3.056706  -2.413677   0.000459   0.274871   0.001668
  40   4  -4.291537   1.846786  -2.989052   0.001411   0.309230   0.004562
  41   4  -3.703551  -0.301738  -2.801413   0.002046   0.240512   0.008507
  42   4  -3.433509  -0.912688  -2.219273   0.000963   0.206154   0.004671
  43   4  -2.251924   3.160056   1.655732   0.000547   0.137436   0.003979
  44   4  -3.041906   4.120798   0.342519   0.001910   0.240512   0.007942
  45   4  -3.520956   4.180639  -0.612538   0.001709   0.309230   0.005526
  46   4  -2.241684   4.701138  -1.757594   0.003560   0.240512   0.014800
  47   4  -3.049880   4.460077  -1.620440   0.003460   0.309230   0.011191
  48   4  -3.359696   3.785417  -2.769038   0.004977   0.481025   0.010347
  49   4  -2.526007   3.473488  -3.599946   0.005800   0.377948   0.015345
  50   4  -2.700102   2.314830  -4.099504   0.006722   0.412307   0.016303
  51   4  -3.456307   1.382301  -3.810730   0.006250   0.446666   0.013993
  52   4  -3.068755   0.108392  -3.647709   0.005831   0.377948   0.015429
  53   4  -2.171373  -0.324250  -3.703941   0.004739   0.274871   0.017242
  54   4  -1.909879   3.790791   1.244667   0.002476   0.171795   0.014414
  55   4  -2.144305   4.326247   0.536213   0.003594   0.240512   0.014942
  56   4  -2.160102   4.318655  -2.773592   0.006342   0.377948   0.016781
  57   4  -2.378287   0.951177  -4.221463   0.006880   0.377948   0.018205
  58   4  -3.684618   2.666491  -3.400662   0.004132   0.412307   0.010022
  59   4  -2.870962  -0.764971  -3.017747   0.002251   0.206154   0.010917
  60   4  -2.547708   4.638393  -0.525996   0.005090   0.343589   0.014814
  61   5  -0.669041  -4.323590  -0.889892  -0.004374   0.549575  -0.007959
  62   5  -1.075949  -3.017379  -2.427980  -0.001253   0.314043  -0.003991
  63   5  -2.201969  -3.315575  -0.723735  -0.001713   0.353299  -0.004847
  64   5  -1.037202  -3.867919   0.898253  -0.001263   0.294415  -0.004290
  65   5  -0.346015  -3.661255  -2.169817  -0.002869   0.451437  -0.006356
  66   5  -1.680498  -3.470313  -1.626310  -0.002723   0.490692  -0.005549
  67   5  -1.671785  -3.853717   0.087472  -0.002748   0.510320  -0.005384
  68   5  -0.241202  -4.213741   0.595868  -0.002732   0.431809  -0.006327
  69   6   3.147596  -2.986599   2.655552  -0.000166   0.046456  -0.003579
  70   7   3.958785   4.430330   2.521246   0.004910   0.240512   0.020416
  71   7   2.927326   6.401320   0.784238   0.001294   0.274871   0.004708
  72   7   3.423252   5.780353  -2.636319   0.001925   0.274871   0.007005
  73   7   4.476441   5.055636   2.000962   0.003194   0.171795   0.018594
  74   7   3.946131   3.655385   2.688362   0.003065   0.137436   0.022300
  75   7   3.198090   6.644694  -0.295478   0.000555   0.274871   0.002019
  76   7   3.488529   6.420277  -1.585323   0.001299   0.309230   0.004201
  77   7   3.253634   5.085335  -3.220452   0.001287   0.171795   0.007493
  78   7   2.684224   4.339817  -3.525341   0.000468   0.137436   0.003404
  79   7   1.446144   4.927812   1.882926   0.002430   0.309230   0.007857
  80   7   2.157944   5.813906   1.505040   0.001694   0.309230   0.005480
  81   7   3.726460   5.279771   2.135630   0.003749   0.240512   0.015586
  82   7   3.348750   5.921907   1.591175   0.003984   0.343589   0.011594
  83   7   4.035671   6.369323   0.505864   0.005021   0.481025   0.010438
  84   7   4.999744   5.992937   0.108718   0.003727   0.240512   0.015497
  85   7   5.216098   5.820716  -1.002862   0.006248   0.343589   0.018183
  86   7   4.476169   5.929469  -1.969818   0.005412   0.377948   0.014320
  87   7   4.063358   5.345562  -2.871487   0.002712   0.171795   0.015787
  88   7   1.965210   4.234420   2.475380   0.004608   0.274871   0.016763
  89   7   3.008291   4.103802   2.725795   0.007495   0.377948   0.019831
  90   7   4.678662   5.710964   1.226198   0.005858   0.343589   0.017048
  91   7   4.258116   6.423122  -0.799565   0.004152   0.412307   0.010071
  92   7   3.382913   4.526394  -3.482324   0.001346   0.137436   0.009791
  93   7   2.667371   5.146517   2.257404   0.005216   0.377948   0.013800
  94   8   2.497448  -0.068934  -5.367192  -0.002274   0.353299  -0.006436
  95   8   1.508473  -0.635136  -4.771318  -0.001600   0.294415  -0.005434
  96   8   2.808769   2.041091  -4.909371  -0.001351   0.274788  -0.004917
  97   8   1.784666   1.625216  -4.947908  -0.001414   0.294415  -0.004804
  98   8   2.170317  -1.164221  -4.695898  -0.001663   0.333671  -0.004985
  99   8   3.246668  -0.735376  -5.058347  -0.002297   0.333671  -0.006884
 100   8   3.291410   0.617659  -5.389815  -0.002161   0.274788  -0.007865
 101   8   2.557203   1.180115  -5.346096  -0.001761   0.314043  -0.005606
 102   8   1.531852   0.436307  -5.117751  -0.002220   0.353299  -0.006284
 103   9   4.202289  -4.281713  -3.696945   0.004700   0.274871   0.017101
 104   9   4.166511  -6.301435  -1.090417   0.001389   0.274871   0.005054
 105   9   6.955911  -5.025582  -2.162569   0.001482   0.240512   0.006160
 106   9   3.198875  -4.565024   1.756790   0.002456   0.274871   0.008937
 107   9   3.579511  -3.701993  -3.684752   0.004916   0.240512   0.020439
 108   9   2.548498  -4.819165  -2.393875   0.003201   0.171795   0.018634
 109   9   3.096512  -4.454978  -3.169726   0.004994   0.274871   0.018168
 110   9   4.839922  -3.462711  -3.940809   0.008179   0.377948   0.021640
 111   9   5.164275  -6.216225  -1.634050   0.000359   0.274871   0.001305
 112   9   6.217250  -5.664681  -2.118147   0.001330   0.274871   0.004840
 113   9   3.248122  -5.496449   0.929682   0.002474   0.309230   0.008001
 114   9   3.632945  -6.108087  -0.057837   0.001295   0.274871   0.004711
 115   9   2.615706  -5.464253  -1.438432   0.004547   0.240512   0.018906
 116   9   3.240342  -5.970094  -1.148507   0.003458   0.309230   0.011182
 117   9   4.137392  -5.959116  -2.180790   0.004937   0.481025   0.010265
 118   9   4.101125  -5.165407  -3.155446   0.005315   0.343589   0.015468
 119   9   5.155042  -4.769831  -3.484993   0.006015   0.377948   0.015914
 120   9   6.169894  -4.946164  -3.000675   0.002944   0.240512   0.012239
 121   9   6.893874  -4.409903  -2.792357   0.003564   0.240512   0.014818
 122   9   2.678965  -4.967457   0.986228   0.002777   0.171795   0.016164
 123   9   2.638210  -3.892178  -3.054948   0.003141   0.137436   0.022852
 124   9   3.170420  -5.363815  -2.457081   0.005320   0.343589   0.015484
 125   9   5.924090  -4.106958  -3.578787   0.005113   0.274871   0.018602
 126   9   5.328584  -5.651959  -2.673982   0.004039   0.412307   0.009796
 127   9   2.733045  -5.613874  -0.162606   0.005128   0.343589   0.014924
 128  10   4.789363  -0.552660   4.724058  -0.002349   0.314043  -0.007481
 129  10   4.861064   0.977204   4.093283  -0.001907   0.235532  -0.008096
 130  10   4.208276  -2.472752   3.877471  -0.001823   0.255160  -0.007144
 131  10   4.121545   0.621228   4.310800  -0.002901   0.333671  -0.008693
 132  10   5.240942   0.300241   4.451951  -0.001929   0.255160  -0.007561
 133  10   4.439123  -1.595109   4.538332  -0.002466   0.333671  -0.007391
 134  10   3.528382  -1.973844   4.035529  -0.002086   0.294415  -0.007085
 135  10   3.768642  -0.620641   4.576990  -0.003008   0.353299  -0.008513
 136  11   7.097967   1.843065   3.254789  -0.000435   0.046456  -0.009371
 137  12   7.621788   4.734696   1.432724  -0.003385   0.353299  -0.009582
 138  12   7.101665   3.182296   2.905544  -0.002737   0.274788  -0.009961
 139  12   8.088209   4.729485   0.001824  -0.004365   0.412182  -0.010591
 140  12   7.974231   3.579939   2.695992  -0.001859   0.274788  -0.006765
 141  12   7.167906   4.091629   2.383102  -0.002925   0.314043  -0.009314
 142  12   8.429394   4.664531   0.872425  -0.002742   0.294415  -0.009314
 143  12   8.479050   4.151294   2.005696  -0.004067   0.372926  -0.010905
 144  13   8.632619  -1.545117  -5.028548   0.005169   0.309230   0.016714
 145  13   9.146489   1.748673  -5.756325   0.001112   0.274871   0.004045
 146  13   6.436775   0.479092  -5.720507   0.000862   0.137436   0.006272
 147  13   9.758691   3.475042  -3.359360   0.000755   0.137436   0.005490
 148  13   9.040251  -1.991047  -4.157274   0.004105   0.240512   0.017066
 149  13   9.596601  -1.106631  -4.950514   0.005111   0.274871   0.018596
 150  13   7.958177  -1.927039  -4.644148   0.006216   0.309230   0.020102
 151  13   8.134218   1.336162  -6.077995   0.000134   0.274871   0.000486
 152  13   7.034007   0.830850  -5.986595   0.000851   0.240512   0.003539
 153  13   9.995460   3.023352  -4.119380   0.002160   0.240512   0.008979
 154  13   9.665535   2.532731  -5.046294   0.001077   0.274871   0.003920
 155  13  10.297871   0.905192  -5.148584   0.003548   0.206154   0.017210
 156  13   9.986524   1.528512  -5.324248   0.002869   0.274871   0.010437
 157  13   9.075454   0.620908  -5.929657   0.004512   0.481025   0.009380
 158  13   8.928921  -0.596739  -5.651970   0.005007   0.343589   0.014574
 159  13   7.809052  -0.943534  -5.613894   0.005540   0.377948   0.014657
 160  13   6.687013  -0.355409  -5.626772   0.004709   0.343589   0.013704
 161  13   9.871264  -0.047488  -5.377144   0.004685   0.309230   0.015151
 162  13   6.925069  -1.224918  -5.190776   0.004831   0.274871   0.017574
 163  13   7.832634   0.180442  -6.063483   0.003656   0.412307   0.008868
 164  13  10.419512   2.111683  -4.571931   0.004448   0.309230   0.014383
 165  14  10.252730   0.523617   4.404364  -0.000308   0.092912  -0.003311
 166  14   8.579085   0.692579   4.253017  -0.000446   0.139368  -0.003203
 167  14  10.576990  -4.196463  -0.498998  -0.000547   0.139368  -0.003926
 168  14  10.178290   1.139162   4.104925  -0.001376   0.185824  -0.007404
 169  14  10.194658   1.851491   3.516401  -0.001556   0.185824  -0.008375
 170  14   9.662487   2.048127   3.371018  -0.002080   0.185824  -0.011196
 171  14   8.546129   1.139891   3.992975  -0.001486   0.185824  -0.007996
 172  14  10.153698  -3.989447  -1.077325  -0.002044   0.278737  -0.007334
 173  14   9.803497  -3.505121  -1.732474  -0.002663   0.232280  -0.011463
 174  14   9.402588   1.139609   4.157477  -0.002138   0.325193  -0.006575
 175  15  15.327534   1.221080  -1.485126  -0.000556   0.278737  -0.001996
 176  15  12.533434  -3.811883  -0.612620  -0.001099   0.185824  -0.005915
 177  15  13.266168  -3.588395  -0.928996  -0.000723   0.185824  -0.003890
 178  15  12.589368   2.270477  -2.666888  -0.000381   0.139368  -0.002731
 179  15  14.846757   2.122910  -1.322458  -0.000828   0.371649  -0.002228
 180  15  13.518194   2.594676   2.503824  -0.000065   0.092912  -0.000704
 181  15  11.665193   2.692829   2.661801  -0.001220   0.232280  -0.005253
 182  15  14.709786  -2.597724  -1.241156   0.000171   0.092912   0.001845
 183  15  12.190304   2.159797   3.225551  -0.000386   0.232280  -0.001661
 184  15  15.481866   1.665167  -0.513191  -0.000577   0.278737  -0.002071
 185  15  14.554809   1.236987  -2.430181  -0.000384   0.418105  -0.000918
 186  15  13.255980   1.628758  -2.958772  -0.000079   0.325193  -0.000242
 187  15  15.720814   0.289577  -1.192104  -0.000131   0.325193  -0.000403
 188  15  15.261026   0.226647  -2.020898  -0.000595   0.325193  -0.001831
 189  15  14.096885  -3.185830  -1.023309  -0.000184   0.092912  -0.001985
 190  15  12.236173  -3.614947  -1.256122  -0.000676   0.139368  -0.004853
 191  15  13.948400   2.027112  -2.361251  -0.000353   0.325193  -0.001085
 192  15  15.215312   2.196860   0.200319  -0.000557   0.185824  -0.002996
 193  15  12.840494   2.559181   2.804638  -0.000230   0.139368  -0.001653
 194  15  15.485577  -0.890821  -1.565138  -0.000300   0.278737  -0.001077
 195  16  13.032772   4.269071  -0.032278  -0.003929   0.431809  -0.009098
 196  16  13.621117   3.532200   1.483101  -0.001960   0.333671  -0.005874
 197  16  11.934010   3.741063   1.667024  -0.002505   0.314043  -0.007978
 198  16  12.711648   3.515469  -1.713003  -0.002568   0.333671  -0.007697
 199  16  14.240528   3.424136  -0.464925  -0.002364   0.372926  -0.006339
 200  16  12.798826   3.953521   1.397985  -0.002979   0.392554  -0.007588
 201  16  11.937087   4.288839   0.436939  -0.004262   0.412182  -0.010339
 202  16  12.094940   4.132679  -0.864101  -0.004850   0.451437  -0.010744
 203  16  13.551777   3.604288  -1.233256  -0.002974   0.412182  -0.007215
 204  16  14.018286   3.708473   0.499074  -0.003263   0.412182  -0.007916
 205  17  13.444229  -1.974689  -3.689293  -0.003564   0.412182  -0.008646
 206  17  11.928535  -2.838119  -3.001794  -0.002635   0.314043  -0.008389
 207  17  13.479744  -3.090917  -2.327001  -0.001541   0.274788  -0.005608
 208  17  14.632472  -1.539764  -2.868570  -0.002107   0.353299  -0.005964
 209  17  13.477933   0.079575  -3.722086  -0.002261   0.333671  -0.006775
 210  17  12.759990  -3.019811  -2.880195  -0.002541   0.372926  -0.006813
 211  17  14.103701  -2.469952  -2.791159  -0.003025   0.412182  -0.007340
 212  17  14.208265  -0.783341  -3.500201  -0.003242   0.471065  -0.006881
 213  17  12.966389  -0.813944  -4.075603  -0.003725   0.412182  -0.009037
 214  17  12.346050  -1.993904  -3.833618  -0.003622   0.392554  -0.009228
 215  18  17.051522  -1.119894   0.934529   0.006252   0.343589   0.018195
 216  18  16.225042   0.547975   3.730222   0.005979   0.343589   0.017401
 217  18  13.697360   1.464795   4.051335   0.002505   0.206154   0.012150
 218  18  16.187364  -2.824939   3.570524   0.001214   0.274871   0.004417
 219  18  13.812819  -1.026715   5.239412   0.002662   0.309230   0.008609
 220  18  14.829809  -3.816050   0.541304   0.001704   0.240512   0.007083
 221  18  16.416494   0.819075   0.903269   0.002213   0.206154   0.010734
[...]
 536   7   4.821661   3.766929   2.491833   0.004156   0.303557   0.013690
 537  21   5.225686   3.703004  -4.463745  -0.004161   0.285159  -0.014593
 538  21   6.021105   4.524021  -3.695734  -0.009581   0.574008  -0.016691
 539  21   6.872242   4.742100  -2.635256  -0.003621   0.285159  -0.012698
 540   7   4.250763   4.529362  -3.439931   0.006159   0.708295   0.008695
 541   7   5.377828   5.240621  -2.188333   0.008331   0.708295   0.011762
 542  22   0.658276   5.021601   1.194891  -0.000780   0.079685  -0.009783
 543  22   1.335675   5.914916   0.807123  -0.001962   0.171740  -0.011423
 544  22   2.078028   6.554863  -0.249162  -0.002270   0.171740  -0.013220
 545  22   2.463901   6.439394  -1.632682  -0.001945   0.171740  -0.011324
 546  22   2.343725   5.613268  -2.807173  -0.001674   0.171740  -0.009745
 547  22   1.924543   4.642683  -3.345224  -0.000562   0.079685  -0.007054
 548   7   1.238747   5.233985   1.365026  -0.000791   0.171363  -0.004615
 549   7   2.123184   6.251542   0.581666  -0.001285   0.171363  -0.007501
 550   7   2.765528   6.550148  -0.807410  -0.001333   0.171363  -0.007780
 551   7   2.916799   6.014061  -2.263786  -0.000816   0.171363  -0.004761
 552   7   2.518365   4.851072  -3.222958  -0.000644   0.171363  -0.003757
 553   8   4.424202  -1.180246  -4.316669  -0.000064   0.282311  -0.000228
 554   9   4.870797  -1.974659  -3.983207   0.003676   0.282311   0.013021
 555  13   5.500497  -1.203415  -4.384408   0.004186   0.282311   0.014828
 556   9   2.893969  -3.007969  -3.567751   0.004602   0.387945   0.011863
 557   9   4.126503  -2.619982  -4.024857   0.004524   0.387945   0.011663
 558   8   2.968025  -1.606441  -4.233371  -0.002444   0.637126  -0.003836
 559   8   4.633726   0.977909  -5.071404  -0.000463   0.101507  -0.004562
 560  13   5.676559   1.052188  -5.291583  -0.000283   0.101507  -0.002790
 561  21   5.613539   1.371552  -5.287651  -0.000925   0.101507  -0.009108
 562  13   5.714225  -0.640972  -5.076718   0.003603   0.365536   0.009856
 563  13   5.658681   0.480760  -5.437999   0.001579   0.365536   0.004320
 564   8   4.151649  -0.085240  -5.037335  -0.002341   0.588630  -0.003977
 565  21   5.399251   1.851694  -5.407787  -0.002437   0.317353  -0.007681
 566  21   5.071800   2.791423  -5.001636  -0.003531   0.317353  -0.011126
 567   8   3.822028   1.740543  -4.999995  -0.002894   0.635234  -0.004556
 568   9   7.809160  -3.339704  -2.463559   0.001721   0.235466   0.007307
 569  13   8.451116  -2.605487  -2.904792   0.001136   0.235466   0.004823
 570  14   8.755469  -2.992344  -2.253794  -0.002212   0.235466  -0.009393
 571  13   8.105085  -2.551987  -3.658465   0.004025   0.366008   0.010996
 572  13   6.806578  -1.921087  -4.445906   0.011762   0.732221   0.016063
 573   9   6.729208  -3.418936  -3.401897   0.011518   0.732221   0.015730
 574   9   5.407024  -2.699471  -4.064028   0.005294   0.366008   0.014464
 575   9   7.672799  -4.609236  -1.408708  -0.000449   0.091874  -0.004884
 576  14   8.558411  -4.199427  -1.102930  -0.000894   0.091874  -0.009736
 577  23   7.759107  -4.755777  -1.131946  -0.000919   0.091874  -0.010006
 578  14   9.016798  -3.831172  -1.608340  -0.002278   0.398423  -0.005718
 579   9   7.668294  -4.184865  -2.117126   0.001543   0.356162   0.004333
 580  23   4.298167  -4.732999   2.223625  -0.000581   0.080734  -0.007198
 581  23   4.182944  -5.619884   1.421036  -0.001789   0.174406  -0.010255
 582  23   4.665773  -6.317638   0.234472  -0.002126   0.174406  -0.012187
 583  23   5.716594  -6.312368  -0.777291  -0.002268   0.174406  -0.013006
 584  23   6.916933  -5.606173  -1.211334  -0.002104   0.174406  -0.012066
 585   9   3.841579  -4.882687   1.793281  -0.000733   0.173361  -0.004231
 586   9   3.958679  -5.920721   0.610013  -0.000840   0.173361  -0.004843
 587   9   4.833076  -6.315534  -0.643344  -0.001451   0.173361  -0.008368
 588   9   6.116555  -5.909899  -1.467657  -0.001387   0.173361  -0.008003
 589   9   7.127403  -5.138522  -1.651090  -0.000404   0.092438  -0.004370
 590  10   5.817625   1.542590   3.310297  -0.000558   0.034393  -0.016238
 591  11   6.364914   1.974283   3.076018  -0.000471   0.034393  -0.013696
 592  12   6.439044   2.248905   2.974384  -0.000537   0.034393  -0.015606
 593  10   6.385553   0.811078   3.680200  -0.001230   0.102038  -0.012054
 594  11   6.978643   1.186881   3.453887  -0.001351   0.102038  -0.013238
 595  14   7.356993   0.920771   3.636926  -0.001274   0.102038  -0.012488
 596  11   6.513907   1.671017   3.328312  -0.001365   0.193341  -0.007062
 597  10   5.749704   1.008524   3.773649  -0.001309   0.136981  -0.009555
 598  12   6.254607   2.569199   2.981014  -0.000518   0.135987  -0.003810
 599  10   5.428989   1.549744   3.547113  -0.000462   0.135987  -0.003400
 600  10   6.608390   0.079045   4.070324  -0.000584   0.112122  -0.005211
 601  14   7.581240   0.175708   4.095044  -0.000345   0.112122  -0.003078
 602  24   7.554461  -0.164748   4.300233   0.000400   0.112122   0.003571
 603  14   7.522986   0.694475   4.002251  -0.000411   0.178445  -0.002305
 604  10   6.098038   0.472970   4.085357  -0.000745   0.125909  -0.005916
 605  10   5.198982  -3.070163   3.355468  -0.001077   0.229739  -0.004689
 606  23   5.443611  -3.866454   2.935610  -0.002683   0.229739  -0.011679
 607  24   6.080107  -3.545040   3.491350   0.002058   0.229739   0.008957
 608  23   4.853424  -4.145794   2.801922  -0.001330   0.165442  -0.008042
 609  10   4.398447  -3.044319   3.379244  -0.000528   0.165442  -0.003189
 610  24   7.359411  -0.564204   4.708959   0.002228   0.333126   0.006688
 611  24   6.809341  -1.955401   4.807455   0.007101   0.660468   0.010751
 612  24   6.330863  -3.249200   4.220213   0.003712   0.333126   0.011143
 613  10   5.811170  -0.616944   4.506048  -0.002389   0.540652  -0.004419
 614  10   5.225969  -2.144595   4.227972  -0.001683   0.540652  -0.003112
 615  11   7.652036   2.000654   3.214125  -0.000588   0.032117  -0.018303
 616  12   7.652250   2.286900   3.116206  -0.000628   0.032117  -0.019562
 617  14   8.028581   1.735087   3.394692  -0.000593   0.032117  -0.018463
 618  11   9.410323   3.849371  -0.646372  -0.000766   0.082890  -0.009238
 619  12   9.278966   3.974353  -0.401334  -0.000896   0.082890  -0.010804
 620  16  10.377413   3.774013  -0.480803  -0.000999   0.082890  -0.012046
 621  11   8.482738   4.088816  -1.295981  -0.000508   0.037414  -0.013586
 622  12   8.380076   4.195435  -1.032276  -0.000452   0.037414  -0.012070
 623  21   8.320848   4.133769  -1.936241  -0.000790   0.037414  -0.021111
 624  12   6.997668   2.602061   2.995538  -0.000922   0.075595  -0.012201
 625  11   7.113910   2.172061   3.119277  -0.001106   0.092355  -0.011978
 626  12   8.687765   4.263395  -0.505676  -0.000540   0.043422  -0.012443
 627  11   8.759405   4.083330  -0.904886  -0.000642   0.053050  -0.012107
 628  11   9.549724   3.638186  -1.309134  -0.000787   0.136564  -0.005761
 629  13   9.602073   3.567959  -1.773152   0.000013   0.136564   0.000095
 630  16  10.516669   3.581098  -1.124124  -0.001103   0.136564  -0.008080
 631  11   8.866709   3.865408  -1.740825  -0.000377   0.038221  -0.009857
 632  13   8.942767   3.845672  -2.201811  -0.000321   0.038221  -0.008390
 633  21   8.712788   3.992553  -2.372989  -0.000562   0.038221  -0.014697
 634  13   9.130307   3.785512  -2.106848  -0.000059   0.026387  -0.002252
 635  11   9.078662   3.847617  -1.435400  -0.000210   0.028878  -0.007255
 636  14   8.020718   1.337660   3.674270  -0.001133   0.106079  -0.010678
 637  11   7.409396   1.597439   3.394661  -0.001145   0.106079  -0.010797
 638  16  10.984608   3.896275  -0.764150  -0.000672   0.080093  -0.008394
 639  11   9.541221   3.914664  -0.940706  -0.000123   0.113609  -0.001080
 640  21   8.478590   4.218863  -2.379991  -0.000736   0.067194  -0.010959
 641  11   8.745796   4.031265  -1.492274  -0.000424   0.082092  -0.005162
 642  12   9.511846   3.003665   2.238557  -0.001563   0.090153  -0.017335
 643  14  10.042001   2.590712   2.507357  -0.001633   0.090153  -0.018118
 644  15  10.503334   2.673549   2.349294  -0.001553   0.090153  -0.017222
 645  14   9.526840   2.472298   2.922859  -0.002774   0.272725  -0.010173
 646  14   8.553518   1.899850   3.466767  -0.002786   0.272725  -0.010217
 647  12   8.363267   2.902754   2.737766  -0.005933   0.396416  -0.014966
 648  12   9.849575   3.228663   1.874480  -0.001455   0.093659  -0.015536
 649  15  10.853857   2.969700   2.032876  -0.001125   0.093659  -0.012009
 650  16  10.967109   3.176236   1.839604  -0.001078   0.093659  -0.011506
 651  15  10.760488   2.962777   2.322103  -0.000008   0.076536  -0.000111
 652  12   9.283491   3.404759   2.182558  -0.000529   0.053577  -0.009872
 653  16  10.890926   4.106507  -0.154466  -0.001805   0.311922  -0.005786
 654  16  10.986691   3.833706   1.143075  -0.004540   0.623950  -0.007275
 655  12   9.346806   4.213663   0.507196  -0.004449   0.623950  -0.007131
 656  12   9.425032   3.808539   1.770906  -0.001928   0.311922  -0.006182
 657  21   7.795440   4.474537  -2.210545  -0.003308   0.273219  -0.012107
 658  12   8.034771   4.472180  -0.924715  -0.001941   0.273219  -0.007106
 659  13   9.738759  -2.179312  -3.093478   0.000469   0.174336   0.002693
 660  14  10.058436  -2.593860  -2.472797  -0.002068   0.174336  -0.011863
 661  17  10.704318  -2.409004  -2.782194  -0.001735   0.174336  -0.009952
 662  14   9.460990  -2.930684  -2.373297  -0.001123   0.149631  -0.007502
 663  13   9.116608  -2.343159  -3.316121   0.001110   0.135579   0.008191
 664  13  11.077940   2.578120  -2.952021   0.000953   0.081119   0.011754
 665  15  11.942879   2.545934  -2.497299  -0.000191   0.081119  -0.002349
 666  16  11.964252   2.772075  -2.295850  -0.000474   0.081119  -0.005841
 667  13  11.366545   1.160078  -3.860638   0.001498   0.086996   0.017215
 668  15  12.240596   1.051521  -3.434509  -0.000127   0.086996  -0.001455
 669  17  12.283582   0.778532  -3.566429  -0.000346   0.086996  -0.003980
 670  15  12.151310   1.779465  -3.189530   0.000535   0.509437   0.001050
 671  13  10.900111   2.197805  -3.753340   0.006117   0.456839   0.013389
 672  16  11.848365   3.233356  -2.103657  -0.001222   0.303209  -0.004030
 673  16  11.223824   3.747527  -1.367244  -0.001664   0.303209  -0.005489
 674  13  10.256172   3.324921  -2.705366   0.004846   0.757040   0.006402
 675  17  11.135440  -2.336481  -3.291062  -0.001245   0.247222  -0.005035
 676  17  11.649951  -1.426572  -3.967471  -0.002195   0.497121  -0.004416
 677  17  12.182523  -0.012314  -4.013233  -0.001542   0.497121  -0.003103
 678  13   9.973385  -1.665556  -4.100841   0.006380   0.611952   0.010425
 679  13  10.646661  -0.264124  -4.694036   0.008202   0.611952   0.013403
 680  13  11.052953   1.011035  -4.457112   0.004068   0.308191   0.013201
 681  21   8.819637   4.064542  -2.932014  -0.000799   0.085300  -0.009372
 682  21   9.070394   3.681822  -4.110723  -0.002183   0.186027  -0.011736
 683  21   8.610989   2.916654  -5.354515  -0.002670   0.186027  -0.014353
 684  21   7.428976   2.099395  -5.882238  -0.002687   0.186027  -0.014443
 685  21   6.279548   1.615741  -5.673428  -0.001120   0.085300  -0.013129
 686  13   9.283175   3.680090  -3.208263  -0.001053   0.182140  -0.005779
 687  13   9.287306   3.026565  -4.729835  -0.001249   0.182140  -0.006856
 688  13   8.345890   2.118982  -5.745866  -0.001881   0.182140  -0.010330
 689  13   6.875747   1.359182  -5.806501  -0.001619   0.182140  -0.008891
 690  14  11.104846  -3.457184  -1.488867  -0.000591   0.029925  -0.019758
 691  15  11.567399  -3.368292  -1.634593  -0.000470   0.029925  -0.015720
 692  17  11.686748  -3.261474  -1.892071  -0.000367   0.029925  -0.012276
 693  14  11.338759   1.080753   3.830999  -0.000674   0.056679  -0.011884
 694  15  11.801746   1.226246   3.740396  -0.000293   0.056679  -0.005162
 695  18  12.145744   0.994658   3.951812   0.000336   0.056679   0.005922
 696  14  11.267234  -4.157379   0.190402  -0.000409   0.041511  -0.009857
 697  15  11.717647  -3.992360   0.075808  -0.000627   0.041511  -0.015105
 698  24  11.143250  -4.340133   0.517301  -0.000063   0.041511  -0.001520
 699  15  11.807432  -3.755411  -0.710987  -0.002247   0.256146  -0.008771
 700  14  11.046507  -3.835807  -0.806868  -0.002374   0.256146  -0.009267
 701  15  11.232214   2.144519   2.990714  -0.002919   0.312373  -0.009345
 702  14  10.705604   1.709138   3.406861  -0.003612   0.312373  -0.011562
 703  17  11.531913  -3.019395  -2.334650  -0.002250   0.228627  -0.009842
 704  14  10.496738  -3.204077  -1.964728  -0.003030   0.322396  -0.009399
 705  14  10.910883  -0.080041   4.455264  -0.000071   0.092283  -0.000769
 706  18  11.725592  -0.168940   4.495010   0.000420   0.092283   0.004550
 707  24  10.810775  -0.419153   4.635888   0.000454   0.092283   0.004918
 708  18  12.231647   0.589428   4.340980   0.001792   0.272340   0.006578
 709  14  11.039950   0.519337   4.291942  -0.001018   0.300747  -0.003386
 710  14   9.205987  -4.529205  -0.222470  -0.000214   0.102748  -0.002083
 711  23   8.324896  -4.947411  -0.225318  -0.001348   0.102748  -0.013117
 712  24   9.136680  -4.750198   0.100933   0.000169   0.102748   0.001641
 713  23   7.894242  -5.041976  -0.835423  -0.001989   0.182769  -0.010880
 714  14   9.200487  -4.435691  -0.738738  -0.000679   0.258905  -0.002623
 715  24  10.087718  -4.694819   0.376232   0.000928   0.193217   0.004804
 716  14  10.498147  -4.358496   0.018756  -0.000383   0.206168  -0.001856
 717  24   9.926237  -0.344375   4.836861   0.000860   0.166018   0.005179
 718  24   8.440201  -0.177366   4.657908   0.000759   0.166018   0.004574
 719  14   9.271962   0.180084   4.421984   0.000042   0.345395   0.000122
 720  16  11.719695   3.256749   2.039037  -0.000645   0.070030  -0.009216
 721  16  12.848307   3.171586   2.095875  -0.001247   0.156285  -0.007979
 722  16  14.042333   3.041255   1.439580  -0.001296   0.156285  -0.008293
 723  16  14.568858   2.929367   0.181145  -0.001296   0.156285  -0.008292
 724  16  14.200662   2.884206  -1.136351  -0.001213   0.156285  -0.007760
 725  16  13.096639   2.925263  -1.944345  -0.001163   0.156285  -0.007439
 726  15  12.088671   2.912295   2.366362  -0.001275   0.152724  -0.008346
 727  15  13.599083   2.779785   2.112339  -0.001057   0.152724  -0.006923
 728  15  14.622101   2.635765   0.973866  -0.001149   0.152724  -0.007521
 729  15  14.716241   2.542386  -0.557750  -0.001137   0.152724  -0.007447
 730  15  13.840878   2.539945  -1.821539  -0.001013   0.152724  -0.006635
 731  15  12.704614   2.599743  -2.340749  -0.000519   0.085557  -0.006067
 732  17  13.011895   0.660077  -3.500148  -0.000522   0.068653  -0.007600
 733  17  14.009066   0.313483  -3.170045  -0.001085   0.152171  -0.007131
 734  17  14.775518  -0.643591  -2.635151  -0.001147   0.152171  -0.007536
 735  17  14.736700  -1.884630  -2.137291  -0.001113   0.152171  -0.007312
 736  17  13.908456  -2.903060  -1.879683  -0.001144   0.152171  -0.007520
 737  17  12.628864  -3.283173  -1.967480  -0.001362   0.152171  -0.008952
 738  15  13.428698   0.912125  -3.156146  -0.000945   0.150740  -0.006267
 739  15  14.629264   0.177366  -2.629472  -0.000966   0.150740  -0.006411
 740  15  15.060590  -1.125627  -2.017277  -0.000997   0.150740  -0.006611
 741  15  14.546614  -2.464992  -1.569453  -0.000867   0.150740  -0.005750
 742  15  13.297134  -3.294018  -1.468793  -0.001214   0.150740  -0.008053
 743  15  12.095801  -3.421894  -1.644440  -0.000653   0.083875  -0.007786
 744  15  13.444247  -3.807876   0.122089  -0.000340   0.038464  -0.008838
 745  18  13.748921  -3.908716   0.458796  -0.000301   0.038464  -0.007838
 746  20  13.608112  -4.067126   0.702313  -0.000570   0.038464  -0.014822
 747  18  14.141263  -3.675954   0.109061   0.000193   0.165340   0.001167
 748  18  15.285401  -2.544489  -0.440304   0.003948   0.343416   0.011496
 749  18  16.110557  -0.654169  -0.291353   0.004476   0.343416   0.013033
 750  18  15.935480   1.108834   0.775206   0.003063   0.343416   0.008918
 751  18  14.836265   1.978251   2.295804   0.003242   0.343416   0.009441
 752  18  13.290673   1.576200   3.609532   0.004491   0.343416   0.013077
 753  15  14.196698  -3.147208  -0.655724   0.000260   0.355079   0.000733
 754  15  15.461776  -1.443610  -1.033522   0.001979   0.355079   0.005573
 755  15  15.820605   0.572943  -0.362587   0.000891   0.355079   0.002508
 756  15  15.117224   2.025980   1.065466   0.000321   0.355079   0.000905
 757  15  13.657350   2.283956   2.629951   0.001256   0.355079   0.003536
 758  15  12.336557   1.612587   3.586264   0.000333   0.180921   0.001842
 759  15  12.147475  -4.013606   0.429239  -0.002051   0.141914  -0.014451
 760  20  12.381003  -4.248955   1.000210  -0.002641   0.141914  -0.018607
 761  24  11.560542  -4.333408   0.881131  -0.000634   0.141914  -0.004467
 762  20  13.068296  -4.299525   0.894737  -0.002323   0.172288  -0.013486
 763  15  12.954114  -3.922392   0.031206  -0.001611   0.210488  -0.007655
 764  24  11.161651  -4.526626   0.678000   0.000158   0.037318   0.004225
 765  15  12.014474  -4.056542   0.060686  -0.000190   0.041178  -0.004607
 766  18  12.499158  -1.611890   4.941529  -0.000318   0.074740  -0.004252
 767  20  12.410908  -1.923876   4.952904  -0.000618   0.074740  -0.008266
 768  24  11.582411  -1.887777   4.982922   0.000416   0.074740   0.005568
 769  20  13.960973  -4.285657   1.093406  -0.000680   0.084882  -0.008013
 770  20  14.843263  -4.242927   1.986598  -0.001963   0.184812  -0.010621
 771  20  15.263208  -3.771952   3.371100  -0.002427   0.184812  -0.013133
 772  20  14.746209  -2.988625   4.568649  -0.002391   0.184812  -0.012936
 773  20  13.517907  -2.234826   5.056582  -0.002102   0.184812  -0.011372
 774  18  14.572942  -4.038389   1.127764  -0.000862   0.181434  -0.004749
 775  18  15.486131  -3.795390   2.475409  -0.001045   0.181434  -0.005762
 776  18  15.430513  -3.076608   3.955061  -0.001622   0.181434  -0.008938
 777  18  14.430364  -2.195754   4.920931  -0.001379   0.181434  -0.007600
 778  18  13.240475  -1.601047   5.105099  -0.000478   0.097187  -0.004920
 779  24  11.046919  -1.305977   5.083610   0.003180   0.454735   0.006993
 780  18  12.264567  -0.655098   4.873996   0.002223   0.454735   0.004888
 781  24  11.323003  -4.826088   1.336965   0.001301   0.258625   0.005031
 782  24  11.250009  -5.053985   2.720820   0.004221   0.511574   0.008250
 783  24  11.185913  -4.399733   4.309879   0.005288   0.511574   0.010338
 784  24  11.178275  -2.886751   5.127247   0.004793   0.511574   0.009368
 785  20  12.471834  -4.757832   1.979026  -0.006366   0.427311  -0.014898
 786  20  12.396401  -4.683132   3.544880  -0.006520   0.427311  -0.015257
 787  20  12.361645  -3.633097   4.710806  -0.005943   0.427311  -0.013908
 788  20  12.370955  -2.389293   5.065901  -0.001854   0.211285  -0.008776
 789  24   6.549400  -4.224546   3.683966   0.002731   0.287034   0.009516
 790  24   7.420624  -5.205976   3.082515   0.004505   0.568367   0.007925
 791  24   8.476943  -5.613783   1.730534   0.002951   0.568367   0.005192
 792  24   9.055148  -5.191925   0.476861   0.001045   0.287034   0.003641
 793  23   5.938154  -5.001596   2.677036  -0.006808   0.471329  -0.014445
 794  23   6.944934  -5.850933   1.755243  -0.007800   0.471329  -0.016550
 795  23   7.742468  -5.698176   0.367696  -0.007741   0.471329  -0.016423
 =====================================================

              7617155  WORDS OF DYNAMIC MEMORY USED
 EXECUTION OF GAMESS TERMINATED NORMALLY Thu Nov 24 15:14:47 2016
 DDI: 263640 bytes (0.3 MB / 0 MWords) used by master data server.

 ----------------------------------------
 CPU timing information for all processes
 ========================================
 0: 7354.728 + 3.188 = 7357.916
 ----------------------------------------
 ddikick.x: exited gracefully.
