----- GAMESS execution script -----

          ******************************************************
          *         GAMESS VERSION =  5 DEC 2014 (R1)          *
          *             FROM IOWA STATE UNIVERSITY             *
          * M.W.SCHMIDT, K.K.BALDRIDGE, J.A.BOATZ, S.T.ELBERT, *
          *   M.S.GORDON, J.H.JENSEN, S.KOSEKI, N.MATSUNAGA,   *
          *          K.A.NGUYEN, S.J.SU, T.L.WINDUS,           *
          *       TOGETHER WITH M.DUPUIS, J.A.MONTGOMERY       *
          *         J.COMPUT.CHEM.  14, 1347-1363(1993)        *
          **************** 64 BIT LINUX VERSION ****************

 EXECUTION OF GAMESS BEGUN Thu Nov 24 13:25:45 2016

            ECHO OF THE FIRST FEW INPUT CARDS -
 INPUT CARD>! SELECT RESTRICTED HARTREE-FOCK AS DEFAULT                                     
 INPUT CARD>$contrl scftyp=rhf $end                                                         
 INPUT CARD>                                                                                
 INPUT CARD>! THEORY: HF OR DFT                                                             
 INPUT CARD> $contrl mplevl=0 $end                                                          
 INPUT CARD>                                                                                
 INPUT CARD> $system timlim=10000 mwords=20 $end                                            
 INPUT CARD> $SCF DIRSCF=.TRUE. $end                                                        
 INPUT CARD>                                                                                
 INPUT CARD>                                                                                
 INPUT CARD>! BASIS SETS                                                                    
 INPUT CARD>! 6-311G(d,p)                                                                   
 INPUT CARD> $BASIS GBASIS=N311 NGAUSS=6 NDFUNC=1 NPFUNC=1 $END                             
 INPUT CARD>                                                                                
 INPUT CARD>! One of the following                                                          
 INPUT CARD> $guess guess=HUCKEL $end                                                       
 INPUT CARD>                                                                                
 INPUT CARD> $statpt projct=.FALSE. $end                                                    
 INPUT CARD> $STATPT IFREEZ(1)=1,2,3 $END                                                   
 INPUT CARD>                                                                                
 INPUT CARD>! Optimize the geometry with COSMO effects                                      
 INPUT CARD> $statpt opttol=0.0005 nstep=50 $end                                            
 INPUT CARD> $contrl nzvar=1 $end                                                           
 INPUT CARD> $zmat dlc=.t. auto=.t. $end                                                    
 INPUT CARD> $contrl runtyp=OPTIMIZE maxit=200 $end                                         
 INPUT CARD>                                                                                
 INPUT CARD>! Run COSMO on perfect conductor                                                
 INPUT CARD> $COSGMS PRFCND=.TRUE. $end                                                     
 INPUT CARD>                                                                                
 INPUT CARD>! Specifying RSOLV                                                              
 INPUT CARD> $COSGMS COSRAD = 1.4 $end                                                      
 INPUT CARD>                                                                                
 INPUT CARD>! available memory                                                              
 INPUT CARD> $SYSTEM MWORDS=40 $END                                                         
 INPUT CARD>                                                                                
 INPUT CARD> $DATA                                                                          
 INPUT CARD>                                                                                
 INPUT CARD>C1                                                                              
 INPUT CARD>C      6.0     -4.8054000000    2.9855000000    0.9478000000                    
 INPUT CARD>C      6.0     -4.6279000000    2.3762000000   -0.4547000000                    
 INPUT CARD>H      1.0     -5.0951000000    2.2094000000    1.6863000000                    
 INPUT CARD>H      1.0     -5.6062000000    3.7554000000    0.9271000000                    
 INPUT CARD>H      1.0     -3.8821000000    3.4900000000    1.2933000000                    
 INPUT CARD>C      6.0     -5.9758000000    1.8226000000   -0.9461000000                    
 INPUT CARD>H      1.0     -6.3840000000    1.0454000000   -0.2720000000                    
 INPUT CARD>H      1.0     -5.8719000000    1.4076000000   -1.9710000000                    
 INPUT CARD>H      1.0     -6.7261000000    2.6413000000   -0.9858000000                    
 INPUT CARD>C      6.0     -3.4616000000    1.3305000000   -0.5548000000                    
 INPUT CARD>H      1.0     -4.3752000000    3.2046000000   -1.1541000000                    
 INPUT CARD>C      6.0     -2.0947000000    2.0303000000   -0.3379000000                    
   40000000 WORDS OF MEMORY AVAILABLE

     BASIS OPTIONS
     -------------
     GBASIS=N311         IGAUSS=       6      POLAR=POPN311 
     NDFUNC=       1     NFFUNC=       0     DIFFSP=       F
     NPFUNC=       1      DIFFS=       F     BASNAM=        


     RUN TITLE
     ---------
                                                                                 

 THE POINT GROUP OF THE MOLECULE IS C1      
 THE ORDER OF THE PRINCIPAL AXIS IS     0

 ATOM      ATOMIC                      COORDINATES (BOHR)
           CHARGE         X                   Y                   Z
 C           6.0    -9.0808892614        5.6417769363        1.7910822912
 C           6.0    -8.7454628986        4.4903668920       -0.8592584066
 H           1.0    -9.6283428800        4.1751605973        3.1866449331
 H           1.0   -10.5941818324        7.0966769743        1.7519649632
 H           1.0    -7.3361052569        6.5951436971        2.4439826199
 C           6.0   -11.2926245574        3.4442145852       -1.7878697570
 H           1.0   -12.0640107056        1.9755195476       -0.5140054687
 H           1.0   -11.0962820273        2.6599783003       -3.7246499218
 H           1.0   -12.7104859660        4.9913332514       -1.8628918787
 C           6.0    -6.5414754791        2.5142804267       -1.0484199780
 H           1.0    -8.2679291415        6.0558159003       -2.1809327624
 C           6.0    -3.9584090265        3.8367106729       -0.6385384113
 C           6.0    -1.7565003056        1.9983852320       -1.0404831288
 H           1.0    -3.8197031390        4.6041283965        1.3090131917
 H           1.0    -3.7478935514        5.4299386531       -1.9919601637
 C           6.0    -1.9645591368       -0.2428297894        0.7970864216
 H           1.0     0.0529123277        3.0182703476       -0.7224422451
 H           1.0    -1.7808777708        1.3067455205       -3.0265851419
 C           6.0    -4.4988706590       -1.6064560622        0.3868269097
 C           6.0    -6.7472666392        0.2048462971        0.7700633400
 H           1.0    -4.6649775733       -3.2053532204        1.7410045525
 H           1.0    -4.5691684657       -2.3906923471       -1.5643151726
 H           1.0    -6.5426093147        1.7929720172       -3.0263961693
 C           6.0     0.2484989674       -2.0726514633        0.4229206761
 H           1.0    -1.8876472891        0.4788565653        2.7720390514
 H           1.0     2.0688720114       -1.0833799088        0.7606147101
 H           1.0     0.2522784194       -2.8474391183       -1.5291662693
 H           1.0     0.1062026005       -3.6662573888        1.7820116064
 O           8.0    -8.9826235100       -1.1446070308        0.3193636919
 H           1.0    -6.7158971878        0.9161391588        2.7535197367
 H           1.0    -9.3923161042       -2.0709507099        1.8987966725

          INTERNUCLEAR DISTANCES (ANGS.)




     $CONTRL OPTIONS
     ---------------
 SCFTYP=RHF          RUNTYP=OPTIMIZE     EXETYP=RUN     
 MPLEVL=       0     CITYP =NONE         CCTYP =NONE         VBTYP =NONE    
 DFTTYP=NONE         TDDFT =NONE    
 MULT  =       1     ICHARG=       0     NZVAR =       1     COORD =UNIQUE  
 PP    =NONE         RELWFN=NONE         LOCAL =NONE         NUMGRD=       F
 ISPHER=      -1     NOSYM =       0     MAXIT =     200     UNITS =ANGS    
 PLTORB=       F     MOLPLT=       F     AIMPAC=       F     FRIEND=        
 NPRINT=       7     IREST =       0     GEOM  =INPUT   
 NORMF =       0     NORMP =       0     ITOL  =      20     ICUT  =       9
 INTTYP=BEST         GRDTYP=BEST         QMTTOL= 1.0E-06

     $SYSTEM OPTIONS
     ---------------
  REPLICATED MEMORY=    40000000 WORDS (ON EVERY NODE).
 DISTRIBUTED MEMDDI=           0 MILLION WORDS IN AGGREGATE,
 MEMDDI DISTRIBUTED OVER   1 PROCESSORS IS           0 WORDS/PROCESSOR.
 TOTAL MEMORY REQUESTED ON EACH PROCESSOR=    40000000 WORDS.
 TIMLIM=       10000.00 MINUTES, OR       6.9 DAYS.
 PARALL= F  BALTYP=  DLB     KDIAG=    0  COREFL= F
 MXSEQ2=     300 MXSEQ3=     150  mem10=         0

     $COSGMS OPTIONS
     ---------------
     EPSI  =   INFTY     NSPA  =      92     COSRAD=    1.40
     DISEX =   10.00     OUTCHG=DBLCAV       COSBUG=       F
     COSWRT=       F     DCOSMO=       F

     SYMMETRY COORDINATES WILL NOT BE USED FOR 
     THE COSMO CALCULATION, EVEN IF SPECIFIED:
         -- SWITCHING TO C1 POINT GROUP --


     DEFINITION OF CAVITY
     ---------------------------
     ATOM         COORDINATES           RADIUS 
     1   -9.0809    5.6418    1.7911    2.0000
     2   -8.7455    4.4904   -0.8593    2.0000
     3   -9.6283    4.1752    3.1866    1.3000
     4  -10.5942    7.0967    1.7520    1.3000
     5   -7.3361    6.5951    2.4440    1.3000
     6  -11.2926    3.4442   -1.7879    2.0000
     7  -12.0640    1.9755   -0.5140    1.3000
     8  -11.0963    2.6600   -3.7246    1.3000
     9  -12.7105    4.9913   -1.8629    1.3000
    10   -6.5415    2.5143   -1.0484    2.0000
    11   -8.2679    6.0558   -2.1809    1.3000
    12   -3.9584    3.8367   -0.6385    2.0000
    13   -1.7565    1.9984   -1.0405    2.0000
    14   -3.8197    4.6041    1.3090    1.3000
    15   -3.7479    5.4299   -1.9920    1.3000
    16   -1.9646   -0.2428    0.7971    2.0000
    17    0.0529    3.0183   -0.7224    1.3000
    18   -1.7809    1.3067   -3.0266    1.3000
    19   -4.4989   -1.6065    0.3868    2.0000
    20   -6.7473    0.2048    0.7701    2.0000
    21   -4.6650   -3.2054    1.7410    1.3000
    22   -4.5692   -2.3907   -1.5643    1.3000
    23   -6.5426    1.7930   -3.0264    1.3000
    24    0.2485   -2.0727    0.4229    2.0000
    25   -1.8876    0.4789    2.7720    1.3000
    26    2.0689   -1.0834    0.7606    1.3000
    27    0.2523   -2.8474   -1.5292    1.3000
    28    0.1062   -3.6663    1.7820    1.3000
    29   -8.9826   -1.1446    0.3194    1.7200
    30   -6.7159    0.9161    2.7535    1.3000
    31   -9.3923   -2.0710    1.8988    1.3000

          ----------------
          PROPERTIES INPUT
          ----------------

     MOMENTS            FIELD           POTENTIAL          DENSITY
 IEMOM =       1   IEFLD =       0   IEPOT =       0   IEDEN =       0
 WHERE =COMASS     WHERE =NUCLEI     WHERE =NUCLEI     WHERE =NUCLEI  
 OUTPUT=BOTH       OUTPUT=BOTH       OUTPUT=BOTH       OUTPUT=BOTH    
 IEMINT=       0   IEFINT=       0                     IEDINT=       0
                                                       MORB  =       0
          EXTRAPOLATION IN EFFECT
          SOSCF IN EFFECT
 ORBITAL PRINTING OPTION: NPREO=     1   329     2     1

     -------------------------------
     INTEGRAL TRANSFORMATION OPTIONS
     -------------------------------
     NWORD  =            0
     CUTOFF = 1.0E-09     MPTRAN =       0
     DIRTRF =       T     AOINTS =DUP     

          ----------------------
          INTEGRAL INPUT OPTIONS
          ----------------------
 NOPK  =       1 NORDER=       0 SCHWRZ=       T


 -----------------------------------------------
  STATISTICS ON AUTOMATIC COORDINATE GENERATION 
 -----------------------------------------------
  NUMBER OF USER SPECIFIED BONDS                             0
  NUMBER OF BONDS                                           31
  NUMBER OF ANGLES                                          61
  NUMBER OF TORSIONS                                        93
  NUMBER OF EXTRA COORD.                                     0
  NUMBER OF EXTRA COORD. FOR CONSTRAINTS                     0
  NUMBER OF CONSTRAINED COORD.                               0

  TOTAL NUMBER OF PRIMITIVES                               185
 -----------------------------------------------

   --- ENCODED Z MATRIX ---
 COORD  TYPE   I   J   K   L   M   N
    1      1    1   4
    2      1    1   3
    3      1    1   5
    4      1    1   2
    5      1    2   6
    6      1    2  11
    7      1    2  10
    8      1    6   8
    9      1    6   9
   10      1    6   7
   11      1   10  23
   12      1   10  12
   13      1   10  20
   14      1   12  15
   15      1   12  14
   16      1   12  13
   17      1   13  16
   18      1   13  18
   19      1   13  17
   20      1   16  25
   21      1   16  24
   22      1   16  19
   23      1   19  22
   24      1   19  21
   25      1   19  20
   26      1   20  30
   27      1   20  29
   28      1   24  28
   29      1   24  27
   30      1   24  26
   31      1   29  31
   32      2    1   2   6
   33      2    1   2  10
   34      2    1   2  11
   35      2    2   6   8
   36      2    2   1   4
   37      2    2   1   3
   38      2    2   6   9
   39      2    2  10  23
   40      2    2   6   7
   41      2    2  10  12
   42      2    2   1   5
   43      2    2  10  20
   44      2    3   1   5
   45      2    3   1   4
   46      2    4   1   5
   47      2    6   2  11
   48      2    6   2  10
   49      2    7   6   9
   50      2    7   6   8
   51      2    8   6   9
   52      2   10  12  15
   53      2   10  20  30
   54      2   10  20  19
   55      2   10  12  13
   56      2   10  12  14
   57      2   10   2  11
   58      2   10  20  29
   59      2   12  10  20
   60      2   12  10  23
   61      2   12  13  17
   62      2   12  13  18
   63      2   12  13  16
   64      2   13  16  19
   65      2   13  16  24
   66      2   13  16  25
   67      2   13  12  14
   68      2   13  12  15
   69      2   14  12  15
   70      2   16  19  21
   71      2   16  19  22
   72      2   16  24  26
   73      2   16  24  27
   74      2   16  24  28
   75      2   16  19  20
   76      2   16  13  17
   77      2   16  13  18
   78      2   17  13  18
   79      2   19  20  29
   80      2   19  20  30
   81      2   19  16  24
   82      2   19  16  25
   83      2   20  29  31
   84      2   20  19  21
   85      2   20  19  22
   86      2   20  10  23
   87      2   21  19  22
   88      2   24  16  25
   89      2   26  24  27
   90      2   26  24  28
   91      2   27  24  28
   92      2   29  20  30
   93      3    1   2   6   7
   94      3    1   2  10  20
   95      3    1   2  10  12
   96      3    1   2  10  23
   97      3    1   2   6   9
   98      3    1   2   6   8
   99      3    2  10  20  29
  100      3    2  10  20  30
  101      3    2  10  20  19
  102      3    2  10  12  13
  103      3    2  10  12  14
  104      3    2  10  12  15
  105      3    3   1   2  11
  106      3    3   1   2   6
  107      3    3   1   2  10
  108      3    4   1   2  10
  109      3    4   1   2  11
  110      3    4   1   2   6
  111      3    5   1   2  11
  112      3    5   1   2   6
  113      3    5   1   2  10
  114      3    6   2  10  23
  115      3    6   2  10  20
  116      3    6   2  10  12
  117      3    7   6   2  10
  118      3    7   6   2  11
  119      3    8   6   2  10
  120      3    8   6   2  11
  121      3    9   6   2  10
  122      3    9   6   2  11
  123      3   10  20  29  31
  124      3   10  12  13  17
  125      3   10  12  13  18
  126      3   10  12  13  16
  127      3   10  20  19  21
  128      3   10  20  19  22
  129      3   10  20  19  16
  130      3   11   2  10  23
  131      3   11   2  10  20
  132      3   11   2  10  12
  133      3   12  10  20  30
  134      3   12  13  16  19
  135      3   12  13  16  24
  136      3   12  13  16  25
  137      3   12  10  20  29
  138      3   12  10  20  19
  139      3   13  16  24  26
  140      3   13  16  24  27
  141      3   13  16  24  28
  142      3   13  16  19  20
  143      3   13  16  19  21
  144      3   13  16  19  22
  145      3   13  12  10  20
  146      3   13  12  10  23
  147      3   14  12  13  16
  148      3   14  12  13  18
  149      3   14  12  13  17
  150      3   14  12  10  20
  151      3   14  12  10  23
  152      3   15  12  10  20
  153      3   15  12  10  23
  154      3   15  12  13  16
  155      3   15  12  13  18
  156      3   15  12  13  17
  157      3   16  19  20  29
  158      3   16  19  20  30
  159      3   17  13  16  25
  160      3   17  13  16  24
  161      3   17  13  16  19
  162      3   18  13  16  25
  163      3   18  13  16  24
  164      3   18  13  16  19
  165      3   19  20  29  31
  166      3   19  16  24  28
  167      3   19  16  24  27
  168      3   19  16  24  26
  169      3   19  20  10  23
  170      3   20  19  16  24
  171      3   20  19  16  25
  172      3   21  19  20  30
  173      3   21  19  20  29
  174      3   21  19  16  24
  175      3   21  19  16  25
  176      3   22  19  20  30
  177      3   22  19  20  29
  178      3   22  19  16  24
  179      3   22  19  16  25
  180      3   23  10  20  30
  181      3   23  10  20  29
  182      3   25  16  24  28
  183      3   25  16  24  27
  184      3   25  16  24  26
  185      3   30  20  29  31

          INDEP./SYM. INTERNAL COORDINATES
          --------------------------------
 CRD  1=  -0.1386 ( 12) -0.1044 ( 16)  0.1485 ( 22) -0.2813 ( 33) -0.3402 ( 41)
           0.2627 ( 43)  0.3603 ( 48)  0.1051 ( 55) -0.1009 ( 65)  0.1257 ( 81)
           0.2090 ( 99)  0.1904 (100)  0.2839 (101)  0.1182 (106) -0.1220 (107)
          -0.1526 (108) -0.1508 (113)  0.1141 (135)
 CRD  2=   0.2017 (  7)  0.2328 ( 13) -0.1390 ( 17)  0.1352 ( 25) -0.1410 ( 32)
           0.3399 ( 33) -0.1413 ( 39) -0.1408 ( 41)  0.3488 ( 43) -0.1152 ( 57)
           0.1335 ( 63) -0.1170 ( 93) -0.1114 ( 97) -0.1253 ( 98)  0.2986 (102)
           0.2036 (103)  0.2049 (104)  0.1514 (117)  0.1431 (119)  0.1570 (121)
           0.1204 (170)
 CRD  3=   0.4007 (  7)  0.1691 ( 12)  0.2194 ( 16)  0.1038 ( 17)  0.1197 ( 21)
          -0.3674 ( 32)  0.1031 ( 35)  0.1803 ( 41)  0.3055 ( 48)  0.1387 ( 54)
          -0.1028 ( 57) -0.1335 ( 59)  0.1769 ( 65) -0.1670 ( 94) -0.1169 ( 95)
          -0.1269 ( 96)  0.1338 (110)  0.1078 (112)  0.1087 (138) -0.1233 (170)
 CRD  4=  -0.1771 ( 13)  0.1200 ( 22) -0.1031 ( 32)  0.2372 ( 33) -0.1301 ( 34)
           0.1121 ( 37) -0.1448 ( 40)  0.1684 ( 47) -0.1545 ( 48)  0.1017 ( 55)
          -0.2055 ( 58)  0.1054 ( 79)  0.1258 ( 81)  0.1336 ( 83) -0.1130 ( 86)
           0.1909 ( 94)  0.1836 ( 95) -0.1129 ( 97) -0.1386 (102)  0.1501 (114)
           0.2652 (115)  0.2580 (116)  0.1556 (131)  0.1483 (132)  0.1237 (135)
          -0.1248 (145)
 CRD  5=  -0.1416 ( 17)  0.2386 ( 22)  0.2009 ( 25)  0.1727 ( 41) -0.1682 ( 43)
          -0.3064 ( 65) -0.1299 ( 72)  0.1705 ( 74)  0.1639 ( 79)  0.3589 ( 81)
           0.1009 ( 86) -0.1426 ( 94) -0.1449 ( 95) -0.1284 ( 96) -0.1601 ( 99)
           0.1836 (135)  0.1549 (160)  0.1208 (163) -0.1029 (164)  0.1180 (165)
           0.1830 (170)  0.1307 (174)  0.1121 (178) -0.1097 (181)  0.1036 (183)
 CRD  6=  -0.3193 (  4) -0.1277 (  7)  0.2064 ( 12) -0.1203 ( 17) -0.2483 ( 32)
           0.2060 ( 35) -0.1008 ( 36)  0.2506 ( 48)  0.1068 ( 52) -0.1034 ( 54)
          -0.1253 ( 65) -0.1743 ( 73)  0.1120 ( 88)  0.1512 (114)  0.2272 (115)
           0.2310 (116) -0.1594 (135)  0.1575 (170)
 CRD  7=  -0.3643 (  5) -0.1797 (  7) -0.1885 ( 12) -0.1630 ( 16) -0.2558 ( 21)
          -0.1658 ( 25) -0.2993 ( 32)  0.2494 ( 33) -0.1283 ( 36) -0.1477 ( 38)
          -0.1010 ( 41)  0.1912 ( 42)  0.1066 ( 49) -0.1207 ( 57)  0.1159 ( 59)
          -0.1015 ( 63) -0.1770 ( 94) -0.2245 ( 95) -0.1386 ( 96)  0.1163 (134)
 CRD  8=   0.1194 (  5)  0.1722 (  7) -0.1634 ( 17) -0.2925 ( 21) -0.1239 ( 22)
          -0.1441 ( 25) -0.1861 ( 27)  0.1410 ( 41)  0.1058 ( 54)  0.1025 ( 55)
           0.1542 ( 58) -0.1622 ( 59)  0.1181 ( 62) -0.1054 ( 63)  0.1675 ( 64)
          -0.2054 ( 65)  0.1421 ( 71) -0.1863 ( 72) -0.1530 ( 75) -0.1983 ( 79)
          -0.1154 ( 82) -0.3082 ( 83)  0.1061 ( 95)  0.1122 (124)  0.2048 (157)
          -0.1102 (165)  0.1043 (167)  0.1137 (173)  0.1045 (177)
 CRD  9=   0.2634 (  4)  0.1947 (  5)  0.2147 (  7)  0.1927 ( 12) -0.1414 ( 17)
          -0.3082 ( 21)  0.2149 ( 27)  0.1270 ( 37)  0.1231 ( 40) -0.1022 ( 65)
          -0.1442 ( 71) -0.2070 ( 73) -0.1009 ( 81)  0.3440 ( 83)  0.1085 ( 91)
          -0.1213 (129)  0.1237 (137)  0.1392 (138) -0.1013 (143) -0.1761 (157)
           0.1116 (161) -0.1028 (173)
 CRD 10=  -0.1768 (  5)  0.3434 ( 13)  0.1160 ( 16)  0.1237 ( 21) -0.1481 ( 25)
           0.1526 ( 27) -0.1325 ( 37) -0.2013 ( 40) -0.1610 ( 55)  0.1123 ( 56)
           0.1009 ( 57)  0.1883 ( 58)  0.1362 ( 63)  0.1708 ( 74) -0.2415 ( 79)
           0.1567 ( 83)  0.1828 ( 99) -0.1133 (121) -0.1695 (123)  0.2150 (137)
          -0.1217 (165)  0.1409 (181)
 CRD 11=  -0.1486 (  4)  0.3177 ( 12)  0.2069 ( 13)  0.1125 ( 19)  0.2696 ( 22)
           0.2771 ( 27)  0.1995 ( 31) -0.1601 ( 54)  0.1275 ( 55)  0.1823 ( 58)
          -0.1791 ( 63)  0.1325 ( 64) -0.1480 ( 68)  0.1939 ( 73) -0.2091 ( 74)
           0.1178 ( 77)  0.1778 ( 83) -0.1217 ( 92) -0.1125 (128)  0.1181 (145)
           0.1316 (157)  0.1253 (168) -0.1662 (170)
 CRD 12=   0.1070 (  4)  0.1993 (  5) -0.1697 (  7) -0.2524 ( 13) -0.1092 ( 24)
          -0.3420 ( 25) -0.1021 ( 36)  0.1791 ( 37) -0.1032 ( 38)  0.1974 ( 40)
          -0.1182 ( 50) -0.1003 ( 54) -0.1102 ( 57)  0.1107 ( 58)  0.1094 ( 59)
          -0.1281 ( 64) -0.1066 ( 72)  0.2084 ( 73)  0.1772 ( 75) -0.1145 ( 79)
           0.1600 ( 81) -0.1119 ( 83) -0.1771 ( 84) -0.1261 ( 85) -0.1127 ( 88)
          -0.1032 (108) -0.1494 (123)  0.1316 (137)  0.1036 (160) -0.1094 (178)
 CRD 13=   0.4550 (  4)  0.1948 ( 17)  0.1738 ( 21)  0.1388 ( 22)  0.1969 ( 35)
           0.1237 ( 36)  0.1090 ( 39) -0.1054 ( 40) -0.1118 ( 41)  0.2646 ( 42)
          -0.1453 ( 44) -0.1694 ( 46) -0.1025 ( 56)  0.1162 ( 58)  0.1204 ( 59)
           0.1692 ( 72) -0.1534 ( 73)  0.1363 ( 74) -0.1134 ( 83) -0.1101 ( 90)
           0.1540 (126) -0.1104 (135)
 CRD 14=   0.2355 (  5) -0.1083 ( 16) -0.1413 ( 17) -0.1191 ( 21) -0.1263 ( 22)
           0.1966 ( 35)  0.1951 ( 36) -0.3598 ( 37)  0.2864 ( 38) -0.2719 ( 40)
           0.2321 ( 42) -0.1480 ( 46) -0.1810 ( 51) -0.1084 ( 72)  0.2047 ( 73)
          -0.2033 ( 74)  0.1103 ( 90)  0.1450 ( 98) -0.1412 (112)
 CRD 15=  -0.2205 (  5) -0.1021 ( 12) -0.2226 ( 13) -0.1353 ( 14)  0.1161 ( 16)
          -0.3702 ( 17) -0.1289 ( 24) -0.1069 ( 25)  0.1704 ( 36) -0.1934 ( 40)
           0.1077 ( 50) -0.1078 ( 52)  0.1872 ( 55) -0.1103 ( 56) -0.1011 ( 59)
           0.1874 ( 61) -0.1198 ( 63)  0.2509 ( 72) -0.1165 ( 73)  0.1818 ( 75)
          -0.1012 ( 76) -0.1211 ( 84)  0.1181 ( 99)  0.1239 (101) -0.1231 (134)
          -0.1011 (135)  0.1116 (137)  0.1174 (138)
 CRD 16=  -0.2187 (  5) -0.1028 ( 21) -0.1797 ( 22) -0.1116 ( 24)  0.1450 ( 25)
          -0.1542 ( 35)  0.1152 ( 36) -0.1646 ( 38)  0.1227 ( 40)  0.1251 ( 51)
           0.1433 ( 53) -0.1816 ( 54)  0.1254 ( 63)  0.1727 ( 66) -0.1545 ( 70)
          -0.1347 ( 74)  0.1139 ( 75) -0.2136 ( 77)  0.1267 ( 79) -0.1317 ( 92)
          -0.1103 (102)  0.1422 (126)  0.1184 (128)  0.1526 (129)  0.1683 (139)
           0.1361 (140)  0.1546 (141) -0.1431 (142) -0.1384 (143) -0.1109 (145)
           0.1328 (147)  0.1240 (154)  0.1382 (157) -0.1070 (170) -0.1023 (174)
           0.1040 (177)
 CRD 17=   0.2398 (  4) -0.1483 (  5) -0.1484 ( 17) -0.2120 ( 22)  0.1115 ( 25)
           0.2862 ( 35)  0.1090 ( 36)  0.2131 ( 37) -0.3366 ( 38) -0.1057 ( 42)
          -0.1443 ( 45)  0.1847 ( 49) -0.1010 ( 53) -0.2311 ( 72)  0.3186 ( 73)
          -0.1386 ( 76)  0.1141 ( 83)  0.1003 ( 84)  0.1165 ( 90) -0.1018 ( 91)
           0.1005 (142)
 CRD 18=   0.1237 (  1) -0.1513 (  5)  0.1430 ( 12)  0.1691 ( 17) -0.1149 ( 25)
          -0.1109 ( 35)  0.5416 ( 36) -0.2581 ( 37) -0.1403 ( 38)  0.1069 ( 40)
          -0.2187 ( 42)  0.1933 ( 44) -0.1290 ( 45) -0.1215 ( 46)  0.1093 ( 51)
          -0.1098 ( 58) -0.1289 ( 72)  0.1070 ( 97)  0.1126 (117)  0.1052 (119)
           0.1253 (121)
 CRD 19=  -0.3313 ( 16)  0.2530 ( 22) -0.1077 ( 27)  0.1073 ( 30)  0.2268 ( 35)
           0.1151 ( 36)  0.1791 ( 37) -0.1905 ( 40) -0.2592 ( 42) -0.1246 ( 45)
           0.1151 ( 49)  0.1590 ( 56) -0.1468 ( 61)  0.1121 ( 63) -0.1141 ( 67)
           0.1025 ( 70)  0.3218 ( 72) -0.1268 ( 73) -0.2194 ( 74) -0.1905 ( 83)
           0.1530 ( 91)
 CRD 20=  -0.1049 (  2)  0.1039 (  3) -0.1391 ( 17) -0.3024 ( 37) -0.3238 ( 38)
           0.3185 ( 40)  0.3209 ( 42)  0.1395 ( 45) -0.1269 ( 46) -0.1527 ( 50)
           0.1086 ( 51)  0.1046 ( 71)  0.2780 ( 72) -0.2763 ( 74)  0.1458 ( 83)
          -0.1363 ( 89)  0.1038 ( 91)  0.1245 (108)
 CRD 21=   0.1167 ( 14)  0.3170 ( 16) -0.1359 ( 17)  0.1631 ( 22)  0.1229 ( 24)
          -0.1266 ( 28) -0.2105 ( 35)  0.2297 ( 38) -0.1012 ( 41)  0.1073 ( 50)
          -0.1561 ( 55)  0.1392 ( 67)  0.1045 ( 68)  0.1116 ( 72)  0.2134 ( 73)
          -0.3558 ( 74) -0.1326 ( 77) -0.1474 ( 89)  0.1116 ( 90) -0.1001 (103)
          -0.1032 (138)  0.1006 (170)
 CRD 22=   0.1424 (  7) -0.1165 (  8) -0.1080 ( 13) -0.4607 ( 16)  0.2025 ( 21)
          -0.1491 ( 22) -0.3534 ( 35)  0.2108 ( 38)  0.1080 ( 39)  0.1024 ( 40)
          -0.1381 ( 49)  0.1227 ( 50)  0.1715 ( 52) -0.1240 ( 61) -0.1109 ( 62)
          -0.1795 ( 68)  0.1558 ( 73) -0.1692 (104)  0.1024 (151) -0.1006 (152)
          -0.1078 (160)  0.1031 (162)
 CRD 23=   0.1246 ( 17) -0.2131 ( 25)  0.1093 ( 26)  0.1913 ( 37)  0.1101 ( 38)
          -0.2016 ( 40) -0.1140 ( 58) -0.1018 ( 59)  0.1196 ( 66)  0.1963 ( 71)
          -0.1548 ( 74) -0.1414 ( 82)  0.3722 ( 83) -0.1552 ( 85)  0.1596 ( 92)
          -0.1059 ( 94) -0.1269 (100) -0.1104 (115)  0.1140 (129)  0.1139 (139)
           0.1107 (141)  0.1024 (158)  0.1248 (166)  0.1090 (167)  0.1279 (168)
          -0.1281 (177)
 CRD 24=  -0.1064 (  5)  0.2527 (  7)  0.1782 ( 17)  0.1048 ( 19) -0.2279 ( 21)
           0.1819 ( 22) -0.1258 ( 27) -0.1083 ( 36)  0.1464 ( 42) -0.1138 ( 47)
           0.1067 ( 53) -0.1639 ( 56)  0.1241 ( 57)  0.1253 ( 61) -0.2157 ( 62)
           0.1560 ( 67) -0.1248 ( 68) -0.1698 ( 72)  0.1782 ( 77) -0.1206 ( 83)
          -0.1194 ( 85) -0.1090 ( 88)  0.1139 ( 90)  0.1031 (110)  0.1068 (112)
           0.1093 (127) -0.1243 (134) -0.1890 (136)  0.1381 (146)
 CRD 25=  -0.1288 (  7) -0.2234 ( 21)  0.1086 ( 23)  0.1173 ( 25)  0.1348 ( 27)
          -0.1409 ( 29) -0.1314 ( 35) -0.1666 ( 53) -0.1358 ( 62)  0.1170 ( 63)
          -0.1166 ( 64)  0.1099 ( 65) -0.1889 ( 70)  0.1941 ( 71) -0.2900 ( 73)
          -0.1728 ( 76)  0.1176 ( 83)  0.1645 ( 84) -0.1702 ( 85) -0.1955 ( 88)
           0.1478 ( 89)  0.1471 ( 91) -0.1086 (154)  0.1222 (157)  0.1682 (158)
           0.1233 (160)  0.1219 (163)  0.1129 (171) -0.1180 (174) -0.1011 (178)
 CRD 26=   0.1020 (  1) -0.1255 (  4)  0.1871 (  5)  0.1620 (  7) -0.3276 ( 12)
          -0.1046 ( 14)  0.1468 ( 17) -0.1306 ( 34)  0.1688 ( 36)  0.1281 ( 39)
           0.1471 ( 40) -0.2072 ( 42) -0.1091 ( 43)  0.1633 ( 44)  0.1356 ( 47)
          -0.1175 ( 50) -0.1267 ( 52) -0.1401 ( 53)  0.1330 ( 58) -0.1528 ( 60)
          -0.1196 ( 74)  0.1032 ( 76)  0.1684 ( 80) -0.1121 ( 97)  0.1066 (100)
           0.1273 (114) -0.1017 (131) -0.1291 (132) -0.1074 (169)
 CRD 27=  -0.1361 (  5)  0.1797 ( 12) -0.1762 ( 13) -0.1263 ( 14)  0.1385 ( 15)
           0.1015 ( 19)  0.1009 ( 24)  0.2241 ( 25) -0.1092 ( 36) -0.1132 ( 40)
           0.1863 ( 42) -0.1031 ( 47) -0.1429 ( 52) -0.1649 ( 53)  0.2001 ( 56)
          -0.1445 ( 67)  0.1793 ( 76)  0.1385 ( 80) -0.1212 ( 83)  0.1060 ( 84)
           0.1019 (100)  0.1174 (103) -0.1689 (124) -0.1200 (125)  0.1098 (131)
           0.1496 (133)  0.1135 (137)  0.1401 (147)  0.1509 (180)  0.1148 (181)
          -0.1286 (185)
 CRD 28=  -0.1207 (  7)  0.1321 ( 13)  0.2044 ( 17)  0.2885 ( 18) -0.1348 ( 19)
          -0.2328 ( 22) -0.1864 ( 23)  0.1338 ( 52) -0.1080 ( 65)  0.1195 ( 66)
          -0.2015 ( 71)  0.2137 ( 72) -0.1352 ( 74) -0.1008 ( 76)  0.2037 ( 77)
           0.1193 ( 81) -0.1250 ( 82)  0.1099 ( 85)  0.1090 ( 91)  0.1188 (125)
           0.1364 (135)  0.1237 (136) -0.1271 (147) -0.1561 (154) -0.1043 (158)
           0.1113 (160)  0.1105 (163)  0.1041 (167)  0.1029 (168)  0.1134 (179)
 CRD 29=  -0.1065 (  7)  0.2425 ( 11)  0.1867 ( 12)  0.1384 ( 13) -0.1115 ( 15)
          -0.1231 ( 18)  0.1953 ( 20) -0.2245 ( 23) -0.1014 ( 25) -0.1704 ( 26)
           0.1012 ( 47)  0.1043 ( 56) -0.1228 ( 62) -0.1760 ( 67)  0.1019 ( 68)
          -0.1003 ( 70)  0.1416 ( 73) -0.1069 ( 74)  0.1018 ( 75)  0.1138 ( 79)
          -0.1544 ( 80) -0.1540 ( 83) -0.1469 ( 85)  0.1711 (101) -0.1307 (106)
          -0.1332 (110) -0.1200 (112) -0.1164 (131) -0.1043 (135) -0.1337 (146)
           0.1637 (169)  0.1293 (170)  0.1259 (171)
 CRD 30=  -0.1956 (  6) -0.1233 ( 11)  0.2279 ( 12) -0.1972 ( 13) -0.1335 ( 31)
           0.1081 ( 32) -0.1262 ( 34)  0.1172 ( 35) -0.1293 ( 37)  0.1056 ( 49)
           0.2118 ( 52)  0.1348 ( 67) -0.1917 ( 68) -0.1285 ( 86) -0.1453 ( 93)
          -0.1326 ( 97) -0.1342 ( 98) -0.1037 (104) -0.1198 (105) -0.1207 (106)
          -0.1012 (107) -0.1046 (108) -0.1232 (109) -0.1241 (110) -0.1011 (111)
          -0.1020 (112) -0.1713 (114) -0.1091 (116) -0.1158 (117) -0.1046 (119)
          -0.1031 (121) -0.1888 (130) -0.1118 (131) -0.1266 (132) -0.1081 (150)
          -0.1433 (152) -0.1063 (173)
 CRD 31=  -0.2269 (  7) -0.2132 ( 11) -0.2980 ( 15) -0.1295 ( 18)  0.2790 ( 25)
           0.3185 ( 26)  0.1123 ( 41)  0.1568 ( 55) -0.1245 ( 56) -0.1126 ( 68)
          -0.1278 ( 79)  0.1025 ( 99) -0.1531 (123)  0.1466 (133) -0.1021 (135)
          -0.1024 (136)  0.2145 (137) -0.1101 (152) -0.1173 (153)  0.1451 (181)
          -0.1050 (185)
 CRD 32=   0.2426 (  6)  0.1510 ( 13)  0.1335 ( 15)  0.1861 ( 18) -0.1071 ( 29)
          -0.1718 ( 31)  0.1718 ( 62) -0.1957 ( 70)  0.1454 ( 71) -0.1054 ( 83)
           0.1999 ( 84) -0.2008 ( 85) -0.1191 (127) -0.1107 (140) -0.1108 (141)
          -0.1858 (143) -0.1826 (144) -0.1040 (164) -0.1721 (172) -0.1595 (173)
          -0.1787 (174) -0.1670 (175) -0.1459 (176) -0.1334 (177) -0.1756 (178)
          -0.1638 (179) -0.1057 (182) -0.1056 (183)
 CRD 33=  -0.1073 (  3)  0.3850 (  6)  0.1477 ( 10)  0.1910 ( 11) -0.1234 ( 14)
           0.2258 ( 15) -0.2800 ( 20)  0.1171 ( 26)  0.1000 ( 28)  0.1177 ( 29)
           0.1089 ( 30)  0.1059 ( 37)  0.1034 ( 51) -0.1384 ( 61)  0.1188 ( 70)
          -0.1038 ( 71)  0.1204 ( 76) -0.1498 ( 84) -0.1287 (106) -0.1222 (110)
          -0.1303 (112) -0.1173 (117) -0.1327 (121) -0.1138 (124)  0.1500 (143)
           0.1207 (144) -0.1222 (161)
 CRD 34=   0.1402 (  2)  0.4377 (  6) -0.1007 (  9) -0.2697 ( 11)  0.1041 ( 15)
           0.1509 ( 18)  0.4317 ( 20) -0.3398 ( 26)  0.1051 ( 67) -0.1188 ( 68)
          -0.1126 ( 96) -0.1269 (150) -0.1308 (152)
 CRD 35=  -0.1194 (  1) -0.1743 (  2) -0.1443 (  3)  0.1328 ( 10)  0.1662 ( 11)
           0.1063 ( 15)  0.3077 ( 20)  0.2749 ( 23)  0.3538 ( 26) -0.1955 ( 28)
          -0.1939 ( 29) -0.1849 ( 30)  0.1199 ( 61)  0.1147 ( 73)  0.1022 ( 74)
          -0.1013 ( 89) -0.1129 ( 91)  0.1498 (161)  0.1265 (164)
 CRD 36=   0.2525 (  1)  0.3482 (  2)  0.2585 (  3)  0.2834 (  6) -0.1830 ( 18)
          -0.3456 ( 20) -0.1919 ( 28) -0.2748 ( 29) -0.1784 ( 30) -0.1376 ( 36)
          -0.1185 ( 42)  0.1059 ( 45)  0.1470 ( 46)  0.1164 ( 74) -0.1187 ( 90)
 CRD 37=   0.1892 (  1)  0.2106 (  2)  0.2330 (  3)  0.1466 (  5)  0.4179 (  8)
           0.4013 (  9)  0.4491 ( 10)  0.1291 ( 20) -0.1520 ( 35) -0.1697 ( 38)
          -0.1583 ( 40)  0.1758 ( 49)  0.1623 ( 50)  0.1656 ( 51)
 CRD 38=   0.2636 (  1)  0.2547 (  2)  0.2609 (  3)  0.1027 (  4) -0.1001 (  6)
          -0.1833 (  8) -0.1852 (  9) -0.2185 ( 10)  0.4015 ( 11)  0.1507 ( 15)
           0.1481 ( 18)  0.2960 ( 20)  0.1427 ( 23)  0.2804 ( 26)  0.1212 ( 28)
           0.1779 ( 29)  0.1169 ( 30) -0.1017 ( 37)  0.1054 ( 44)
 CRD 39=   0.2389 (  6) -0.1483 ( 11)  0.2181 ( 21)  0.1018 ( 23)  0.3651 ( 28)
           0.3130 ( 29)  0.3745 ( 30) -0.1072 ( 31)  0.1432 ( 61) -0.1098 ( 73)
          -0.1043 ( 76)  0.1076 ( 89)  0.1193 (149)  0.1031 (151)  0.1004 (153)
           0.1190 (156)  0.1365 (159)  0.1001 (160)  0.1182 (161)  0.1152 (162)
          -0.1029 (173)
 CRD 40=   0.1375 (  1)  0.1306 (  6) -0.1254 (  9) -0.2656 ( 11)  0.2204 ( 14)
          -0.1319 ( 15)  0.1183 ( 17)  0.1185 ( 18) -0.1086 ( 22) -0.1453 ( 24)
          -0.1092 ( 67)  0.1180 ( 68)  0.1512 (103)  0.1467 (104) -0.1041 (109)
          -0.1171 (119) -0.1141 (120) -0.1219 (121) -0.1190 (122) -0.1584 (139)
          -0.1218 (140) -0.1584 (141)  0.1268 (150)  0.1518 (151)  0.1224 (152)
           0.1473 (153) -0.1660 (166) -0.1294 (167) -0.1660 (168) -0.1796 (182)
          -0.1431 (183) -0.1797 (184)
 CRD 41=  -0.2469 (  1) -0.2056 (  3) -0.1671 (  4)  0.1119 (  6)  0.2072 (  7)
          -0.1121 (  8)  0.1514 (  9)  0.2728 ( 11)  0.2230 ( 14) -0.1892 ( 24)
           0.1162 ( 35) -0.1114 ( 48)  0.1609 ( 49) -0.1531 ( 50)  0.1988 ( 97)
           0.1920 ( 98)  0.1145 (118)  0.1857 (119)  0.2364 (120)  0.1924 (121)
           0.2432 (122)
 CRD 42=   0.2573 ( 14) -0.5282 ( 19)  0.1182 ( 22)  0.1057 ( 24) -0.3231 ( 28)
           0.1179 ( 29)  0.2070 ( 89) -0.1291 ( 91)  0.1896 (139)  0.1221 (141)
          -0.1472 (162) -0.1502 (163) -0.1286 (164)  0.1192 (166)  0.1867 (168)
           0.1326 (182)  0.2001 (184)
 CRD 43=   0.4601 (  1) -0.4093 (  3) -0.1528 (  8) -0.1870 (  9)  0.2605 ( 10)
          -0.1374 ( 14)  0.1187 ( 28) -0.1039 ( 29) -0.2638 ( 44)  0.2398 ( 45)
          -0.1340 ( 51)  0.1281 ( 97)  0.1457 (105)  0.1428 (106)  0.1280 (107)
          -0.1201 (108) -0.1024 (109) -0.1053 (110) -0.1315 (111) -0.1344 (112)
          -0.1492 (113)  0.1180 (121)  0.1134 (122)
 CRD 44=   0.2926 (  1) -0.2237 (  3)  0.4737 (  9) -0.4906 ( 10) -0.1295 ( 44)
           0.1101 ( 45) -0.2266 ( 50)  0.2774 ( 51) -0.1340 ( 97)  0.1686 ( 98)
           0.1121 (105) -0.1064 (118)  0.1552 (119)  0.1449 (120) -0.1473 (121)
          -0.1577 (122)
 CRD 45=  -0.1157 (  1)  0.1184 ( 19) -0.1730 ( 28) -0.4031 ( 29)  0.6098 ( 30)
           0.2216 ( 90) -0.3059 ( 91) -0.1730 (140)  0.1625 (141)  0.1549 (166)
          -0.1807 (167)  0.1430 (182) -0.1926 (183)
 CRD 46=  -0.1132 (  3)  0.1438 (  8) -0.1042 (  9) -0.1017 ( 14)  0.3164 ( 19)
          -0.1572 ( 24) -0.5060 ( 28)  0.3996 ( 29)  0.1318 ( 30)  0.2405 ( 89)
          -0.2274 ( 90)  0.1116 (139) -0.1668 (140) -0.1298 (141) -0.1204 (166)
          -0.1574 (167)  0.1209 (168) -0.1424 (182) -0.1794 (183)
 CRD 47=   0.1268 (  1) -0.3946 (  2)  0.3268 (  3) -0.4594 (  8)  0.2702 (  9)
           0.1230 ( 10) -0.1117 ( 28)  0.1251 ( 29) -0.1594 ( 45)  0.2147 ( 46)
           0.2247 ( 49) -0.1434 ( 50) -0.1333 ( 93)  0.1080 ( 97)  0.1113 (108)
           0.1123 (109)  0.1098 (110) -0.1256 (111) -0.1281 (112) -0.1266 (113)
          -0.1487 (117) -0.1667 (118)
 CRD 48=  -0.2128 (  1)  0.4446 (  2) -0.1170 (  3) -0.3443 (  8)  0.1923 (  9)
          -0.2134 ( 14)  0.2136 ( 24)  0.1283 ( 29)  0.1256 ( 44)  0.1076 ( 45)
          -0.2664 ( 46)  0.1475 ( 49) -0.1497 ( 93) -0.2014 (108) -0.1827 (109)
          -0.1634 (110)  0.1110 (112) -0.1382 (117) -0.1592 (118)
 CRD 49=   0.1477 (  2) -0.1340 (  3) -0.1365 (  7) -0.1972 (  8)  0.1513 (  9)
           0.1611 ( 10) -0.1051 ( 11)  0.2877 ( 14)  0.3857 ( 15) -0.2271 ( 18)
          -0.1651 ( 23) -0.3659 ( 24) -0.1082 ( 51)  0.1297 ( 69) -0.1296 ( 93)
          -0.1175 ( 98)  0.1170 (105)  0.1118 (106)  0.1309 (111)  0.1258 (112)
           0.1123 (113) -0.1046 (117) -0.1317 (118) -0.1196 (120)
 CRD 50=   0.3800 ( 14)  0.3687 ( 15)  0.1278 ( 19)  0.3666 ( 23)  0.5190 ( 24)
           0.1544 ( 69)  0.1790 ( 87)  0.1200 (128) -0.1014 (144)  0.1243 (176)
           0.1255 (177)
 CRD 51=  -0.2457 ( 14)  0.1454 ( 17) -0.5852 ( 18) -0.3450 ( 19) -0.1011 ( 22)
           0.1484 ( 23) -0.2222 ( 78) -0.1209 (124)  0.1235 (148) -0.1037 (156)
           0.1486 (159)  0.1489 (160)  0.1290 (161) -0.1260 (182) -0.1291 (183)
          -0.1058 (184)
 CRD 52=  -0.1097 (  3)  0.1151 (  5)  0.1172 (  6) -0.1443 (  7)  0.1286 (  9)
           0.1106 ( 10)  0.1052 ( 12) -0.1382 ( 14) -0.3236 ( 15)  0.2303 ( 23)
           0.1284 ( 24) -0.1217 ( 51)  0.1187 ( 60) -0.1264 ( 69)  0.1065 ( 87)
          -0.1515 ( 96) -0.1303 ( 98)  0.1709 (105)  0.1490 (106)  0.1765 (107)
           0.1807 (108)  0.1751 (109)  0.1533 (110)  0.1678 (111)  0.1460 (112)
           0.1734 (113) -0.1107 (114) -0.1016 (119) -0.1110 (120) -0.1437 (130)
           0.1020 (153)  0.1125 (169)
 CRD 53=   0.1038 ( 11) -0.1184 ( 13) -0.1338 ( 19) -0.5182 ( 23)  0.3073 ( 24)
           0.1710 ( 31)  0.1008 ( 70)  0.1137 ( 84)  0.1950 (127)  0.1396 (128)
          -0.2037 (143) -0.1273 (144)  0.2059 (172)  0.1848 (173) -0.1917 (174)
          -0.1849 (175)  0.1505 (176)  0.1295 (177) -0.1153 (178) -0.1085 (179)
 CRD 54=  -0.2645 ( 14)  0.2524 ( 15)  0.2646 ( 18) -0.2630 ( 19)  0.1963 ( 27)
          -0.1126 ( 52) -0.1029 ( 76) -0.1529 ( 83)  0.1693 (124)  0.1615 (125)
           0.1536 (147)  0.2504 (148)  0.2582 (149)  0.1674 (154)  0.2642 (155)
           0.2720 (156) -0.1112 (160) -0.1187 (161)
 CRD 55=  -0.3212 ( 26) -0.6269 ( 27)  0.1163 ( 80)  0.4653 ( 83) -0.1343 ( 92)
           0.1538 (100)  0.1511 (133) -0.1141 (176)  0.1633 (180)
 CRD 56=  -0.2082 ( 11)  0.1442 ( 13) -0.2081 ( 25)  0.2387 ( 26) -0.1771 ( 31)
          -0.1414 ( 53)  0.1208 ( 80)  0.1417 (100)  0.4693 (123)  0.1010 (133)
          -0.1007 (151) -0.1180 (153)  0.4400 (165)  0.1073 (172)  0.1484 (180)
           0.2981 (185)
 CRD 57=  -0.1575 ( 11)  0.2994 ( 26) -0.1526 ( 27)  0.7931 ( 31) -0.1083 (158)
          -0.1347 (172) -0.1156 (173) -0.1293 (176) -0.1103 (177)
 CRD 58=  -0.1357 ( 18)  0.2669 ( 20)  0.2194 ( 21) -0.1433 ( 23)  0.1159 ( 25)
          -0.1955 ( 28) -0.2726 ( 29) -0.1977 ( 30) -0.1549 ( 31) -0.1052 ( 61)
          -0.2019 ( 72) -0.2436 ( 73) -0.2006 ( 74) -0.1021 ( 84)  0.1151 ( 88)
           0.2414 ( 89)  0.1852 ( 90)  0.2398 ( 91)  0.1570 (136)  0.1128 (143)
          -0.1205 (161)  0.1861 (162) -0.1616 (171) -0.1712 (179)
 CRD 59=  -0.1408 (  1) -0.1213 (  2) -0.2302 (  3)  0.1753 (  4) -0.1941 (  5)
           0.2273 (  8)  0.1546 (  9)  0.1572 ( 10)  0.1206 ( 11)  0.1116 ( 31)
           0.1413 ( 34)  0.1857 ( 35) -0.1475 ( 36) -0.1540 ( 37)  0.1593 ( 38)
           0.1737 ( 40) -0.1715 ( 42)  0.1856 ( 44)  0.1152 ( 45)  0.1957 ( 46)
          -0.1396 ( 47) -0.1392 ( 49) -0.2048 ( 50) -0.2010 ( 51) -0.1291 (105)
          -0.1204 (111) -0.1143 (118) -0.1071 (120)  0.1330 (130)  0.1873 (131)
           0.1634 (132)  0.1128 (180)
 CRD 60=  -0.1558 (  1) -0.2469 (  2)  0.1904 (  4)  0.2130 (  5)  0.2431 (  6)
          -0.1037 (  8) -0.1593 (  9) -0.2582 ( 10)  0.1421 ( 11) -0.1432 ( 35)
          -0.1502 ( 36) -0.1703 ( 37) -0.1679 ( 38) -0.1949 ( 40) -0.1301 ( 42)
           0.1601 ( 44)  0.2294 ( 45)  0.2225 ( 49)  0.1923 ( 50)  0.1150 ( 51)
          -0.1353 ( 57)  0.1166 ( 96)  0.1463 (105)  0.1398 (111) -0.1248 (118)
          -0.1318 (120)
 CRD 61=   0.1357 (  1)  0.1115 (  2)  0.1336 (  3) -0.2200 (  4)  0.1987 ( 11)
           0.1406 ( 14) -0.1871 ( 15)  0.1977 ( 18) -0.1362 ( 19) -0.2832 ( 20)
           0.1927 ( 23) -0.1315 ( 24) -0.1719 ( 26)  0.1562 ( 27) -0.1057 ( 28)
          -0.1040 ( 30)  0.1298 ( 36)  0.1241 ( 37)  0.1234 ( 42) -0.1285 ( 44)
          -0.1272 ( 45) -0.1408 ( 46) -0.1174 ( 83)  0.1330 ( 88)  0.1317 ( 90)
          -0.1157 (124)  0.1110 (127)  0.1319 (159)  0.1485 (162)  0.1008 (164)
          -0.1361 (175) -0.1444 (179)
 CRD 62=  -0.1250 (  2)  0.1918 (  6) -0.1038 ( 10)  0.1817 ( 12) -0.1291 ( 16)
          -0.1065 ( 19) -0.1287 ( 21) -0.1405 ( 39) -0.1411 ( 52) -0.1466 ( 56)
          -0.1225 ( 61) -0.1066 ( 62)  0.2007 ( 67)  0.1936 ( 68)  0.1282 ( 86)
          -0.1777 (103) -0.1023 (105) -0.1191 (109)  0.1054 (118)  0.1103 (122)
          -0.1181 (123) -0.1755 (146) -0.1235 (150) -0.3127 (151)  0.1458 (152)
           0.1319 (162)  0.1330 (163)  0.1253 (164)  0.1362 (169)  0.1391 (180)
          -0.1605 (185)
 CRD 63=  -0.1683 (  1)  0.1402 (  2) -0.1334 (  3)  0.1318 (  4)  0.2210 (  5)
          -0.3642 (  6)  0.1426 (  7) -0.1227 (  8) -0.2134 (  9) -0.1096 ( 38)
           0.2005 ( 46)  0.2129 ( 51) -0.1420 ( 52)  0.1193 ( 60)  0.1363 ( 68)
          -0.1616 ( 96)  0.1336 ( 98)  0.1226 (108)  0.1357 (109) -0.1445 (112)
          -0.1163 (122) -0.1144 (130) -0.1414 (149)  0.1474 (153)  0.1105 (162)
 CRD 64=  -0.1744 ( 16)  0.1074 ( 17) -0.1627 ( 20)  0.3838 ( 21)  0.2210 ( 22)
          -0.2189 ( 25) -0.1585 ( 27) -0.1698 ( 28) -0.1155 ( 30) -0.1725 ( 70)
          -0.1765 ( 71) -0.1394 ( 72) -0.1168 ( 73) -0.1378 ( 74)  0.2063 ( 84)
           0.1596 ( 85)  0.1020 ( 89)  0.1607 ( 90)  0.1441 ( 91)  0.1107 (128)
          -0.1123 (133) -0.1009 (136) -0.1382 (143) -0.1209 (148) -0.1041 (162)
          -0.1025 (174)  0.1883 (176)  0.1351 (177)  0.1161 (178)  0.1403 (179)
 CRD 65=  -0.1204 (  5)  0.1841 ( 14)  0.2241 ( 16) -0.1609 ( 17) -0.1026 ( 21)
          -0.1299 ( 27)  0.1178 ( 30)  0.1048 ( 56) -0.1633 ( 61) -0.1292 ( 62)
          -0.1015 ( 66) -0.1029 ( 69) -0.1298 ( 70) -0.1090 ( 71)  0.1925 ( 76)
           0.1992 ( 77) -0.1014 ( 89) -0.1395 (124)  0.1375 (125)  0.1215 (147)
           0.2749 (148) -0.1009 (150)  0.1537 (155) -0.1233 (156) -0.1381 (159)
          -0.1104 (161) -0.1540 (175)  0.1388 (176)  0.1055 (177) -0.1769 (180)
           0.1069 (182)  0.1855 (183)  0.1026 (184)  0.1157 (185)
 CRD 66=   0.2111 (  4) -0.2189 (  5)  0.1125 ( 10) -0.2176 ( 11)  0.1038 ( 18)
          -0.2163 ( 20)  0.1407 ( 26) -0.1028 ( 27)  0.1792 ( 29) -0.1568 ( 30)
           0.1118 ( 45) -0.1101 ( 49)  0.1020 ( 83)  0.1246 ( 90) -0.1272 ( 91)
          -0.1333 (131) -0.1034 (137)  0.1471 (141) -0.1107 (155) -0.1356 (156)
           0.1157 (157)  0.1445 (159)  0.1393 (162) -0.1224 (165) -0.1139 (168)
           0.1482 (173) -0.1195 (180) -0.1418 (181) -0.1472 (183) -0.1621 (184)
 CRD 67=   0.1195 (  3) -0.1418 (  4) -0.1106 (  5)  0.1146 ( 11)  0.1471 ( 12)
          -0.1303 ( 13) -0.1305 ( 15) -0.1716 ( 17) -0.1480 ( 19)  0.1053 ( 20)
           0.1103 ( 22)  0.1920 ( 24)  0.1473 ( 28) -0.1038 ( 52)  0.1054 ( 66)
          -0.1217 ( 82)  0.1107 ( 89)  0.1250 (105) -0.1283 (118)  0.1294 (123)
          -0.1052 (128) -0.1033 (140)  0.1424 (144)  0.1186 (154)  0.1387 (162)
           0.1387 (165) -0.1237 (176)  0.1014 (178)  0.2119 (179) -0.1110 (180)
          -0.1762 (182) -0.2273 (183)  0.2546 (185)
 CRD 68=  -0.1578 (  1)  0.1516 (  3) -0.1130 (  4) -0.1936 (  5)  0.2503 (  7)
           0.1135 (  8) -0.1167 (  9)  0.1141 ( 10) -0.1105 ( 16) -0.1268 ( 24)
          -0.1591 ( 44) -0.1597 ( 50) -0.1448 ( 53) -0.1180 ( 57) -0.1236 ( 58)
           0.1210 ( 79)  0.1038 ( 80)  0.2484 (105)  0.1066 (106)  0.1316 (107)
           0.1197 (109) -0.2012 (118) -0.1306 (122) -0.1057 (151) -0.1055 (157)
           0.1019 (158)  0.1240 (172)  0.1814 (176) -0.3131 (185)
 CRD 69=   0.1649 (  3) -0.1505 (  4) -0.1200 (  5)  0.1156 (  6)  0.2094 (  8)
          -0.1172 ( 10) -0.1662 ( 14)  0.1127 ( 15)  0.1916 ( 17) -0.1035 ( 22)
          -0.1923 ( 28)  0.1128 ( 29)  0.1017 ( 30)  0.1144 ( 49) -0.1265 ( 51)
          -0.1123 ( 56) -0.1489 ( 57) -0.1585 ( 89)  0.1158 ( 97)  0.1425 (105)
          -0.1284 (108) -0.1558 (118) -0.1045 (120)  0.1763 (121)  0.1145 (140)
          -0.1203 (147) -0.1270 (148)  0.1041 (151)  0.1344 (153) -0.1385 (168)
           0.1001 (173)  0.1005 (182)  0.1987 (183)  0.1411 (185)
 CRD 70=   0.1005 (  1)  0.1287 (  2) -0.1150 (  3) -0.2345 (  4)  0.1798 (  5)
           0.1908 (  8) -0.1386 (  9) -0.1421 ( 10) -0.1295 ( 12)  0.1151 ( 15)
           0.1950 ( 22)  0.1649 ( 29) -0.1889 ( 30) -0.1578 ( 45)  0.1953 ( 49)
           0.1042 ( 90) -0.1607 ( 91) -0.1263 ( 93)  0.1117 ( 97) -0.1208 (105)
           0.1005 (108) -0.1023 (117) -0.2017 (118)  0.1358 (121)  0.1505 (130)
           0.1417 (131)  0.1250 (132)  0.1719 (141) -0.1383 (154)  0.1157 (166)
          -0.1012 (167) -0.1398 (183)
 CRD 71=   0.1136 (  7) -0.1998 ( 13)  0.1393 ( 14) -0.1424 ( 15)  0.1410 ( 18)
          -0.1592 ( 23)  0.1561 ( 24)  0.1936 ( 26) -0.1898 ( 28)  0.1215 ( 30)
           0.1244 ( 71) -0.1182 ( 78)  0.1055 ( 82) -0.1221 ( 89)  0.1124 ( 91)
          -0.1547 ( 92) -0.1020 ( 99) -0.1174 (128)  0.1036 (130) -0.1334 (137)
          -0.1200 (139)  0.1122 (143)  0.1008 (147) -0.1311 (151) -0.1095 (152)
          -0.1784 (153)  0.1566 (157)  0.1131 (160)  0.1568 (161) -0.1057 (162)
          -0.1476 (168)  0.1162 (175) -0.1290 (176)  0.1291 (183)
 CRD 72=  -0.1171 (  1)  0.1210 (  3)  0.1598 (  7) -0.1858 ( 12)  0.1000 ( 14)
           0.1107 ( 15) -0.1448 ( 17)  0.1801 ( 19)  0.1679 ( 21)  0.1030 ( 23)
           0.1045 ( 24) -0.1480 ( 25)  0.1907 ( 27) -0.1208 ( 30) -0.1037 ( 39)
          -0.1681 ( 69)  0.1215 ( 77) -0.1645 ( 87) -0.1046 ( 92)  0.1156 (105)
           0.1132 (125) -0.1285 (143)  0.1893 (148) -0.1430 (151)  0.1088 (152)
          -0.1250 (154) -0.1124 (158) -0.1077 (159) -0.1459 (162) -0.1702 (176)
           0.1736 (179)  0.1873 (180)  0.1186 (181)
 CRD 73=  -0.2304 (  1)  0.1592 (  3) -0.1531 (  8)  0.2134 (  9)  0.1001 ( 11)
          -0.1193 ( 12) -0.1031 ( 21)  0.1639 ( 22) -0.1352 ( 23)  0.1369 ( 29)
           0.1141 ( 36) -0.1069 ( 38) -0.1788 ( 44)  0.1151 ( 45) -0.1085 ( 49)
           0.1678 ( 50) -0.1114 ( 70)  0.1092 ( 87)  0.1214 ( 93) -0.1561 ( 98)
           0.1211 (105)  0.1254 (106)  0.1503 (107) -0.1762 (111) -0.1719 (112)
          -0.1469 (113)  0.1525 (117)  0.1265 (118) -0.1250 (119) -0.1510 (120)
          -0.1491 (127) -0.1326 (172) -0.1013 (173)
 CRD 74=   0.1405 (  8) -0.1263 ( 10)  0.1981 ( 13)  0.1772 ( 16) -0.1729 ( 17)
           0.1681 ( 18) -0.1711 ( 25) -0.1400 ( 29)  0.1006 ( 49)  0.1247 ( 60)
          -0.1165 ( 67)  0.1280 ( 69)  0.1404 ( 76) -0.1127 ( 86) -0.1158 ( 96)
           0.1336 ( 97) -0.1003 ( 99) -0.1074 (102) -0.1660 (104) -0.1034 (108)
           0.1035 (116)  0.1433 (121)  0.1343 (122) -0.1705 (124) -0.1200 (130)
          -0.1421 (137) -0.1901 (149)  0.1582 (151) -0.1152 (152) -0.1094 (156)
           0.1080 (180) -0.1788 (185)
 CRD 75=  -0.1514 (  1)  0.2622 (  2) -0.1118 (  3)  0.1928 (  9) -0.2397 ( 10)
           0.1000 ( 12) -0.1084 ( 22) -0.1049 ( 29) -0.1158 ( 37)  0.1085 ( 40)
          -0.1137 ( 44)  0.1911 ( 46)  0.1419 ( 50) -0.1792 ( 51)  0.1259 ( 96)
          -0.2317 ( 98)  0.1438 (108)  0.1417 (109) -0.1762 (111) -0.2284 (112)
          -0.1741 (113)  0.1230 (114) -0.1960 (119) -0.1916 (120)  0.1125 (172)
 CRD 76=   0.2576 ( 16) -0.1616 ( 19)  0.1282 ( 24) -0.2536 ( 25) -0.1586 ( 28)
           0.1727 ( 30)  0.1071 ( 52) -0.1062 ( 62)  0.1915 ( 78)  0.1015 ( 85)
          -0.1690 ( 87) -0.1218 ( 89)  0.1266 ( 91)  0.1607 (140) -0.1429 (143)
          -0.1554 (155) -0.1606 (160) -0.1488 (161)  0.1567 (162)  0.1018 (164)
           0.1631 (167) -0.1563 (174) -0.1104 (175) -0.1160 (177)  0.1275 (179)
          -0.1636 (182) -0.1494 (184) -0.1230 (185)
 CRD 77=   0.1813 ( 12)  0.1810 ( 13) -0.1473 ( 17)  0.1124 ( 19)  0.1387 ( 21)
          -0.1281 ( 22)  0.1160 ( 24) -0.1069 ( 25)  0.1686 ( 29) -0.1120 ( 30)
          -0.1090 ( 53) -0.1181 ( 61) -0.1223 ( 73)  0.1004 ( 80) -0.1619 ( 88)
           0.1486 ( 90)  0.1047 (125)  0.1101 (133)  0.1082 (134)  0.1431 (135)
          -0.1312 (139)  0.1028 (141) -0.1071 (142) -0.1279 (147) -0.1152 (149)
           0.1851 (155)  0.1067 (158) -0.1231 (159) -0.1072 (162)  0.1352 (166)
          -0.1325 (170)  0.1034 (175) -0.1440 (177)  0.1162 (179) -0.1430 (181)
           0.1249 (182) -0.1092 (184) -0.1493 (185)
 CRD 78=  -0.1013 (  2)  0.1478 (  3)  0.1322 (  5) -0.1326 ( 12)  0.2061 ( 13)
          -0.1390 ( 17)  0.1294 ( 25) -0.1603 ( 27) -0.1428 ( 28)  0.1050 ( 30)
          -0.1122 ( 32) -0.1108 ( 42)  0.1093 ( 45) -0.1266 ( 54) -0.1060 ( 69)
          -0.1004 ( 81) -0.1158 ( 84)  0.1717 ( 92) -0.1430 ( 96) -0.1091 (100)
           0.1237 (107) -0.2060 (109) -0.1199 (110)  0.1366 (140)  0.1075 (153)
           0.1429 (158)  0.1097 (165)  0.1445 (167) -0.1157 (170)  0.1419 (172)
           0.1157 (175) -0.1430 (177)  0.1134 (181) -0.1453 (182) -0.1861 (184)
 CRD 79=  -0.2464 (  4)  0.1116 (  5) -0.1876 (  8)  0.1104 ( 15) -0.1031 ( 20)
           0.1208 ( 26) -0.1123 ( 29)  0.1001 ( 32)  0.1625 ( 34)  0.1381 ( 35)
          -0.1104 ( 47) -0.1234 ( 48) -0.1208 ( 49)  0.1684 ( 93)  0.1167 (101)
          -0.1073 (114) -0.1344 (116)  0.2138 (117) -0.1489 (120) -0.2742 (122)
           0.1396 (130)  0.1475 (131)  0.1125 (132)  0.1137 (138)  0.1075 (139)
          -0.1025 (145)  0.1123 (173)
 CRD 80=  -0.1241 (  1)  0.1193 (  5) -0.1124 (  9) -0.1439 ( 14)  0.1670 ( 16)
          -0.1774 ( 22) -0.1157 ( 27)  0.1018 ( 36) -0.1148 ( 41) -0.1094 ( 47)
          -0.1376 ( 55)  0.1066 ( 57)  0.1044 ( 59)  0.1757 ( 69) -0.1012 ( 87)
          -0.1568 ( 93)  0.1454 (103)  0.1833 (106)  0.1456 (107) -0.1355 (109)
          -0.2011 (111)  0.1469 (120) -0.1245 (128) -0.1412 (133) -0.1100 (146)
          -0.1148 (147) -0.1042 (149)  0.1680 (150) -0.1863 (153)  0.1233 (155)
           0.1056 (169)  0.1547 (172)  0.1011 (182)
 CRD 81=   0.2192 (  7) -0.1248 ( 14)  0.1017 ( 18)  0.1229 ( 19) -0.1621 ( 21)
          -0.1100 ( 54) -0.1118 ( 55)  0.1764 ( 63) -0.1055 ( 64)  0.1120 ( 65)
          -0.1725 ( 78)  0.1118 (109)  0.1145 (111)  0.1574 (125) -0.1226 (133)
           0.1398 (136)  0.1733 (144) -0.1545 (146) -0.1109 (147) -0.1873 (149)
           0.1642 (150) -0.1084 (153)  0.1267 (155)  0.2275 (159) -0.1427 (163)
          -0.1954 (164) -0.1270 (171) -0.1291 (175)  0.1510 (181)
 CRD 82=   0.1023 (  7) -0.1097 ( 14)  0.1420 ( 16) -0.1855 ( 17)  0.1692 ( 21)
          -0.1161 ( 23) -0.1054 ( 24)  0.2159 ( 25) -0.1034 ( 62)  0.1142 ( 64)
          -0.1653 ( 75) -0.1084 ( 79) -0.1223 ( 81)  0.1690 ( 87) -0.1139 ( 88)
           0.1095 (103)  0.1041 (109)  0.1143 (128) -0.1222 (136) -0.1953 (144)
          -0.1451 (146) -0.1029 (149)  0.1444 (150) -0.1139 (159)  0.1665 (164)
           0.1341 (171) -0.1329 (172) -0.1038 (173)  0.2600 (175) -0.1673 (178)
           0.1287 (181)
 CRD 83=   0.1105 (  6) -0.2311 (  7)  0.1212 ( 12)  0.1175 ( 15) -0.1282 ( 16)
           0.1535 ( 22)  0.1031 ( 27) -0.1193 ( 47) -0.1073 ( 56) -0.1293 ( 60)
           0.1144 ( 63)  0.1209 ( 68) -0.1123 ( 78) -0.1569 ( 93) -0.1624 ( 97)
           0.1203 (100)  0.1718 (106)  0.1444 (110) -0.1716 (111) -0.1062 (116)
           0.1224 (119)  0.1479 (120)  0.1463 (125)  0.1700 (133) -0.1496 (145)
          -0.1300 (149)  0.1345 (153) -0.1117 (156)  0.1313 (159) -0.1262 (163)
          -0.1603 (169) -0.1123 (172) -0.1319 (181)
 CRD 84=  -0.1163 ( 15) -0.1456 ( 17) -0.1344 ( 18)  0.1481 ( 19)  0.1538 ( 22)
           0.1224 ( 23) -0.1520 ( 24)  0.1027 ( 26) -0.1071 ( 61)  0.1021 ( 62)
           0.1508 ( 66) -0.1404 ( 82)  0.1008 ( 84) -0.1646 (126) -0.1548 (129)
           0.1159 (134)  0.1966 (136)  0.1860 (140) -0.1041 (144) -0.1563 (147)
           0.1746 (155)  0.1588 (156) -0.1543 (158) -0.1379 (160) -0.1511 (163)
          -0.1238 (165)  0.1771 (167)  0.1960 (171)  0.1305 (173) -0.1167 (174)
           0.1584 (177) -0.1470 (178) -0.1715 (182) -0.1639 (184)
 CRD 85=   0.1319 (  5) -0.1310 ( 11)  0.1437 ( 12)  0.1457 ( 20)  0.1098 ( 27)
           0.1089 ( 34) -0.1248 ( 41) -0.1314 ( 48)  0.1125 ( 53)  0.1231 ( 86)
          -0.2402 ( 94)  0.1816 ( 99)  0.1968 (100)  0.1368 (107) -0.1096 (109)
           0.1426 (113) -0.1429 (115)  0.1060 (127)  0.1556 (128)  0.1912 (130)
           0.1338 (132) -0.1158 (134) -0.1178 (138) -0.1549 (139)  0.1184 (142)
          -0.1448 (158)  0.1468 (160)  0.1015 (163)  0.1540 (166) -0.1245 (169)
          -0.1344 (174) -0.1226 (178)
 CRD 86=  -0.1876 (  6)  0.1093 ( 12) -0.1337 ( 13) -0.1129 ( 20)  0.1249 ( 43)
           0.1161 ( 57) -0.1027 ( 60) -0.1405 ( 94) -0.2151 ( 95)  0.1720 ( 97)
           0.1580 (103)  0.1285 (104)  0.1356 (107) -0.1711 (110)  0.2002 (113)
           0.2319 (114)  0.1094 (115) -0.1410 (117) -0.2067 (119)  0.1040 (125)
           0.1046 (129) -0.1012 (132)  0.1041 (134)  0.1137 (139) -0.1150 (142)
          -0.1100 (147) -0.1045 (160) -0.1214 (166)  0.1268 (174)
 CRD 87=  -0.1603 ( 11) -0.1162 ( 15) -0.1094 ( 20) -0.1023 ( 23) -0.1164 ( 26)
           0.1277 ( 95)  0.1652 ( 99)  0.1137 (100) -0.1250 (103) -0.1820 (104)
          -0.1791 (115)  0.1030 (117)  0.1069 (119) -0.1069 (125) -0.1890 (126)
           0.1879 (129)  0.1695 (132)  0.1517 (134) -0.1867 (138)  0.1096 (139)
          -0.1578 (142)  0.1907 (145)  0.1147 (146)  0.1347 (156) -0.1234 (160)
          -0.1129 (166) -0.1014 (169) -0.1255 (173)  0.1274 (174)

 THE DETERMINANT OF THE G MATRIX IS 10**(   -30)


                     --------------------
                     INTERNAL COORDINATES
                     --------------------

                 - - ATOMS - -         COORDINATE      COORDINATE
 NO.   TYPE    I  J  K  L  M  N        (BOHR,RAD)       (ANG,DEG)
 ----------------------------------------------------------------
   1 STRETCH   1  4                     2.0995997       1.1110604
   2 STRETCH   1  3                     2.0972039       1.1097926
   3 STRETCH   1  5                     2.0927155       1.1074174
   4 STRETCH   1  2                     2.9090483       1.5394022
   5 STRETCH   2  6                     2.9059914       1.5377846
   6 STRETCH   2 11                     2.1036854       1.1132224
   7 STRETCH   2 10                     2.9661862       1.5696382
   8 STRETCH   6  8                     2.0987364       1.1106035
   9 STRETCH   6  9                     2.0998894       1.1112137
  10 STRETCH   6  7                     2.0916099       1.1068324
  11 STRETCH  10 23                     2.1053923       1.1141257
  12 STRETCH  10 12                     2.9307093       1.5508647
  13 STRETCH  10 20                     2.9466451       1.5592976
  14 STRETCH  12 15                     2.1010575       1.1118318
  15 STRETCH  12 14                     2.0978862       1.1101537
  16 STRETCH  12 13                     2.8964464       1.5327336
  17 STRETCH  13 16                     2.9056832       1.5376215
  18 STRETCH  13 18                     2.1032263       1.1129795
  19 STRETCH  13 17                     2.1012591       1.1119385
  20 STRETCH  16 25                     2.1040876       1.1134353
  21 STRETCH  16 24                     2.8958373       1.5324112
  22 STRETCH  16 19                     2.9069786       1.5383069
  23 STRETCH  19 22                     2.1040256       1.1134025
  24 STRETCH  19 21                     2.1018708       1.1122622
  25 STRETCH  19 20                     2.9125540       1.5412573
  26 STRETCH  20 30                     2.1073730       1.1151738
  27 STRETCH  20 29                     2.6497122       1.4021674
  28 STRETCH  24 28                     2.0992752       1.1108887
  29 STRETCH  24 27                     2.1002270       1.1113924
  30 STRETCH  24 26                     2.0991554       1.1108253
  31 STRETCH  29 31                     1.8763180       0.9929048
  32 BEND      1  2  6                  1.9098068     109.4238665
  33 BEND      1  2 10                  1.9904701     114.0455336
  34 BEND      1  2 11                  1.8797184     107.6999325
  35 BEND      2  6  8                  1.9256054     110.3290628
  36 BEND      2  1  4                  1.9181391     109.9012748
  37 BEND      2  1  3                  1.9386001     111.0736017
  38 BEND      2  6  9                  1.9156052     109.7560953
  39 BEND      2 10 23                  1.8626782     106.7235994
  40 BEND      2  6  7                  1.9621375     112.4221976
  41 BEND      2 10 12                  1.9234249     110.2041312
  42 BEND      2  1  5                  1.9481064     111.6182754
  43 BEND      2 10 20                  2.0162734     115.5239549
  44 BEND      3  1  5                  1.9056345     109.1848159
  45 BEND      3  1  4                  1.8847699     107.9893612
  46 BEND      4  1  5                  1.8661254     106.9211107
  47 BEND      6  2 11                  1.8401387     105.4321798
  48 BEND      6  2 10                  1.9725974     113.0215034
  49 BEND      7  6  9                  1.8651116     106.8630203
  50 BEND      7  6  8                  1.9115035     109.5210823
  51 BEND      8  6  9                  1.8812642     107.7884980
  52 BEND     10 12 15                  1.9181252     109.9004792
  53 BEND     10 20 30                  1.8915403     108.3772784
  54 BEND     10 20 19                  1.9308168     110.6276523
  55 BEND     10 12 13                  1.9436087     111.3605758
  56 BEND     10 12 14                  1.9317563     110.6814813
  57 BEND     10  2 11                  1.8619094     106.6795516
  58 BEND     10 20 29                  1.9316760     110.6768845
  59 BEND     12 10 20                  1.9059316     109.2018369
  60 BEND     12 10 23                  1.8613267     106.6461658
  61 BEND     12 13 17                  1.9024051     108.9997812
  62 BEND     12 13 18                  1.9081024     109.3262141
  63 BEND     12 13 16                  1.9255404     110.3253358
  64 BEND     13 16 19                  1.9123916     109.5719689
  65 BEND     13 16 24                  1.9293809     110.5453832
  66 BEND     13 16 25                  1.9033075     109.0514868
  67 BEND     13 12 14                  1.8867624     108.1035214
  68 BEND     13 12 15                  1.8920098     108.4041774
  69 BEND     14 12 15                  1.8901863     108.2996995
  70 BEND     16 19 21                  1.9121965     109.5607881
  71 BEND     16 19 22                  1.9122379     109.5631592
  72 BEND     16 24 26                  1.9221339     110.1301573
  73 BEND     16 24 27                  1.9332552     110.7673608
  74 BEND     16 24 28                  1.9222062     110.1342998
  75 BEND     16 19 20                  1.9419708     111.2667314
  76 BEND     16 13 17                  1.9180480     109.8960557
  77 BEND     16 13 18                  1.9205979     110.0421526
  78 BEND     17 13 18                  1.8886424     108.2112366
  79 BEND     19 20 29                  1.8882488     108.1886842
  80 BEND     19 20 30                  1.8989103     108.7995438
  81 BEND     19 16 24                  1.9300841     110.5856731
  82 BEND     19 16 25                  1.9020497     108.9794177
  83 BEND     20 29 31                  1.8675931     107.0052018
  84 BEND     20 19 21                  1.9042364     109.1047083
  85 BEND     20 19 22                  1.9050109     109.1490864
  86 BEND     20 10 23                  1.8872913     108.1338256
  87 BEND     21 19 22                  1.8873363     108.1364044
  88 BEND     24 16 25                  1.8860665     108.0636521
  89 BEND     26 24 27                  1.8984462     108.7729537
  90 BEND     26 24 28                  1.8884980     108.2029670
  91 BEND     27 24 28                  1.8984488     108.7731025
  92 BEND     29 20 30                  1.9225515     110.1540859
  93 TORSION   1  2  6  7              -1.0333359     -59.2057840
  94 TORSION   1  2 10 20               1.0137754      58.0850537
  95 TORSION   1  2 10 12              -1.1563450     -66.2536900
  96 TORSION   1  2 10 23               3.1123298     178.3233625
  97 TORSION   1  2  6  9               1.0399760      59.5862348
  98 TORSION   1  2  6  8               3.1105565     178.2217591
  99 TORSION   2 10 20 29               1.0379880      59.4723336
 100 TORSION   2 10 20 30              -1.0719953     -61.4208045
 101 TORSION   2 10 20 19               3.1307201     179.3770472
 102 TORSION   2 10 12 13              -3.0552878    -175.0550936
 103 TORSION   2 10 12 14               1.1285558      64.6614850
 104 TORSION   2 10 12 15              -0.9584480     -54.9150280
 105 TORSION   3  1  2 11               3.1066707     177.9991179
 106 TORSION   3  1  2  6               1.1148305      63.8750809
 107 TORSION   3  1  2 10              -1.1138158     -63.8169438
 108 TORSION   4  1  2 10               3.0847645     176.7439841
 109 TORSION   4  1  2 11               1.0220656      58.5600459
 110 TORSION   4  1  2  6              -0.9697746     -55.5639911
 111 TORSION   5  1  2 11              -1.0453189     -59.8923604
 112 TORSION   5  1  2  6              -3.0371591    -174.0163974
 113 TORSION   5  1  2 10               1.0173800      58.2915778
 114 TORSION   6  2 10 23               0.9163370      52.5022428
 115 TORSION   6  2 10 20              -1.1822174     -67.7360660
 116 TORSION   6  2 10 12               2.9308475     167.9251903
 117 TORSION   7  6  2 10               1.2052813      69.0575300
 118 TORSION   7  6  2 11              -3.0505977    -174.7863721
 119 TORSION   8  6  2 10              -0.9340117     -53.5149269
 120 TORSION   8  6  2 11               1.0932947      62.6411710
 121 TORSION   9  6  2 10              -3.0045922    -172.1504512
 122 TORSION   9  6  2 11              -0.9772858     -55.9943534
 123 TORSION  10 20 29 31              -2.7256911    -156.1705966
 124 TORSION  10 12 13 17              -3.1380687    -179.7980900
 125 TORSION  10 12 13 18               1.0838699      62.1011688
 126 TORSION  10 12 13 16              -1.0305008     -59.0433473
 127 TORSION  10 20 19 21               3.1145740     178.4519458
 128 TORSION  10 20 19 22              -1.1096631     -63.5790097
 129 TORSION  10 20 19 16               1.0027379      57.4526522
 130 TORSION  11  2 10 23              -1.0979990     -62.9107076
 131 TORSION  11  2 10 20               3.0866319     176.8509836
 132 TORSION  11  2 10 12               0.9165115      52.5122398
 133 TORSION  12 10 20 30               1.1072067      63.4382719
 134 TORSION  12 13 16 19               1.0208182      58.4885744
 135 TORSION  12 13 16 24              -3.1308864    -179.3865775
 136 TORSION  12 13 16 25              -1.0597194     -60.7174499
 137 TORSION  12 10 20 29              -3.0659953    -175.6685899
 138 TORSION  12 10 20 19              -0.9732632     -55.7638764
 139 TORSION  13 16 24 26               1.0405601      59.6196997
 140 TORSION  13 16 24 27              -1.0602814     -60.7496495
 141 TORSION  13 16 24 28               3.1220119     178.8781046
 142 TORSION  13 16 19 20              -1.0157830     -58.2000806
 143 TORSION  13 16 19 21              -3.1229464    -178.9316503
 144 TORSION  13 16 19 22               1.0923777      62.5886299
 145 TORSION  13 12 10 20               0.9955306      57.0397039
 146 TORSION  13 12 10 23              -1.0399260     -59.5833723
 147 TORSION  14 12 13 16               1.0951640      62.7482768
 148 TORSION  14 12 13 18              -3.0736506    -176.1072071
 149 TORSION  14 12 13 17              -1.0124038     -58.0064659
 150 TORSION  14 12 10 20              -1.1038111     -63.2437174
 151 TORSION  14 12 10 23              -3.1392678    -179.8667936
 152 TORSION  15 12 10 20               3.0923703     177.1797696
 153 TORSION  15 12 10 23               1.0569137      60.5566933
 154 TORSION  15 12 13 16               3.1404954     179.9371295
 155 TORSION  15 12 13 18              -1.0283193     -58.9183544
 156 TORSION  15 12 13 17               1.0329275      59.1823868
 157 TORSION  16 19 20 29               3.1213322     178.8391595
 158 TORSION  16 19 20 30              -1.0732742     -61.4940805
 159 TORSION  17 13 16 25               1.0384661      59.4997237
 160 TORSION  17 13 16 24              -1.0327009     -59.1694039
 161 TORSION  17 13 16 19               3.1190037     178.7057480
 162 TORSION  18 13 16 25               3.1165552     178.5654615
 163 TORSION  18 13 16 24               1.0453882      59.8963339
 164 TORSION  18 13 16 19              -1.0860925     -62.2285142
 165 TORSION  19 20 29 31               1.4394312      82.4733307
 166 TORSION  19 16 24 28              -1.0401126     -59.5940614
 167 TORSION  19 16 24 27               1.0607794      60.7781845
 168 TORSION  19 16 24 26              -3.1215644    -178.8524662
 169 TORSION  19 20 10 23               1.0456293      59.9101453
 170 TORSION  20 19 16 24               3.1363419     179.6991568
 171 TORSION  20 19 16 25               1.0655293      61.0503332
 172 TORSION  21 19 20 30               1.0385619      59.5052131
 173 TORSION  21 19 20 29              -1.0500171     -60.1615469
 174 TORSION  21 19 16 24               1.0291785      58.9675870
 175 TORSION  21 19 16 25              -1.0416341     -59.6812366
 176 TORSION  22 19 20 30               3.0975101     177.4742576
 177 TORSION  22 19 20 29               1.0089312      57.8074976
 178 TORSION  22 19 16 24              -1.0386827     -59.5121328
 179 TORSION  22 19 16 25              -3.1094953    -178.1609564
 180 TORSION  23 10 20 30               3.1260993     179.1122936
 181 TORSION  23 10 20 29              -1.0471027     -59.9945682
 182 TORSION  25 16 24 28               1.0403894      59.6099206
 183 TORSION  25 16 24 27               3.1412814     179.9821665
 184 TORSION  25 16 24 26              -1.0410624     -59.6484843
 185 TORSION  30 20 29 31              -0.6342109     -36.3376063

     ------------------------------------------
     THE POINT GROUP IS C1 , NAXIS= 1, ORDER= 1
     ------------------------------------------

     DIMENSIONS OF THE SYMMETRY SUBSPACES ARE
 A   =  329

 ..... DONE SETTING UP THE RUN .....
 STEP CPU TIME =     0.04 TOTAL CPU TIME =        0.0 (    0.0 MIN)
 TOTAL WALL CLOCK TIME=        0.0 SECONDS, CPU UTILIZATION IS  80.00%


          -----------------------------
          STATIONARY POINT LOCATION RUN
          -----------------------------

 OBTAINING INITIAL HESSIAN, HESS=GUESS   
 DIAGONAL GUESS HESSIAN IN INTERNAL COORDS IS
     1  0.3325     2  0.3333     3  0.3348     4  0.3605     5  0.3617
     6  0.3311     7  0.3399     8  0.3328     9  0.3324    10  0.3352
    11  0.3305    12  0.3526    13  0.3468    14  0.3320    15  0.3331
    16  0.3652    17  0.3618    18  0.3312    19  0.3319    20  0.3309
    21  0.3655    22  0.3613    23  0.3310    24  0.3317    25  0.3592
    26  0.3298    27  0.3801    28  0.3326    29  0.3323    30  0.3326
    31  0.3378    32  0.2473    33  0.2451    34  0.2222    35  0.2224
    36  0.2223    37  0.2224    38  0.2224    39  0.2203    40  0.2226
    41  0.2443    42  0.2225    43  0.2437    44  0.2015    45  0.2014
    46  0.2015    47  0.2222    48  0.2452    49  0.2015    50  0.2015
    51  0.2013    52  0.2216    53  0.2209    54  0.2457    55  0.2468
    56  0.2217    57  0.2204    58  0.2428    59  0.2450    60  0.2214
    61  0.2226    62  0.2226    63  0.2478    64  0.2474    65  0.2478
    66  0.2222    67  0.2227    68  0.2226    69  0.2013    70  0.2223
    71  0.2222    72  0.2227    73  0.2227    74  0.2227    75  0.2471
    76  0.2223    77  0.2223    78  0.2012    79  0.2440    80  0.2219
    81  0.2477    82  0.2222    83  0.2144    84  0.2221    85  0.2220
    86  0.2209    87  0.2011    88  0.2225    89  0.2013    90  0.2013
    91  0.2013    92  0.2195    93  0.2500    94  0.2500    95  0.2500
    96  0.2500    97  0.2500    98  0.2500    99  0.2500   100  0.2500
   101  0.2500   102  0.2500   103  0.2500   104  0.2500   105  0.2500
   106  0.2500   107  0.2500   108  0.2500   109  0.2500   110  0.2500
   111  0.2500   112  0.2500   113  0.2500   114  0.2500   115  0.2500
   116  0.2500   117  0.2500   118  0.2500   119  0.2500   120  0.2500
   121  0.2500   122  0.2500   123  0.2500   124  0.2500   125  0.2500
   126  0.2500   127  0.2500   128  0.2500   129  0.2500   130  0.2500
   131  0.2500   132  0.2500   133  0.2500   134  0.2500   135  0.2500
   136  0.2500   137  0.2500   138  0.2500   139  0.2500   140  0.2500
   141  0.2500   142  0.2500   143  0.2500   144  0.2500   145  0.2500
   146  0.2500   147  0.2500   148  0.2500   149  0.2500   150  0.2500
   151  0.2500   152  0.2500   153  0.2500   154  0.2500   155  0.2500
   156  0.2500   157  0.2500   158  0.2500   159  0.2500   160  0.2500
   161  0.2500   162  0.2500   163  0.2500   164  0.2500   165  0.2500
   166  0.2500   167  0.2500   168  0.2500   169  0.2500   170  0.2500
   171  0.2500   172  0.2500   173  0.2500   174  0.2500   175  0.2500
   176  0.2500   177  0.2500   178  0.2500   179  0.2500   180  0.2500
   181  0.2500   182  0.2500   183  0.2500   184  0.2500   185  0.2500
 TRANSFORMING HESSIAN TO SYMMETRY COORDINATES

          PARAMETERS CONTROLLING GEOMETRY SEARCH ARE
          METHOD =QA                  UPHESS =BFGS    
          NNEG   =         0          NFRZ   =         3
          NSTEP  =        50          IFOLOW =         1
          HESS   =GUESS               RESTAR =         F
          IHREP  =         0          HSSEND =         F
          NPRT   =         0          NPUN   =         0
          OPTTOL = 5.000E-04          RMIN   = 1.500E-03
          RMAX   = 1.000E-01          RLIM   = 7.000E-02
          DXMAX  = 3.000E-01          PURIFY =         F
          MOVIE  =         F          TRUPD  =         T
          TRMAX  = 5.000E-01          TRMIN  = 5.000E-02
          ITBMAT =         5          STPT   =         F
          STSTEP = 1.000E-02          PROJCT=          F
          FROZEN COORD(S)=   1   2   3


      ***** EQUILIBRIUM GEOMETRY LOCATED *****
            (SUBJECT TO   3 CONSTRAINT(S))
 COORDINATES OF ALL ATOMS ARE (ANGS)
   ATOM   CHARGE       X              Y              Z
 ------------------------------------------------------------
 C           6.0  -4.8730383547   2.8330593309   1.0040514163
 C           6.0  -4.6162560062   2.3560981165  -0.4305987513
 H           1.0  -5.3027094571   2.0442315132   1.6142990338
 H           1.0  -5.5621983683   3.6725717136   1.0100392364
 H           1.0  -3.9566278154   3.1634665387   1.4840850451
 C           6.0  -5.9067085430   1.8966924358  -1.1173109422
 H           1.0  -6.3719059542   1.0774956648  -0.5854541686
 H           1.0  -5.6960905739   1.5605002305  -2.1301129982
 H           1.0  -6.6172196108   2.7170512995  -1.1824338329
 C           6.0  -3.4755697339   1.3166499629  -0.5316766480
 H           1.0  -4.2660836439   3.2203702649  -0.9933276799
 C           6.0  -2.1127362987   2.0139638067  -0.3891449376
 C           6.0  -0.9372024812   1.0588798202  -0.5586759396
 H           1.0  -2.0462835654   2.4927674510   0.5854617241
 H           1.0  -2.0486107246   2.8073402030  -1.1286408738
 C           6.0  -1.0226671035  -0.1337123537   0.3956872995
 H           1.0  -0.0038019649   1.5941727845  -0.4012025582
 H           1.0  -0.9188971581   0.6887977254  -1.5838931204
 C           6.0  -2.3834509385  -0.8201358642   0.2485050028
 C           6.0  -3.5478816649   0.1464839674   0.4544604059
 H           1.0  -2.4727696565  -1.6335377782   0.9670013860
 H           1.0  -2.4739804657  -1.2616049980  -0.7436495616
 H           1.0  -3.5189961379   0.8883677747  -1.5335158918
 C           6.0   0.1372336820  -1.0996958398   0.1683942344
 H           1.0  -0.9527061437   0.2456684021   1.4161724038
 H           1.0   1.0881502220  -0.5942386680   0.3157641961
 H           1.0   0.1194769199  -1.4868200758  -0.8480572982
 H           1.0   0.0949985838  -1.9428744462   0.8520651422
 O           8.0  -4.7771471798  -0.5331369430   0.2937049219
 H           1.0  -3.4928639560   0.5369491423   1.4688165656
 H           1.0  -4.8603828179  -1.1789753641   0.9757561088


                     --------------------
                     INTERNAL COORDINATES
                     --------------------

                 - - ATOMS - -         COORDINATE      COORDINATE
 NO.   TYPE    I  J  K  L  M  N        (BOHR,RAD)       (ANG,DEG)
 ----------------------------------------------------------------
   1 STRETCH   1  4                     2.0525577       1.0861668
   2 STRETCH   1  3                     2.0521317       1.0859414
   3 STRETCH   1  5                     2.0522542       1.0860062
   4 STRETCH   1  2                     2.8979121       1.5335091
   5 STRETCH   2  6                     2.8955973       1.5322842
   6 STRETCH   2 11                     2.0581978       1.0891514
   7 STRETCH   2 10                     2.9225664       1.5465556
   8 STRETCH   6  8                     2.0555087       1.0877284
   9 STRETCH   6  9                     2.0545551       1.0872238
  10 STRETCH   6  7                     2.0443688       1.0818334
  11 STRETCH  10 23                     2.0605756       1.0904097
  12 STRETCH  10 12                     2.9054356       1.5374904
  13 STRETCH  10 20                     2.8950354       1.5319869
  14 STRETCH  12 15                     2.0531266       1.0864679
  15 STRETCH  12 14                     2.0558334       1.0879003
  16 STRETCH  12 13                     2.8800850       1.5240754
  17 STRETCH  13 16                     2.8909655       1.5298332
  18 STRETCH  13 18                     2.0600320       1.0901221
  19 STRETCH  13 17                     2.0550046       1.0874617
  20 STRETCH  16 25                     2.0616331       1.0909694
  21 STRETCH  16 24                     2.8846381       1.5264849
  22 STRETCH  16 19                     2.8935479       1.5311997
  23 STRETCH  19 22                     2.0592476       1.0897070
  24 STRETCH  19 21                     2.0578392       1.0889617
  25 STRETCH  19 20                     2.8861941       1.5273082
  26 STRETCH  20 30                     2.0565988       1.0883053
  27 STRETCH  20 29                     2.6716880       1.4137965
  28 STRETCH  24 28                     2.0528895       1.0863424
  29 STRETCH  24 27                     2.0556833       1.0878208
  30 STRETCH  24 26                     2.0540262       1.0869439
  31 STRETCH  29 31                     1.7819918       0.9429895
  32 BEND      1  2  6                  1.9514226     111.8082812
  33 BEND      1  2 10                  1.9754379     113.1842516
  34 BEND      1  2 11                  1.8654286     106.8811872
  35 BEND      2  6  8                  1.9250462     110.2970246
  36 BEND      2  1  4                  1.9302864     110.5972619
  37 BEND      2  1  3                  1.9455572     111.4722184
  38 BEND      2  6  9                  1.9294226     110.5477743
  39 BEND      2 10 23                  1.8698939     107.1370263
  40 BEND      2  6  7                  1.9485629     111.6444281
  41 BEND      2 10 12                  1.9207917     110.0532563
  42 BEND      2  1  5                  1.9464180     111.5215364
  43 BEND      2 10 20                  2.0224844     115.8798191
  44 BEND      3  1  5                  1.8822948     107.8475477
  45 BEND      3  1  4                  1.8831508     107.8965916
  46 BEND      4  1  5                  1.8731997     107.3264351
  47 BEND      6  2 11                  1.8516023     106.0889943
  48 BEND      6  2 10                  1.9718194     112.9769294
  49 BEND      7  6  9                  1.8963114     108.6506390
  50 BEND      7  6  8                  1.8828154     107.8773788
  51 BEND      8  6  9                  1.8796639     107.6968095
  52 BEND     10 12 15                  1.8969583     108.6877019
  53 BEND     10 20 30                  1.9002509     108.8763581
  54 BEND     10 20 19                  1.9397374     111.1387673
  55 BEND     10 12 13                  1.9705160     112.9022486
  56 BEND     10 12 14                  1.9143182     109.6823548
  57 BEND     10  2 11                  1.8363384     105.2144393
  58 BEND     10 20 29                  1.9124263     109.5739549
  59 BEND     12 10 20                  1.9056068     109.1832268
  60 BEND     12 10 23                  1.8740359     107.3743464
  61 BEND     12 13 17                  1.9150138     109.7222061
  62 BEND     12 13 18                  1.9074269     109.2875096
  63 BEND     12 13 16                  1.9563139     112.0885317
  64 BEND     13 16 19                  1.9168117     109.8252180
  65 BEND     13 16 24                  1.9368976     110.9760553
  66 BEND     13 16 25                  1.8847906     107.9905452
  67 BEND     13 12 14                  1.9053450     109.1682252
  68 BEND     13 12 15                  1.9138627     109.6562555
  69 BEND     14 12 15                  1.8595589     106.5448787
  70 BEND     16 19 21                  1.9223148     110.1405265
  71 BEND     16 19 22                  1.9208654     110.0574811
  72 BEND     16 24 26                  1.9286815     110.5053121
  73 BEND     16 24 27                  1.9304268     110.6053104
  74 BEND     16 24 28                  1.9475662     111.5873250
  75 BEND     16 19 20                  1.9615366     112.3877701
  76 BEND     16 13 17                  1.9191429     109.9587901
  77 BEND     16 13 18                  1.8996740     108.8433010
  78 BEND     17 13 18                  1.8638559     106.7910739
  79 BEND     19 20 29                  1.9212552     110.0798155
  80 BEND     19 20 30                  1.8904248     108.3133599
  81 BEND     19 16 24                  1.9576586     112.1655748
  82 BEND     19 16 25                  1.8784193     107.6254953
  83 BEND     20 29 31                  1.9004696     108.8888866
  84 BEND     20 19 21                  1.8978265     108.7374496
  85 BEND     20 19 22                  1.8921374     108.4114848
  86 BEND     20 10 23                  1.8645267     106.8295101
  87 BEND     21 19 22                  1.8663913     106.9363439
  88 BEND     24 16 25                  1.8866330     108.0961097
  89 BEND     26 24 27                  1.8822646     107.8458167
  90 BEND     26 24 28                  1.8855923     108.0364817
  91 BEND     27 24 28                  1.8872466     108.1312656
  92 BEND     29 20 30                  1.8990633     108.8083148
  93 TORSION   1  2  6  7              -1.0445727     -59.8496063
  94 TORSION   1  2 10 20               0.8523564      48.8364244
  95 TORSION   1  2 10 12              -1.3199336     -75.6266264
  96 TORSION   1  2 10 23               2.9310482     167.9366916
  97 TORSION   1  2  6  9               1.0686040      61.2264987
  98 TORSION   1  2  6  8              -3.1376975    -179.7768257
  99 TORSION   2 10 20 29               1.0014154      57.3768786
 100 TORSION   2 10 20 30              -1.0736890     -61.5178458
 101 TORSION   2 10 20 19               3.1286389     179.2578065
 102 TORSION   2 10 12 13              -3.0843328    -176.7192536
 103 TORSION   2 10 12 14               1.0698383      61.2972191
 104 TORSION   2 10 12 15              -0.9568453     -54.8231988
 105 TORSION   3  1  2 11               3.0619942     175.4393457
 106 TORSION   3  1  2  6               1.0429777      59.7582222
 107 TORSION   3  1  2 10              -1.2077735     -69.2003242
 108 TORSION   4  1  2 10               2.9803257     170.7600819
[...]
 634  13   0.193541   4.868258  -2.428947  -0.000051   0.147902  -0.000342
 635  13   0.796280   0.478102  -3.439741   0.000191   0.068170   0.002796
 636  18   0.588182   0.419834  -3.657066  -0.000023   0.068170  -0.000333
 637  24   1.100111  -0.233215  -3.136887   0.000239   0.068170   0.003499
 638  18  -1.818548   2.922830  -4.827516  -0.000077   0.079220  -0.000967
 639  18  -0.623389   2.563544  -4.676490  -0.000213   0.181210  -0.001176
 640  18   0.279604   1.431115  -4.251592  -0.000233   0.181210  -0.001287
 641  13  -1.298974   3.169437  -4.548011  -0.000151   0.168983  -0.000891
 642  13   0.139162   2.336326  -4.221608   0.000186   0.168983   0.001100
 643  13   0.697111   1.145197  -3.781680   0.000213   0.096785   0.002203
 644  13   2.040842   1.032439  -1.840557   0.000228   0.065787   0.003462
 645  24   2.462603   0.344353  -1.644558   0.000158   0.065787   0.002400
 646  26   2.656340   0.378339  -1.411771  -0.000073   0.065787  -0.001108
 647  24   1.874579  -0.164558  -2.576724   0.001383   0.503271   0.002748
 648  13   1.561423   1.031318  -2.670005   0.001381   0.503271   0.002744
 649  25  -0.401263   2.471273   3.120699  -0.000230   0.201831  -0.001140
 650  13  -0.358006   3.261624   2.322457   0.000534   0.284490   0.001876
 651  26   2.865558   0.424864  -1.340337   0.000012   0.013046   0.000941
 652  13   2.069096   1.437544  -2.043978   0.000106   0.018524   0.005731
 653  17  -0.133632   4.833666   1.214920   0.000129   0.030698   0.004188
 654  14  -1.357169   5.358468   1.818384   0.000121   0.030698   0.003946
 655  14  -3.922460   3.297450   3.487212  -0.000422   0.324925  -0.001300
 656  25  -3.456337   2.340395   3.844189  -0.000395   0.324925  -0.001216
 657  30  -4.537421   2.466599   3.870468  -0.000928   0.324925  -0.002855
 658  25  -1.347346   2.983402   3.524161   0.000179   0.255238   0.000703
 659  25  -2.313200   2.690675   4.003808  -0.000331   0.510258  -0.000648
 660  14  -2.367453   4.240528   3.230786  -0.000200   0.510258  -0.000391
 661  14  -3.356617   3.906308   3.628878  -0.000052   0.255238  -0.000203
 662  30  -5.055158   2.721702   4.204506  -0.000148   0.081321  -0.001823
 663  14  -4.219744   3.927798   3.676661  -0.000027   0.081321  -0.000327
 664  18  -2.351637   3.183543  -4.812588   0.000091   0.016193   0.005604
 665  15  -3.019948   4.457077  -4.538314   0.000093   0.016193   0.005738
 666  16   1.188451   1.685564   1.925392   0.000101   0.168102   0.000602
 667  17   1.361309   2.235948   1.433477  -0.000080   0.168102  -0.000474
 668  26   1.822140   1.312081   1.735967  -0.000099   0.168102  -0.000588
 669  17   0.957284   3.028943   1.558809  -0.000148   0.149386  -0.000988
 670  16   0.752729   2.144540   2.231794   0.000392   0.210553   0.001860
 671  16  -3.032750  -1.960946   4.062502   0.000014   0.027221   0.000497
 672  19  -3.474026  -2.194378   4.056398  -0.000013   0.027221  -0.000487
 673  21  -3.583528  -2.478016   4.048076  -0.000045   0.027221  -0.001668
 674  16  -2.791811  -1.481691   4.226723  -0.000017   0.030326  -0.000572
 675  19  -3.235481  -1.693456   4.139210   0.000021   0.030326   0.000701
 676  25  -2.706272  -1.218633   4.355804  -0.000031   0.030326  -0.001029
 677  19  -3.437317  -2.019578   4.126572   0.000038   0.023905   0.001601
 678  16  -2.814432  -1.674221   4.202227   0.000034   0.023905   0.001413
 679  16  -2.080347  -2.701609   3.723468   0.000072   0.169895   0.000422
 680  21  -2.686049  -3.156341   3.660501  -0.000100   0.169895  -0.000586
 681  28  -1.601078  -3.286923   3.611237  -0.000115   0.169895  -0.000674
 682  21  -3.375000  -2.960196   3.970717  -0.000284   0.154351  -0.001842
 683  16  -2.607694  -2.134703   4.087958   0.000350   0.217514   0.001610
 684  16   0.804751   0.945011   3.076379   0.000019   0.029752   0.000653
 685  24   1.158174   0.608981   2.976604   0.000073   0.029752   0.002445
 686  25   0.608919   0.987118   3.306686  -0.000004   0.029752  -0.000144
 687  16  -1.145963  -1.656299   4.177166   0.000032   0.029752   0.001073
 688  24  -0.767754  -1.959278   4.063405   0.000080   0.029752   0.002680
 689  25  -1.167645  -1.381961   4.309201  -0.000007   0.029752  -0.000235
 690  16   1.249554   0.866438   2.680597   0.000025   0.026551   0.000923
 691  24   1.650471   0.575226   2.634256  -0.000005   0.026551  -0.000176
 692  26   1.919119   0.571394   2.493796  -0.000036   0.026551  -0.001372
 693  16  -1.177989  -2.349657   3.934609   0.000032   0.025011   0.001278
 694  24  -0.803689  -2.676027   3.902568   0.000009   0.025011   0.000363
 695  28  -0.744868  -2.972217   3.879883  -0.000028   0.025011  -0.001104
 696  24   1.518038   0.565092   2.798724   0.000077   0.034538   0.002232
 697  16   0.962528   0.993061   2.936457   0.000067   0.034538   0.001930
 698  24  -0.689116  -2.372711   4.020951   0.000141   0.065804   0.002149
 699  16  -1.282543  -1.978493   4.108635   0.000122   0.065804   0.001857
 700  25  -2.040898  -1.082693   4.520097  -0.000235   0.110986  -0.002118
 701  16  -1.845830  -1.476207   4.291137  -0.000100   0.135593  -0.000740
 702  25   0.238587   1.564025   3.379892  -0.000230   0.108948  -0.002114
 703  16   0.358871   1.751964   2.939896  -0.000077   0.133104  -0.000581
 704  26   2.141937   0.828419   2.183320  -0.000211   0.127972  -0.001647
 705  16   1.169075   1.256314   2.566867   0.000345   0.180387   0.001911
 706  28  -0.857341  -3.255114   3.873435  -0.000151   0.103861  -0.001455
 707  16  -1.616452  -2.418235   3.983739   0.000269   0.146376   0.001840
 708  26   3.044487   0.739133  -1.061029   0.000205   0.251908   0.000813
 709  26   3.201092   1.158836  -0.018465  -0.000554   0.503708  -0.001099
 710  26   2.707817   1.332274   1.262212  -0.000453   0.503708  -0.000899
 711  17   2.474404   2.225949  -1.102288   0.000031   0.503708   0.000061
 712  17   2.397674   2.621231   0.221116  -0.000438   0.503708  -0.000869
 713  17   1.801557   2.640048   1.186470   0.000092   0.251908   0.000367
 714  18  -3.810943  -0.156905  -4.121426   0.000018   0.322539   0.000057
 715  22  -4.474978  -0.990905  -3.771510  -0.000138   0.322539  -0.000426
 716  23  -4.919298  -0.077092  -4.109729  -0.000164   0.322539  -0.000509
 717  18  -2.130922  -1.303224  -3.795030  -0.000193   0.322561  -0.000597
 718  22  -2.793959  -2.131265  -3.429413  -0.000162   0.322561  -0.000501
 719  27  -1.689726  -2.229764  -3.484378  -0.000309   0.322561  -0.000958
 720  22  -3.886126  -1.788842  -3.867135  -0.000247   0.433071  -0.000571
 721  18  -2.757768  -0.746744  -4.334247  -0.000205   0.433071  -0.000473
 722  23  -4.980498   2.018817  -4.980788   0.000213   0.260267   0.000817
 723  23  -5.065033   0.883272  -4.845396  -0.000292   0.520368  -0.000560
 724  18  -3.446621   1.461040  -4.989966  -0.000095   0.520368  -0.000182
 725  18  -3.528038   0.341333  -4.756373   0.000042   0.260267   0.000163
 726  18   0.533306  -0.211818  -3.620229   0.000195   0.086722   0.002243
 727  24   1.137124  -0.873533  -3.225867   0.000067   0.086722   0.000768
 728  27   1.024520  -1.117436  -3.373724  -0.000100   0.086722  -0.001151
 729  24   1.329389  -0.652969  -3.259633   0.000284   0.076141   0.003735
 730  18   0.509281   0.350751  -3.899025   0.000079   0.053705   0.001470
 731  27  -0.991710  -2.297238  -3.933942  -0.000175   0.236787  -0.000738
 732  27  -0.006297  -1.864425  -4.044814  -0.000404   0.473449  -0.000854
 733  27   0.886784  -1.335102  -3.740049   0.000309   0.236787   0.001303
 734  18  -1.239177  -0.833725  -4.443897  -0.000375   0.473449  -0.000791
 735  18  -0.066874  -0.233289  -4.322895   0.000037   0.473449   0.000078
 736  19  -5.453782  -1.932496   4.116342  -0.000069   0.028891  -0.002401
 737  20  -5.831520  -1.608987   4.142499  -0.000083   0.028891  -0.002879
 738  21  -5.425932  -2.235221   4.104673  -0.000077   0.028891  -0.002668
 739  19  -5.557965  -1.380221   4.205611  -0.000061   0.029325  -0.002073
 740  20  -5.937858  -1.076497   4.312737  -0.000085   0.029325  -0.002904
 741  30  -5.964159  -0.801842   4.440210  -0.000103   0.029325  -0.003526
 742  20  -5.979892  -1.296222   4.283598  -0.000008   0.026355  -0.000303
 743  19  -5.415182  -1.724657   4.193577   0.000007   0.026355   0.000274
 744  19  -3.128899  -5.111252   0.948399   0.000059   0.089724   0.000658
 745  21  -3.244488  -5.153641   1.230008  -0.000138   0.089724  -0.001538
 746  28  -2.155978  -5.195350   1.193966   0.000164   0.089724   0.001824
 747  19  -6.724895  -4.627210   1.049932  -0.000112   0.082145  -0.001368
 748  21  -6.608513  -4.701869   1.323938  -0.000223   0.082145  -0.002719
 749  31  -7.593269  -4.438843   1.337075  -0.000707   0.082145  -0.008609
 750  21  -4.089044  -2.654094   4.172524  -0.000136   0.071479  -0.001902
 751  21  -4.971602  -2.532547   4.200412  -0.000164   0.071479  -0.002293
 752  19  -4.475585  -2.186030   4.143606  -0.000364   0.155895  -0.002333
 753  21  -5.922152  -5.087298   1.190054  -0.000087   0.086620  -0.001009
 754  21  -4.581676  -5.325814   1.086672  -0.000509   0.203653  -0.002498
 755  19  -5.455028  -5.112338   0.709022   0.000009   0.180454   0.000049
 756  19  -3.957549  -5.272067   0.714352   0.000098   0.105826   0.000928
 757  19  -3.176467  -4.642368  -1.334557   0.000136   0.066848   0.002034
 758  22  -3.295574  -4.554600  -1.602557  -0.000033   0.066848  -0.000490
 759  24  -2.339670  -4.658177  -1.324365   0.000229   0.066848   0.003430
 760  19  -6.880068  -3.976584  -1.265921   0.000449   0.062101   0.007233
 761  22  -6.740033  -3.933606  -1.534308   0.000227   0.062101   0.003650
 762  29  -7.659869  -3.730218  -1.164432   0.001021   0.062101   0.016435
 763  22  -3.975565  -4.716402  -1.721208  -0.000053   0.071392  -0.000745
 764  22  -5.112408  -4.733915  -1.609677  -0.000140   0.159260  -0.000877
 765  22  -6.169215  -4.309879  -1.701923   0.000009   0.071392   0.000119
 766  19  -4.343132  -4.851397  -1.256857   0.000111   0.155826   0.000715
 767  19  -5.866586  -4.569073  -1.243464   0.000182   0.155826   0.001170
 768  19  -2.624388  -5.090750   0.702123   0.000196   0.065402   0.002999
 769  24  -1.806885  -5.268067   0.675598   0.000122   0.065402   0.001861
 770  28  -1.677123  -5.335982   0.942457  -0.000055   0.065402  -0.000844
 771  24  -1.913106  -5.181597  -0.191453   0.001235   0.524990   0.002353
 772  19  -3.102271  -4.965715  -0.519116   0.001216   0.524990   0.002316
 773  19  -4.338320  -0.748445   4.234613  -0.000115   0.163019  -0.000708
 774  25  -3.743680  -0.318453   4.376096  -0.000185   0.163019  -0.001133
 775  30  -4.815911  -0.195438   4.398117  -0.000453   0.163019  -0.002781
 776  25  -3.004755  -0.674600   4.534815  -0.000306   0.191382  -0.001601
 777  19  -3.719010  -1.494945   4.264823   0.000354   0.269826   0.001312
 778  28  -1.623783  -5.496983   1.123166   0.000037   0.022747   0.001620
 779  19  -3.045023  -5.274309   0.750852   0.000153   0.032341   0.004740
 780  19  -7.383303  -4.308272   0.285288   0.000275   0.075040   0.003660
 781  29  -8.199815  -4.192204   0.298624   0.000291   0.075040   0.003878
 782  31  -8.260103  -4.272009   0.606470  -0.000296   0.075040  -0.003941
 783  29  -8.163638  -4.002852  -0.608860   0.003741   0.341333   0.010959
 784  19  -7.020594  -4.362333  -0.430279   0.001576   0.377011   0.004179
 785  30  -5.728435  -0.470107   4.583836  -0.000585   0.176248  -0.003320
 786  19  -4.934126  -1.212702   4.312718   0.000100   0.248505   0.000402
 787  31  -8.256948  -4.461797   0.972939  -0.001085   0.165312  -0.006564
 788  19  -6.932421  -4.679205   0.632192   0.000421   0.233430   0.001805
 789  20  -6.894767  -2.062006   3.906348  -0.001325   0.144854  -0.009149
 790  21  -6.427255  -2.641731   3.815835  -0.001013   0.144854  -0.006993
 791  31  -7.431766  -2.452488   3.830561  -0.002621   0.144854  -0.018095
 792  21  -5.618925  -2.562089   4.090317  -0.000420   0.145959  -0.002876
 793  20  -6.383256  -1.746566   4.167766  -0.000281   0.205825  -0.001367
 794  20  -7.673933  -0.988329   4.298829  -0.000231   0.026699  -0.008660
 795  30  -7.584044  -0.722205   4.413677  -0.000215   0.026699  -0.008054
 796  31  -8.153026  -1.430457   4.175904  -0.000519   0.026699  -0.019431
 797  30  -6.883361  -0.493286   4.635028  -0.000569   0.117281  -0.004853
 798  20  -6.671212  -0.889597   4.415036  -0.000585   0.143284  -0.004082
 799  31  -8.078825  -2.171901   4.123908  -0.002849   0.180727  -0.015766
 800  20  -7.474965  -1.430747   4.229373  -0.001354   0.220798  -0.006132
 801  28  -1.431980  -3.895943   3.751107   0.000037   0.251658   0.000148
 802  28  -1.572362  -4.851135   3.185629  -0.000525   0.503150  -0.001044
 803  28  -1.701897  -5.478649   1.980564  -0.000165   0.503150  -0.000328
 804  21  -3.032599  -4.089001   3.629635  -0.000397   0.503150  -0.000789
 805  21  -3.193509  -5.081969   2.707215  -0.000482   0.503150  -0.000957
 806  21  -3.277222  -5.377071   1.631217   0.000255   0.251658   0.001015
 807  31  -8.046128  -4.632728   1.732946  -0.001898   0.238781  -0.007947
 808  31  -7.984539  -4.330064   2.814605  -0.005757   0.477565  -0.012055
 809  31  -7.792923  -3.341556   3.747676  -0.006208   0.477565  -0.013000
 810  21  -6.597908  -4.816887   2.148508  -0.001279   0.477565  -0.002678
 811  21  -6.473303  -4.185755   3.361204  -0.001940   0.477565  -0.004062
 812  21  -6.290578  -3.237067   3.937388  -0.000565   0.238781  -0.002366
 813  22  -6.888232  -1.857739  -2.920390   0.000449   0.282371   0.001591
 814  23  -7.331456  -0.945184  -3.255190   0.000422   0.282371   0.001493
 815  29  -7.842925  -1.602463  -2.657683   0.003656   0.282371   0.012946
 816  23  -5.661820  -0.297775  -4.413117  -0.000063   0.235099  -0.000270
 817  23  -6.629296  -0.655778  -4.107588  -0.000333   0.470071  -0.000709
 818  22  -5.406425  -1.736207  -3.846466  -0.000446   0.470071  -0.000948
 819  22  -6.358911  -2.058630  -3.463923  -0.000042   0.235099  -0.000178
 820  22  -2.734757  -4.363932  -1.922509   0.000203   0.088173   0.002298
 821  24  -1.784598  -4.609694  -1.729726   0.000107   0.088173   0.001217
 822  27  -1.654433  -4.540410  -1.998595  -0.000076   0.088173  -0.000859
 823  24  -1.946537  -4.859985  -1.535505   0.000384   0.095231   0.004033
 824  22  -3.342072  -4.565312  -1.918741   0.000079   0.067031   0.001185
 825  27  -1.642586  -4.513863  -2.498020   0.000343   0.298198   0.001151
 826  27  -1.590186  -3.523044  -3.333685  -0.000661   0.596499  -0.001108
 827  22  -3.188730  -4.022408  -2.787235  -0.000309   0.596499  -0.000518
 828  22  -3.125405  -2.953624  -3.519693  -0.000093   0.298198  -0.000312
 829  29  -8.191550  -2.471314  -2.437971   0.005602   0.401126   0.013965
 830  29  -8.151232  -3.531480  -1.603969   0.005538   0.401126   0.013806
 831  22  -6.774326  -3.249302  -2.403638   0.000460   0.653586   0.000704
 832  29  -8.754711  -1.357230  -2.877550   0.003810   0.278285   0.013690
 833  23  -7.867694  -0.506427  -3.691837   0.000201   0.223724   0.000896
 834  25  -0.935652  -1.060642   4.457028  -0.000080   0.170342  -0.000468
 835  25  -0.066506  -0.168260   4.254062  -0.000669   0.346513  -0.001932
 836  25   0.468220   0.811445   3.664823  -0.000109   0.170342  -0.000638
 837  24   0.103399  -1.529440   4.094017   0.000864   0.469505   0.001840
 838  24   1.107653  -0.190249   3.527316   0.000880   0.469505   0.001874
 839  26   2.351587   0.278351   2.594751  -0.000092   0.066673  -0.001375
 840  26   2.814276  -0.662424   2.835967  -0.000222   0.146897  -0.001515
 841  26   3.444802  -1.740548   2.465276  -0.000182   0.146897  -0.001242
 842  26   3.938428  -2.369260   1.436500  -0.000199   0.146897  -0.001357
 843  26   4.105015  -2.306387   0.145910  -0.000256   0.146897  -0.001740
 844  26   3.880396  -1.576147  -0.909373  -0.000134   0.146897  -0.000914
 845  26   3.351091  -0.459821  -1.322867  -0.000235   0.146897  -0.001599
 846  24   2.160666  -0.177211   2.914706  -0.000134   0.147245  -0.000907
 847  24   2.843336  -1.471757   2.949865   0.000031   0.147245   0.000212
 848  24   3.507726  -2.480521   2.122760   0.000130   0.147245   0.000880
 849  24   3.897921  -2.814940   0.751981  -0.000033   0.147245  -0.000224
 850  24   3.863624  -2.346199  -0.634463  -0.000022   0.147245  -0.000150
 851  24   3.418044  -1.254852  -1.502531   0.000177   0.147245   0.001203
 852  24   2.884686  -0.205625  -1.659725   0.000073   0.081455   0.000893
 853  27   1.544850  -1.659025  -3.325476  -0.000058   0.069994  -0.000832
 854  27   2.160392  -2.542072  -2.999917  -0.000192   0.155668  -0.001231
 855  27   2.207317  -3.811594  -2.517226  -0.000242   0.155668  -0.001552
 856  27   1.410058  -4.835390  -2.113370  -0.000273   0.155668  -0.001752
 857  27   0.104998  -5.181496  -1.958743  -0.000112   0.155668  -0.000716
 858  27  -0.980894  -4.902448  -2.046043  -0.000055   0.069994  -0.000780
 859  24   2.015165  -1.711757  -2.953865   0.000048   0.153197   0.000311
 860  24   2.560449  -3.047381  -2.454710   0.000072   0.153197   0.000469
 861  24   2.114871  -4.409245  -1.928243  -0.000056   0.153197  -0.000363
 862  24   0.866431  -5.222747  -1.596593   0.000130   0.153197   0.000847
 863  24  -0.658126  -5.144650  -1.599692   0.000116   0.153197   0.000759
 864  28  -1.069444  -5.677894   0.937142  -0.000060   0.067879  -0.000882
 865  28  -0.018013  -5.900628   0.727402  -0.000123   0.150144  -0.000821
 866  28   1.265063  -5.733537   1.012743  -0.000249   0.150144  -0.001659
 867  28   2.095583  -5.108737   1.834619  -0.000291   0.150144  -0.001937
 868  28   2.141375  -4.276121   2.864315  -0.000173   0.150144  -0.001155
 869  28   1.384125  -3.568700   3.689995  -0.000214   0.150144  -0.001427
 870  28   0.126699  -3.269413   3.981422  -0.000338   0.150144  -0.002254
 871  24  -0.756789  -5.670615   0.433062   0.000137   0.149333   0.000921
 872  24   0.726848  -5.783335   0.385704   0.000150   0.149333   0.001007
 873  24   1.978404  -5.314420   1.041338  -0.000048   0.149333  -0.000319
 874  24   2.497308  -4.451418   2.137738   0.000029   0.149333   0.000194
 875  24   2.076022  -3.539492   3.236390   0.000159   0.149333   0.001061
 876  24   0.883041  -2.943374   3.897879  -0.000034   0.149333  -0.000226
 877  24  -0.315633  -2.814069   3.983297  -0.000022   0.082929  -0.000266
 878  30  -4.981609   0.307124   4.789604  -0.000232   0.273251  -0.000851
 879  30  -4.846589   1.509854   4.649682  -0.001265   0.546501  -0.002315
 880  25  -3.400773   0.596802   4.738871  -0.000577   0.546501  -0.001056
 881  25  -3.270093   1.781794   4.487706  -0.000155   0.273251  -0.000568
 882  31 -10.705754  -1.201406   3.476639  -0.000671   0.079314  -0.008456
 883  31 -11.367278  -1.871192   2.761684  -0.001564   0.170861  -0.009154
 884  31 -11.480567  -2.903813   1.770059  -0.001851   0.170861  -0.010833
 885  31 -10.730965  -3.837650   0.977276  -0.001799   0.170861  -0.010529
 886  31  -9.407006  -4.313251   0.688490  -0.001249   0.170861  -0.007308
 887  29 -11.094241  -1.062298   2.987867  -0.000327   0.170609  -0.001917
 888  29 -11.689480  -2.067708   1.963195  -0.000704   0.170609  -0.004124
 889  29 -11.327330  -3.186892   0.947623  -0.001098   0.170609  -0.006436
 890  29 -10.147190  -3.989055   0.332062  -0.000650   0.170609  -0.003809
 891  29  -8.912049  -4.241801   0.243462  -0.000105   0.090812  -0.001154
 892  31  -8.769763  -1.337579   4.230286  -0.003927   0.399956  -0.009817
 893  30  -8.146034  -0.150869   4.482340  -0.001099   0.399956  -0.002748
 =====================================================

              9594194  WORDS OF DYNAMIC MEMORY USED
 EXECUTION OF GAMESS TERMINATED NORMALLY Thu Nov 24 16:21:19 2016
 DDI: 263640 bytes (0.3 MB / 0 MWords) used by master data server.

 ----------------------------------------
 CPU timing information for all processes
 ========================================
 0: 10470.776 + 4.536 = 10475.312
 ----------------------------------------
 ddikick.x: exited gracefully.
