----- GAMESS execution script -----

          ******************************************************
          *         GAMESS VERSION =  5 DEC 2014 (R1)          *
          *             FROM IOWA STATE UNIVERSITY             *
          * M.W.SCHMIDT, K.K.BALDRIDGE, J.A.BOATZ, S.T.ELBERT, *
          *   M.S.GORDON, J.H.JENSEN, S.KOSEKI, N.MATSUNAGA,   *
          *          K.A.NGUYEN, S.J.SU, T.L.WINDUS,           *
          *       TOGETHER WITH M.DUPUIS, J.A.MONTGOMERY       *
          *         J.COMPUT.CHEM.  14, 1347-1363(1993)        *
          **************** 64 BIT LINUX VERSION ****************

 EXECUTION OF GAMESS BEGUN Thu Nov 24 13:49:12 2016

            ECHO OF THE FIRST FEW INPUT CARDS -
 INPUT CARD>! SELECT RESTRICTED HARTREE-FOCK AS DEFAULT                                     
 INPUT CARD>$contrl scftyp=rhf $end                                                         
 INPUT CARD>                                                                                
 INPUT CARD>! THEORY: HF OR DFT                                                             
 INPUT CARD> $contrl mplevl=0 $end                                                          
 INPUT CARD>                                                                                
 INPUT CARD> $system timlim=10000 mwords=20 $end                                            
 INPUT CARD> $SCF DIRSCF=.TRUE. $end                                                        
 INPUT CARD>                                                                                
 INPUT CARD>                                                                                
 INPUT CARD>! BASIS SETS                                                                    
 INPUT CARD>! 6-311G(d,p)                                                                   
 INPUT CARD> $BASIS GBASIS=N311 NGAUSS=6 NDFUNC=1 NPFUNC=1 $END                             
 INPUT CARD>                                                                                
 INPUT CARD>! One of the following                                                          
 INPUT CARD> $guess guess=HUCKEL $end                                                       
 INPUT CARD>                                                                                
 INPUT CARD> $statpt projct=.FALSE. $end                                                    
 INPUT CARD> $STATPT IFREEZ(1)=1,2,3 $END                                                   
 INPUT CARD>                                                                                
 INPUT CARD>! Optimize the geometry with COSMO effects                                      
 INPUT CARD> $statpt opttol=0.0005 nstep=50 $end                                            
 INPUT CARD> $contrl nzvar=1 $end                                                           
 INPUT CARD> $zmat dlc=.t. auto=.t. $end                                                    
 INPUT CARD> $contrl runtyp=OPTIMIZE maxit=200 $end                                         
 INPUT CARD>                                                                                
 INPUT CARD>! Run COSMO on perfect conductor                                                
 INPUT CARD> $COSGMS PRFCND=.TRUE. $end                                                     
 INPUT CARD>                                                                                
 INPUT CARD>! Specifying RSOLV                                                              
 INPUT CARD> $COSGMS COSRAD = 1.4 $end                                                      
 INPUT CARD>                                                                                
 INPUT CARD>! available memory                                                              
 INPUT CARD> $SYSTEM MWORDS=40 $END                                                         
 INPUT CARD>                                                                                
 INPUT CARD> $DATA                                                                          
 INPUT CARD>Limonene, ID: C138863                                                           
 INPUT CARD>C1                                                                              
 INPUT CARD>C      6.0      2.0085000000    2.9850000000    2.9345000000                    
 INPUT CARD>C      6.0      3.3486000000    3.6840000000    3.0973000000                    
 INPUT CARD>C      6.0      4.0413000000    3.8341000000    1.7439000000                    
 INPUT CARD>C      6.0      2.0933000000    1.7720000000    2.0673000000                    
 INPUT CARD>C      6.0      3.1266000000    1.5492000000    1.2457000000                    
 INPUT CARD>C      6.0      0.9466000000    0.8313000000    2.1592000000                    
 INPUT CARD>C      6.0      4.2980000000    2.4556000000    1.1317000000                    
 INPUT CARD>C      6.0      5.3215000000    4.6159000000    1.8681000000                    
 INPUT CARD>C      6.0      5.3908000000    5.8688000000    1.0695000000                    
 INPUT CARD>C      6.0      6.3353000000    4.2231000000    2.6397000000                    
 INPUT CARD>H      1.0      1.6069000000    2.7064000000    3.9291000000                    
 INPUT CARD>H      1.0      1.2633000000    3.6759000000    2.4895000000                    
   40000000 WORDS OF MEMORY AVAILABLE

     BASIS OPTIONS
     -------------
     GBASIS=N311         IGAUSS=       6      POLAR=POPN311 
     NDFUNC=       1     NFFUNC=       0     DIFFSP=       F
     NPFUNC=       1      DIFFS=       F     BASNAM=        


     RUN TITLE
     ---------
 Limonene, ID: C138863                                                           

 THE POINT GROUP OF THE MOLECULE IS C1      
 THE ORDER OF THE PRINCIPAL AXIS IS     0

 ATOM      ATOMIC                      COORDINATES (BOHR)
           CHARGE         X                   Y                   Z
 C           6.0     3.7955146463        5.6408320733        5.5454009110
 C           6.0     6.3279364425        6.9617505388        5.8530483018
 C           6.0     7.6369496342        7.2453984095        3.2954931500
 C           6.0     3.9557634101        3.3485944502        3.9066305344
 C           6.0     5.9084172732        2.9275635002        2.3540316629
 C           6.0     1.7888146200        1.5709292136        4.0802963527
 C           6.0     8.1220422952        4.6404111354        2.1386029003
 C           6.0    10.0561768437        8.7227861867        3.5301971177
 C           6.0    10.1871348546       11.0904238767        2.0210619439
 C           6.0    11.9719810500        7.9805018187        4.9883096898
 H           1.0     3.0366006897        5.1143544132        7.4249223784
 H           1.0     2.3872908403        6.9464437583        4.7044728464
 H           1.0     6.0556269277        8.8393822802        6.7340385572
 H           1.0     7.5530458003        5.8857405614        7.1681086166
 H           1.0     6.3247239083        8.2983537299        2.0135030399
 H           1.0     5.9630303543        1.2285108646        1.1674727152
 H           1.0     1.6640927048        0.7534337513        5.9847622031
 H           1.0     0.0000000000        2.5545315902        3.7034849907
 H           1.0     1.9375360552        0.0000000000        2.7331106960
 H           1.0     9.7589229458        3.7161461549        3.0698598671
 H           1.0     8.6541891334        4.8524383913        0.1249108878
 H           1.0    11.9984372138       12.0772387875        2.2444275556
 H           1.0     9.9371241064       10.6852666250        0.0000000000
 H           1.0     8.6823460506       12.4034054930        2.5885466580
 H           1.0    13.7171429997        9.0481970018        5.1578181109
 H           1.0    11.9224702291        6.2597173343        6.1087282279

          INTERNUCLEAR DISTANCES (ANGS.)




     $CONTRL OPTIONS
     ---------------
 SCFTYP=RHF          RUNTYP=OPTIMIZE     EXETYP=RUN     
 MPLEVL=       0     CITYP =NONE         CCTYP =NONE         VBTYP =NONE    
 DFTTYP=NONE         TDDFT =NONE    
 MULT  =       1     ICHARG=       0     NZVAR =       1     COORD =UNIQUE  
 PP    =NONE         RELWFN=NONE         LOCAL =NONE         NUMGRD=       F
 ISPHER=      -1     NOSYM =       0     MAXIT =     200     UNITS =ANGS    
 PLTORB=       F     MOLPLT=       F     AIMPAC=       F     FRIEND=        
 NPRINT=       7     IREST =       0     GEOM  =INPUT   
 NORMF =       0     NORMP =       0     ITOL  =      20     ICUT  =       9
 INTTYP=BEST         GRDTYP=BEST         QMTTOL= 1.0E-06

     $SYSTEM OPTIONS
     ---------------
  REPLICATED MEMORY=    40000000 WORDS (ON EVERY NODE).
 DISTRIBUTED MEMDDI=           0 MILLION WORDS IN AGGREGATE,
 MEMDDI DISTRIBUTED OVER   1 PROCESSORS IS           0 WORDS/PROCESSOR.
 TOTAL MEMORY REQUESTED ON EACH PROCESSOR=    40000000 WORDS.
 TIMLIM=       10000.00 MINUTES, OR       6.9 DAYS.
 PARALL= F  BALTYP=  DLB     KDIAG=    0  COREFL= F
 MXSEQ2=     300 MXSEQ3=     150  mem10=         0

     $COSGMS OPTIONS
     ---------------
     EPSI  =   INFTY     NSPA  =      92     COSRAD=    1.40
     DISEX =   10.00     OUTCHG=DBLCAV       COSBUG=       F
     COSWRT=       F     DCOSMO=       F

     SYMMETRY COORDINATES WILL NOT BE USED FOR 
     THE COSMO CALCULATION, EVEN IF SPECIFIED:
         -- SWITCHING TO C1 POINT GROUP --


     DEFINITION OF CAVITY
     ---------------------------
     ATOM         COORDINATES           RADIUS 
     1    3.7955    5.6408    5.5454    2.0000
     2    6.3279    6.9618    5.8530    2.0000
     3    7.6369    7.2454    3.2955    2.0000
     4    3.9558    3.3486    3.9066    2.0000
     5    5.9084    2.9276    2.3540    2.0000
     6    1.7888    1.5709    4.0803    2.0000
     7    8.1220    4.6404    2.1386    2.0000
     8   10.0562    8.7228    3.5302    2.0000
     9   10.1871   11.0904    2.0211    2.0000
    10   11.9720    7.9805    4.9883    2.0000
    11    3.0366    5.1144    7.4249    1.3000
    12    2.3873    6.9464    4.7045    1.3000
    13    6.0556    8.8394    6.7340    1.3000
    14    7.5530    5.8857    7.1681    1.3000
    15    6.3247    8.2984    2.0135    1.3000
    16    5.9630    1.2285    1.1675    1.3000
    17    1.6641    0.7534    5.9848    1.3000
    18    0.0000    2.5545    3.7035    1.3000
    19    1.9375    0.0000    2.7331    1.3000
    20    9.7589    3.7161    3.0699    1.3000
    21    8.6542    4.8524    0.1249    1.3000
    22   11.9984   12.0772    2.2444    1.3000
    23    9.9371   10.6853    0.0000    1.3000
    24    8.6823   12.4034    2.5885    1.3000
    25   13.7171    9.0482    5.1578    1.3000
    26   11.9225    6.2597    6.1087    1.3000

          ----------------
          PROPERTIES INPUT
          ----------------

     MOMENTS            FIELD           POTENTIAL          DENSITY
 IEMOM =       1   IEFLD =       0   IEPOT =       0   IEDEN =       0
 WHERE =COMASS     WHERE =NUCLEI     WHERE =NUCLEI     WHERE =NUCLEI  
 OUTPUT=BOTH       OUTPUT=BOTH       OUTPUT=BOTH       OUTPUT=BOTH    
 IEMINT=       0   IEFINT=       0                     IEDINT=       0
                                                       MORB  =       0
          EXTRAPOLATION IN EFFECT
          SOSCF IN EFFECT
 ORBITAL PRINTING OPTION: NPREO=     1   286     2     1

     -------------------------------
     INTEGRAL TRANSFORMATION OPTIONS
     -------------------------------
     NWORD  =            0
     CUTOFF = 1.0E-09     MPTRAN =       0
     DIRTRF =       T     AOINTS =DUP     

          ----------------------
          INTEGRAL INPUT OPTIONS
          ----------------------
 NOPK  =       1 NORDER=       0 SCHWRZ=       T


 -----------------------------------------------
  STATISTICS ON AUTOMATIC COORDINATE GENERATION 
 -----------------------------------------------
  NUMBER OF USER SPECIFIED BONDS                             0
  NUMBER OF BONDS                                           26
  NUMBER OF ANGLES                                          48
  NUMBER OF TORSIONS                                        65
  NUMBER OF EXTRA COORD.                                     0
  NUMBER OF EXTRA COORD. FOR CONSTRAINTS                     0
  NUMBER OF CONSTRAINED COORD.                               0

  TOTAL NUMBER OF PRIMITIVES                               139
 -----------------------------------------------

   --- ENCODED Z MATRIX ---
 COORD  TYPE   I   J   K   L   M   N
    1      1    1  11
    2      1    1   2
    3      1    1  12
    4      1    1   4
    5      1    2  14
    6      1    2  13
    7      1    2   3
    8      1    3  15
    9      1    3   7
   10      1    3   8
   11      1    4   6
   12      1    4   5
   13      1    5   7
   14      1    5  16
   15      1    6  18
   16      1    6  17
   17      1    6  19
   18      1    7  21
   19      1    7  20
   20      1    8  10
   21      1    8   9
   22      1    9  24
   23      1    9  23
   24      1    9  22
   25      1   10  26
   26      1   10  25
   27      2    1   4   6
   28      2    1   2  14
   29      2    1   2  13
   30      2    1   4   5
   31      2    1   2   3
   32      2    2   1  11
   33      2    2   1  12
   34      2    2   1   4
   35      2    2   3   7
   36      2    2   3  15
   37      2    2   3   8
   38      2    3   2  14
   39      2    3   8  10
   40      2    3   7  20
   41      2    3   7  21
   42      2    3   7   5
   43      2    3   2  13
   44      2    3   8   9
   45      2    4   5   7
   46      2    4   6  19
   47      2    4   6  17
   48      2    4   6  18
   49      2    4   1  11
   50      2    4   5  16
   51      2    4   1  12
   52      2    5   4   6
   53      2    5   7  20
   54      2    5   7  21
   55      2    7   3   8
   56      2    7   3  15
   57      2    7   5  16
   58      2    8   9  22
   59      2    8   9  24
   60      2    8  10  25
   61      2    8  10  26
   62      2    8   3  15
   63      2    8   9  23
   64      2    9   8  10
   65      2   11   1  12
   66      2   13   2  14
   67      2   17   6  19
   68      2   17   6  18
   69      2   18   6  19
   70      2   20   7  21
   71      2   22   9  23
   72      2   22   9  24
   73      2   23   9  24
   74      2   25  10  26
   75      3    1   4   6  19
   76      3    1   2   3   8
   77      3    1   2   3   7
   78      3    1   4   6  17
   79      3    1   2   3  15
   80      3    1   4   5  16
   81      3    1   4   5   7
   82      3    1   4   6  18
   83      3    2   1   4   5
   84      3    2   3   8   9
   85      3    2   3   8  10
   86      3    2   1   4   6
   87      3    2   3   7  20
   88      3    2   3   7  21
   89      3    2   3   7   5
   90      3    3   8  10  25
   91      3    3   8  10  26
   92      3    3   2   1   4
   93      3    3   2   1  12
   94      3    3   8   9  22
   95      3    3   8   9  23
   96      3    3   8   9  24
   97      3    3   2   1  11
   98      3    3   7   5  16
   99      3    3   7   5   4
  100      3    4   1   2  13
  101      3    4   5   7  20
  102      3    4   5   7  21
  103      3    4   1   2  14
  104      3    5   4   1  12
  105      3    5   4   1  11
  106      3    5   4   6  18
  107      3    5   4   6  17
  108      3    5   4   6  19
  109      3    5   7   3   8
  110      3    5   7   3  15
  111      3    6   4   1  11
  112      3    6   4   1  12
  113      3    6   4   5  16
  114      3    6   4   5   7
  115      3    7   3   8  10
  116      3    7   3   2  13
  117      3    7   3   8   9
  118      3    7   3   2  14
  119      3    8   3   7  21
  120      3    8   3   7  20
  121      3    8   3   2  13
  122      3    8   3   2  14
  123      3    9   8  10  26
  124      3    9   8  10  25
  125      3    9   8   3  15
  126      3   10   8   9  23
  127      3   10   8   9  24
  128      3   10   8   9  22
  129      3   10   8   3  15
  130      3   11   1   2  14
  131      3   11   1   2  13
  132      3   12   1   2  13
  133      3   12   1   2  14
  134      3   13   2   3  15
  135      3   14   2   3  15
  136      3   15   3   7  21
  137      3   15   3   7  20
  138      3   16   5   7  21
  139      3   16   5   7  20

          INDEP./SYM. INTERNAL COORDINATES
          --------------------------------
 CRD  1=   0.5403 ( 39) -0.5617 ( 44)  0.1110 ( 61) -0.1412 ( 62) -0.2044 ( 76)
           0.2179 (109) -0.1250 (114)  0.1195 (119)  0.1266 (120) -0.1208 (121)
          -0.1342 (122)
 CRD  2=   0.1653 (  2)  0.1539 (  4)  0.1671 (  7) -0.1655 (  9) -0.1236 ( 12)
          -0.1692 ( 13)  0.3525 ( 27) -0.1004 ( 34)  0.3617 ( 37) -0.1133 ( 46)
          -0.3507 ( 52) -0.3451 ( 55)  0.1892 ( 76) -0.1006 ( 90)  0.1996 (109)
           0.1554 (119)  0.1420 (120)  0.1420 (121)  0.1277 (122)  0.1049 (129)
 CRD  3=   0.1540 (  2)  0.1154 (  7)  0.1076 (  9)  0.4303 ( 10)  0.1623 ( 11)
           0.1533 ( 13) -0.1531 ( 35)  0.2783 ( 39)  0.2845 ( 44)  0.1134 ( 55)
          -0.1496 ( 60)  0.1532 ( 61) -0.5627 ( 64)
 CRD  4=   0.1555 (  4) -0.1184 ( 12)  0.4320 ( 27)  0.1379 ( 36) -0.2547 ( 37)
          -0.1551 ( 46) -0.1067 ( 50) -0.4026 ( 52)  0.2620 ( 55) -0.1372 ( 56)
          -0.1165 ( 76) -0.1323 ( 84) -0.1785 ( 85) -0.1050 (109) -0.1813 (115)
          -0.1351 (117) -0.1176 (119) -0.1259 (121) -0.1186 (125) -0.1647 (129)
 CRD  5=   0.1691 (  7) -0.1107 (  9) -0.2305 ( 27)  0.1077 ( 36) -0.1029 ( 41)
           0.2299 ( 52)  0.1927 ( 59) -0.1512 ( 63) -0.3756 ( 84) -0.3055 ( 85)
          -0.1188 ( 91)  0.1009 ( 94)  0.1183 (109) -0.2855 (115) -0.3556 (117)
          -0.1978 (125) -0.1277 (129)
 CRD  6=  -0.1592 (  9) -0.1501 ( 11) -0.3681 ( 21) -0.1035 ( 27)  0.1014 ( 30)
           0.1484 ( 33) -0.1304 ( 34)  0.1236 ( 35)  0.3263 ( 39) -0.1488 ( 44)
          -0.1990 ( 47)  0.1093 ( 54) -0.1221 ( 60)  0.1557 ( 61)  0.1041 ( 62)
          -0.1221 ( 63) -0.1774 ( 64)  0.1331 ( 76)  0.1651 ( 81) -0.1226 ( 83)
          -0.1730 ( 86) -0.1124 ( 89) -0.1512 (109) -0.1124 (110)  0.1435 (113)
           0.2178 (114) -0.1030 (117)
 CRD  7=  -0.1712 (  2) -0.1441 (  4) -0.1171 ( 10) -0.3989 ( 11) -0.2031 ( 12)
          -0.1993 ( 13) -0.2609 ( 20)  0.2108 ( 30) -0.1385 ( 31)  0.2765 ( 44)
          -0.1138 ( 46) -0.1808 ( 48) -0.1362 ( 52) -0.1927 ( 58) -0.1593 ( 60)
          -0.2997 ( 64)  0.1013 ( 68)  0.1137 ( 69)  0.1070 ( 74) -0.1370 (114)
 CRD  8=  -0.2019 (  4)  0.1916 (  7)  0.1628 (  9)  0.2902 ( 10) -0.3679 ( 11)
          -0.1785 ( 12)  0.2535 ( 20)  0.3141 ( 21) -0.1040 ( 27)  0.2069 ( 30)
           0.1152 ( 33) -0.1368 ( 34) -0.1126 ( 35) -0.1068 ( 44) -0.1756 ( 47)
          -0.1024 ( 52)  0.1859 ( 58)  0.1290 ( 60)  0.1432 ( 64)  0.1120 ( 67)
          -0.1064 ( 74)  0.1015 (114)
 CRD  9=  -0.1265 (  1)  0.1354 (  4) -0.1992 (  7)  0.1738 (  9) -0.2367 ( 12)
           0.1067 ( 14)  0.1203 ( 20)  0.2054 ( 29) -0.3063 ( 31) -0.1535 ( 32)
           0.2855 ( 34)  0.1676 ( 38)  0.2131 ( 42) -0.2166 ( 45)  0.1578 ( 46)
          -0.1568 ( 47) -0.1202 ( 51) -0.1730 ( 54)  0.1356 ( 57)  0.1359 ( 59)
           0.1037 ( 65)  0.1054 ( 76)  0.1488 ( 77) -0.1221 ( 83) -0.1146 ( 86)
 CRD 10=   0.2232 (  4)  0.1295 (  6)  0.3029 (  7)  0.2649 (  9)  0.1003 ( 10)
           0.2756 ( 12)  0.1456 ( 18)  0.1663 ( 20)  0.1095 ( 30) -0.1243 ( 31)
           0.2941 ( 35) -0.1122 ( 36)  0.1349 ( 40) -0.2162 ( 42)  0.1016 ( 43)
           0.1467 ( 47)  0.1562 ( 49) -0.1080 ( 51) -0.1193 ( 55) -0.1090 ( 56)
           0.1346 ( 62) -0.1105 ( 70)  0.1105 ( 80)  0.1205 ( 84)  0.1208 ( 85)
          -0.1399 ( 92) -0.1032 (100)  0.1155 (101) -0.1737 (103) -0.1076 (115)
          -0.1079 (117)
 CRD 11=  -0.2393 (  7) -0.2339 (  9)  0.1492 ( 10) -0.1018 ( 11)  0.3609 ( 20)
           0.3679 ( 47) -0.4122 ( 48)  0.1124 ( 61)  0.1177 ( 62)  0.1410 ( 69)
          -0.1651 ( 74) -0.1369 ( 75)  0.1151 ( 76)  0.1453 ( 86) -0.1068 (109)
           0.1337 (112) -0.1023 (113) -0.1116 (114) -0.1012 (120)  0.1141 (122)
 CRD 12=  -0.2235 (  2)  0.1095 (  4) -0.1790 (  9)  0.1217 ( 12) -0.1960 ( 13)
           0.2630 ( 20)  0.3376 ( 21)  0.1467 ( 25) -0.1378 ( 47)  0.1602 ( 48)
           0.2079 ( 50)  0.1243 ( 51) -0.1826 ( 57) -0.2219 ( 58)  0.1930 ( 59)
          -0.1353 ( 60)  0.2589 ( 61)  0.3237 ( 63) -0.2206 ( 73) -0.1236 ( 74)
          -0.1051 ( 77)
 CRD 13=   0.1600 (  2)  0.2151 (  4)  0.1279 (  7) -0.2911 ( 13) -0.1046 ( 20)
          -0.1126 ( 22)  0.1630 ( 42)  0.2068 ( 46) -0.1499 ( 48)  0.2483 ( 50)
          -0.1317 ( 53) -0.1193 ( 54) -0.2219 ( 57)  0.1063 ( 58) -0.4700 ( 59)
           0.3144 ( 63) -0.1433 ( 71)  0.1323 ( 72) -0.1188 ( 94) -0.1183 (123)
 CRD 14=   0.2640 (  4)  0.1843 (  9)  0.1585 ( 12) -0.2087 ( 13) -0.1106 ( 23)
           0.1345 ( 31) -0.1659 ( 34)  0.1122 ( 46) -0.1990 ( 48)  0.2435 ( 50)
           0.1594 ( 51) -0.1247 ( 53) -0.2031 ( 57)  0.3179 ( 59) -0.4204 ( 63)
           0.1247 ( 71) -0.1485 ( 72)  0.1082 (115)  0.1022 (123)
 CRD 15=   0.5621 (  2)  0.1099 ( 20)  0.2022 ( 28)  0.1234 ( 29)  0.2376 ( 32)
           0.1278 ( 33) -0.1386 ( 38)  0.1128 ( 41)  0.1107 ( 45) -0.1899 ( 47)
           0.1483 ( 48) -0.1292 ( 49) -0.2103 ( 58)  0.1870 ( 59)  0.1120 (104)
          -0.1026 (105) -0.1162 (111) -0.1106 (131)  0.1096 (133)
 CRD 16=  -0.2461 (  4)  0.1058 ( 12) -0.2783 ( 13) -0.1633 ( 17) -0.4846 ( 46)
           0.2602 ( 47)  0.2453 ( 48)  0.2620 ( 50) -0.1413 ( 51)  0.1035 ( 52)
          -0.2948 ( 57)  0.1207 ( 58) -0.2054 ( 68)
 CRD 17=  -0.1215 (  8) -0.2212 ( 10) -0.1191 ( 12) -0.1501 ( 14) -0.1612 ( 20)
           0.2007 ( 21) -0.1487 ( 26) -0.1011 ( 28)  0.1059 ( 29)  0.1678 ( 33)
           0.2141 ( 40) -0.1575 ( 41) -0.1278 ( 43)  0.1157 ( 45)  0.1641 ( 46)
          -0.1865 ( 48)  0.1146 ( 49) -0.2105 ( 51) -0.1473 ( 53)  0.1323 ( 54)
           0.1509 ( 59) -0.2419 ( 60)  0.1604 ( 61) -0.1043 ( 75)  0.1261 ( 80)
           0.1645 ( 81) -0.1064 ( 82) -0.1352 ( 99) -0.1239 (100) -0.1101 (103)
           0.1205 (114)  0.1119 (120)
 CRD 18=   0.1263 (  2) -0.1110 (  7) -0.1336 (  9) -0.1000 ( 20)  0.2001 ( 21)
           0.1570 ( 24)  0.1510 ( 25) -0.1859 ( 26)  0.1040 ( 28) -0.1258 ( 40)
           0.1249 ( 53)  0.5068 ( 58) -0.1629 ( 59) -0.3315 ( 60)  0.2805 ( 61)
          -0.1650 ( 63) -0.1590 ( 71) -0.1545 ( 72)  0.1216 ( 73)
 CRD 19=  -0.1827 (  2) -0.1116 (  3) -0.1314 (  9)  0.1901 ( 10) -0.1029 ( 12)
          -0.1453 ( 13) -0.1879 ( 14) -0.1085 ( 16) -0.1286 ( 29) -0.1059 ( 42)
           0.1153 ( 43)  0.1346 ( 45)  0.1691 ( 46) -0.2643 ( 47)  0.1169 ( 48)
          -0.1245 ( 57)  0.1367 ( 58)  0.1202 ( 62) -0.1828 ( 63) -0.1333 ( 69)
          -0.1177 ( 75) -0.1250 ( 78) -0.1451 ( 82)  0.1246 ( 83)  0.1248 ( 86)
          -0.1522 ( 92) -0.1439 (106) -0.1237 (107) -0.1165 (108)  0.1143 (110)
           0.1100 (116)  0.1310 (121)  0.1117 (123)  0.1079 (125)  0.1288 (129)
 CRD 20=   0.1397 (  4) -0.1204 (  5) -0.1261 (  7)  0.1480 (  9) -0.1250 ( 11)
           0.1798 ( 12)  0.1917 ( 13)  0.3286 ( 14)  0.1002 ( 30) -0.1465 ( 38)
          -0.1404 ( 41)  0.1202 ( 42) -0.2367 ( 45) -0.2417 ( 46)  0.1747 ( 48)
           0.1070 ( 50)  0.1286 ( 57)  0.1393 ( 67) -0.1036 ( 75) -0.1252 ( 78)
           0.1282 ( 83)  0.1219 ( 86)  0.1124 ( 88)  0.1018 ( 89) -0.1275 ( 92)
           0.1041 ( 95)  0.1067 ( 96) -0.1428 ( 99) -0.1030 (106) -0.1326 (107)
          -0.1111 (108)  0.1023 (109)  0.1130 (119)
 CRD 21=  -0.1069 (  4) -0.1314 (  5) -0.1166 (  7)  0.1030 (  8)  0.3391 (  9)
          -0.1102 ( 10)  0.1204 ( 11) -0.1545 ( 14)  0.1274 ( 25) -0.1064 ( 26)
          -0.1326 ( 38)  0.1432 ( 40)  0.1717 ( 41) -0.1345 ( 42)  0.1289 ( 45)
          -0.1445 ( 49) -0.1186 ( 59) -0.1744 ( 60)  0.2090 ( 61)  0.1120 ( 76)
          -0.1713 ( 91)  0.1660 ( 94)  0.1951 ( 95)  0.1828 ( 96) -0.1198 ( 97)
          -0.1195 (102)  0.1157 (103) -0.1560 (123)  0.1809 (126)  0.1686 (127)
           0.1517 (128)
 CRD 22=   0.2018 (  6)  0.3574 (  7)  0.1575 (  8) -0.1758 ( 10)  0.1383 ( 25)
          -0.1191 ( 26)  0.1275 ( 36) -0.1012 ( 40)  0.1130 ( 42)  0.1692 ( 43)
           0.1075 ( 47) -0.1534 ( 49) -0.1856 ( 60)  0.2202 ( 61)  0.1040 ( 76)
           0.1113 ( 79) -0.1171 ( 80)  0.1518 ( 91) -0.1535 ( 94) -0.1605 ( 95)
          -0.1700 ( 96) -0.1227 ( 97)  0.1356 (100) -0.1134 (101) -0.1178 (102)
          -0.1044 (110)  0.1003 (115)  0.1026 (117)  0.1494 (123) -0.1583 (126)
          -0.1677 (127) -0.1513 (128)
 CRD 23=   0.1092 ( 18) -0.1769 ( 28)  0.1472 ( 29)  0.1950 ( 38) -0.2479 ( 40)
           0.2774 ( 41) -0.2003 ( 43)  0.1706 ( 53) -0.1674 ( 54) -0.2236 ( 75)
          -0.2231 ( 78) -0.1174 ( 80) -0.2232 ( 82)  0.1355 ( 93)  0.1274 ( 97)
           0.1361 ( 98) -0.1457 (101) -0.1688 (102) -0.2214 (106) -0.2212 (107)
          -0.2217 (108) -0.1194 (113) -0.1063 (118) -0.1006 (125) -0.1181 (129)
 CRD 24=  -0.2043 (  3)  0.1050 (  8)  0.1179 ( 15) -0.1243 ( 16) -0.1314 ( 28)
          -0.2575 ( 32)  0.1986 ( 33) -0.1334 ( 47)  0.1110 ( 48)  0.1851 ( 49)
          -0.2114 ( 51)  0.1135 ( 67) -0.1051 ( 69)  0.1601 ( 75)  0.2118 ( 78)
           0.2161 ( 82)  0.2111 (104)  0.2432 (105)  0.2299 (106)  0.2257 (107)
           0.1739 (108)  0.2568 (111)  0.2247 (112)
 CRD 25=   0.1003 (  5)  0.2059 (  7) -0.1525 (  9) -0.1126 ( 19)  0.1105 ( 36)
           0.4157 ( 90)  0.2221 ( 91)  0.2524 ( 94)  0.2297 ( 95)  0.2291 ( 96)
           0.2063 (123)  0.3999 (124)  0.1116 (125)  0.2444 (126)  0.2438 (127)
           0.2671 (128)
 CRD 26=  -0.2346 (  1)  0.3178 (  3)  0.1083 (  5) -0.2282 (  8)  0.1869 ( 28)
          -0.1889 ( 29) -0.2459 ( 32)  0.2559 ( 33) -0.1563 ( 38) -0.1538 ( 40)
           0.1496 ( 41)  0.2206 ( 43)  0.1185 ( 47)  0.1141 ( 49)  0.1476 ( 53)
          -0.1598 ( 54) -0.1317 ( 86)  0.1525 (100) -0.1379 (101) -0.1330 (102)
           0.1171 (103)  0.1864 (104)  0.1742 (105)  0.1107 (111)  0.1229 (112)
           0.1477 (114)  0.1118 (131)
 CRD 27=  -0.2722 (  5) -0.1699 (  7)  0.1309 (  9) -0.1191 ( 18)  0.1958 ( 19)
          -0.1368 ( 22)  0.1196 ( 23) -0.1877 ( 36)  0.1558 ( 56) -0.1047 ( 71)
           0.1137 ( 79)  0.3060 ( 90)  0.3192 ( 91) -0.1230 ( 95) -0.1223 ( 96)
           0.1231 (110)  0.3212 (123)  0.3080 (124) -0.2017 (125) -0.1249 (126)
          -0.1242 (127) -0.1998 (129)
 CRD 28=  -0.1401 (  1)  0.2088 (  3)  0.3060 (  5) -0.1133 (  6)  0.5891 (  8)
          -0.1453 ( 18)  0.2637 ( 19)  0.1092 ( 33)  0.1394 ( 40) -0.1085 ( 41)
          -0.1326 ( 74) -0.1412 ( 77)  0.1047 ( 87)  0.1231 ( 88)  0.1186 ( 89)
          -0.1193 (116)
 CRD 29=   0.4118 ( 15)  0.4453 ( 16)  0.4400 ( 17)  0.1062 ( 23)  0.1002 ( 24)
          -0.1037 ( 30) -0.2140 ( 46) -0.2098 ( 47) -0.2348 ( 48)  0.2203 ( 67)
           0.2314 ( 68)  0.2499 ( 69)
 CRD 30=   0.1939 (  8)  0.1048 ( 15)  0.1027 ( 16)  0.1064 ( 17) -0.4387 ( 22)
          -0.4334 ( 23) -0.4413 ( 24)  0.1435 ( 26)  0.2043 ( 58)  0.1829 ( 59)
          -0.1077 ( 61)  0.1871 ( 63) -0.2143 ( 71) -0.2089 ( 72) -0.1879 ( 73)
 CRD 31=   0.1142 (  8)  0.1050 ( 23)  0.5430 ( 25)  0.5184 ( 26) -0.2563 ( 60)
          -0.2344 ( 61)  0.4907 ( 74)
 CRD 32=   0.1450 (  3) -0.1761 (  8)  0.1326 ( 15)  0.2640 ( 18) -0.3321 ( 19)
           0.1128 ( 40) -0.2123 ( 53)  0.1624 ( 54) -0.1629 ( 75) -0.1091 ( 78)
          -0.1369 ( 80) -0.1053 ( 82) -0.1105 ( 89)  0.1982 ( 98)  0.1607 ( 99)
           0.1661 (101)  0.1381 (102) -0.1140 (108)  0.1028 (111)  0.1086 (112)
          -0.1893 (113) -0.1504 (114)  0.1162 (137)  0.1756 (138)  0.2036 (139)
 CRD 33=  -0.3174 (  1)  0.1130 (  3) -0.1990 (  5)  0.4117 (  6)  0.1464 ( 18)
           0.1321 ( 21)  0.1592 ( 22)  0.1322 ( 23) -0.1138 ( 25) -0.1144 ( 28)
           0.1785 ( 29)  0.1154 ( 54)  0.1255 ( 88) -0.1455 ( 93) -0.1470 ( 97)
           0.1186 (104)  0.1040 (105) -0.2093 (116) -0.1930 (118) -0.1718 (121)
          -0.1556 (122) -0.2026 (134) -0.1863 (135)
 CRD 34=   0.3213 ( 15)  0.2668 ( 16) -0.5779 ( 17) -0.2250 ( 67)  0.4138 ( 68)
          -0.1846 ( 69) -0.2353 ( 78)  0.2221 ( 82)  0.2213 (106) -0.2361 (107)
 CRD 35=  -0.3104 ( 22) -0.2666 ( 23)  0.5842 ( 24)  0.2247 ( 71)  0.1761 ( 72)
          -0.4063 ( 73)  0.2356 ( 95) -0.2166 ( 96)  0.2403 (126) -0.2119 (127)
 CRD 36=   0.2482 ( 15) -0.2735 ( 16)  0.4271 ( 22) -0.4321 ( 23) -0.1785 ( 67)
           0.1920 ( 69) -0.3013 ( 71)  0.3097 ( 72)  0.1502 ( 75)  0.2406 ( 94)
          -0.1095 ( 96)  0.1389 (108) -0.1171 (126) -0.1279 (127)  0.2223 (128)
 CRD 37=   0.4163 ( 15) -0.4517 ( 16) -0.2595 ( 22)  0.2761 ( 23) -0.2882 ( 67)
           0.3073 ( 69)  0.1687 ( 71) -0.1890 ( 72)  0.2333 ( 75) -0.1167 ( 82)
          -0.1447 ( 94) -0.1270 (106) -0.1053 (107)  0.2231 (108) -0.1382 (128)
 CRD 38=  -0.2679 (  3)  0.2253 (  5) -0.1124 (  7) -0.1464 ( 15)  0.5705 ( 18)
           0.1353 ( 23)  0.1965 ( 87)  0.1357 ( 88) -0.2188 (101) -0.1465 (102)
           0.1013 (114)  0.1207 (119)  0.1814 (120)  0.1110 (123)  0.1233 (136)
           0.1840 (137) -0.1141 (138) -0.1864 (139)
 CRD 39=   0.3871 (  1)  0.4421 (  3) -0.1067 (  5)  0.3761 ( 18)  0.4544 ( 19)
           0.1893 ( 65)  0.1830 ( 70) -0.1056 ( 88)  0.1349 (102)  0.1005 (105)
           0.1108 (111) -0.1001 (119)  0.1257 (138)
 CRD 40=  -0.4633 (  1) -0.3722 (  3)  0.2127 ( 18)  0.4582 ( 19) -0.1053 ( 41)
          -0.1897 ( 65)  0.1662 ( 70) -0.1574 ( 88)  0.1740 (102) -0.1038 (105)
           0.1161 (112) -0.1374 (119)  0.1076 (131) -0.1448 (136)  0.1552 (138)
 CRD 41=  -0.5523 (  5) -0.6124 (  6) -0.2434 ( 66) -0.1023 (103) -0.1372 (116)
          -0.1161 (121) -0.1173 (130) -0.1052 (133) -0.1269 (134)
 CRD 42=  -0.3210 (  1)  0.2472 (  3)  0.2014 (  5) -0.2479 (  6) -0.1163 (  8)
          -0.2001 ( 11)  0.1864 ( 13) -0.1101 ( 15) -0.1779 ( 16)  0.1013 ( 27)
          -0.1226 ( 30) -0.1145 ( 33)  0.1052 ( 34) -0.1156 ( 43) -0.1359 ( 49)
          -0.1498 ( 57) -0.1442 ( 93) -0.1359 ( 97) -0.1208 (100) -0.1299 (103)
          -0.2396 (130) -0.2305 (131) -0.2388 (132) -0.2479 (133)
 CRD 43=  -0.1344 (  2)  0.1213 (  3)  0.2555 (  5) -0.1589 (  6) -0.1011 (  8)
           0.3187 ( 11) -0.2666 ( 13)  0.1363 ( 14)  0.2439 ( 15)  0.1806 ( 16)
           0.1816 ( 17) -0.1437 ( 27)  0.2013 ( 30)  0.1116 ( 32) -0.1255 ( 34)
          -0.1188 ( 45)  0.1030 ( 47)  0.1224 ( 48) -0.1254 ( 50)  0.2442 ( 57)
          -0.1200 ( 68) -0.1265 ( 69)  0.1135 ( 70) -0.1147 ( 97) -0.1514 (100)
          -0.1030 (103) -0.1473 (130) -0.1956 (131) -0.1478 (132)
 CRD 44=   0.3989 (  4) -0.1080 (  8) -0.1460 ( 12) -0.5620 ( 14) -0.2302 ( 17)
           0.1055 ( 26) -0.2037 ( 27) -0.1761 ( 46)  0.1334 ( 49) -0.1743 ( 50)
           0.1242 ( 51)  0.2106 ( 52)  0.1780 ( 57) -0.1085 ( 93) -0.1144 (132)
          -0.1329 (133)
 CRD 45=   0.1164 (  4)  0.2964 (  8)  0.3800 ( 10) -0.1355 ( 14) -0.2404 ( 20)
           0.1041 ( 22)  0.1162 ( 23) -0.1912 ( 24) -0.4328 ( 26) -0.1870 ( 44)
          -0.1501 ( 58) -0.1735 ( 60)  0.1202 ( 62)  0.2056 ( 64) -0.1234 ( 73)
           0.2691 ( 74)
 CRD 46=  -0.1996 (  8)  0.2364 ( 10)  0.1024 ( 20) -0.1953 ( 21) -0.1792 ( 22)
          -0.1912 ( 23) -0.2172 ( 24)  0.4050 ( 25) -0.1822 ( 26) -0.1955 ( 39)
          -0.1648 ( 58) -0.1412 ( 59)  0.1228 ( 61) -0.1477 ( 63)  0.1075 ( 64)
           0.1702 ( 71)  0.1627 ( 72)  0.1498 ( 73) -0.1250 ( 74) -0.1041 ( 76)
          -0.1146 ( 79)  0.1126 (109)  0.1307 (110)  0.1360 (119)  0.1345 (120)
          -0.1301 (121) -0.1115 (122) -0.1405 (134) -0.1220 (135)  0.1540 (136)
           0.1526 (137)
 CRD 47=  -0.2100 ( 22)  0.1964 ( 23)  0.1641 ( 36) -0.1611 ( 56) -0.1322 ( 71)
           0.1392 ( 72) -0.1192 ( 79) -0.1533 ( 84) -0.4100 ( 90)  0.2125 ( 91)
           0.2263 ( 94)  0.1053 ( 95)  0.1075 ( 96) -0.1112 (110) -0.1501 (117)
           0.4225 (123) -0.2001 (124)  0.2144 (129) -0.1461 (134) -0.1291 (135)
          -0.1333 (136) -0.1262 (137)
 CRD 48=   0.2164 (  1) -0.2934 (  3)  0.2011 (  5) -0.1300 (  6) -0.2125 (  8)
           0.1319 ( 10) -0.1236 ( 15)  0.1197 ( 16) -0.2090 ( 18)  0.2601 ( 19)
          -0.1050 ( 32)  0.1141 ( 74)  0.1043 ( 75) -0.2949 ( 80) -0.1058 ( 86)
          -0.1166 ( 97)  0.2708 ( 98)  0.1687 (105) -0.1005 (107) -0.1445 (113)
          -0.1146 (130)  0.1973 (138)  0.2436 (139)
 CRD 49=  -0.1342 (  2)  0.2112 (  9)  0.1220 ( 10)  0.1056 ( 13) -0.4303 ( 14)
           0.1844 ( 17)  0.1858 ( 30) -0.1724 ( 40) -0.1616 ( 41) -0.1858 ( 45)
           0.1071 ( 46)  0.3589 ( 50) -0.2121 ( 52)  0.1696 ( 53)  0.1691 ( 54)
          -0.1729 ( 57) -0.1263 ( 67) -0.1346 ( 69)  0.1193 ( 88)  0.1044 (119)
          -0.1115 (120) -0.1599 (137) -0.1053 (139)
 CRD 50=   0.1143 (  1)  0.1361 (  4) -0.1024 (  9) -0.1794 ( 11) -0.5566 ( 12)
           0.2816 ( 13)  0.2173 ( 14)  0.1796 ( 15)  0.1768 ( 16)  0.1445 ( 18)
           0.1340 ( 47)  0.1326 ( 48)  0.1723 ( 50) -0.2356 ( 57) -0.1051 ( 65)
          -0.2045 ( 68) -0.1246 ( 70) -0.1094 (133) -0.1074 (135)  0.1001 (139)
 CRD 51=   0.1696 (  1)  0.1030 (  4) -0.1443 (  7) -0.1097 ( 10)  0.2156 ( 11)
          -0.1274 ( 14) -0.1370 ( 15) -0.1205 ( 16) -0.1504 ( 20) -0.1655 ( 21)
           0.1720 ( 25) -0.1742 ( 28) -0.1772 ( 29)  0.1582 ( 32)  0.1652 ( 33)
           0.1251 ( 38)  0.1618 ( 43) -0.1184 ( 46) -0.1033 ( 47) -0.1098 ( 48)
          -0.1640 ( 49)  0.1072 ( 60) -0.1180 ( 65)  0.1438 ( 68)  0.1106 ( 69)
          -0.1607 ( 74)  0.1003 (100)  0.1779 (104)  0.1204 (110) -0.1105 (111)
           0.1663 (112)  0.1133 (116) -0.1275 (118) -0.1582 (122) -0.1066 (130)
          -0.2203 (135)  0.1242 (137)
 CRD 52=  -0.1020 ( 11) -0.1706 ( 20) -0.3459 ( 21)  0.1619 ( 22)  0.1601 ( 23)
           0.1840 ( 24)  0.4865 ( 25) -0.2267 ( 26)  0.1574 ( 58)  0.1764 ( 59)
           0.2796 ( 60) -0.1065 ( 61)  0.1750 ( 63) -0.1852 ( 71) -0.1864 ( 72)
          -0.1696 ( 73) -0.1731 ( 74)
 CRD 53=  -0.2047 (  2)  0.1866 (  4)  0.1024 (  5) -0.1166 (  6) -0.2015 (  8)
           0.2595 ( 11) -0.2242 ( 12)  0.1110 ( 14) -0.1513 ( 16) -0.1676 ( 17)
           0.1155 ( 19)  0.2981 ( 20)  0.1006 ( 24) -0.3223 ( 26) -0.1063 ( 46)
          -0.2137 ( 61)  0.1919 ( 67) -0.1123 ( 70)  0.2263 ( 74)  0.1453 (133)
          -0.1311 (138)
 CRD 54=   0.1769 (  2) -0.1269 (  4) -0.2067 ( 10) -0.2089 ( 11)  0.1708 ( 12)
           0.1347 ( 17)  0.4118 ( 20) -0.1066 ( 22)  0.1982 ( 24) -0.3239 ( 26)
          -0.1054 ( 29)  0.1449 ( 38) -0.2403 ( 61) -0.1029 ( 69) -0.1085 ( 71)
           0.1012 ( 73)  0.2605 ( 74)  0.1026 ( 96) -0.1019 (103)  0.1159 (131)
          -0.1643 (133)  0.1316 (137)
 CRD 55=   0.2365 (  8)  0.1815 ( 11) -0.1343 ( 12)  0.1172 ( 14) -0.1648 ( 15)
           0.1085 ( 16) -0.1058 ( 17)  0.1076 ( 18) -0.1234 ( 19)  0.2856 ( 21)
          -0.1393 ( 22) -0.1532 ( 23)  0.2205 ( 25) -0.2157 ( 26)  0.1358 ( 53)
          -0.1154 ( 58)  0.1926 ( 60) -0.1892 ( 61) -0.1165 ( 62) -0.1178 ( 64)
           0.1725 ( 69)  0.1795 ( 73)  0.1164 ( 75) -0.1035 ( 87)  0.1171 (102)
          -0.1103 (106) -0.1078 (132)  0.1197 (134) -0.1460 (137)  0.1687 (138)
 CRD 56=   0.1588 (  4) -0.1621 (  6) -0.1244 ( 10) -0.2054 ( 11)  0.1894 ( 12)
           0.1886 ( 13) -0.2264 ( 14)  0.1102 ( 18) -0.1372 ( 23) -0.1132 ( 38)
           0.1382 ( 40)  0.1351 ( 41) -0.1388 ( 45) -0.1113 ( 51) -0.1091 ( 53)
          -0.2129 ( 54) -0.1222 ( 56)  0.1472 ( 57)  0.1323 ( 66) -0.1199 ( 67)
          -0.1013 ( 79) -0.1044 ( 88)  0.1408 ( 90) -0.1241 ( 94)  0.1623 (101)
           0.1275 (103)  0.1121 (124)  0.1525 (125)  0.1254 (129) -0.1198 (131)
           0.2008 (133) -0.1152 (134) -0.1739 (135) -0.1108 (136)  0.1680 (139)
 CRD 57=  -0.1546 (  9) -0.1231 ( 11)  0.2231 ( 15) -0.1879 ( 16) -0.1331 ( 18)
           0.1853 ( 19) -0.2467 ( 20)  0.3691 ( 21) -0.1135 ( 22) -0.1036 ( 24)
           0.2278 ( 25)  0.1875 ( 39)  0.1267 ( 41)  0.2162 ( 60) -0.1108 ( 61)
          -0.1122 ( 64)  0.1088 ( 67) -0.1774 ( 69)  0.1319 ( 72) -0.1054 ( 74)
          -0.1581 ( 75) -0.1525 (102) -0.1145 (105)  0.1253 (106)  0.1092 (107)
          -0.1108 (108) -0.1122 (109)
 CRD 58=  -0.1397 (  2)  0.1847 (  3) -0.2058 (  5)  0.1539 (  6)  0.1866 (  7)
          -0.1905 (  9)  0.1763 ( 11) -0.1153 ( 12)  0.2684 ( 13) -0.1081 ( 14)
          -0.1251 ( 15) -0.1231 ( 18)  0.1118 ( 19) -0.1637 ( 22)  0.1413 ( 23)
           0.1051 ( 28)  0.1090 ( 30)  0.1270 ( 41) -0.1464 ( 43) -0.1103 ( 45)
           0.1443 ( 50) -0.1259 ( 53) -0.1290 ( 71)  0.1159 ( 75) -0.1514 ( 80)
           0.1043 ( 87) -0.1273 ( 91)  0.1417 ( 94)  0.1104 ( 97)  0.1126 ( 98)
          -0.1895 (100) -0.1092 (102) -0.1113 (111) -0.1327 (113)  0.1150 (118)
           0.1174 (120)  0.1157 (128) -0.1054 (132)  0.1432 (137)
 CRD 59=  -0.1159 (  1) -0.1161 (  2)  0.2698 (  4)  0.1382 (  7) -0.2695 ( 11)
          -0.1216 ( 13)  0.1212 ( 14)  0.2505 ( 16) -0.1992 ( 17) -0.1151 ( 18)
           0.1420 ( 27) -0.1737 ( 30)  0.1307 ( 32)  0.1646 ( 45)  0.1622 ( 46)
          -0.1262 ( 49) -0.1371 ( 50) -0.1946 ( 51)  0.1014 ( 66) -0.2293 ( 68)
           0.1003 ( 75)  0.1568 ( 78) -0.1347 ( 82)  0.1249 ( 93) -0.1073 (101)
          -0.1519 (106)  0.1396 (107) -0.1118 (131)  0.1603 (133)
 CRD 60=   0.1419 (  7) -0.1081 (  9)  0.1455 ( 13)  0.2517 ( 22) -0.3171 ( 23)
           0.1266 ( 63)  0.1805 ( 71) -0.2141 ( 72) -0.1086 ( 85) -0.1851 ( 90)
           0.2941 ( 91) -0.1522 ( 94)  0.1430 ( 95)  0.2162 ( 96) -0.1167 (115)
           0.2755 (123) -0.2037 (124) -0.1945 (125)  0.1603 (126)  0.2336 (127)
          -0.1348 (128) -0.2121 (129)  0.1276 (137)
 CRD 61=  -0.1344 (  2)  0.1280 (  3)  0.1084 (  4) -0.1300 ( 11) -0.2020 ( 15)
           0.2210 ( 17)  0.1013 ( 20)  0.2052 ( 22) -0.2699 ( 24) -0.1294 ( 30)
           0.1199 ( 44)  0.1351 ( 48) -0.1002 ( 50)  0.1568 ( 52)  0.1555 ( 58)
          -0.1048 ( 59) -0.1400 ( 64) -0.1258 ( 65) -0.1751 ( 67)  0.1195 ( 68)
           0.1392 ( 71) -0.1917 ( 73)  0.1160 ( 75) -0.1547 ( 78)  0.2075 ( 95)
          -0.1312 ( 96)  0.1145 (104) -0.1556 (107)  0.1151 (108)  0.1112 (112)
           0.2108 (126) -0.1279 (127)  0.1012 (134)
 CRD 62=   0.1634 (  4)  0.1640 ( 10) -0.1173 ( 11) -0.1529 ( 13)  0.1223 ( 14)
          -0.1176 ( 16)  0.2581 ( 17) -0.1231 ( 20) -0.1226 ( 22) -0.1409 ( 23)
           0.2852 ( 24) -0.1233 ( 30) -0.1311 ( 44)  0.1259 ( 45) -0.1351 ( 46)
          -0.1140 ( 50)  0.2022 ( 52) -0.1668 ( 58)  0.1049 ( 61)  0.1033 ( 63)
           0.1952 ( 64)  0.1516 ( 68) -0.1102 ( 69) -0.1117 ( 72)  0.1855 ( 73)
          -0.1369 ( 78)  0.1748 ( 82) -0.1751 ( 95)  0.1827 ( 96)  0.1690 (106)
          -0.1428 (107) -0.1745 (126)  0.1832 (127)
 CRD 63=  -0.1357 (  3)  0.1654 (  4)  0.1018 (  5) -0.1216 (  6)  0.2198 (  7)
          -0.1698 ( 10) -0.1853 ( 12)  0.1558 ( 13) -0.1024 ( 15)  0.1488 ( 17)
          -0.1107 ( 18) -0.1677 ( 19)  0.1059 ( 23) -0.1294 ( 27) -0.1470 ( 36)
          -0.1182 ( 38) -0.1125 ( 46)  0.1060 ( 52) -0.1191 ( 57)  0.1031 ( 62)
           0.1262 ( 65)  0.1089 ( 68)  0.2051 ( 70) -0.1516 ( 78) -0.1555 ( 88)
          -0.1247 ( 97)  0.1516 (102)  0.1039 (105) -0.1403 (107)  0.1146 (111)
          -0.1736 (119)  0.1068 (128)  0.1202 (133) -0.1125 (134)  0.1908 (137)
          -0.1661 (139)
 CRD 64=   0.1409 (  1) -0.2626 (  2)  0.1631 (  5)  0.1270 (  6) -0.2302 (  9)
           0.1734 ( 10)  0.1186 ( 13)  0.1132 ( 16)  0.1495 ( 40) -0.1161 ( 49)
          -0.1097 ( 54)  0.1552 ( 56) -0.2223 ( 66)  0.1237 ( 80) -0.1309 ( 82)
          -0.1016 ( 88) -0.1518 ( 98)  0.1452 (100)  0.1403 (101)  0.1346 (104)
          -0.1009 (106)  0.1647 (112) -0.1983 (116) -0.1364 (119) -0.1545 (121)
          -0.1389 (130) -0.1250 (133)  0.2110 (135) -0.1295 (136) -0.1101 (138)
 CRD 65=  -0.1264 (  1)  0.1385 (  2)  0.1233 (  3) -0.1767 (  8) -0.2144 ( 15)
           0.2165 ( 16)  0.1036 ( 19) -0.1605 ( 20)  0.1607 ( 21) -0.1318 ( 28)
          -0.1296 ( 33)  0.1399 ( 39) -0.1469 ( 44) -0.1363 ( 47)  0.1124 ( 48)
           0.1045 ( 49)  0.1348 ( 62) -0.1377 ( 67)  0.1614 ( 69)  0.1535 ( 75)
           0.1668 ( 76) -0.1160 ( 78) -0.1348 ( 82)  0.1046 ( 83)  0.1991 ( 86)
           0.2468 (108) -0.1574 (109) -0.1962 (114) -0.1118 (120)  0.1266 (121)
           0.1644 (131)  0.1070 (132) -0.1556 (138) -0.1087 (139)
 CRD 66=  -0.1782 (  1)  0.2273 (  2) -0.1414 (  3)  0.1533 (  4) -0.2790 (  9)
           0.1718 ( 18) -0.1106 ( 27) -0.1346 ( 29) -0.1522 ( 34)  0.1298 ( 42)
           0.1009 ( 43)  0.2330 ( 65) -0.1967 ( 70)  0.1081 ( 88)  0.1163 ( 93)
          -0.1516 ( 97)  0.1432 (101) -0.1371 (104)  0.1228 (105)  0.1268 (111)
          -0.1332 (112) -0.1150 (120) -0.1333 (122) -0.1294 (124)  0.1197 (128)
          -0.1177 (129) -0.1645 (130) -0.1134 (131)  0.1546 (132)  0.1035 (133)
           0.1658 (134)  0.1163 (136) -0.1165 (138)  0.1232 (139)
 CRD 67=   0.1634 (  1) -0.1422 (  4) -0.1132 (  6)  0.3216 (  7) -0.1428 ( 10)
          -0.1513 ( 13)  0.1315 ( 18)  0.1158 ( 29) -0.1057 ( 32)  0.1392 ( 34)
          -0.1120 ( 36) -0.1083 ( 38)  0.1493 ( 42)  0.1137 ( 62) -0.1347 ( 65)
           0.1214 ( 66) -0.1446 ( 70) -0.1656 ( 87) -0.1667 ( 93)  0.1056 (101)
           0.1945 (103)  0.1065 (104)  0.1626 (110)  0.1054 (117) -0.1986 (120)
          -0.1274 (124)  0.1157 (128) -0.1085 (129)  0.2087 (130) -0.2537 (132)
           0.2381 (136)
 CRD 68=  -0.1762 (  2)  0.1110 (  4)  0.1875 (  6)  0.1331 (  9) -0.2208 ( 10)
          -0.1329 ( 13)  0.2038 ( 31)  0.1108 ( 32) -0.1745 ( 35)  0.1138 ( 37)
           0.1459 ( 62) -0.1986 ( 66) -0.2022 ( 79) -0.2178 ( 87)  0.1613 ( 93)
          -0.1796 (103)  0.1695 (110)  0.2589 (118) -0.1462 (120)  0.2127 (122)
          -0.1724 (130)  0.1828 (132) -0.2690 (134)  0.1992 (136)
 CRD 69=   0.1053 (  1) -0.1878 (  3) -0.1192 (  5)  0.1022 (  6) -0.1242 ( 18)
           0.1664 ( 19)  0.1356 ( 28)  0.1305 ( 33) -0.1016 ( 40) -0.1112 ( 49)
          -0.1077 ( 53)  0.1188 ( 54) -0.1116 ( 56) -0.1202 ( 76) -0.1313 ( 78)
          -0.1679 ( 79)  0.1881 ( 80) -0.1337 ( 82) -0.1542 ( 83) -0.1672 ( 89)
           0.2048 ( 92)  0.2215 ( 99) -0.1348 (110)  0.1796 (111)  0.1257 (112)
          -0.1673 (114)  0.1152 (116) -0.1127 (117)  0.1347 (118)  0.1356 (119)
          -0.1614 (130) -0.2107 (131) -0.1121 (132)  0.1005 (136) -0.2293 (138)
          -0.1973 (139)
 CRD 70=  -0.1845 (  5) -0.2205 (  8) -0.1098 ( 19) -0.1081 ( 29) -0.1154 ( 35)
           0.1260 ( 36)  0.1467 ( 38)  0.1044 ( 39)  0.1125 ( 40) -0.1063 ( 44)
          -0.2503 ( 77) -0.1249 ( 79) -0.1707 ( 84) -0.1302 ( 85) -0.1197 ( 86)
           0.1176 ( 87)  0.2071 ( 89)  0.1467 ( 92)  0.1652 ( 93) -0.1292 ( 98)
          -0.1461 (108)  0.1466 (113)  0.1475 (115)  0.1071 (117) -0.1098 (118)
          -0.1983 (119) -0.1461 (120)  0.2528 (121)  0.1475 (122) -0.1519 (131)
           0.1209 (134)
 CRD 71=   0.1017 (  7) -0.1148 (  9) -0.1128 ( 37)  0.1212 ( 55) -0.1073 ( 59)
           0.1053 ( 63) -0.1093 ( 84)  0.2904 ( 85) -0.3770 ( 91)  0.2259 ( 95)
           0.2231 ( 96)  0.2701 (115) -0.1297 (117) -0.1096 (122)  0.3594 (124)
          -0.2788 (125) -0.1686 (126) -0.1713 (127) -0.3135 (128)  0.1209 (129)
 CRD 72=   0.1646 ( 78) -0.3574 ( 81)  0.1727 ( 82)  0.2839 ( 83) -0.1241 ( 89)
          -0.1448 ( 92)  0.2667 ( 99)  0.1792 (101)  0.1558 (102) -0.1126 (103)
           0.1818 (104)  0.1478 (105) -0.1626 (106) -0.1707 (107) -0.2638 (108)
          -0.1893 (111) -0.1552 (112)  0.3416 (113) -0.1710 (138) -0.1476 (139)

 THE DETERMINANT OF THE G MATRIX IS 10**(   -27)


                     --------------------
                     INTERNAL COORDINATES
                     --------------------

                 - - ATOMS - -         COORDINATE      COORDINATE
 NO.   TYPE    I  J  K  L  M  N        (BOHR,RAD)       (ANG,DEG)
 ----------------------------------------------------------------
   1 STRETCH   1 11                     2.0942135       1.1082101
   2 STRETCH   1  2                     2.8727396       1.5201884
   3 STRETCH   1 12                     2.0963960       1.1093651
   4 STRETCH   1  4                     2.8223397       1.4935180
   5 STRETCH   2 14                     2.0947730       1.1085062
   6 STRETCH   2 13                     2.0918406       1.1069545
   7 STRETCH   2  3                     2.8870504       1.5277614
   8 STRETCH   3 15                     2.1152186       1.1193256
   9 STRETCH   3  7                     2.8913092       1.5300150
  10 STRETCH   3  8                     2.8443665       1.5051740
  11 STRETCH   4  6                     2.8081881       1.4860293
  12 STRETCH   4  5                     2.5299580       1.3387962
  13 STRETCH   5  7                     2.8072036       1.4855083
  14 STRETCH   5 16                     2.0730858       1.0970298
  15 STRETCH   6 18                     2.0758897       1.0985136
  16 STRETCH   6 17                     2.0762573       1.0987082
  17 STRETCH   6 19                     2.0748122       1.0979434
  18 STRETCH   7 21                     2.0935834       1.1078767
  19 STRETCH   7 20                     2.0978283       1.1101230
  20 STRETCH   8 10                     2.5194015       1.3332100
  21 STRETCH   8  9                     2.8107556       1.4873879
  22 STRETCH   9 24                     2.0761380       1.0986450
  23 STRETCH   9 23                     2.0763789       1.0987725
  24 STRETCH   9 22                     2.0747318       1.0979009
  25 STRETCH  10 26                     2.0539932       1.0869265
  26 STRETCH  10 25                     2.0528751       1.0863348
  27 BEND      1  4  6                  2.0201788     115.7477215
  28 BEND      1  2 14                  1.9247402     110.2794892
  29 BEND      1  2 13                  1.9209823     110.0641791
  30 BEND      1  4  5                  2.1356774     122.3653022
  31 BEND      1  2  3                  1.9283692     110.4874162
  32 BEND      2  1 11                  1.9165841     109.8121783
  33 BEND      2  1 12                  1.9270347     110.4109546
  34 BEND      2  1  4                  1.9666302     112.6796093
  35 BEND      2  3  7                  1.9198546     109.9995659
  36 BEND      2  3 15                  1.8802450     107.7301042
  37 BEND      2  3  8                  1.9428956     111.3197172
  38 BEND      3  2 14                  1.9192327     109.9639354
  39 BEND      3  8 10                  2.1430008     122.7849027
  40 BEND      3  7 20                  1.9286245     110.5020450
  41 BEND      3  7 21                  1.9137365     109.6490247
  42 BEND      3  7  5                  1.9678813     112.7512903
  43 BEND      3  2 13                  1.9218905     110.1162162
  44 BEND      3  8  9                  2.0184453     115.6483951
  45 BEND      4  5  7                  2.1581587     123.6533836
  46 BEND      4  6 19                  1.9647336     112.5709442
  47 BEND      4  6 17                  1.9308508     110.6296043
  48 BEND      4  6 18                  1.9323980     110.7182515
  49 BEND      4  1 11                  1.9150716     109.7255178
  50 BEND      4  5 16                  2.1036301     120.5291268
  51 BEND      4  1 12                  1.8870847     108.1219885
  52 BEND      5  4  6                  2.1272481     121.8823356
  53 BEND      5  7 20                  1.8885080     108.2035360
  54 BEND      5  7 21                  1.9135065     109.6358485
  55 BEND      7  3  8                  1.9372316     110.9951953
  56 BEND      7  3 15                  1.8860722     108.0639763
  57 BEND      7  5 16                  2.0212529     115.8092619
  58 BEND      8  9 22                  1.9644037     112.5520435
  59 BEND      8  9 24                  1.9307025     110.6211025
  60 BEND      8 10 25                  2.1424120     122.7511654
  61 BEND      8 10 26                  2.1462339     122.9701462
  62 BEND      8  3 15                  1.8955735     108.6083604
  63 BEND      8  9 23                  1.9311824     110.6486006
  64 BEND      9  8 10                  2.1217392     121.5667021
  65 BEND     11  1 12                  1.8474591     105.8516119
  66 BEND     13  2 14                  1.8471017     105.8311311
  67 BEND     17  6 19                  1.8773480     107.5641156
  68 BEND     17  6 18                  1.8768479     107.5354634
  69 BEND     18  6 19                  1.8782759     107.6172808
  70 BEND     20  7 21                  1.8475817     105.8586357
  71 BEND     22  9 23                  1.8783415     107.6210414
  72 BEND     22  9 24                  1.8781604     107.6106632
  73 BEND     23  9 24                  1.8777799     107.5888656
  74 BEND     25 10 26                  1.9945391     114.2786715
  75 TORSION   1  4  6 19               3.0648824     175.6048259
  76 TORSION   1  2  3  8               3.0665955     175.7029769
  77 TORSION   1  2  3  7              -1.0618248     -60.8380793
  78 TORSION   1  4  6 17              -1.1173377     -64.0187346
  79 TORSION   1  2  3 15               0.9901213      56.7297736
  80 TORSION   1  4  5 16              -3.1360143    -179.6803838
  81 TORSION   1  4  5  7               0.0245678       1.4076290
  82 TORSION   1  4  6 18               0.9616406      55.0979487
  83 TORSION   2  1  4  5              -0.2999461     -17.1856437
  84 TORSION   2  3  8  9              -2.0975086    -120.1783875
  85 TORSION   2  3  8 10               1.0440278      59.8183889
  86 TORSION   2  1  4  6               2.8550927     163.5847642
  87 TORSION   2  3  7 20              -1.3385999     -76.6961235
  88 TORSION   2  3  7 21               2.9145211     166.9897601
  89 TORSION   2  3  7  5               0.7772553      44.5334457
  90 TORSION   3  8 10 25              -3.1409270    -179.9618612
  91 TORSION   3  8 10 26              -0.0002084      -0.0119399
  92 TORSION   3  2  1  4               0.8110661      46.4706620
  93 TORSION   3  2  1 12              -1.3009645     -74.5397764
  94 TORSION   3  8  9 22              -3.1288729    -179.2712146
  95 TORSION   3  8  9 23              -1.0266285     -58.8214788
  96 TORSION   3  8  9 24               1.0526369      60.3116508
  97 TORSION   3  2  1 11               2.9515448     169.1110583
  98 TORSION   3  7  5 16               2.8871809     165.4232809
  99 TORSION   3  7  5  4              -0.2725810     -15.6177405
 100 TORSION   4  1  2 13               2.9373247     168.2963104
 101 TORSION   4  5  7 20               1.8659317     106.9100138
 102 TORSION   4  5  7 21              -2.4099759    -138.0814483
 103 TORSION   4  1  2 14              -1.3143595     -75.3072507
 104 TORSION   5  4  1 12               1.8347323     105.1224168
 105 TORSION   5  4  1 11              -2.4412727    -139.8746215
 106 TORSION   5  4  6 18              -2.1665769    -124.1357103
 107 TORSION   5  4  6 17               2.0376301     116.7476064
 108 TORSION   5  4  6 19              -0.0633351      -3.6288331
 109 TORSION   5  7  3  8               2.9353255     168.1817602
 110 TORSION   5  7  3 15              -1.2710704     -72.8269722
 111 TORSION   6  4  1 11               0.7137661      40.8957865
 112 TORSION   6  4  1 12              -1.2934142     -74.1071752
 113 TORSION   6  4  5 16              -0.0086846      -0.4975935
 114 TORSION   6  4  5  7              -3.1312879    -179.4095807
 115 TORSION   7  3  8 10              -1.1008002     -63.0712081
 116 TORSION   7  3  2 13               3.0956374     177.3669568
 117 TORSION   7  3  8  9               2.0408487     116.9320155
 118 TORSION   7  3  2 14               1.0668462      61.1257825
 119 TORSION   8  3  7 21              -1.2105940     -69.3619254
 120 TORSION   8  3  7 20               0.8194703      46.9521910
 121 TORSION   8  3  2 13               0.9408723      53.9080130
 122 TORSION   8  3  2 14              -1.0879189     -62.3331612
 123 TORSION   9  8 10 26               3.1413247     179.9846495
 124 TORSION   9  8 10 25               0.0006061       0.0347282
 125 TORSION   9  8  3 15              -0.0302193      -1.7314402
 126 TORSION  10  8  9 23               2.1150197     121.1817019
 127 TORSION  10  8  9 24              -2.0889003    -119.6851685
 128 TORSION  10  8  9 22               0.0127752       0.7319662
 129 TORSION  10  8  3 15               3.1113171     178.2653362
 130 TORSION  11  1  2 14               0.8261192      47.3331455
 131 TORSION  11  1  2 13              -1.2053819     -69.0632934
 132 TORSION  12  1  2 13               0.8252942      47.2858719
 133 TORSION  12  1  2 14               2.8567953     163.6823108
 134 TORSION  13  2  3 15              -1.1356018     -65.0651903
 135 TORSION  14  2  3 15               3.1187923     178.6936355
 136 TORSION  15  3  7 21               0.8661954      49.6293422
 137 TORSION  15  3  7 20               2.8962597     165.9434586
 138 TORSION  16  5  7 21               0.7497860      42.9595732
 139 TORSION  16  5  7 20              -1.2574917     -72.0489647

     ------------------------------------------
     THE POINT GROUP IS C1 , NAXIS= 1, ORDER= 1
     ------------------------------------------

     DIMENSIONS OF THE SYMMETRY SUBSPACES ARE
 A   =  286

 ..... DONE SETTING UP THE RUN .....
 STEP CPU TIME =     0.02 TOTAL CPU TIME =        0.0 (    0.0 MIN)
 TOTAL WALL CLOCK TIME=        0.0 SECONDS, CPU UTILIZATION IS  66.67%


          -----------------------------
          STATIONARY POINT LOCATION RUN
          -----------------------------

 OBTAINING INITIAL HESSIAN, HESS=GUESS   
 DIAGONAL GUESS HESSIAN IN INTERNAL COORDS IS
     1  0.3343     2  0.3742     3  0.3336     4  0.3942     5  0.3341
     6  0.3351     7  0.3688     8  0.3272     9  0.3672    10  0.3853
    11  0.3999    12  0.5325    13  0.4003    14  0.3417    15  0.3407
    16  0.3406    17  0.3411    18  0.3345    19  0.3331    20  0.5383
    21  0.3989    22  0.3406    23  0.3405    24  0.3411    25  0.3484
    26  0.3488    27  0.2542    28  0.2236    29  0.2237    30  0.2653
    31  0.2493    32  0.2236    33  0.2235    34  0.2518    35  0.2486
    36  0.2225    37  0.2504    38  0.2231    39  0.2648    40  0.2229
    41  0.2230    42  0.2516    43  0.2232    44  0.2533    45  0.2659
    46  0.2262    47  0.2262    48  0.2262    49  0.2252    50  0.2355
    51  0.2251    52  0.2659    53  0.2255    54  0.2257    55  0.2502
    56  0.2223    57  0.2263    58  0.2262    59  0.2261    60  0.2365
    61  0.2365    62  0.2238    63  0.2261    64  0.2662    65  0.2015
    66  0.2016    67  0.2026    68  0.2025    69  0.2026    70  0.2015
    71  0.2026    72  0.2026    73  0.2025    74  0.2037    75  0.2500
    76  0.2500    77  0.2500    78  0.2500    79  0.2500    80  0.2500
    81  0.2500    82  0.2500    83  0.2500    84  0.2500    85  0.2500
    86  0.2500    87  0.2500    88  0.2500    89  0.2500    90  0.2500
    91  0.2500    92  0.2500    93  0.2500    94  0.2500    95  0.2500
    96  0.2500    97  0.2500    98  0.2500    99  0.2500   100  0.2500
   101  0.2500   102  0.2500   103  0.2500   104  0.2500   105  0.2500
   106  0.2500   107  0.2500   108  0.2500   109  0.2500   110  0.2500
   111  0.2500   112  0.2500   113  0.2500   114  0.2500   115  0.2500
   116  0.2500   117  0.2500   118  0.2500   119  0.2500   120  0.2500
   121  0.2500   122  0.2500   123  0.2500   124  0.2500   125  0.2500
   126  0.2500   127  0.2500   128  0.2500   129  0.2500   130  0.2500
   131  0.2500   132  0.2500   133  0.2500   134  0.2500   135  0.2500
   136  0.2500   137  0.2500   138  0.2500   139  0.2500
 TRANSFORMING HESSIAN TO SYMMETRY COORDINATES

          PARAMETERS CONTROLLING GEOMETRY SEARCH ARE
          METHOD =QA                  UPHESS =BFGS    
          NNEG   =         0          NFRZ   =         3
          NSTEP  =        50          IFOLOW =         1
          HESS   =GUESS               RESTAR =         F
          IHREP  =         0          HSSEND =         F
          NPRT   =         0          NPUN   =         0
          OPTTOL = 5.000E-04          RMIN   = 1.500E-03
          RMAX   = 1.000E-01          RLIM   = 7.000E-02
          DXMAX  = 3.000E-01          PURIFY =         F
          MOVIE  =         F          TRUPD  =         T
          TRMAX  = 5.000E-01          TRMIN  = 5.000E-02
          ITBMAT =         5          STPT   =         F
          STSTEP = 1.000E-02          PROJCT=          F
          FROZEN COORD(S)=   1   2   3


      ***** EQUILIBRIUM GEOMETRY LOCATED *****
            (SUBJECT TO   3 CONSTRAINT(S))
 COORDINATES OF ALL ATOMS ARE (ANGS)
   ATOM   CHARGE       X              Y              Z
 ------------------------------------------------------------
 C           6.0   2.0003060912   2.9922136230   2.9345647148
 C           6.0   3.3476093086   3.6880860727   3.1027167980
 C           6.0   4.0638124129   3.8288758560   1.7548904320
 C           6.0   2.0826741331   1.7606011504   2.0582718219
 C           6.0   3.1102643263   1.5410116495   1.2541545585
 C           6.0   0.9228273558   0.8071597813   2.1560857341
 C           6.0   4.3066885110   2.4481467176   1.1310586126
 C           6.0   5.3501647841   4.6314607646   1.8688900981
 C           6.0   5.3910880539   5.9010218049   1.0604216958
 C           6.0   6.3462218940   4.2231418304   2.6371859872
 H           1.0   1.6080850395   2.7125859855   3.9096489636
 H           1.0   1.2721021872   3.6806230957   2.5051239245
 H           1.0   3.2095979262   4.6674952513   3.5528742227
 H           1.0   3.9695738416   3.1104889528   3.7813519044
 H           1.0   3.3901517926   4.3683037872   1.0922684866
 H           1.0   3.1248792110   0.6477254417   0.6484039161
 H           1.0   0.8553867042   0.3963863277   3.1612789261
 H           1.0  -0.0152912360   1.3205715103   1.9568527445
 H           1.0   1.0226863177  -0.0141161250   1.4555906503
 H           1.0   5.1617128121   1.9721368877   1.6049274598
 H           1.0   4.5747014232   2.5656298048   0.0829358710
 H           1.0   6.3303332976   6.4301792126   1.1687510562
 H           1.0   5.2362723979   5.6771881441   0.0068162081
 H           1.0   4.5812849447   6.5622531437   1.3626430929
 H           1.0   7.2647799866   4.7746102823   2.7379062708
 H           1.0   6.2748003987   3.3058606484   3.1984657586


                     --------------------
                     INTERNAL COORDINATES
                     --------------------

                 - - ATOMS - -         COORDINATE      COORDINATE
 NO.   TYPE    I  J  K  L  M  N        (BOHR,RAD)       (ANG,DEG)
 ----------------------------------------------------------------
   1 STRETCH   1 11                     2.0552178       1.0875745
   2 STRETCH   1  2                     2.8831420       1.5256931
   3 STRETCH   1 12                     2.0602416       1.0902330
   4 STRETCH   1  4                     2.8606376       1.5137843
   5 STRETCH   2 14                     2.0536409       1.0867400
   6 STRETCH   2 13                     2.0535777       1.0867066
   7 STRETCH   2  3                     2.8965281       1.5327767
   8 STRETCH   3 15                     2.0561304       1.0880574
   9 STRETCH   3  7                     2.8997092       1.5344601
  10 STRETCH   3  8                     2.8732790       1.5204739
  11 STRETCH   4  6                     2.8433077       1.5046138
  12 STRETCH   4  5                     2.5004194       1.3231650
  13 STRETCH   5  7                     2.8468316       1.5064785
  14 STRETCH   5 16                     2.0397731       1.0794015
  15 STRETCH   6 18                     2.0556813       1.0878198
  16 STRETCH   6 17                     2.0559806       1.0879781
  17 STRETCH   6 19                     2.0485530       1.0840476
  18 STRETCH   7 21                     2.0564131       1.0882070
  19 STRETCH   7 20                     2.0546837       1.0872919
  20 STRETCH   8 10                     2.4992530       1.3225478
  21 STRETCH   8  9                     2.8453282       1.5056829
  22 STRETCH   9 24                     2.0565444       1.0882765
  23 STRETCH   9 23                     2.0563778       1.0881884
  24 STRETCH   9 22                     2.0474764       1.0834779
  25 STRETCH  10 26                     2.0366484       1.0777480
  26 STRETCH  10 25                     2.0335515       1.0761092
  27 BEND      1  4  6                  2.0219271     115.8478876
  28 BEND      1  2 14                  1.9090200     109.3787914
  29 BEND      1  2 13                  1.9225803     110.1557391
  30 BEND      1  4  5                  2.1283076     121.9430421
  31 BEND      1  2  3                  1.9364977     110.9531462
  32 BEND      2  1 11                  1.9144467     109.6897156
  33 BEND      2  1 12                  1.9233029     110.1971408
  34 BEND      2  1  4                  1.9679924     112.7576604
  35 BEND      2  3  7                  1.9270870     110.4139543
  36 BEND      2  3 15                  1.8668533     106.9628138
  37 BEND      2  3  8                  1.9582862     112.2015356
  38 BEND      3  2 14                  1.9076458     109.3000524
  39 BEND      3  8 10                  2.1150223     121.1818500
  40 BEND      3  7 20                  1.9190093     109.9511344
  41 BEND      3  7 21                  1.9107161     109.4759704
  42 BEND      3  7  5                  1.9637346     112.5137059
  43 BEND      3  2 13                  1.9185795     109.9265059
  44 BEND      3  8  9                  2.0128646     115.3286473
  45 BEND      4  5  7                  2.1730514     124.5066722
  46 BEND      4  6 19                  1.9466411     111.5343198
  47 BEND      4  6 17                  1.9252688     110.3097778
  48 BEND      4  6 18                  1.9324248     110.7197834
  49 BEND      4  1 11                  1.9065057     109.2347298
  50 BEND      4  5 16                  2.0816319     119.2687238
  51 BEND      4  1 12                  1.8986996     108.7874740
  52 BEND      5  4  6                  2.1329451     122.2087528
  53 BEND      5  7 20                  1.9021251     108.9837412
  54 BEND      5  7 21                  1.9169786     109.8347826
  55 BEND      7  3  8                  1.9514646     111.8106860
  56 BEND      7  3 15                  1.8718375     107.2483891
  57 BEND      7  5 16                  2.0283122     116.2137312
  58 BEND      8  9 22                  1.9624035     112.4374362
  59 BEND      8  9 24                  1.9208777     110.0581825
  60 BEND      8 10 25                  2.1400761     122.6173271
  61 BEND      8 10 26                  2.1122665     121.0239582
  62 BEND      8  3 15                  1.8836470     107.9250235
  63 BEND      8  9 23                  1.9204546     110.0339455
  64 BEND      9  8 10                  2.1552853     123.4887504
  65 BEND     11  1 12                  1.8489933     105.9395109
  66 BEND     13  2 14                  1.8681824     107.0389656
  67 BEND     17  6 19                  1.8930329     108.4627930
  68 BEND     17  6 18                  1.8691525     107.0945502
  69 BEND     18  6 19                  1.8951039     108.5814548
  70 BEND     20  7 21                  1.8476799     105.8642590
  71 BEND     22  9 23                  1.8971530     108.6988609
  72 BEND     22  9 24                  1.8971071     108.6962281
  73 BEND     23  9 24                  1.8629286     106.7379438
  74 BEND     25 10 26                  2.0308391     116.3585095
  75 TORSION   1  4  6 19               3.0776412     176.3358528
  76 TORSION   1  2  3  8               3.0497509     174.7378524
  77 TORSION   1  2  3  7              -1.0438151     -59.8061993
  78 TORSION   1  4  6 17              -1.1006475     -63.0624574
  79 TORSION   1  2  3 15               0.9873697      56.5721143
  80 TORSION   1  4  5 16               3.1408452     179.9571746
  81 TORSION   1  4  5  7               0.0210164       1.2041505
  82 TORSION   1  4  6 18               0.9652347      55.3038764
  83 TORSION   2  1  4  5              -0.2989624     -17.1292832
  84 TORSION   2  3  8  9              -2.0700314    -118.6040643
  85 TORSION   2  3  8 10               1.0662392      61.0910086
  86 TORSION   2  1  4  6               2.8461344     163.0714870
  87 TORSION   2  3  7 20              -1.3707895     -78.5404507
  88 TORSION   2  3  7 21               2.8895192     165.5572536
  89 TORSION   2  3  7  5               0.7528199      43.1334017
  90 TORSION   3  8 10 25              -3.1373243    -179.7554390
  91 TORSION   3  8 10 26               0.0072503       0.4154122
  92 TORSION   3  2  1  4               0.8031194      46.0153511
  93 TORSION   3  2  1 12              -1.3220959     -75.7505146
  94 TORSION   3  8  9 22              -3.1323056    -179.4678885
  95 TORSION   3  8  9 23              -1.0149335     -58.1514048
  96 TORSION   3  8  9 24               1.0332679      59.2018920
  97 TORSION   3  2  1 11               2.9319875     167.9905078
  98 TORSION   3  7  5 16               2.9056743     166.4828739
  99 TORSION   3  7  5  4              -0.2570801     -14.7296040
 100 TORSION   4  1  2 13               2.9317010     167.9740938
 101 TORSION   4  5  7 20               1.8760998     107.4926031
 102 TORSION   4  5  7 21              -2.3902442    -136.9509060
 103 TORSION   4  1  2 14              -1.3027040     -74.6394417
 104 TORSION   5  4  1 12               1.8401027     105.4301178
 105 TORSION   5  4  1 11              -2.4323033    -139.3607156
 106 TORSION   5  4  6 18              -2.1728436    -124.4947691
 107 TORSION   5  4  6 17               2.0444594     117.1388971
 108 TORSION   5  4  6 19              -0.0604371      -3.4627926
 109 TORSION   5  7  3  8               2.9462949     168.8102631
 110 TORSION   5  7  3 15              -1.2752598     -73.0670067
 111 TORSION   6  4  1 11               0.7127934      40.8400546
 112 TORSION   6  4  1 12              -1.2979859     -74.3691121
 113 TORSION   6  4  5 16              -0.0044745      -0.2563718
 114 TORSION   6  4  5  7              -3.1243034    -179.0093959
 115 TORSION   7  3  8 10              -1.1099730     -63.5967667
 116 TORSION   7  3  2 13               3.1084553     178.1013701
 117 TORSION   7  3  8  9               2.0369417     116.7081603
 118 TORSION   7  3  2 14               1.0628213      60.8951765
 119 TORSION   8  3  7 21              -1.2001911     -68.7658850
 120 TORSION   8  3  7 20               0.8226856      47.1364107
 121 TORSION   8  3  2 13               0.9188359      52.6454218
 122 TORSION   8  3  2 14              -1.1267980     -64.5607718
 123 TORSION   9  8 10 26              -3.1401102    -179.9150628
 124 TORSION   9  8 10 25              -0.0014995      -0.0859141
 125 TORSION   9  8  3 15              -0.0176253      -1.0098547
 126 TORSION  10  8  9 23               2.1321186     122.1613957
 127 TORSION  10  8  9 24              -2.1028653    -120.4853075
 128 TORSION  10  8  9 22               0.0147465       0.8449120
 129 TORSION  10  8  3 15               3.1186454     178.6852183
 130 TORSION  11  1  2 14               0.8261641      47.3357150
 131 TORSION  11  1  2 13              -1.2226162     -70.0507495
 132 TORSION  12  1  2 13               0.8064857      46.2082282
 133 TORSION  12  1  2 14               2.8552660     163.5946927
 134 TORSION  13  2  3 15              -1.1435452     -65.5203164
 135 TORSION  14  2  3 15               3.0940061     177.2734901
 136 TORSION  15  3  7 21               0.8614395      49.3568452
 137 TORSION  15  3  7 20               2.8843161     165.2591409
 138 TORSION  16  5  7 21               0.7725102      44.2615719
 139 TORSION  16  5  7 20              -1.2443311     -71.2949190

          INTERNUCLEAR DISTANCES (ANGS.)


 =====================================================
   GAMESS/COSab RESULTS
 =====================================================

   Dielectric Constant                  = INFTY
   Basic Grid Size                      =                 1082
   Number of Segments                   =                   92
   Number of Segments located on spheres=                  308
   Number of Segments of the cavity     =                  815
   Solvent Radius (rsolv)               = 1.40
   Outlying Charge Error Method         = double cavity

 =====================================================

  Total solvated Energy (a.u.)          =  -388.0656922465
  Total Energy corrected (a.u.)         =  -388.0656094254

  Outlying charge effect (a.u.)         =     0.0000828211
  Outlying charge effect (kcal/mol)     =     0.0519710835

  Dielectric Energy (a.u.)              =    -0.0047800181
  Dielectric energy corr. (a.u.)        =    -0.0046971970

  Sum of polarization charges           =     0.0299446257
  Sum of polarization charges(cor.)     =    -0.0299446257

  Total surface area of cavity (A**2)   =  195.57
  Total volume of cavity (A**3)         =  204.99

 =====================================================
 NPS=                   815
NR.  ATOM  (X, Y, Z)(a.u.)                  CHARGE(e)  AREA(A**2) SIGMA(e/A**2)
   1   1   2.460600   8.481150   7.679326   0.000301   0.185824   0.001621
   2   1   0.129884   6.201042   6.359078   0.001217   0.325193   0.003742
   3   1   0.364892   5.890679   7.147152   0.000980   0.278737   0.003515
   4   1   2.016720   7.723250   8.171361   0.000815   0.325193   0.002505
   5   1   4.814989   3.133417   8.164194   0.000115   0.185824   0.000617
   6   1   2.918216   7.788845   8.543166   0.000339   0.232280   0.001461
   7   1   1.454797   8.085977   7.267499   0.000933   0.278737   0.003346
   8   1   0.584860   7.062388   6.992177   0.001357   0.278737   0.004869
   9   1   2.057309   8.734423   6.898394   0.000444   0.232280   0.001909
  10   1   1.130808   7.312067   7.671114   0.001112   0.278737   0.003988
  11   1   5.073494   3.611426   8.450208   0.000045   0.046456   0.000964
  12   2   5.456082   7.000757   9.541106   0.000382   0.185824   0.002058
  13   2   7.872431   8.680300   8.857616   0.000667   0.139368   0.004785
  14   2   5.750019   7.960601   9.464679   0.001012   0.325193   0.003112
  15   2   4.565847  10.119053   4.738129   0.000017   0.092912   0.000178
  16   2   4.813344   7.947151   9.185938   0.000457   0.232280   0.001969
  17   2   6.587070   7.227136   9.624894   0.001098   0.278737   0.003941
  18   2   7.791471   7.952964   9.205371   0.001581   0.325193   0.004863
  19   2   6.115252   6.243653   9.566389   0.000668   0.278737   0.002396
  20   2   6.837614   8.102891   9.432302   0.001268   0.278737   0.004549
  21   2   4.282754  10.030882   5.004882   0.000028   0.046456   0.000606
  22   4   2.083618   4.327861   0.750705   0.001481   0.185824   0.007971
  23   4   1.728316   5.051272   1.352080   0.000939   0.232280   0.004041
  24   4   2.179907   5.655362   1.485308   0.000514   0.092912   0.005533
  25   4   5.913775   1.557270   6.580162   0.001849   0.185824   0.009952
  26   4   5.619093   0.733275   6.062748   0.001827   0.232280   0.007868
  27   4   5.180279   1.570788   6.996144   0.001223   0.325193   0.003762
  28   4   2.509300   5.299475   0.998339   0.002211   0.232280   0.009517
  29   5   8.399542   0.151581   2.920766   0.000829   0.232280   0.003569
  30   5   4.462700   3.167500  -1.125306   0.002297   0.371649   0.006180
  31   5   4.975463   2.291392  -1.247340   0.001268   0.278737   0.004550
  32   5   6.185615  -0.767947   3.174129   0.000680   0.139368   0.004879
  33   5   8.372165   0.100799   1.972868   0.000575   0.278737   0.002063
  34   5   7.826801  -0.123050   3.498075   0.001423   0.278737   0.005106
  35   5   6.572227  -0.421385   4.009997   0.002265   0.325193   0.006965
  36   5   3.587172   2.731677  -0.630972   0.003018   0.371649   0.008121
  37   5   5.616875   2.992878  -1.399576   0.001310   0.325193   0.004027
  38   5   8.145524   0.590333   4.306485   0.001441   0.278737   0.005171
  39   5   7.889491   1.461373   5.221629   0.002636   0.278737   0.009457
  40   5   7.293893   0.963763   5.282433   0.001902   0.232280   0.008187
  41   5   6.724905   0.191306   4.852655   0.002492   0.185824   0.013412
  42   5   3.689475   4.031348  -0.501206   0.004522   0.464561   0.009733
  43   5   4.962009   4.301442  -1.023480   0.002203   0.464561   0.004742
  44   5   3.956710   1.777623  -0.680827   0.001149   0.232280   0.004948
  45   5   7.212912  -0.547452   3.099776   0.001825   0.325193   0.005612
  46   5   6.521262   2.118520  -1.268687   0.000179   0.185824   0.000961
  47   5   4.163569   5.014601  -0.261724   0.003073   0.278737   0.011023
  48   5   7.409950   0.198308   4.508077   0.002167   0.278737   0.007775
  49   6  -1.057397   0.331926   1.835470   0.001819   0.418105   0.004350
  50   6   4.040694  -1.294401   5.103092   0.001167   0.371649   0.003141
  51   6  -1.686751   0.958736   5.555577   0.001308   0.371649   0.003519
  52   6   0.423145  -2.007546   4.316807   0.001106   0.371649   0.002976
  53   6   1.431128   1.561456   0.308087   0.000253   0.092912   0.002722
  54   6   0.569452   3.273892   0.936345   0.000906   0.325193   0.002785
  55   6   1.016857   2.339105   0.455920   0.000785   0.325193   0.002414
  56   6   0.083726   1.334787   0.684449   0.001460   0.371649   0.003930
  57   6   0.750783  -1.888676   5.356060   0.001170   0.371649   0.003149
  58   6  -1.136185   0.849541   6.426570   0.000975   0.278737   0.003497
  59   6   3.589191  -1.207996   5.920527   0.000550   0.232280   0.002369
  60   6  -0.739921   1.344744   1.231466   0.000878   0.232280   0.003779
  61   6  -0.254509   0.403031   1.069223   0.001035   0.278737   0.003714
  62   6   4.410310  -0.568022   5.745468   0.000217   0.092912   0.002333
  63   6  -0.747089   2.920227   6.550981   0.000953   0.232280   0.004101
  64   6  -1.229351   1.995434   6.359794   0.001673   0.371649   0.004503
  65   6  -1.318413  -0.196609   5.467769   0.001103   0.464561   0.002374
  66   6  -0.547718  -1.391929   4.797201   0.000921   0.464561   0.001982
  67   6   1.763774  -2.188917   4.773222   0.001599   0.371649   0.004303
  68   6   3.099430  -1.858644   5.072213   0.000895   0.232280   0.003851
  69   6   3.836745  -1.619518   4.193958   0.000538   0.185824   0.002894
  70   6  -1.799202   0.234810   4.329901   0.000745   0.371649   0.002004
  71   6  -1.598585   0.092742   3.044942   0.001045   0.418105   0.002500
  72   6  -0.908232  -0.700529   2.559122   0.001202   0.464561   0.002587
  73   6  -0.392109  -1.548755   3.553032   0.000597   0.325193   0.001835
  74   6   0.026345   2.368529   0.815069   0.000740   0.232280   0.003184
  75   6   1.063872   1.236118   0.367896   0.000592   0.185824   0.003185
  76   6  -0.574781  -0.982315   5.692972   0.000519   0.278737   0.001861
  77   6  -0.484287   2.246531   7.040760   0.000478   0.139368   0.003431
  78   6   4.089670  -0.492215   6.244932   0.000358   0.139368   0.002571
  79   6   2.454505  -1.895448   5.515820   0.001083   0.278737   0.003884
  80   6  -1.274773  -0.748573   4.038261   0.000628   0.418105   0.001501
  81   6   3.045839  -2.012271   4.347729   0.000615   0.185824   0.003311
  82   7   9.730079   1.688989   0.370151   0.000264   0.232280   0.001135
  83   7  11.477917   4.636990   0.367586   0.000975   0.278737   0.003499
  84   7   6.086790   5.885869  -0.776102   0.000175   0.092912   0.001883
  85   7   6.372252   5.563358  -1.069902   0.000057   0.046456   0.001235
  86   7  11.670030   3.955969   0.969941   0.000749   0.185824   0.004030
  87   7  10.180080   1.574658   1.241041   0.000650   0.371649   0.001750
  88   7  10.412676   2.387944   0.112073   0.001274   0.371649   0.003428
  89   7  11.234286   3.547274   0.257012   0.001325   0.278737   0.004753
  90   7   9.499709   2.150897  -0.373302   0.000530   0.278737   0.001902
  91   7   6.545804   6.316103  -0.844610   0.000042   0.046456   0.000909
  92   7  11.031111   2.736100   0.606398   0.001119   0.278737   0.004014
  93   8   9.507981  11.251632   6.301937   0.000930   0.139368   0.006673
  94   8  12.341010   7.563154   0.721977   0.001363   0.185824   0.007335
  95   9   7.818856  12.885884  -0.376060   0.001757   0.418105   0.004202
  96   9  10.656956  13.007729   5.262403   0.000550   0.278737   0.001972
  97   9  13.313141   9.895629   0.289565   0.000577   0.232280   0.002485
  98   9  11.706158  12.829665  -1.022915   0.001284   0.418105   0.003070
  99   9   9.970137  14.922157   1.870659   0.000979   0.371649   0.002633
 100   9   7.032161  11.901729   0.063839   0.000555   0.139368   0.003979
 101   9  11.015229  14.834394   2.189412   0.001013   0.371649   0.002727
 102   9  12.438419  12.988862  -0.413091   0.000753   0.278737   0.002702
 103   9  13.647887  10.662621   0.564329   0.000439   0.232280   0.001889
 104   9  11.536706  13.346534   4.768945   0.000784   0.325193   0.002410
 105   9   7.377712  11.697732  -0.463842   0.000502   0.185824   0.002702
 106   9   7.104554  12.400085   0.209694   0.000622   0.185824   0.003347
 107   9  13.005462  10.462257  -0.418807   0.001176   0.325193   0.003618
 108   9  12.515332  11.884560  -0.882034   0.001129   0.278737   0.004051
 109   9  11.351735  13.912510  -0.299371   0.000852   0.464561   0.001833
 110   9  10.529077  14.709941   0.777550   0.000781   0.464561   0.001680
 111   9  10.395777  14.724060   3.219023   0.001466   0.371649   0.003945
 112   9  10.603665  13.798447   4.669231   0.000723   0.232280   0.003112
 113   9   9.645964  13.033976   5.235999   0.000771   0.371649   0.002074
 114   9  12.612224   9.467473  -0.356280   0.000768   0.325193   0.002362
 115   9  10.411145  13.381895  -1.038934   0.000703   0.418105   0.001680
 116   9   8.988062  13.431108  -0.761553   0.000941   0.418105   0.002250
 117   9   8.401229  13.898618   0.121027   0.001055   0.464561   0.002270
 118   9   9.274714  14.655059   0.920120   0.000488   0.325193   0.001501
 119   9  11.470703  14.443494   0.662368   0.000373   0.278737   0.001338
 120   9  13.112810  11.431592  -0.372922   0.000988   0.278737   0.003546
 121   9  11.164361  14.280175   3.885565   0.001092   0.325193   0.003358
 122   9  11.925177   8.876110  -0.463634   0.000118   0.139368   0.000846
 123   9  12.455815  10.908121  -1.009508   0.000529   0.185824   0.002845
 124   9   9.890066  14.207212  -0.200007   0.000596   0.464561   0.001282
 125   9  10.087262  14.146864   4.306278   0.000767   0.232280   0.003302
 126  10  11.749538  11.267254   6.833666   0.002051   0.232280   0.008831
 127  10  13.090485   8.541965   8.556198   0.001280   0.371649   0.003444
 128  10  14.972074   5.889985   6.001679   0.000570   0.278737   0.002044
 129  10  14.654201   7.107385   2.446262   0.003054   0.418105   0.007304
 130  10  15.199722   7.984866   2.983849   0.002061   0.371649   0.005546
 131  10  15.411133   6.950309   6.223163   0.000466   0.371649   0.001254
 132  10  13.957838   9.050514   8.029440   0.001117   0.418105   0.002672
 133  10  12.797661  11.338502   6.519952   0.001162   0.232280   0.005002
 134  10  12.208688  10.902121   7.371470   0.002044   0.278737   0.007332
 135  10  12.702406   9.790746   8.224501   0.002446   0.464561   0.005265
 136  10  14.019799   7.703118   8.161263   0.000859   0.371649   0.002311
 137  10  14.698345   6.715773   7.299501   0.000596   0.371649   0.001604
 138  10  15.344730   6.234866   4.970484   0.001843   0.603929   0.003051
 139  10  15.190128   6.662720   3.459243   0.002348   0.464561   0.005054
 140  10  14.431680   8.227240   2.107014   0.001530   0.232280   0.006585
 141  10  11.027669  10.772013   7.341727   0.003145   0.278737   0.011282
 142  10  10.613260  10.067907   7.816332   0.002764   0.232280   0.011898
 143  10  10.980029   8.924467   8.500362   0.002078   0.278737   0.007455
 144  10  12.032359   8.837457   8.664370   0.001826   0.371649   0.004914
 145  10  12.996679   7.436519   8.586346   0.001033   0.371649   0.002779
 146  10  11.969808   7.212692   8.684101   0.000920   0.232280   0.003960
[...]
 556   6  -0.946813   3.458033   5.899585   0.000004   0.082903   0.000052
 557  19   3.590013  -1.779924   3.204506  -0.000174   0.070734  -0.002459
 558  19   2.582338  -2.194047   3.546391  -0.000366   0.158075  -0.002318
 559  19   1.213320  -2.224532   3.386974  -0.000476   0.158075  -0.003014
 560  19   0.207010  -1.686869   2.613146  -0.000499   0.158075  -0.003154
 561  19   0.003859  -0.816386   1.563601  -0.000439   0.158075  -0.002775
 562  19   0.692785   0.005915   0.697717  -0.000332   0.158075  -0.002100
 563  19   1.696096   0.425119   0.349253  -0.000152   0.070734  -0.002150
 564   6   3.328290  -1.834230   3.746721  -0.000173   0.154072  -0.001125
 565   6   1.839711  -2.200657   3.964131  -0.000059   0.154072  -0.000382
 566   6   0.426235  -1.898853   3.408789  -0.000254   0.154072  -0.001648
 567   6  -0.293473  -1.060914   2.323763  -0.000267   0.154072  -0.001732
 568   6  -0.004405  -0.053596   1.183957  -0.000113   0.154072  -0.000735
 569   6   1.166917   0.682206   0.488254  -0.000155   0.154072  -0.001006
 570   7  11.765710   5.877898   0.954242   0.000937   0.100910   0.009285
 571   8  12.169577   6.584524   1.142886   0.001243   0.100910   0.012318
 572  10  12.478570   6.461091   1.420787   0.001902   0.100910   0.018849
 573   7  11.211321   5.777136   0.193660   0.000069   0.061427   0.001118
 574   8  11.486463   6.504817   0.494566   0.000361   0.061427   0.005879
 575  21  11.057764   5.758842  -0.069180  -0.000037   0.061427  -0.000609
 576   8  12.015509   6.689486   0.787129   0.000850   0.123555   0.006881
 577   7  11.478041   5.705001   0.376488   0.000452   0.123555   0.003657
 578   7  11.981171   4.323360   1.802093   0.000332   0.088271   0.003760
 579  10  12.594717   4.948427   2.346650   0.001145   0.088271   0.012975
 580  20  12.061093   4.167437   2.053688   0.000081   0.088271   0.000922
 581  10  12.928446   5.659145   1.956624   0.005277   0.503459   0.010482
 582   7  11.892927   5.040554   1.060585   0.002432   0.503459   0.004830
 583   7   6.842692   6.700908  -0.768216   0.000012   0.038128   0.000319
 584  15   6.587701   7.331571  -0.476106  -0.000018   0.038128  -0.000473
 585  21   7.068936   6.589815  -0.937686  -0.000104   0.038128  -0.002730
 586  15   5.949399   7.595758  -0.281661  -0.000536   0.215504  -0.002489
 587   7   6.105272   6.518042  -0.552129   0.000392   0.303777   0.001292
 588   7   8.209821   2.334266  -0.891348  -0.000032   0.036201  -0.000873
 589  16   7.670119   1.794242  -0.778040  -0.000069   0.036201  -0.001903
 590  21   8.291588   2.575850  -1.055934  -0.000058   0.036201  -0.001602
 591  16   7.614379   1.127110  -0.598605  -0.000703   0.195220  -0.003602
 592  16   8.096255   0.598550   0.193145  -0.000681   0.195220  -0.003489
 593   7   8.671617   1.646852  -0.176148  -0.000519   0.535962  -0.000968
 594  20  10.306213   1.412034   2.419337  -0.000126   0.067863  -0.001850
 595  20  10.981367   2.040785   1.832725  -0.000305   0.150012  -0.002035
 596  20  11.676386   3.158904   1.701838  -0.000202   0.150012  -0.001345
 597   7  10.290421   1.586286   1.852498  -0.000246   0.149398  -0.001645
 598   7  11.183848   2.634524   1.293427   0.000056   0.149398   0.000372
 599   7  11.729552   3.706825   1.385925   0.000117   0.082909   0.001414
 600  21  11.011173   5.157082  -0.426546  -0.000110   0.069439  -0.001583
 601  21  10.790065   4.078128  -0.604031  -0.000286   0.154134  -0.001853
 602  21   9.903032   3.118758  -0.938395  -0.000365   0.154134  -0.002368
 603  21   8.865443   2.836367  -1.235371  -0.000158   0.069439  -0.002278
 604   7  11.123122   4.664360  -0.103843  -0.000029   0.152269  -0.000192
 605   7  10.527025   3.305205  -0.408626  -0.000033   0.152269  -0.000220
 606   7   9.236331   2.623700  -0.815062  -0.000307   0.152269  -0.002018
 607  21   6.978791   5.600887  -1.407914  -0.000377   0.120738  -0.003126
 608   7   6.739647   5.905753  -1.085582  -0.000220   0.147508  -0.001492
 609   8  10.300776  11.513008   6.123412   0.000582   0.047377   0.012281
 610   9  10.316792  11.901807   5.823608   0.000375   0.047377   0.007914
 611  10  10.631374  11.351416   6.347869   0.000878   0.047377   0.018541
 612   8  12.877904   8.171205   1.006155   0.000541   0.047377   0.011428
 613   9  12.861567   8.601957   0.770593   0.000400   0.047377   0.008443
 614  10  13.179988   8.046589   1.287233   0.000749   0.047377   0.015810
 615   8   8.745536  11.325019   6.006359   0.000284   0.118241   0.002406
 616   9   8.768791  11.698932   5.685845   0.000091   0.118241   0.000766
 617  13   7.916397  11.020228   6.431662   0.000131   0.118241   0.001104
 618   8  11.360199   7.524421   0.124140   0.000201   0.132916   0.001509
 619   9  11.336566   7.967226  -0.093678  -0.000032   0.132916  -0.000244
 620  21  10.805230   6.753987  -0.268837   0.000026   0.132916   0.000196
 621   9   9.541420  12.194264   5.603251   0.000347   0.171656   0.002020
 622   8   9.728710  11.611994   6.008902   0.000829   0.171656   0.004827
 623   9  12.372927   8.654052   0.187305   0.000503   0.215442   0.002333
 624   8  12.141341   7.983975   0.433864   0.000750   0.215442   0.003479
 625   8   9.312698  10.561280   6.814938   0.001321   0.115033   0.011483
 626  10   9.647114  10.393859   7.034695   0.001663   0.115033   0.014460
 627  13   8.440305  10.324117   7.196304   0.000830   0.115033   0.007215
 628  10  13.095235   7.113999   1.474116   0.002493   0.172398   0.014460
 629   8  12.729320   7.520818   1.101172   0.001870   0.172398   0.010847
 630  10  10.521732  10.943264   6.845743   0.001849   0.136684   0.013531
 631   8   9.939338  11.014395   6.575052   0.001681   0.136684   0.012296
 632  13   7.733573  10.693769   7.306543  -0.000193   0.207731  -0.000930
 633   8   8.898636  11.075832   6.522153   0.001390   0.294430   0.004723
 634  21  10.905921   5.960674  -0.495032  -0.000121   0.167676  -0.000720
 635   8  11.686633   7.000100   0.293949   0.000901   0.238867   0.003773
 636   9  13.916957  10.399593   1.639739   0.000045   0.068203   0.000662
 637  10  14.164169   9.845332   2.194166   0.000292   0.068203   0.004276
 638  22  14.005707  10.669999   1.744897  -0.000161   0.068203  -0.002361
 639   9  12.354647  12.517543   4.839912   0.000064   0.068203   0.000942
 640  10  12.640835  11.910444   5.314503   0.000226   0.068203   0.003312
 641  22  12.583646  12.597819   4.657789  -0.000180   0.068203  -0.002645
 642  10  13.813595   8.565062   1.706132   0.004124   0.567118   0.007272
 643   9  13.569930   9.653607   1.157612   0.001334   0.567118   0.002353
 644  10  11.952354  11.604033   6.067478   0.003496   0.592884   0.005897
 645   9  11.110359  12.317051   5.481791   0.001634   0.592884   0.002756
 646   9   8.354438  12.168177   5.282637  -0.000178   0.126447  -0.001411
 647  13   7.534315  11.396303   5.965524  -0.000005   0.126447  -0.000043
 648  24   8.126387  12.328226   5.148483  -0.000438   0.126447  -0.003468
 649  13   7.377069  11.170966   6.834941  -0.000110   0.121706  -0.000904
 650   9   8.562477  12.188056   5.659414   0.000418   0.181319   0.002306
 651   9   7.198460  10.672838  -0.334324  -0.000002   0.073021  -0.000028
 652  15   6.646329  10.018186  -0.061634  -0.000164   0.073021  -0.002246
 653  23   7.377024  10.586461  -0.566953  -0.000184   0.073021  -0.002519
 654   9   6.495835  11.620741   1.120132   0.000050   0.072965   0.000687
 655  15   6.009610  10.877285   1.256612  -0.000088   0.072965  -0.001212
 656  24   6.456027  11.829687   1.339764  -0.000174   0.072965  -0.002390
 657  15   5.804986  10.228589   0.684603  -0.001663   0.365917  -0.004544
 658   9   6.747108  11.080709   0.206599   0.000867   0.514706   0.001684
 659   9  11.071599   8.349124  -0.559285  -0.000212   0.128477  -0.001652
 660  21  10.487062   7.154993  -0.650910  -0.000070   0.128477  -0.000548
 661  23  10.897531   8.446237  -0.795946  -0.000491   0.128477  -0.003819
 662  21  10.675431   6.323660  -0.841464  -0.000058   0.088671  -0.000652
 663   9  11.444125   8.118169  -0.519903   0.000340   0.132481   0.002566
 664  22  14.003318  11.156369   1.267020  -0.000161   0.066526  -0.002415
 665  22  13.677410  11.883758   0.539740  -0.000332   0.146818  -0.002263
 666  22  13.076919  13.008177   0.253805  -0.000445   0.146818  -0.003028
 667  22  12.443891  14.025058   0.775238  -0.000530   0.146818  -0.003613
 668  22  12.024784  14.538495   1.901025  -0.000498   0.146818  -0.003393
 669  22  11.982773  14.348587   3.192860  -0.000357   0.146818  -0.002431
 670  22  12.334213  13.529274   4.147784  -0.000451   0.146818  -0.003071
 671   9  13.711373  11.096614   0.760569  -0.000237   0.146656  -0.001616
 672   9  13.158685  12.231142   0.010813  -0.000078   0.146656  -0.000534
 673   9  12.429267  13.497360   0.150070  -0.000269   0.146656  -0.001834
 674   9  11.807107  14.402284   1.124123  -0.000314   0.146656  -0.002144
 675   9  11.534434  14.593597   2.553738  -0.000174   0.146656  -0.001183
 676   9  11.717409  13.996813   3.882317  -0.000146   0.146656  -0.000999
 677   9  12.127793  13.125053   4.582369  -0.000097   0.081276  -0.001190
 678  23   7.670154  11.113887  -0.958699  -0.000148   0.066934  -0.002216
 679  23   8.253474  11.979195  -1.228243  -0.000445   0.147475  -0.003016
 680  23   9.404076  12.525420  -1.513355  -0.000505   0.147475  -0.003425
 681  23  10.679554  12.284297  -1.649549  -0.000508   0.147475  -0.003442
 682  23  11.587482  11.348916  -1.584242  -0.000377   0.147475  -0.002553
 683  23  11.777332  10.080403  -1.342649  -0.000408   0.147475  -0.002769
 684  23  11.388853   9.110106  -1.079431  -0.000318   0.066934  -0.004748
 685   9   7.689099  11.656791  -0.729353  -0.000173   0.147829  -0.001167
 686   9   8.712918  12.643257  -1.089363  -0.000242   0.147829  -0.001640
 687   9  10.146929  12.823598  -1.338390  -0.000319   0.147829  -0.002159
 688   9  11.437501  12.128187  -1.380290  -0.000186   0.147829  -0.001258
 689   9  12.086378  10.825506  -1.198887  -0.000174   0.147829  -0.001174
 690   9  11.843045   9.418483  -0.864216  -0.000303   0.147829  -0.002047
 691  24   8.523104  13.101451   4.923412  -0.000293   0.072488  -0.004036
 692  24   9.020625  13.975793   4.343561  -0.000467   0.162417  -0.002873
 693  24   9.144197  14.678204   3.137876  -0.000446   0.162417  -0.002745
 694  24   8.653238  14.676580   1.825899  -0.000577   0.162417  -0.003553
 695  24   7.769070  13.971652   0.999067  -0.000546   0.162417  -0.003361
 696  24   6.890275  12.881202   1.030113  -0.000529   0.162417  -0.003256
 697   9   9.102471  13.286879   4.858491  -0.000343   0.157549  -0.002175
 698   9   9.582902  14.355199   3.808443  -0.000157   0.157549  -0.000995
 699   9   9.363906  14.772931   2.307689  -0.000266   0.157549  -0.001689
 700   9   8.544206  14.351762   1.032766  -0.000370   0.157549  -0.002348
 701   9   7.493321  13.281554   0.558405  -0.000208   0.157549  -0.001323
 702   9   6.767774  12.263842   0.840939  -0.000021   0.088560  -0.000238
 703  13   8.048665   9.967117   7.996804   0.000634   0.337678   0.001877
 704  10   9.815675  10.127030   7.645928   0.004462   0.493927   0.009034
 705  10  10.856539   6.629697   8.426956   0.000179   0.087847   0.002038
 706  14   9.896374   6.252362   8.545001   0.000073   0.087847   0.000832
 707  26  10.880907   6.330520   8.393572  -0.000190   0.087847  -0.002159
 708  14   9.277400   6.543641   8.887610  -0.000065   0.289723  -0.000226
 709  10  10.561986   7.363074   8.647543   0.002187   0.412945   0.005295
 710  10  12.895107   4.240331   4.698910   0.000191   0.085482   0.002229
 711  20  12.236742   3.632389   4.277231  -0.000032   0.085482  -0.000380
 712  26  12.762920   4.130537   4.947152  -0.000130   0.085482  -0.001524
 713  20  12.243403   3.825509   2.456173  -0.000012   0.287497  -0.000043
 714  20  12.219830   3.323690   3.577531  -0.000750   0.287497  -0.002607
 715  10  13.118426   4.605531   3.496847   0.004575   0.799789   0.005721
 716  10  13.128106  11.609043   5.529275   0.000039   0.082235   0.000468
 717  22  13.009734  12.191498   4.785874  -0.000021   0.082235  -0.000252
 718  25  13.421857  11.556694   5.491273  -0.000141   0.082235  -0.001711
 719  10  14.546483   9.757627   2.731260   0.000067   0.082235   0.000812
 720  22  14.249849  10.572768   2.339512  -0.000006   0.082235  -0.000070
 721  25  14.707700   9.878275   2.954703  -0.000175   0.082235  -0.002132
 722  22  12.790281  12.719497   4.600287  -0.000020   0.041958  -0.000484
 723  10  12.961658  11.791348   5.642498   0.000224   0.059350   0.003768
 724  22  14.197079  10.890278   1.835757  -0.000037   0.059319  -0.000620
 725  10  14.537754   9.653667   2.412520   0.000370   0.083905   0.004410
 726  25  13.679870  11.283115   6.130736  -0.000112   0.068875  -0.001622
 727  25  14.000307  10.596982   6.965103  -0.000320   0.153853  -0.002078
 728  25  14.640885   9.459639   7.350408  -0.000581   0.153853  -0.003777
 729  25  15.331979   8.400335   6.847803  -0.000743   0.153853  -0.004827
 730  25  15.776229   7.874865   5.673549  -0.000692   0.153853  -0.004495
 731  25  15.782481   8.109328   4.332901  -0.000455   0.153853  -0.002959
 732  25  15.348048   9.002839   3.402711  -0.000337   0.153853  -0.002191
 733  10  13.390689  11.041468   6.593259   0.000075   0.150003   0.000499
 734  10  13.958432   9.933728   7.480670  -0.000139   0.150003  -0.000926
 735  10  14.750095   8.627846   7.410937  -0.000443   0.150003  -0.002955
 736  10  15.425044   7.685717   6.414064  -0.000526   0.150003  -0.003509
 737  10  15.692862   7.512716   4.918984  -0.000332   0.150003  -0.002212
 738  10  15.438314   8.183284   3.568998  -0.000192   0.150003  -0.001283
 739  10  14.946094   9.121948   2.918551   0.000034   0.084146   0.000404
 740  26  13.276845   4.343300   5.422542  -0.000124   0.069800  -0.001773
 741  26  13.786027   4.845441   6.307966  -0.000629   0.156208  -0.004025
 742  26  13.661695   5.566723   7.470910  -0.000719   0.156208  -0.004605
 743  26  12.711512   6.137590   8.282950  -0.000589   0.156208  -0.003768
 744  26  11.610995   6.346552   8.484411  -0.000165   0.069800  -0.002367
 745  10  13.739897   4.722604   5.470352  -0.000255   0.151769  -0.001678
 746  10  14.115832   5.482431   6.759947  -0.000455   0.151769  -0.002999
 747  10  13.476365   6.251417   7.935303  -0.000479   0.151769  -0.003157
 748  10  12.101845   6.692429   8.481129  -0.000242   0.151769  -0.001594
 749  14   6.235173   4.710885   9.166250   0.000287   0.250384   0.001144
 750  11   4.840822   4.340256   9.172360   0.000227   0.250384   0.000905
 751  17   3.006781   1.393827   8.167966  -0.000287   0.278470  -0.001031
 752  17   1.824412   1.705808   8.391595  -0.001161   0.557001  -0.002085
 753  17   0.721996   2.172360   8.056414   0.000086   0.278470   0.000310
 754  11   3.008932   2.894194   8.737831  -0.001039   0.557001  -0.001865
 755  11   1.584719   3.379491   8.668295  -0.001299   0.557001  -0.002332
 756  13   3.852988  10.110715   5.999986   0.000256   0.244738   0.001047
 757  12   2.637373   9.489104   5.505282   0.000184   0.244738   0.000753
 758  15   3.818662   8.162415   1.305819  -0.000161   0.248873  -0.000649
 759  15   3.900471   9.086855   1.878416  -0.000647   0.497510  -0.001301
 760  15   4.235848   9.728793   2.693639  -0.000017   0.248873  -0.000067
 761  12   2.555414   8.112745   2.358270  -0.000110   0.497510  -0.000221
 762  12   2.815790   9.090358   3.224441  -0.000381   0.497510  -0.000766
 763  18  -1.021409   4.907814   4.455948  -0.000134   0.251998  -0.000533
 764  18  -0.806403   5.031802   3.417396  -0.000734   0.503641  -0.001457
 765  18  -0.241053   4.932584   2.516994  -0.000054   0.251998  -0.000214
 766  12  -0.182156   6.399113   4.389505  -0.000138   0.503641  -0.000275
 767  12   0.305039   6.414577   3.178969  -0.000438   0.503641  -0.000870
 768  24   6.230604  12.310983   3.945529  -0.000296   0.274884  -0.001075
 769  24   6.888919  12.656579   4.656788  -0.000926   0.548839  -0.001688
 770  24   7.760886  12.656750   5.203028   0.000082   0.274884   0.000298
 771  13   5.608939  11.280113   5.588053  -0.000155   0.548839  -0.000283
 772  13   6.565580  11.496266   6.374166  -0.000471   0.548839  -0.000858
 773  14   9.454735   3.965923   6.702932  -0.000826   0.289752  -0.002849
 774  20   9.963624   3.478565   5.776338  -0.000660   0.289752  -0.002277
 775  26  10.436563   4.017378   6.470390  -0.001615   0.289752  -0.005575
 776  20   9.625063   2.861916   5.613030   0.000130   0.181176   0.000719
 777  14   8.820532   3.505962   6.910394  -0.000055   0.181176  -0.000301
 778  26  10.914568   5.889167   8.501082  -0.000102   0.234287  -0.000434
 779  26  10.880129   4.872752   8.024194  -0.001941   0.468617  -0.004142
 780  26  10.732413   4.132901   7.192023  -0.000909   0.234287  -0.003879
 781  14   9.530127   5.372392   8.692851  -0.001165   0.468617  -0.002487
 782  14   9.416497   4.276815   7.876247  -0.001504   0.468617  -0.003210
 783  15   7.218954   8.144510  -0.460499  -0.000611   0.334485  -0.001828
 784  21   7.747359   7.362871  -0.822064  -0.000296   0.334485  -0.000886
 785  23   8.039647   8.707599  -0.844404  -0.000747   0.334485  -0.002232
 786  21   7.243868   6.699676  -1.164848   0.000089   0.131304   0.000680
 787  15   6.601502   7.823142  -0.565073   0.000125   0.131304   0.000951
 788  23   7.813626   9.561296  -1.193395  -0.000398   0.256363  -0.001554
 789  23   7.426768  10.323577  -0.932167   0.000023   0.256363   0.000090
 790  15   6.526113   9.155712  -0.387319  -0.000830   0.512703  -0.001618
 791  24   6.174756  12.006902   1.676190  -0.000050   0.278151  -0.000179
 792  24   6.023098  11.971772   2.629394  -0.000461   0.278151  -0.001659
 793  15   5.411882  10.656068   1.994344  -0.000907   0.556452  -0.001631
 794  19   2.659274  -0.055156   0.209924  -0.000292   0.262125  -0.001113
 795  19   3.186720  -1.062146   0.757903  -0.001809   0.524647  -0.003448
 796  19   3.843351  -1.592152   2.033422  -0.001238   0.524647  -0.002360
 797  16   4.111959  -0.065829  -0.092558  -0.001283   0.524647  -0.002445
 798  16   4.787789  -1.062257   0.850524  -0.001847   0.524647  -0.003520
 799  16   5.280437  -1.223861   2.001042  -0.000196   0.262125  -0.000750
 800  26  11.203593   3.707314   6.373772  -0.001018   0.267773  -0.003802
 801  26  12.240490   3.740861   5.621409  -0.001676   0.535994  -0.003128
 802  20  10.950070   2.891896   5.149430  -0.001813   0.535994  -0.003382
 803  20  11.939097   3.026757   4.345709  -0.000534   0.267773  -0.001996
 804  23  10.823650   8.437623  -1.274713   0.000045   0.261146   0.000171
 805  23   9.966289   8.608743  -1.731258  -0.000889   0.521479  -0.001705
 806  23   8.786677   8.861100  -1.667759  -0.000869   0.521479  -0.001667
 807  21  10.097027   6.562790  -1.421853  -0.000420   0.521479  -0.000805
 808  21   8.958975   6.796669  -1.752518  -0.000479   0.521479  -0.000919
 809  21   8.027086   7.000925  -1.502227   0.000072   0.261146   0.000276
 810  25  15.004363  10.185894   3.143320  -0.000037   0.258017  -0.000144
 811  25  14.971301  10.996406   4.018151  -0.001499   0.516105  -0.002904
 812  25  14.197851  11.581931   5.096512  -0.001110   0.516105  -0.002151
 813  22  14.461967  11.498482   2.529493  -0.001067   0.516105  -0.002067
 814  22  14.124021  12.363670   3.643572  -0.001479   0.516105  -0.002866
 815  22  13.302903  12.668124   4.453772  -0.000206   0.258017  -0.000797
 =====================================================

              7196160  WORDS OF DYNAMIC MEMORY USED
 EXECUTION OF GAMESS TERMINATED NORMALLY Thu Nov 24 14:30:53 2016
 DDI: 263640 bytes (0.3 MB / 0 MWords) used by master data server.

 ----------------------------------------
 CPU timing information for all processes
 ========================================
 0: 2488.504 + 0.932 = 2489.436
 ----------------------------------------
 ddikick.x: exited gracefully.
