----- GAMESS execution script -----

          ******************************************************
          *         GAMESS VERSION =  5 DEC 2014 (R1)          *
          *             FROM IOWA STATE UNIVERSITY             *
          * M.W.SCHMIDT, K.K.BALDRIDGE, J.A.BOATZ, S.T.ELBERT, *
          *   M.S.GORDON, J.H.JENSEN, S.KOSEKI, N.MATSUNAGA,   *
          *          K.A.NGUYEN, S.J.SU, T.L.WINDUS,           *
          *       TOGETHER WITH M.DUPUIS, J.A.MONTGOMERY       *
          *         J.COMPUT.CHEM.  14, 1347-1363(1993)        *
          **************** 64 BIT LINUX VERSION ****************

 EXECUTION OF GAMESS BEGUN Thu Nov 24 15:58:28 2016

            ECHO OF THE FIRST FEW INPUT CARDS -
 INPUT CARD>! SELECT RESTRICTED HARTREE-FOCK AS DEFAULT                                     
 INPUT CARD>$contrl scftyp=rhf $end                                                         
 INPUT CARD>                                                                                
 INPUT CARD>! THEORY: HF OR DFT                                                             
 INPUT CARD> $contrl mplevl=0 $end                                                          
 INPUT CARD>                                                                                
 INPUT CARD> $system timlim=10000 mwords=20 $end                                            
 INPUT CARD> $SCF DIRSCF=.TRUE. $end                                                        
 INPUT CARD>                                                                                
 INPUT CARD>                                                                                
 INPUT CARD>! BASIS SETS                                                                    
 INPUT CARD>! 6-311G(d,p)                                                                   
 INPUT CARD> $BASIS GBASIS=N311 NGAUSS=6 NDFUNC=1 NPFUNC=1 $END                             
 INPUT CARD>                                                                                
 INPUT CARD>! One of the following                                                          
 INPUT CARD> $guess guess=HUCKEL $end                                                       
 INPUT CARD>                                                                                
 INPUT CARD> $statpt projct=.FALSE. $end                                                    
 INPUT CARD> $STATPT IFREEZ(1)=1,2,3 $END                                                   
 INPUT CARD>                                                                                
 INPUT CARD>! Optimize the geometry with COSMO effects                                      
 INPUT CARD> $statpt opttol=0.0005 nstep=50 $end                                            
 INPUT CARD> $contrl nzvar=1 $end                                                           
 INPUT CARD> $zmat dlc=.t. auto=.t. $end                                                    
 INPUT CARD> $contrl runtyp=OPTIMIZE maxit=200 $end                                         
 INPUT CARD>                                                                                
 INPUT CARD>! Run COSMO on perfect conductor                                                
 INPUT CARD> $COSGMS PRFCND=.TRUE. $end                                                     
 INPUT CARD>                                                                                
 INPUT CARD>! Specifying RSOLV                                                              
 INPUT CARD> $COSGMS COSRAD = 1.4 $end                                                      
 INPUT CARD>                                                                                
 INPUT CARD>! available memory                                                              
 INPUT CARD> $SYSTEM MWORDS=40 $END                                                         
 INPUT CARD>                                                                                
 INPUT CARD> $DATA                                                                          
 INPUT CARD>http://cactus.nci.nih.gov/chemical/structure/M-DICHLOROBENZENE/file?format=sdf&g
 INPUT CARD>C1                                                                              
 INPUT CARD>Cl    17.0     -2.7015000000    0.8240000000   -0.0003000000                    
 INPUT CARD>C      6.0     -1.1978000000   -0.0435000000   -0.0009000000                    
 INPUT CARD>C      6.0      0.0000000000    0.6484000000   -0.0001000000                    
 INPUT CARD>C      6.0      1.1978000000   -0.0435000000   -0.0001000000                    
 INPUT CARD>C      6.0      1.1972000000   -1.4271000000   -0.0009000000                    
 INPUT CARD>C      6.0      0.0000000000   -2.1179000000   -0.0017000000                    
 INPUT CARD>C      6.0     -1.1972000000   -1.4271000000    0.0036000000                    
 INPUT CARD>Cl    17.0      2.7015000000    0.8240000000    0.0003000000                    
 INPUT CARD>H      1.0      0.0000000000    1.7284000000    0.0001000000                    
 INPUT CARD>H      1.0      2.1323000000   -1.9674000000   -0.0012000000                    
 INPUT CARD>H      1.0      0.0000000000   -3.1979000000   -0.0026000000                    
 INPUT CARD>H      1.0     -2.1323000000   -1.9674000000    0.0030000000                    
   40000000 WORDS OF MEMORY AVAILABLE

     BASIS OPTIONS
     -------------
     GBASIS=N311         IGAUSS=       6      POLAR=POPN311 
     NDFUNC=       1     NFFUNC=       0     DIFFSP=       F
     NPFUNC=       1      DIFFS=       F     BASNAM=        


     RUN TITLE
     ---------
 http://cactus.nci.nih.gov/chemical/structure/M-DICHLOROBENZENE/file?format=sdf&g

 THE POINT GROUP OF THE MOLECULE IS C1      
 THE ORDER OF THE PRINCIPAL AXIS IS     0

 ATOM      ATOMIC                      COORDINATES (BOHR)
           CHARGE         X                   Y                   Z
 CL         17.0    -5.1050947558        1.5571342139       -0.0005669178
 C           6.0    -2.2635137881       -0.0822030805       -0.0017007534
 C           6.0     0.0000000000        1.2252983304       -0.0001889726
 C           6.0     2.2635137881       -0.0822030805       -0.0001889726
 C           6.0     2.2623799525       -2.6968279571       -0.0017007534
 C           6.0     0.0000000000       -4.0022506694       -0.0032125342
 C           6.0    -2.2623799525       -2.6968279571        0.0068030136
 CL         17.0     5.1050947558        1.5571342139        0.0005669178
 H           1.0     0.0000000000        3.2662023972        0.0001889726
 H           1.0     4.0294627236       -3.7178469082       -0.0022676712
 H           1.0     0.0000000000       -6.0431547361       -0.0049132876
 H           1.0    -4.0294627236       -3.7178469082        0.0056691780

          INTERNUCLEAR DISTANCES (ANGS.)




     $CONTRL OPTIONS
     ---------------
 SCFTYP=RHF          RUNTYP=OPTIMIZE     EXETYP=RUN     
 MPLEVL=       0     CITYP =NONE         CCTYP =NONE         VBTYP =NONE    
 DFTTYP=NONE         TDDFT =NONE    
 MULT  =       1     ICHARG=       0     NZVAR =       1     COORD =UNIQUE  
 PP    =NONE         RELWFN=NONE         LOCAL =NONE         NUMGRD=       F
 ISPHER=      -1     NOSYM =       0     MAXIT =     200     UNITS =ANGS    
 PLTORB=       F     MOLPLT=       F     AIMPAC=       F     FRIEND=        
 NPRINT=       7     IREST =       0     GEOM  =INPUT   
 NORMF =       0     NORMP =       0     ITOL  =      20     ICUT  =       9
 INTTYP=BEST         GRDTYP=BEST         QMTTOL= 1.0E-06

     $SYSTEM OPTIONS
     ---------------
  REPLICATED MEMORY=    40000000 WORDS (ON EVERY NODE).
 DISTRIBUTED MEMDDI=           0 MILLION WORDS IN AGGREGATE,
 MEMDDI DISTRIBUTED OVER   1 PROCESSORS IS           0 WORDS/PROCESSOR.
 TOTAL MEMORY REQUESTED ON EACH PROCESSOR=    40000000 WORDS.
 TIMLIM=       10000.00 MINUTES, OR       6.9 DAYS.
 PARALL= F  BALTYP=  DLB     KDIAG=    0  COREFL= F
 MXSEQ2=     300 MXSEQ3=     150  mem10=         0

     $COSGMS OPTIONS
     ---------------
     EPSI  =   INFTY     NSPA  =      92     COSRAD=    1.40
     DISEX =   10.00     OUTCHG=DBLCAV       COSBUG=       F
     COSWRT=       F     DCOSMO=       F

     SYMMETRY COORDINATES WILL NOT BE USED FOR 
     THE COSMO CALCULATION, EVEN IF SPECIFIED:
         -- SWITCHING TO C1 POINT GROUP --


     DEFINITION OF CAVITY
     ---------------------------
     ATOM         COORDINATES           RADIUS 
     1   -5.1051    1.5571   -0.0006    2.0500
     2   -2.2635   -0.0822   -0.0017    2.0000
     3    0.0000    1.2253   -0.0002    2.0000
     4    2.2635   -0.0822   -0.0002    2.0000
     5    2.2624   -2.6968   -0.0017    2.0000
     6    0.0000   -4.0023   -0.0032    2.0000
     7   -2.2624   -2.6968    0.0068    2.0000
     8    5.1051    1.5571    0.0006    2.0500
     9    0.0000    3.2662    0.0002    1.3000
    10    4.0295   -3.7178   -0.0023    1.3000
    11    0.0000   -6.0432   -0.0049    1.3000
    12   -4.0295   -3.7178    0.0057    1.3000

          ----------------
          PROPERTIES INPUT
          ----------------

     MOMENTS            FIELD           POTENTIAL          DENSITY
 IEMOM =       1   IEFLD =       0   IEPOT =       0   IEDEN =       0
 WHERE =COMASS     WHERE =NUCLEI     WHERE =NUCLEI     WHERE =NUCLEI  
 OUTPUT=BOTH       OUTPUT=BOTH       OUTPUT=BOTH       OUTPUT=BOTH    
 IEMINT=       0   IEFINT=       0                     IEDINT=       0
                                                       MORB  =       0
          EXTRAPOLATION IN EFFECT
          SOSCF IN EFFECT
 ORBITAL PRINTING OPTION: NPREO=     1   192     2     1

     -------------------------------
     INTEGRAL TRANSFORMATION OPTIONS
     -------------------------------
     NWORD  =            0
     CUTOFF = 1.0E-09     MPTRAN =       0
     DIRTRF =       T     AOINTS =DUP     

          ----------------------
          INTEGRAL INPUT OPTIONS
          ----------------------
 NOPK  =       1 NORDER=       0 SCHWRZ=       T


 -----------------------------------------------
  STATISTICS ON AUTOMATIC COORDINATE GENERATION 
 -----------------------------------------------
  NUMBER OF USER SPECIFIED BONDS                             0
  NUMBER OF BONDS                                           12
  NUMBER OF ANGLES                                          18
  NUMBER OF TORSIONS                                        24
  NUMBER OF EXTRA COORD.                                     0
  NUMBER OF EXTRA COORD. FOR CONSTRAINTS                     0
  NUMBER OF CONSTRAINED COORD.                               0

  TOTAL NUMBER OF PRIMITIVES                                54
 -----------------------------------------------

   --- ENCODED Z MATRIX ---
 COORD  TYPE   I   J   K   L   M   N
    1      1    1   2
    2      1    2   3
    3      1    2   7
    4      1    3   4
    5      1    3   9
    6      1    4   8
    7      1    4   5
    8      1    5   6
    9      1    5  10
   10      1    6   7
   11      1    6  11
   12      1    7  12
   13      2    1   2   7
   14      2    1   2   3
   15      2    2   7   6
   16      2    2   3   4
   17      2    2   7  12
   18      2    2   3   9
   19      2    3   2   7
   20      2    3   4   5
   21      2    3   4   8
   22      2    4   5  10
   23      2    4   5   6
   24      2    4   3   9
   25      2    5   6   7
   26      2    5   4   8
   27      2    5   6  11
   28      2    6   5  10
   29      2    6   7  12
   30      2    7   6  11
   31      3    1   2   7   6
   32      3    1   2   3   4
   33      3    1   2   7  12
   34      3    1   2   3   9
   35      3    2   7   6   5
   36      3    2   3   4   5
   37      3    2   3   4   8
   38      3    2   7   6  11
   39      3    3   2   7  12
   40      3    3   2   7   6
   41      3    3   4   5  10
   42      3    3   4   5   6
   43      3    4   5   6   7
   44      3    4   3   2   7
   45      3    4   5   6  11
   46      3    5   4   3   9
   47      3    5   6   7  12
   48      3    6   5   4   8
   49      3    7   6   5  10
   50      3    7   2   3   9
   51      3    8   4   5  10
   52      3    8   4   3   9
   53      3   10   5   6  11
   54      3   11   6   7  12

          INDEP./SYM. INTERNAL COORDINATES
          --------------------------------
 CRD  1=  -0.2760 (  2)  0.1152 (  3) -0.2760 (  4)  0.1152 (  7)  0.1611 (  8)
           0.1611 ( 10)  0.4084 ( 13) -0.4241 ( 14)  0.1616 ( 16) -0.4241 ( 21)
           0.4084 ( 26)
 CRD  2=   0.3004 (  3) -0.3004 (  7) -0.1367 (  8)  0.1367 ( 10)  0.4051 ( 13)
          -0.3620 ( 14) -0.1126 ( 15)  0.1781 ( 17)  0.3620 ( 21) -0.1781 ( 22)
           0.1126 ( 23) -0.4051 ( 26) -0.1648 ( 27)  0.1648 ( 30)
 CRD  3=   0.3515 (  2)  0.2327 (  3) -0.3515 (  4) -0.2327 (  7) -0.1310 (  9)
           0.1309 ( 12)  0.1715 ( 14) -0.1102 ( 15)  0.1495 ( 17)  0.4546 ( 18)
          -0.1715 ( 21) -0.1495 ( 22)  0.1102 ( 23) -0.4546 ( 24)
 CRD  4=  -0.2442 (  3) -0.1554 (  5) -0.2442 (  7)  0.3399 (  8)  0.3399 ( 10)
          -0.1208 ( 13)  0.1286 ( 16) -0.3212 ( 17) -0.3212 ( 22) -0.1208 ( 26)
           0.3855 ( 28)  0.3854 ( 29)
 CRD  5=  -0.1943 (  1)  0.1063 (  2) -0.1063 (  4)  0.1943 (  6)  0.3483 (  8)
          -0.1351 (  9) -0.3483 ( 10)  0.1351 ( 12) -0.1739 ( 14) -0.1866 ( 15)
           0.2700 ( 17)  0.2365 ( 19) -0.2366 ( 20)  0.1739 ( 21) -0.2700 ( 22)
           0.1866 ( 23)  0.3249 ( 27) -0.3249 ( 30)
 CRD  6=  -0.1576 (  1) -0.1399 (  2)  0.1511 (  3) -0.1399 (  4)  0.2485 (  5)
          -0.1577 (  6)  0.1511 (  7) -0.1221 (  9)  0.3186 ( 11) -0.1221 ( 12)
          -0.1091 ( 13)  0.1734 ( 15) -0.3475 ( 16) -0.1704 ( 17)  0.1738 ( 18)
           0.2037 ( 19)  0.2038 ( 20) -0.1705 ( 22)  0.1734 ( 23)  0.1737 ( 24)
          -0.4068 ( 25) -0.1092 ( 26)  0.2035 ( 27)  0.2033 ( 30)
 CRD  7=  -0.2157 (  1) -0.3483 (  2) -0.3466 (  3) -0.3483 (  4) -0.2134 (  5)
          -0.2156 (  6) -0.3466 (  7) -0.3469 (  8) -0.2152 (  9) -0.3469 ( 10)
          -0.2126 ( 11) -0.2152 ( 12)
 CRD  8=   0.1821 (  1) -0.1821 (  6)  0.1155 (  8)  0.1900 (  9) -0.1156 ( 10)
          -0.1900 ( 12)  0.1613 ( 13)  0.2572 ( 15) -0.2519 ( 19)  0.2518 ( 20)
          -0.2573 ( 23) -0.1613 ( 26)  0.3291 ( 27)  0.3513 ( 28) -0.3513 ( 29)
          -0.3292 ( 30)
 CRD  9=   0.2398 ( 31) -0.4416 ( 32)  0.1475 ( 33) -0.2444 ( 34)  0.1652 ( 35)
           0.2386 ( 36)  0.4445 ( 37) -0.1628 ( 43) -0.2362 ( 44)  0.2576 ( 47)
          -0.2451 ( 48) -0.2564 ( 49) -0.1515 ( 51)  0.2473 ( 52)
 CRD 10=  -0.3407 ( 31)  0.1884 ( 32) -0.2584 ( 33)  0.1869 ( 34)  0.1525 ( 35)
           0.1518 ( 36)  0.1816 ( 37)  0.1539 ( 38) -0.2255 ( 39) -0.3078 ( 40)
          -0.2263 ( 41) -0.3073 ( 42)  0.1550 ( 43)  0.1555 ( 44)  0.1537 ( 45)
           0.1534 ( 46) -0.3370 ( 48)  0.1540 ( 50) -0.2561 ( 51)  0.1831 ( 52)
 CRD 11=  -0.3150 (  1)  0.3148 (  5) -0.3150 (  6)  0.3154 (  9) -0.3155 ( 11)
           0.3153 ( 12) -0.1059 ( 13) -0.1058 ( 14) -0.2120 ( 15) -0.2117 ( 16)
           0.1061 ( 17)  0.1058 ( 18)  0.2117 ( 19)  0.2117 ( 20) -0.1058 ( 21)
           0.1061 ( 22) -0.2120 ( 23)  0.1058 ( 24)  0.2121 ( 25) -0.1059 ( 26)
          -0.1061 ( 27)  0.1059 ( 28)  0.1059 ( 29) -0.1061 ( 30)
 CRD 12=   0.3013 ( 31)  0.1248 ( 33) -0.2685 ( 35) -0.1683 ( 36) -0.3749 ( 38)
          -0.1265 ( 39)  0.1265 ( 41)  0.2685 ( 43)  0.1683 ( 44)  0.3749 ( 45)
          -0.2803 ( 46) -0.3013 ( 48)  0.2803 ( 50) -0.1248 ( 51)  0.1984 ( 53)
          -0.1984 ( 54)
 CRD 13=  -0.1803 (  1) -0.1765 (  2)  0.1200 (  3) -0.1765 (  4) -0.5488 (  5)
          -0.1802 (  6)  0.1200 (  7)  0.2743 (  9)  0.3608 ( 11)  0.2743 ( 12)
          -0.1733 ( 13)  0.1482 ( 14)  0.2006 ( 17)  0.1482 ( 21)  0.2006 ( 22)
          -0.1733 ( 26) -0.1741 ( 28) -0.1741 ( 29)
 CRD 14=  -0.2927 (  1) -0.1585 (  3)  0.2927 (  6)  0.1585 (  7)  0.4090 (  9)
          -0.4090 ( 12)  0.1774 ( 13) -0.2125 ( 14)  0.3456 ( 18)  0.2125 ( 21)
          -0.3456 ( 24) -0.1774 ( 26)
 CRD 15=  -0.2262 ( 33)  0.2048 ( 34)  0.1453 ( 35) -0.1189 ( 36) -0.3270 ( 39)
          -0.1321 ( 40)  0.3270 ( 41)  0.1321 ( 42) -0.1453 ( 43)  0.1189 ( 44)
          -0.3056 ( 46)  0.3402 ( 47) -0.3402 ( 49)  0.3056 ( 50)  0.2262 ( 51)
          -0.2049 ( 52) -0.1917 ( 53)  0.1917 ( 54)
 CRD 16=   0.3367 (  1)  0.1494 (  2) -0.1494 (  4) -0.3368 (  6) -0.1080 (  9)
           0.1080 ( 12)  0.1577 ( 13) -0.1776 ( 14) -0.2961 ( 17)  0.1077 ( 18)
           0.1776 ( 21)  0.2961 ( 22) -0.1077 ( 24) -0.1577 ( 26)  0.3005 ( 27)
          -0.3181 ( 28)  0.3180 ( 29) -0.3005 ( 30)
 CRD 17=   0.2736 (  1) -0.1661 (  2)  0.3047 (  3) -0.1661 (  4) -0.3053 (  5)
           0.2736 (  6)  0.3047 (  7) -0.1386 (  8)  0.1524 (  9) -0.1385 ( 10)
          -0.5469 ( 11)  0.1525 ( 12) -0.1042 ( 16) -0.1584 ( 17) -0.1584 ( 22)
          -0.1164 ( 25)  0.1063 ( 28)  0.1064 ( 29)
 CRD 18=   0.3507 (  1)  0.2262 (  2) -0.2262 (  4) -0.3507 (  6)  0.2369 (  8)
           0.3702 (  9) -0.2369 ( 10) -0.3701 ( 12) -0.1045 ( 15) -0.2102 ( 18)
           0.1039 ( 19) -0.1039 ( 20)  0.1045 ( 23)  0.2102 ( 24) -0.2194 ( 27)
           0.2194 ( 30)
 CRD 19=   0.3472 (  1) -0.2146 (  2) -0.2146 (  3) -0.2146 (  4)  0.3471 (  5)
           0.3472 (  6) -0.2146 (  7) -0.2147 (  8)  0.3474 (  9) -0.2147 ( 10)
           0.3474 ( 11)  0.3474 ( 12)
 CRD 20=  -0.2249 ( 31)  0.2958 ( 32)  0.2958 ( 34)  0.2958 ( 37)  0.3235 ( 39)
           0.1418 ( 40)  0.3235 ( 41)  0.1418 ( 42) -0.2526 ( 47) -0.2249 ( 48)
          -0.2527 ( 49)  0.2958 ( 52) -0.2526 ( 53) -0.2526 ( 54)
 CRD 21=  -0.3322 (  2)  0.4548 (  3)  0.3322 (  4) -0.4548 (  7)  0.2964 (  8)
          -0.2964 ( 10) -0.1441 ( 17)  0.1441 ( 22) -0.1942 ( 28)  0.1942 ( 29)
 CRD 22=  -0.1186 (  1)  0.3263 (  2)  0.3262 (  4) -0.3729 (  5) -0.1186 (  6)
          -0.2727 (  8)  0.1869 (  9) -0.2727 ( 10)  0.2357 ( 11)  0.1869 ( 12)
           0.1940 ( 13) -0.1552 ( 14) -0.1873 ( 16) -0.2244 ( 17) -0.1552 ( 21)
          -0.2244 ( 22)  0.1940 ( 26)  0.1302 ( 28)  0.1302 ( 29)
 CRD 23=   0.1201 ( 31)  0.3071 ( 33)  0.1681 ( 34)  0.3853 ( 38)  0.1492 ( 39)
          -0.1492 ( 41) -0.3853 ( 45) -0.3259 ( 46) -0.1802 ( 47) -0.1201 ( 48)
           0.1802 ( 49)  0.3260 ( 50) -0.3071 ( 51) -0.1681 ( 52) -0.1983 ( 53)
           0.1983 ( 54)
 CRD 24=   0.2237 (  1) -0.2533 (  2) -0.2342 (  3)  0.2533 (  4) -0.2237 (  6)
           0.2342 (  7)  0.2722 (  8) -0.2458 (  9) -0.2722 ( 10)  0.2457 ( 12)
          -0.1162 ( 14)  0.1191 ( 15)  0.2469 ( 18)  0.1005 ( 19) -0.1005 ( 20)
           0.1162 ( 21) -0.1191 ( 23) -0.2469 ( 24) -0.2738 ( 27)  0.1472 ( 28)
          -0.1472 ( 29)  0.2738 ( 30)
 CRD 25=   0.2596 (  1) -0.2604 (  5)  0.2596 (  6) -0.2590 (  9)  0.2592 ( 11)
          -0.2590 ( 12) -0.1283 ( 13) -0.1292 ( 14) -0.2570 ( 15) -0.2580 ( 16)
           0.1286 ( 17)  0.1290 ( 18)  0.2575 ( 19)  0.2575 ( 20) -0.1292 ( 21)
           0.1286 ( 22) -0.2570 ( 23)  0.1290 ( 24)  0.2570 ( 25) -0.1283 ( 26)
          -0.1285 ( 27)  0.1283 ( 28)  0.1284 ( 29) -0.1285 ( 30)
 CRD 26=   0.1346 (  1)  0.1335 (  2) -0.3577 (  3)  0.1334 (  4) -0.2038 (  5)
           0.1346 (  6) -0.3577 (  7)  0.2243 (  8)  0.1026 (  9)  0.2242 ( 10)
          -0.2707 ( 11)  0.1027 ( 12) -0.1524 ( 14)  0.1125 ( 15) -0.2231 ( 16)
           0.1283 ( 17)  0.1115 ( 18)  0.1313 ( 19)  0.1314 ( 20) -0.1524 ( 21)
           0.1283 ( 22)  0.1125 ( 23)  0.1116 ( 24) -0.2645 ( 25)  0.1322 ( 27)
          -0.2408 ( 28) -0.2408 ( 29)  0.1323 ( 30)
 CRD 27=  -0.2098 (  1)  0.3036 (  2) -0.3037 (  4)  0.2097 (  6)  0.3232 (  8)
          -0.1928 (  9) -0.3232 ( 10)  0.1928 ( 12)  0.1607 ( 13)  0.2043 ( 15)
          -0.1961 ( 17) -0.1875 ( 18) -0.2149 ( 19)  0.2149 ( 20)  0.1961 ( 22)
          -0.2044 ( 23)  0.1874 ( 24) -0.1607 ( 26) -0.1753 ( 27)  0.1752 ( 30)
 CRD 28=  -0.1170 ( 32)  0.3746 ( 33) -0.1170 ( 34)  0.1531 ( 35)  0.1529 ( 36)
          -0.1170 ( 37)  0.1530 ( 38)  0.1046 ( 39) -0.3061 ( 40)  0.1046 ( 41)
          -0.3061 ( 42)  0.1530 ( 43)  0.1529 ( 44)  0.1531 ( 45)  0.1529 ( 46)
          -0.2576 ( 47) -0.2576 ( 49)  0.1529 ( 50)  0.3746 ( 51) -0.1170 ( 52)
          -0.2576 ( 53) -0.2577 ( 54)
 CRD 29=   0.1517 ( 31)  0.1060 ( 32) -0.3678 ( 34) -0.2097 ( 35) -0.3057 ( 36)
          -0.1060 ( 37)  0.1408 ( 38) -0.2146 ( 39)  0.2146 ( 41)  0.2098 ( 43)
           0.3058 ( 44) -0.1408 ( 45)  0.1680 ( 46) -0.1517 ( 48) -0.1680 ( 50)
           0.3678 ( 52) -0.3074 ( 53)  0.3074 ( 54)
 CRD 30=  -0.2290 ( 33)  0.2055 ( 34) -0.3422 ( 35)  0.2901 ( 36)  0.3161 ( 40)
          -0.3162 ( 42)  0.3422 ( 43) -0.2901 ( 44)  0.2290 ( 51) -0.2055 ( 52)
          -0.3043 ( 53)  0.3043 ( 54)

 THE DETERMINANT OF THE G MATRIX IS 10**(   -18)


                     --------------------
                     INTERNAL COORDINATES
                     --------------------

                 - - ATOMS - -         COORDINATE      COORDINATE
 NO.   TYPE    I  J  K  L  M  N        (BOHR,RAD)       (ANG,DEG)
 ----------------------------------------------------------------
   1 STRETCH   1  2                     3.2805503       1.7359926
   2 STRETCH   2  3                     2.6140116       1.3832755
   3 STRETCH   2  7                     2.6146390       1.3836074
   4 STRETCH   3  4                     2.6140112       1.3832753
   5 STRETCH   3  9                     2.0409041       1.0800000
   6 STRETCH   4  8                     3.2805502       1.7359925
   7 STRETCH   4  5                     2.6146256       1.3836004
   8 STRETCH   5  6                     2.6119904       1.3822059
   9 STRETCH   5 10                     2.0408482       1.0799705
  10 STRETCH   6  7                     2.6120092       1.3822158
  11 STRETCH   6 11                     2.0409048       1.0800004
  12 STRETCH   7 12                     2.0408485       1.0799706
  13 BEND      1  2  7                  2.0944943     120.0056846
  14 BEND      1  2  3                  2.0945058     120.0063403
  15 BEND      2  7  6                  2.0945541     120.0091090
  16 BEND      2  3  4                  2.0939569     119.9748956
  17 BEND      2  7 12                  2.0942928     119.9941402
  18 BEND      2  3  9                  2.0946141     120.0125504
  19 BEND      3  2  7                  2.0941752     119.9873982
  20 BEND      3  4  5                  2.0941804     119.9876975
  21 BEND      3  4  8                  2.0945061     120.0063601
  22 BEND      4  5 10                  2.0942981     119.9944436
  23 BEND      4  5  6                  2.0945760     120.0103636
  24 BEND      4  3  9                  2.0946141     120.0125488
  25 BEND      5  6  7                  2.0948941     120.0285919
  26 BEND      5  4  8                  2.0944987     120.0059384
  27 BEND      5  6 11                  2.0941424     119.9855210
  28 BEND      6  5 10                  2.0943112     119.9951903
  29 BEND      6  7 12                  2.0943047     119.9948185
  30 BEND      7  6 11                  2.0941414     119.9854630
  31 TORSION   1  2  7  6               3.1375634     179.7691426
  32 TORSION   1  2  3  4               3.1411931     179.9771080
  33 TORSION   1  2  7 12               0.0047961       0.2747975
  34 TORSION   1  2  3  9              -0.0008533      -0.0488915
  35 TORSION   2  7  6  5               0.0088555       0.5073800
  36 TORSION   2  3  4  5              -0.0000000      -0.0000000
  37 TORSION   2  3  4  8               3.1411911     179.9769923
  38 TORSION   2  7  6 11              -3.1368725    -179.7295557
  39 TORSION   3  2  7 12               3.1415669     179.9985257
  40 TORSION   3  2  7  6              -0.0088511      -0.5071293
  41 TORSION   3  4  5 10               3.1412720     179.9816281
  42 TORSION   3  4  5  6               0.0000008       0.0000441
  43 TORSION   4  5  6  7              -0.0044300      -0.2538223
  44 TORSION   4  3  2  7               0.0044223       0.2533817
  45 TORSION   4  5  6 11               3.1412979     179.9831135
  46 TORSION   5  4  3  9              -3.1411389    -179.9740045
  47 TORSION   5  6  7 12              -3.1415626    -179.9982785
  48 TORSION   6  5  4  8              -3.1411904    -179.9769524
  49 TORSION   7  6  5 10               3.1374840     179.7645939
  50 TORSION   7  2  3  9              -3.1376241    -179.7726178
  51 TORSION   8  4  5 10               0.0000808       0.0046316
  52 TORSION   8  4  3  9               0.0000522       0.0029919
  53 TORSION  10  5  6 11               0.0000267       0.0015296
  54 TORSION  11  6  7 12              -0.0041053      -0.2352141

     ------------------------------------------
     THE POINT GROUP IS C1 , NAXIS= 1, ORDER= 1
     ------------------------------------------

     DIMENSIONS OF THE SYMMETRY SUBSPACES ARE
 A   =  192

 ..... DONE SETTING UP THE RUN .....
 STEP CPU TIME =     0.00 TOTAL CPU TIME =        0.0 (    0.0 MIN)
 TOTAL WALL CLOCK TIME=        0.0 SECONDS, CPU UTILIZATION IS   0.00%


          -----------------------------
          STATIONARY POINT LOCATION RUN
          -----------------------------

 OBTAINING INITIAL HESSIAN, HESS=GUESS   
 DIAGONAL GUESS HESSIAN IN INTERNAL COORDS IS
     1  0.3773     2  0.4884     3  0.4880     4  0.4884     5  0.3532
     6  0.3773     7  0.4881     8  0.4894     9  0.3532    10  0.4894
    11  0.3532    12  0.3532    13  0.2700    14  0.2701    15  0.2705
    16  0.2705    17  0.2337    18  0.2337    19  0.2704    20  0.2704
    21  0.2701    22  0.2337    23  0.2705    24  0.2337    25  0.2706
    26  0.2700    27  0.2338    28  0.2338    29  0.2338    30  0.2338
    31  0.2500    32  0.2500    33  0.2500    34  0.2500    35  0.2500
    36  0.2500    37  0.2500    38  0.2500    39  0.2500    40  0.2500
    41  0.2500    42  0.2500    43  0.2500    44  0.2500    45  0.2500
    46  0.2500    47  0.2500    48  0.2500    49  0.2500    50  0.2500
    51  0.2500    52  0.2500    53  0.2500    54  0.2500
 TRANSFORMING HESSIAN TO SYMMETRY COORDINATES

          PARAMETERS CONTROLLING GEOMETRY SEARCH ARE
          METHOD =QA                  UPHESS =BFGS    
          NNEG   =         0          NFRZ   =         3
          NSTEP  =        50          IFOLOW =         1
          HESS   =GUESS               RESTAR =         F
          IHREP  =         0          HSSEND =         F
          NPRT   =         0          NPUN   =         0
          OPTTOL = 5.000E-04          RMIN   = 1.500E-03
          RMAX   = 1.000E-01          RLIM   = 7.000E-02
          DXMAX  = 3.000E-01          PURIFY =         F
          MOVIE  =         F          TRUPD  =         T
          TRMAX  = 5.000E-01          TRMIN  = 5.000E-02
          ITBMAT =         5          STPT   =         F
          STSTEP = 1.000E-02          PROJCT=          F
          FROZEN COORD(S)=   1   2   3


      ***** EQUILIBRIUM GEOMETRY LOCATED *****
            (SUBJECT TO   3 CONSTRAINT(S))
 COORDINATES OF ALL ATOMS ARE (ANGS)
   ATOM   CHARGE       X              Y              Z
 ------------------------------------------------------------
 CL         17.0  -2.6983300878   0.8242213477  -0.0001609354
 C           6.0  -1.1834357264  -0.0502231422  -0.0002602648
 C           6.0   0.0000008593   0.6645490263   0.0000207758
 C           6.0   1.1834342754  -0.0502138170  -0.0001851742
 C           6.0   1.2040895590  -1.4314584761  -0.0004972828
 C           6.0   0.0000016983  -2.1154499917  -0.0007221323
 C           6.0  -1.2040931668  -1.4314704844   0.0016259463
 CL         17.0   2.6983315086   0.8242189845   0.0001265983
 H           1.0  -0.0000007195   1.7367540452   0.0001555902
 H           1.0   2.1366978582  -1.9620655766  -0.0006810841
 H           1.0  -0.0000164230  -3.1897133539  -0.0012035040
 H           1.0  -2.1367002328  -1.9620831819   0.0012456182


                     --------------------
                     INTERNAL COORDINATES
                     --------------------

                 - - ATOMS - -         COORDINATE      COORDINATE
 NO.   TYPE    I  J  K  L  M  N        (BOHR,RAD)       (ANG,DEG)
 ----------------------------------------------------------------
   1 STRETCH   1  2                     3.3054317       1.7491593
   2 STRETCH   2  3                     2.6126249       1.3825417
   3 STRETCH   2  7                     2.6104733       1.3814031
   4 STRETCH   3  4                     2.6126107       1.3825341
   5 STRETCH   3  9                     2.0261737       1.0722050
   6 STRETCH   4  8                     3.3054254       1.7491559
   7 STRETCH   4  5                     2.6104658       1.3813991
   8 STRETCH   5  6                     2.6168932       1.3848004
   9 STRETCH   5 10                     2.0276524       1.0729875
  10 STRETCH   6  7                     2.6168972       1.3848025
  11 STRETCH   6 11                     2.0300636       1.0742635
  12 STRETCH   7 12                     2.0276557       1.0729892
  13 BEND      1  2  7                  2.0793508     119.1380226
  14 BEND      1  2  3                  2.0747421     118.8739682
  15 BEND      2  7  6                  2.0724292     118.7414472
  16 BEND      2  3  4                  2.0549154     117.7379769
  17 BEND      2  7 12                  2.1030301     120.4947517
  18 BEND      2  3  9                  2.1141358     121.1310579
  19 BEND      3  2  7                  2.1290909     121.9879199
  20 BEND      3  4  5                  2.1290857     121.9876231
  21 BEND      3  4  8                  2.0747533     118.8746086
  22 BEND      4  5 10                  2.1030247     120.4944386
  23 BEND      4  5  6                  2.0724447     118.7423371
  24 BEND      4  3  9                  2.1141341     121.1309636
  25 BEND      5  6  7                  2.1083987     120.8023485
  26 BEND      5  4  8                  2.0793463     119.1377680
  27 BEND      5  6 11                  2.0874146     119.6000470
  28 BEND      6  5 10                  2.1077159     120.7632239
  29 BEND      6  7 12                  2.1077193     120.7634183
  30 BEND      7  6 11                  2.0873708     119.5975377
  31 TORSION   1  2  7  6               3.1397361     179.8936298
  32 TORSION   1  2  3  4              -3.1414944    -179.9943702
  33 TORSION   1  2  7 12               0.0020417       0.1169798
  34 TORSION   1  2  3  9              -0.0001528      -0.0087565
  35 TORSION   2  7  6  5               0.0036871       0.2112567
  36 TORSION   2  3  4  5              -0.0001347      -0.0077155
  37 TORSION   2  3  4  8               3.1415703     179.9987217
  38 TORSION   2  7  6 11              -3.1395532    -179.8831507
  39 TORSION   3  2  7 12              -3.1414696    -179.9929524
  40 TORSION   3  2  7  6              -0.0037752      -0.2163024
  41 TORSION   3  4  5 10               3.1415614     179.9982113
  42 TORSION   3  4  5  6               0.0000958       0.0054885
  43 TORSION   4  5  6  7              -0.0019022      -0.1089901
  44 TORSION   4  3  2  7               0.0020120       0.1152814
  45 TORSION   4  5  6 11               3.1413382     179.9854195
  46 TORSION   5  4  3  9              -3.1414762    -179.9933293
  47 TORSION   5  6  7 12               3.1413707     179.9872858
  48 TORSION   6  5  4  8               3.1415758     179.9990349
  49 TORSION   7  6  5 10               3.1398178     179.8983073
  50 TORSION   7  2  3  9              -3.1398317    -179.8991048
  51 TORSION   8  4  5 10              -0.0001439      -0.0082423
  52 TORSION   8  4  3  9               0.0002288       0.0131079
  53 TORSION  10  5  6 11              -0.0001271      -0.0072830
  54 TORSION  11  6  7 12              -0.0018696      -0.1071216

          INTERNUCLEAR DISTANCES (ANGS.)


 =====================================================
   GAMESS/COSab RESULTS
 =====================================================

   Dielectric Constant                  = INFTY
   Basic Grid Size                      =                 1082
   Number of Segments                   =                   92
   Number of Segments located on spheres=                  269
   Number of Segments of the cavity     =                  531
   Solvent Radius (rsolv)               = 1.40
   Outlying Charge Error Method         = double cavity

 =====================================================

  Total solvated Energy (a.u.)          = -1148.6094099320
  Total Energy corrected (a.u.)         = -1148.6095898333

  Outlying charge effect (a.u.)         =    -0.0001799014
  Outlying charge effect (kcal/mol)     =    -0.1128899023

  Dielectric Energy (a.u.)              =    -0.0073885167
  Dielectric energy corr. (a.u.)        =    -0.0075684181

  Sum of polarization charges           =     0.0220572346
  Sum of polarization charges(cor.)     =    -0.0220572346

  Total surface area of cavity (A**2)   =  159.18
  Total volume of cavity (A**3)         =  154.94

 =====================================================
 NPS=                   531
NR.  ATOM  (X, Y, Z)(a.u.)                  CHARGE(e)  AREA(A**2) SIGMA(e/A**2)
   1   1  -8.508666   3.396540  -0.018872  -0.002945   0.536887  -0.005486
   2   1  -7.733996   0.463723   2.620424   0.002683   0.488079   0.005498
   3   1  -8.214756  -0.365339  -1.266245   0.002595   0.488079   0.005317
   4   1  -6.610223   2.557833  -3.424248   0.002598   0.488079   0.005322
   5   1  -5.084463   5.319081  -0.926617   0.002534   0.488079   0.005193
   6   1  -5.633126   3.993725   2.964015   0.002443   0.439271   0.005561
   7   1  -8.639798   2.603579   1.172999  -0.001958   0.585695  -0.003344
   8   1  -8.438547   1.486547   1.961940   0.000560   0.488079   0.001148
   9   1  -8.910738   2.099570  -0.430437  -0.001943   0.585695  -0.003318
  10   1  -8.808106   0.775817  -0.800038   0.000597   0.488079   0.001224
  11   1  -8.226975   3.337851  -1.433597  -0.001988   0.585695  -0.003395
  12   1  -7.429252   3.267627  -2.579733   0.000652   0.536887   0.001215
  13   1  -7.646624   4.443244  -0.436503  -0.002057   0.536887  -0.003832
  14   1  -6.484923   5.121796  -0.619195   0.000275   0.488079   0.000562
  15   1  -7.816005   4.098039   1.082143  -0.002491   0.683311  -0.003645
  16   1  -6.864923   4.246342   2.158306   0.000661   0.585695   0.001128
  17   1  -8.317351  -0.012083   1.478372   0.002247   0.488079   0.004603
  18   1  -8.488465  -0.314173   0.127183   0.002614   0.536887   0.004869
  19   1  -8.143148   0.534774  -2.167130   0.002331   0.536887   0.004343
  20   1  -7.437778   1.592436  -3.088478   0.002829   0.585695   0.004831
  21   1  -6.039198   3.852695  -2.976201   0.002966   0.585695   0.005065
  22   1  -5.567090   4.816007  -2.042571   0.002751   0.585695   0.004697
  23   1  -5.178410   5.412931   0.369984   0.002584   0.536887   0.004813
  24   1  -5.432666   4.932128   1.872741   0.002875   0.585695   0.004909
  25   1  -6.493121   3.121762   3.258111   0.003226   0.634503   0.005084
  26   1  -7.408567   1.759057   3.103418   0.002864   0.634503   0.004514
  27   1  -7.419196  -0.698118   2.129598   0.002807   0.439271   0.006390
  28   1  -6.658250  -1.010888   2.445006   0.001345   0.244040   0.005513
  29   1  -7.691590  -1.202021  -0.819564   0.002467   0.390463   0.006319
  30   1  -7.267316  -0.785053  -2.195411   0.002941   0.439271   0.006695
  31   1  -6.400189  -0.615930  -2.931279   0.002176   0.390463   0.005573
  32   1  -5.430207   0.177152  -3.604793   0.002506   0.536887   0.004668
  33   1  -5.916527   1.370431  -3.782402   0.003871   0.585695   0.006609
  34   1  -5.228794   2.812875  -3.662925   0.003861   0.585695   0.006592
  35   1  -3.998255   2.802176  -3.499804   0.002063   0.439271   0.004697
  36   1  -3.608859   3.914950  -2.689037   0.001490   0.292848   0.005089
  37   1  -4.108639   4.885759  -1.717693   0.002851   0.439271   0.006490
  38   1  -4.024742   5.275750  -0.168009   0.002208   0.341655   0.006464
  39   1  -3.854808   4.381684   2.341351   0.002292   0.390463   0.005871
  40   1  -4.497319   4.092223   2.866859   0.002569   0.390463   0.006580
  41   1  -4.935824   3.012509   3.586304   0.003126   0.488079   0.006404
  42   1  -4.367893   1.815724   3.795221   0.002285   0.488079   0.004682
  43   1  -5.232198   0.404738   3.695727   0.002467   0.536887   0.004594
  44   1  -6.654015   0.539152   3.398584   0.003196   0.488079   0.006549
  45   1  -8.884524   1.101315   0.685107   0.000098   0.585695   0.000167
  46   1  -8.415172   1.991573  -1.955478  -0.000047   0.683311  -0.000068
  47   1  -6.978350   4.440112  -1.779815   0.000000   0.585695   0.000000
  48   1  -6.523945   5.070641   0.796790   0.000307   0.634503   0.000484
  49   1  -7.809859   2.961322   2.384764   0.000081   0.585695   0.000138
  50   1  -7.770866  -1.105641   0.880872   0.002590   0.390463   0.006634
  51   1  -7.011890   0.322568  -3.134552   0.003124   0.488079   0.006401
  52   1  -4.565998   4.099543  -2.874588   0.003141   0.488079   0.006435
  53   1  -4.190650   5.082349   1.325541   0.002871   0.439271   0.006536
  54   1  -5.885136   1.730009   3.789119   0.004271   0.634503   0.006731
  55   1  -4.461524   1.490896  -3.820844   0.002205   0.488079   0.004517
  56   1  -3.809304   2.944400   3.379105   0.001451   0.341655   0.004247
  57   1  -6.138677  -0.474058   3.130063   0.001778   0.341655   0.005205
  58   2  -3.140492  -0.612700   3.632508   0.000165   0.139368   0.001185
  59   2  -2.358488   0.730992   3.685588   0.000238   0.232280   0.001023
  60   2  -2.709360  -0.036548   3.748787   0.000158   0.185824   0.000851
  61   2  -2.193312  -0.562652   3.749654   0.000377   0.139368   0.002702
  62   2  -1.600331  -0.406031  -3.713032   0.001531   0.371649   0.004120
  63   2  -2.315990   0.845206  -3.660290   0.000239   0.232280   0.001029
  64   2  -2.885893  -0.324166  -3.716653   0.000498   0.418105   0.001192
  65   2  -1.600841  -0.174246   3.724295   0.000974   0.232280   0.004194
  66   3  -0.100844   0.270356  -3.647281   0.000353   0.092912   0.003800
  67   3   1.121400   2.722648  -3.297696   0.000118   0.139368   0.000849
  68   3   0.186520   2.911579   3.392371   0.000232   0.325193   0.000714
  69   3   0.214821   3.769845   2.813889  -0.000418   0.325193  -0.001285
  70   3  -1.041725   3.854543  -2.538785  -0.000433   0.139368  -0.003105
  71   3   0.881711   3.675950  -2.765773  -0.000354   0.232280  -0.001523
  72   3   0.442811   3.076175  -3.282399   0.000119   0.232280   0.000511
  73   3  -0.924970   3.103967  -3.164289  -0.000114   0.325193  -0.000350
  74   3  -0.924776   3.057833   3.190931  -0.000077   0.371649  -0.000206
  75   3   1.125243   3.194517   3.042983   0.000161   0.232280   0.000692
  76   3   0.732188   2.023973  -3.627362   0.000693   0.325193   0.002131
  77   3   0.355860   0.968791  -3.751654   0.000878   0.232280   0.003778
  78   3  -0.464312   1.163334  -3.749639   0.000769   0.185824   0.004139
  79   3  -0.865013   2.217104  -3.551284   0.000361   0.232280   0.001556
  80   3  -0.590803   1.908899   3.675460   0.001234   0.511017   0.002415
  81   3   0.837446   2.048976   3.599185   0.000825   0.418105   0.001974
  82   3  -0.840450   3.880441   2.586393  -0.000509   0.232280  -0.002189
  83   3  -0.162926   3.692318  -2.884593  -0.000288   0.278737  -0.001032
  84   3   1.098649   3.951314   2.410741  -0.000451   0.092912  -0.004855
  85   3   0.108434   0.744857   3.743228   0.001803   0.418105   0.004312
  86   3  -0.135455   2.163414  -3.666311   0.000548   0.278737   0.001968
  87   4   3.136452  -0.616856  -3.633746   0.000119   0.139368   0.000854
  88   4   2.354377   0.726768  -3.687508   0.000300   0.232280   0.001292
  89   4   2.705186  -0.040841  -3.750211   0.000422   0.185824   0.002268
  90   4   2.189143  -0.566950  -3.749898   0.000372   0.139368   0.002671
  91   4   1.604444  -0.401724   3.713256   0.001443   0.371649   0.003882
  92   4   2.320032   0.849457   3.658275   0.000256   0.232280   0.001102
  93   4   2.890008  -0.319845   3.715355   0.000772   0.418105   0.001846
  94   4   1.596697  -0.178520  -3.724330   0.000926   0.232280   0.003987
  95   5   1.468382  -2.128504  -3.647933   0.000414   0.092912   0.004452
  96   5   3.051811  -4.982709  -2.915338   0.000662   0.325193   0.002037
  97   5   3.622639  -3.687452   3.390831   0.000517   0.325193   0.001590
  98   5   4.354565  -4.136225   2.812081  -0.000078   0.325193  -0.000239
  99   5   5.049035  -3.083634  -2.540205  -0.000331   0.139368  -0.002373
 100   5   3.873140  -4.999220  -2.544220  -0.000307   0.278737  -0.001101
 101   5   3.492133  -6.175294   0.871557  -0.000588   0.092912  -0.006331
 102   5   3.440201  -5.742856  -1.924281  -0.000358   0.185824  -0.001925
 103   5   3.637794  -4.111530  -3.233577   0.000469   0.325193   0.001442
 104   5   4.276145  -2.853123  -3.203959   0.000353   0.278737   0.001266
 105   5   4.236090  -2.821901   3.228039   0.000427   0.325193   0.001312
 106   5   3.284498  -4.831201   2.956337   0.000484   0.371649   0.001302
 107   5   3.462468  -5.793242   1.826143   0.000006   0.185824   0.000030
 108   5   2.649867  -3.862669  -3.579200   0.001208   0.325193   0.003714
 109   5   1.849581  -2.870799  -3.752666   0.000964   0.232280   0.004151
 110   5   2.424261  -2.254136  -3.750440   0.000893   0.185824   0.004805
 111   5   3.538336  -2.427050  -3.552270   0.000489   0.232280   0.002105
 112   5   3.135566  -2.516110   3.674476   0.001526   0.511017   0.002987
 113   5   2.551019  -3.826737   3.597690   0.001451   0.418105   0.003470
 114   5   4.972517  -3.273609   2.584899  -0.000343   0.232280  -0.001475
 115   5   4.473420  -3.767087  -2.886253   0.000004   0.278737   0.000014
 116   5   3.443149  -6.088577  -1.214358  -0.000414   0.092912  -0.004451
 117   5   3.786014  -5.200406   2.402293  -0.000137   0.232280  -0.000591
 118   5   1.775437  -2.487525   3.738979   0.002333   0.464561   0.005023
 119   5   3.036967  -3.055841  -3.686208   0.000896   0.325193   0.002756
 120   6  -0.059494  -3.087005  -3.669003   0.000686   0.139368   0.004921
 121   6  -1.577540  -5.861642  -2.885988   0.000564   0.278737   0.002023
 122   6   1.544341  -6.097557  -2.738081   0.000221   0.278737   0.000794
 123   6  -0.094835  -5.638811   3.401822   0.000608   0.371649   0.001636
 124   6  -0.138620  -6.551386   2.781306   0.000014   0.371649   0.000037
 125   6   2.148419  -6.668943   1.590050  -0.000170   0.092912  -0.001829
 126   6   1.819427  -6.643902  -1.994154  -0.000064   0.278737  -0.000229
 127   6  -1.204514  -6.520128  -2.545056  -0.000124   0.278737  -0.000446
 128   6  -2.238240  -6.748774   1.304619  -0.000223   0.092912  -0.002401
 129   6  -2.064818  -6.511714  -1.924926  -0.000397   0.185824  -0.002138
 130   6  -0.549481  -5.876430  -3.234388   0.000488   0.325193   0.001500
 131   6   0.777045  -5.875781  -3.187749   0.000317   0.232280   0.001366
 132   6   1.814710  -6.473302   2.203647  -0.000281   0.185824  -0.001511
 133   6   1.120890  -5.841531   3.101508   0.000820   0.418105   0.001960
 134   6  -1.264887  -5.932975   2.988388   0.000446   0.325193   0.001371
 135   6  -1.937193  -6.160955   2.417606   0.000112   0.139368   0.000803
 136   6  -0.821777  -4.894591  -3.579692   0.001155   0.325193   0.003552
 137   6  -0.342799  -3.939430  -3.764797   0.000856   0.232280   0.003683
 138   6   0.395585  -3.993121  -3.760065   0.001223   0.232280   0.005265
 139   6   1.084084  -5.002486  -3.479777   0.000762   0.278737   0.002734
 140   6   0.590397  -4.652795   3.673738   0.001832   0.511017   0.003585
 141   6  -0.837847  -4.792797   3.597228   0.001340   0.418105   0.003204
 142   6   1.056850  -6.531092   2.596483   0.000008   0.232280   0.000034
 143   6   0.253771  -6.461340  -2.856184   0.000070   0.325193   0.000215
 144   6  -2.363698  -6.685420  -1.214983  -0.000135   0.092912  -0.001452
 145   6  -1.437022  -6.634885   2.292970  -0.000238   0.232280  -0.001023
 146   6  -0.057321  -3.456479   3.738698   0.002305   0.464561   0.004962
 147   6   0.206629  -5.062783  -3.621732   0.000671   0.278737   0.002407
 148   7  -1.472995  -2.124336   3.650413   0.000409   0.092912   0.004407
 149   7  -3.055520  -4.979375   2.919117   0.000659   0.325193   0.002026
 150   7  -3.618361  -3.691406  -3.389262   0.000527   0.325193   0.001620
 151   7  -4.351022  -4.139504  -2.810920  -0.000080   0.325193  -0.000246
 152   7  -5.052252  -3.080722   2.539262  -0.000312   0.139368  -0.002235
 153   7  -3.876379  -4.996309   2.546979  -0.000307   0.278737  -0.001101
 154   7  -3.491062  -6.176335  -0.866951  -0.000592   0.092912  -0.006373
 155   7  -3.442663  -5.740665   1.928449  -0.000353   0.185824  -0.001898
 156   7  -3.641899  -4.107825   3.235607   0.000470   0.325193   0.001444
 157   7  -4.280200  -2.849448   3.203727   0.000159   0.278737   0.000572
 158   7  -4.232010  -2.825662  -3.228247   0.000231   0.325193   0.000711
 159   7  -3.280779  -4.834654  -2.953019   0.000484   0.371649   0.001303
 160   7  -3.460186  -5.795386  -1.821940   0.000013   0.185824   0.000072
 161   7  -2.654407  -3.858571   3.582191   0.001208   0.325193   0.003716
 162   7  -1.854333  -2.866506   3.755523   0.000977   0.232280   0.004207
 163   7  -2.429004  -2.249842   3.751857   0.000888   0.185824   0.004781
 164   7  -3.542830  -2.422978   3.552477   0.000464   0.232280   0.001998
 165   7  -3.130920  -2.520396  -3.673645   0.001516   0.511017   0.002966
 166   7  -2.546481  -3.830936  -3.594604   0.001441   0.418105   0.003448
 167   7  -4.969254  -3.276621  -2.585518  -0.000311   0.232280  -0.001340
 168   7  -4.477082  -3.763778   2.886828  -0.000004   0.278737  -0.000013
 169   7  -3.444716  -6.087206   1.218923  -0.000417   0.092912  -0.004484
 170   7  -3.782998  -5.203214  -2.399184  -0.000140   0.232280  -0.000603
 171   7  -1.830986  -2.498932  -3.744496   0.002202   0.418105   0.005266
 172   7  -3.041635  -3.051618   3.687777   0.000891   0.325193   0.002741
 173   8   8.508684   3.396498   0.019653  -0.002945   0.536887  -0.005485
 174   8   7.733818   0.465214  -2.621288   0.002683   0.488079   0.005497
 175   8   8.214819  -0.366100   1.264870   0.002596   0.488079   0.005318
 176   8   6.610450   2.555839   3.424665   0.002596   0.488079   0.005319
 177   8   5.084555   5.318545   0.928728   0.002535   0.488079   0.005193
 178   8   5.632957   3.995433  -2.962705   0.002442   0.439271   0.005560
 179   8   8.639731   2.604225  -1.172685  -0.001958   0.585695  -0.003344
 180   8   8.438420   1.487650  -1.962259   0.000560   0.488079   0.001148
 181   8   8.910770   2.099286   0.430443  -0.001943   0.585695  -0.003317
 182   8   8.808149   0.775320   0.799285   0.000597   0.488079   0.001224
 183   8   8.227082   3.336993   1.434361  -0.001988   0.585695  -0.003394
 184   8   7.429432   3.266113   2.580508   0.000653   0.536887   0.001216
 185   8   7.646678   4.442967   0.437944  -0.002057   0.536887  -0.003831
 186   8   6.484995   5.121424   0.621103   0.000275   0.488079   0.000563
 187   8   7.815958   4.098639  -1.080913  -0.002491   0.683311  -0.003645
 188   8   6.864809   4.247573  -2.156929   0.000660   0.585695   0.001127
 189   8   8.317242  -0.011258  -1.479549   0.002246   0.488079   0.004601
 190   8   8.488439  -0.314130  -0.128546   0.002614   0.536887   0.004869
 191   8   8.143277   0.533493   2.166279   0.002332   0.536887   0.004344
 192   8   7.437975   1.590629   3.088283   0.002827   0.585695   0.004828
 193   8   6.039408   3.850965   2.977403   0.002965   0.585695   0.005062
 194   8   5.567250   4.814821   2.044360   0.002751   0.585695   0.004697
 195   8   5.178420   5.413143  -0.367825   0.002583   0.536887   0.004811
 196   8   5.432576   4.933206  -1.870875   0.002877   0.585695   0.004912
 197   8   6.492926   3.123632  -3.257359   0.003225   0.634503   0.005083
 198   8   7.408369   1.760830  -3.103513   0.002863   0.634503   0.004512
 199   8   7.419038  -0.696908  -2.131114   0.002810   0.439271   0.006396
 200   8   6.658069  -1.009489  -2.446655   0.001259   0.244040   0.005161
 201   8   7.691616  -1.202518   0.817739   0.002465   0.390463   0.006313
 202   8   7.267435  -0.786342   2.193853   0.002915   0.439271   0.006637
 203   8   6.400356  -0.617637   2.929874   0.002081   0.390463   0.005329
 204   8   5.430424   0.175065   3.603909   0.002471   0.536887   0.004602
 205   8   5.916767   1.368237   3.782177   0.003876   0.585695   0.006618
 206   8   5.229039   2.810755   3.663578   0.003872   0.585695   0.006611
 207   8   3.998489   2.800162   3.500530   0.002043   0.439271   0.004650
 208   8   3.609052   3.913408   2.690431   0.001353   0.292848   0.004619
 209   8   4.108779   4.884773   1.719616   0.002847   0.439271   0.006482
 210   8   4.024786   5.275661   0.170163   0.002209   0.341655   0.006464
 211   8   3.854683   4.383048  -2.339702   0.002217   0.390463   0.005678
 212   8   4.497158   4.093885  -2.865419   0.002558   0.390463   0.006550
 213   8   4.935608   3.014583  -3.585516   0.003131   0.488079   0.006415
 214   8   4.367651   1.817924  -3.795089   0.002206   0.488079   0.004520
 215   8   5.231950   0.406873  -3.696466   0.002411   0.536887   0.004491
 216   8   6.653788   0.541103  -3.399336   0.003204   0.488079   0.006565
 217   8   8.884475   1.101676  -0.685677   0.000098   0.585695   0.000168
 218   8   8.415301   1.990412   1.955453  -0.000046   0.683311  -0.000068
 219   8   6.978489   4.439065   1.781297   0.000001   0.585695   0.000002
 220   8   6.523926   5.071088  -0.794914   0.000307   0.634503   0.000484
 221   8   7.809718   2.962675  -2.384189   0.000081   0.585695   0.000138
 222   8   7.770785  -1.105156  -0.882647   0.002590   0.390463   0.006633
 223   8   7.012079   0.320738   3.133651   0.003132   0.488079   0.006418
 224   8   4.566204   4.097885   2.876027   0.003142   0.488079   0.006437
 225   8   4.190597   5.083122  -1.323509   0.002875   0.439271   0.006545
 226   8   5.884895   1.732192  -3.789133   0.004270   0.634503   0.006730
 227   8   4.461767   1.488692   3.820781   0.001999   0.488079   0.004096
 228   8   3.809100   2.946364  -3.378284   0.001417   0.341655   0.004148
 229   8   6.138458  -0.472258  -3.131368   0.001730   0.341655   0.005064
 230   9   0.001848   5.734215   0.147710  -0.004287   0.372926  -0.011496
 231   9   0.646979   4.969872  -1.663316  -0.002768   0.294415  -0.009402
 232   9  -0.203305   4.972171   1.771476  -0.003320   0.392554  -0.008456
 233   9  -0.625906   5.006393  -1.633661  -0.003090   0.314043  -0.009839
 234   9   0.901349   5.548403  -0.293101  -0.004410   0.372926  -0.011826
 235   9   0.748653   5.284472   1.210549  -0.005200   0.471065  -0.011039
 236   9  -0.765939   5.421177   0.934295  -0.004484   0.392554  -0.011422
 237   9  -0.869921   5.533101  -0.458923  -0.003902   0.333671  -0.011695
 238   9   0.090639   5.461269  -1.130045  -0.003314   0.314043  -0.010552
 239  10   5.905320  -5.298111   0.133672  -0.005538   0.510320  -0.010853
 240  10   4.957634  -5.525665  -1.373968  -0.002819   0.372926  -0.007559
 241  10   4.663930  -5.987008   0.668111  -0.002767   0.353299  -0.007832
 242  10   5.693583  -4.193150   1.747368  -0.002729   0.353299  -0.007723
 243  10   5.845930  -4.015781  -1.635564  -0.002742   0.314043  -0.008732
 244  10   4.916993  -5.973319  -0.360976  -0.003794   0.412182  -0.009206
 245  10   5.273608  -5.295152   1.408686  -0.004012   0.471065  -0.008517
 246  10   6.255203  -4.245037   0.909467  -0.004053   0.392554  -0.010324
 247  10   6.404626  -4.228555  -0.403709  -0.005063   0.471065  -0.010747
 248  10   5.701092  -4.906438  -1.354698  -0.003867   0.412182  -0.009382
 249  11  -0.050394  -8.483200   0.052945  -0.006497   0.608459  -0.010678
 250  11  -1.086429  -7.777561  -1.341227  -0.003028   0.412182  -0.007347
 251  11  -1.646308  -7.716871   0.684436  -0.002752   0.333671  -0.008248
 252  11   0.115534  -7.730818   1.764397  -0.002348   0.353299  -0.006645
 253  11   1.740618  -7.719181   0.377323  -0.002874   0.333671  -0.008613
 254  11   1.116360  -7.658062  -1.461944  -0.002102   0.333671  -0.006301
 255  11  -1.447184  -7.988608  -0.311582  -0.004409   0.490692  -0.008985
 256  11  -0.773472  -7.987969   1.260352  -0.004041   0.490692  -0.008235
 257  11   0.976633  -7.985726   1.114567  -0.004271   0.510320  -0.008369
 258  11   1.283047  -8.064361  -0.492960  -0.004493   0.490692  -0.009156
 259  11   0.004499  -8.011460  -1.451317  -0.004628   0.549575  -0.008422
 260  12  -5.905161  -5.298276  -0.133134  -0.005539   0.510320  -0.010854
 261  12  -4.959385  -5.524093   1.375966  -0.002819   0.372926  -0.007560
 262  12  -4.663103  -5.987799  -0.665205  -0.002769   0.353299  -0.007837
 263  12  -5.691375  -4.195183  -1.747837  -0.002726   0.353299  -0.007715
 264  12  -5.847999  -4.013902   1.634693  -0.002741   0.314043  -0.008727
 265  12  -4.917467  -5.972918   0.363545  -0.003793   0.412182  -0.009202
 266  12  -5.271837  -5.296795  -1.407350  -0.004013   0.471065  -0.008518
 267  12  -6.254055  -4.246097  -0.910587  -0.004053   0.392554  -0.010326
 268  12  -6.405138  -4.228096   0.402379  -0.005062   0.471065  -0.010745
 269  12  -5.702813  -4.904884   1.355039  -0.003867   0.412182  -0.009382
 270   1  -2.850836   1.996827  -3.296429  -0.000231   0.061397  -0.003763
 271   2  -2.355230   1.722571  -3.332413  -0.000214   0.061397  -0.003479
 272   3  -1.964244   1.944070  -3.292397  -0.000144   0.061397  -0.002347
 273   1  -2.851398   1.995121   3.296413  -0.000248   0.061397  -0.004047
 274   2  -2.355799   1.720847   3.332340  -0.000209   0.061397  -0.003409
 275   3  -1.964806   1.942366   3.292505  -0.000145   0.061397  -0.002367
 276   1  -4.353786  -0.609290   3.295645  -0.000214   0.061151  -0.003506
 277   2  -3.868473  -0.901336   3.331729  -0.000185   0.061151  -0.003021
 278   7  -3.862553  -1.350329   3.292298  -0.000113   0.061151  -0.001841
 279   1  -4.359355  -0.618206  -3.291649  -0.000217   0.061151  -0.003550
 280   2  -3.874103  -0.910350  -3.327763  -0.000197   0.061151  -0.003214
 281   7  -3.868115  -1.359234  -3.287126  -0.000118   0.061151  -0.001926
 282   2  -3.628877  -0.242010  -3.526370  -0.000473   0.262325  -0.001802
 283   2  -2.811275   1.174406  -3.529066  -0.000502   0.262325  -0.001913
 284   1  -3.922965   0.871985  -3.497891  -0.001001   0.538144  -0.001860
 285   2  -2.810507   1.174953   3.528635  -0.000488   0.261035  -0.001869
 286   2  -3.624284  -0.234834   3.528114  -0.000450   0.261035  -0.001726
 287   1  -3.920307   0.875814   3.499159  -0.000831   0.535338  -0.001553
 288   1  -2.494498   4.085619  -1.958247  -0.000286   0.072246  -0.003955
 289   3  -1.608879   4.088178  -2.008464  -0.000539   0.072246  -0.007456
 290   9  -1.506741   4.300462  -1.825688  -0.000638   0.072246  -0.008826
 291   1  -2.494801   4.085135   1.958648  -0.000305   0.072246  -0.004218
 292   3  -1.609190   4.087681   2.009002  -0.000539   0.072246  -0.007466
 293   9  -1.507024   4.300011   1.826294  -0.000774   0.072246  -0.010709
 294   3  -1.768990   2.531514  -3.237698  -0.000320   0.344037  -0.000929
 295   3  -1.698267   3.727542  -2.499184  -0.000866   0.344037  -0.002518
 296   1  -2.997990   3.195081  -2.853523  -0.000183   0.699981  -0.000261
 297   3  -1.698663   3.726764   2.499719  -0.000929   0.344173  -0.002700
 298   3  -1.769533   2.530000   3.238044  -0.000344   0.344173  -0.001001
 299   1  -2.998458   3.193923   2.853754  -0.000101   0.700260  -0.000145
 300   1  -5.970028  -1.957603   1.971927  -0.000214   0.072771  -0.002945
 301   7  -5.526566  -2.725249   2.022774  -0.000446   0.072771  -0.006123
 302  12  -5.662202  -2.917803   1.839255  -0.000545   0.072771  -0.007493
 303   1  -5.967579  -1.959110  -1.970946  -0.000233   0.072771  -0.003205
 304   7  -5.524055  -2.726795  -2.020655  -0.000446   0.072771  -0.006134
 305  12  -5.659919  -2.919208  -1.837158  -0.000656   0.072771  -0.009016
 306   7  -4.268815  -1.811841   3.239841  -0.000178   0.341154  -0.000521
 307   7  -5.259684  -2.468800   2.510362  -0.000604   0.341154  -0.001771
 308   1  -5.456782  -1.078914   2.859899  -0.000034   0.694041  -0.000049
 309   7  -5.258316  -2.471875  -2.506820  -0.000653   0.339389  -0.001923
 310   7  -4.272539  -1.819446  -3.234025  -0.000207   0.339389  -0.000610
 311   1  -5.458145  -1.084354  -2.857272  -0.000028   0.690411  -0.000041
 312   9  -1.489767   4.689514  -1.563573  -0.001803   0.228079  -0.007907
 313   9  -1.641558   5.137935  -0.389583  -0.004774   0.459760  -0.010383
 314   9  -1.558763   4.892584   1.126121  -0.004413   0.459760  -0.009597
 315   1  -3.042512   4.749521  -1.314281   0.001221   0.655730   0.001863
 316   1  -3.139463   5.035577   0.455641   0.001478   0.655730   0.002254
 317   1  -2.968253   4.528840   1.815097   0.000674   0.332356   0.002028
 318  12  -5.993897  -3.126760   1.575735  -0.001526   0.229558  -0.006649
 319  12  -6.464674  -3.222252   0.393675  -0.004249   0.462851  -0.009181
 320  12  -6.206066  -3.170900  -1.132972  -0.003930   0.462851  -0.008490
 321   1  -6.825456  -1.817494   1.323640   0.001445   0.659636   0.002191
 322   1  -7.125179  -1.878813  -0.459113   0.001729   0.659636   0.002621
 323   1  -6.591914  -1.772019  -1.827367   0.000812   0.334421   0.002428
 324   2  -0.390015  -0.650799   3.364855   0.000095   0.048919   0.001932
 325   3  -0.000120  -0.427073   3.399811   0.000131   0.048919   0.002675
 326   4   0.389777  -0.650795   3.364882   0.000079   0.048919   0.001611
 327   2  -0.389779  -0.648497  -3.366098   0.000080   0.048919   0.001634
 328   3   0.000118  -0.424747  -3.400874   0.000141   0.048919   0.002890
 329   4   0.390012  -0.648492  -3.366071   0.000092   0.048919   0.001878
 330   3  -1.294354   1.495403   3.532074   0.000272   0.206534   0.001315
 331   3  -0.462623   0.118312   3.563760   0.000696   0.206534   0.003369
 332   2  -1.430876   0.472066   3.497404   0.000600   0.423896   0.001415
 333   3  -0.462299   0.120627  -3.564485   0.000683   0.206480   0.003307
 334   3  -1.293826   1.497354  -3.532080   0.000328   0.206480   0.001589
 335   2  -1.430457   0.474169  -3.498063   0.000652   0.423774   0.001539
 336   2  -0.391951  -1.174081   3.272180  -0.000020   0.154003  -0.000130
 337   4   0.391723  -1.174076   3.272207  -0.000043   0.154003  -0.000278
 338   6  -0.000110  -1.857994   3.271363   0.000077   0.154003   0.000498
 339   2  -0.391722  -1.172478  -3.273572  -0.000038   0.154003  -0.000247
 340   4   0.391952  -1.172473  -3.273544  -0.000028   0.154003  -0.000182
 341   6   0.000118  -1.856391  -3.273063   0.000079   0.154003   0.000514
 342   4   0.555933  -0.818060   3.460951   0.000090   0.020582   0.004383
 343   2  -0.556177  -0.833682   3.457613   0.000114   0.020582   0.005536
 344   4   0.556175  -0.831711  -3.458864   0.000102   0.020758   0.004938
 345   2  -0.555935  -0.815967  -3.462221   0.000097   0.020758   0.004659
 346   2  -0.793348  -1.408532   3.352507   0.000129   0.048405   0.002657
 347   6  -0.403405  -2.089067   3.352263   0.000164   0.048405   0.003380
 348   7  -0.789453  -1.857558   3.388425   0.000198   0.048405   0.004082
 349   2  -0.811506  -1.417428  -3.357765   0.000110   0.048405   0.002271
 350   6  -0.421563  -2.097963  -3.357828   0.000157   0.048405   0.003239
 351   7  -0.807802  -1.866547  -3.392513   0.000160   0.048405   0.003299
 352   6  -0.206103  -2.167447  -3.457886   0.000087   0.011424   0.007585
 353   2  -0.754770  -1.192639  -3.455834   0.000067   0.011424   0.005878
 354   6  -0.191270  -2.160501   3.452356   0.000053   0.005679   0.009314
 355   2  -0.751127  -1.192106   3.453498   0.000053   0.005679   0.009256
 356   7  -3.139821  -1.714347  -3.528128   0.000323   0.208509   0.001551
 357   7  -1.515271  -1.738684  -3.558729   0.000608   0.208509   0.002915
 358   2  -2.316926  -1.081131  -3.492892   0.000843   0.428426   0.001968
 359   7  -1.498767  -1.729208   3.558087   0.000844   0.209545   0.004027
 360   7  -3.131099  -1.704830   3.533073   0.000420   0.209545   0.002005
 361   2  -2.304487  -1.071773   3.492772   0.000863   0.430780   0.002004
 362   3   1.964587   1.944306  -3.292137  -0.000136   0.061396  -0.002214
 363   4   2.355577   1.722815  -3.332125  -0.000227   0.061396  -0.003697
 364   8   2.851181   1.997063  -3.296072  -0.000254   0.061396  -0.004130
 365   3   1.964447   1.942202   3.292748  -0.000144   0.061396  -0.002341
 366   4   2.355435   1.720686   3.332611  -0.000232   0.061396  -0.003780
 367   8   2.851040   1.994957   3.296754  -0.000244   0.061396  -0.003967
 368   4   1.015482  -0.213259  -3.564547   0.000673   0.206501   0.003258
 369   4   1.847078   1.163613  -3.532018   0.000153   0.206501   0.000740
 370   3   0.877850   0.808242  -3.497824   0.000875   0.423821   0.002065
 371   4   1.846907   1.161323   3.532126   0.000164   0.206515   0.000795
 372   4   1.015252  -0.215664   3.563699   0.000516   0.206515   0.002500
 373   3   0.877653   0.805928   3.497636   0.000815   0.423854   0.001923
 374   3   1.609095   4.088174  -2.008288  -0.000636   0.072247  -0.008805
 375   8   2.494711   4.085615  -1.957974  -0.000348   0.072247  -0.004814
 376   9   1.506939   4.300459  -1.825523  -0.000790   0.072247  -0.010937
 377   3   1.608963   4.087678   2.009181  -0.000587   0.072247  -0.008131
 378   8   2.494582   4.085132   1.958925  -0.000325   0.072247  -0.004504
 379   9   1.506818   4.300008   1.826462  -0.000641   0.072247  -0.008871
 380   8   3.032573   2.616195  -3.260190   0.000063   0.349612   0.000180
 381   8   2.961407   3.818336  -2.517851   0.000346   0.349612   0.000990
 382   3   1.735205   3.108105  -2.833211  -0.001835   0.690351  -0.002659
 383   8   2.961255   3.817479   2.518912   0.000332   0.349812   0.000949
 384   8   3.032420   2.614348   3.261130   0.000087   0.349812   0.000250
 385   3   1.735057   3.106753   2.834056  -0.001907   0.690752  -0.002761
 386   9  -0.813243   4.497551   1.968952  -0.000775   0.071527  -0.010834
 387   9   0.358983   4.497542   2.029503  -0.001617   0.161656  -0.010001
 388   3  -0.403316   4.173050   2.278545  -0.001384   0.154015  -0.008986
 389   3   0.891022   4.173055   2.229109  -0.000658   0.087386  -0.007530
 390   9   0.813175   4.498035  -1.968097  -0.000679   0.071521  -0.009496
 391   9  -0.358961   4.498044  -2.028636  -0.001706   0.161639  -0.010552
 392   3   0.403280   4.173612  -2.277764  -0.001484   0.154005  -0.009633
 393   3  -0.890959   4.173607  -2.228334  -0.000683   0.087379  -0.007814
 394   4   0.802187  -1.413719   3.354412   0.000107   0.048404   0.002211
 395   5   0.798385  -1.862797   3.389642   0.000156   0.048404   0.003230
 396   6   0.412250  -2.094259   3.354141   0.000152   0.048404   0.003141
 397   4   0.802597  -1.412176  -3.355874   0.000122   0.048404   0.002514
 398   5   0.798800  -1.861238  -3.391310   0.000197   0.048404   0.004069
 399   6   0.412661  -2.092716  -3.355964   0.000161   0.048404   0.003335
 400   4   3.871502  -0.905045  -3.330168  -0.000195   0.061151  -0.003186
 401   5   3.865547  -1.353990  -3.290239  -0.000101   0.061151  -0.001652
 402   8   4.356784  -0.612963  -3.293967  -0.000224   0.061151  -0.003671
 403   4   3.871017  -0.906577   3.329353  -0.000224   0.061151  -0.003661
 404   5   3.865068  -1.355504   3.289217  -0.000115   0.061151  -0.001884
 405   8   4.356304  -0.614479   3.293358  -0.000234   0.061151  -0.003833
 406   5   1.507209  -1.733090  -3.559178   0.000834   0.209029   0.003990
 407   5   3.135679  -1.708738  -3.531260   0.000429   0.209029   0.002053
 408   4   2.310906  -1.075614  -3.493397   0.000867   0.429608   0.002019
 409   5   3.135181  -1.710363   3.529968   0.000325   0.209023   0.001553
 410   5   1.506757  -1.734727   3.557655   0.000609   0.209023   0.002912
 411   4   2.310438  -1.077221   3.492288   0.000846   0.429593   0.001970
 412   6   0.200356  -2.165838   3.454656   0.000070   0.008513   0.008172
 413   4   0.750921  -1.192116   3.453538   0.000055   0.008513   0.006430
 414   6   0.195101  -2.160996  -3.455133   0.000068   0.008568   0.007897
 415   4   0.756841  -1.193677  -3.456261   0.000063   0.008568   0.007364
 416   8   3.511994   1.582313   3.552564  -0.000126   0.265015  -0.000477
 417   8   4.330960   0.163507   3.550611  -0.000138   0.265015  -0.000520
 418   4   3.218527   0.467255   3.476409  -0.001744   0.534565  -0.003262
 419   8   4.331401   0.165274  -3.550867  -0.000079   0.265087  -0.000297
 420   8   3.512223   1.584450  -3.552117  -0.000130   0.265087  -0.000491
 421   4   3.218855   0.469166  -3.476575  -0.001721   0.534722  -0.003218
 422   5   2.906776  -6.502140  -0.480601  -0.000157   0.006805  -0.023063
 423   6   2.536780  -6.759496  -0.486828  -0.000178   0.006805  -0.026109
 424  11   2.327184  -6.964911  -0.443220  -0.000133   0.006805  -0.019510
 425   5   2.906831  -6.502561   0.475307  -0.000128   0.006805  -0.018798
 426   6   2.536837  -6.759922   0.481350  -0.000157   0.006805  -0.022999
 427  11   2.327235  -6.965299   0.437586  -0.000165   0.006805  -0.024174
 428   6   0.471951  -2.833103  -3.559545   0.000911   0.199673   0.004563
 429   6   1.464021  -4.579600  -3.290787   0.000982   0.408410   0.002405
 430   6   2.381283  -6.194863  -1.675868  -0.002231   0.408410  -0.005462
 431   5   1.418684  -3.189835  -3.512816   0.001765   0.408410   0.004320
 432   5   2.557410  -5.194701  -2.651294  -0.000521   0.408410  -0.001276
 433   5   3.147347  -6.233759  -1.014523  -0.001167   0.199673  -0.005844
 434   6   2.584871  -6.554160   1.009455  -0.001208   0.199727  -0.006049
 435   6   1.994874  -5.516101   2.647455  -0.000404   0.408530  -0.000989
 436   6   0.855862  -3.511315   3.510404   0.001659   0.408530   0.004062
 437   5   2.943914  -5.876550   1.671265  -0.002275   0.408530  -0.005568
 438   5   2.026475  -4.262067   3.287726   0.000939   0.408530   0.002298
 439   5   1.034146  -2.515294   3.557498   0.000687   0.199727   0.003440
 440   5   5.525362  -2.726612   2.020679  -0.000499   0.072771  -0.006862
 441   8   5.968856  -1.958939   1.970618  -0.000269   0.072771  -0.003701
 442  10   5.661109  -2.919043   1.837108  -0.000659   0.072771  -0.009055
 443   5   5.525230  -2.725398  -2.022781  -0.000493   0.072771  -0.006768
 444   8   5.968726  -1.957756  -1.972288  -0.000254   0.072771  -0.003495
 445  10   5.660988  -2.917940  -1.839334  -0.000546   0.072771  -0.007509
 446   8   4.978479  -0.765243   3.259412   0.000119   0.345890   0.000345
 447   8   5.972179  -1.423302   2.526969   0.000367   0.345890   0.001061
 448   5   4.747202  -2.132086   2.837763  -0.001389   0.682855  -0.002034
 449   8   5.972140  -1.421869  -2.528224   0.000393   0.345761   0.001137
 450   8   4.978827  -0.763658  -3.260094   0.000091   0.345761   0.000265
 451   5   4.747368  -2.130614  -2.839336  -0.001337   0.682596  -0.001958
 452  10   5.496991  -3.598522   1.972249  -0.000621   0.065705  -0.009448
 453  10   4.963122  -4.536889   2.059455  -0.001178   0.145605  -0.008092
 454  10   4.378784  -5.563727   1.491863  -0.001406   0.145605  -0.009659
 455  10   4.078648  -6.090835   0.329933  -0.001505   0.145605  -0.010335
 456  10   4.182162  -5.908433  -0.963907  -0.001518   0.145605  -0.010427
 457  10   4.648131  -5.089113  -1.874729  -0.001176   0.145605  -0.008073
 458  10   5.291106  -3.958953  -2.040041  -0.001286   0.145605  -0.008834
 459   5   5.033222  -3.756454   2.289143  -0.001021   0.144183  -0.007082
 460   5   4.310800  -5.026127   2.102694  -0.001053   0.144183  -0.007302
 461   5   3.787197  -5.946054   1.078827  -0.001334   0.144183  -0.009254
 462   5   3.670798  -6.150118  -0.374973  -0.001679   0.144183  -0.011643
 463   5   4.007929  -5.557105  -1.680120  -0.001239   0.144183  -0.008596
 464   5   4.664416  -4.403025  -2.317184  -0.000988   0.144183  -0.006852
 465   5   5.254221  -3.366405  -2.234862  -0.000516   0.080273  -0.006431
 466  11   2.238288  -7.126228  -0.094800  -0.001579   0.179090  -0.008816
 467   5   3.138927  -6.486873   0.081053  -0.001438   0.252540  -0.005694
 468   6  -2.537479  -6.759389  -0.483653  -0.000156   0.006824  -0.022827
 469   7  -2.907472  -6.502043  -0.476759  -0.000128   0.006824  -0.018791
 470  11  -2.327841  -6.964815  -0.440298  -0.000163   0.006824  -0.023924
 471   6  -2.535826  -6.759816   0.487111  -0.000174   0.006824  -0.025528
 472   7  -2.905840  -6.502465   0.481703  -0.000155   0.006824  -0.022778
 473  11  -2.326338  -6.965204   0.442861  -0.000130   0.006824  -0.019084
 474   7  -3.145292  -6.234151   1.016775  -0.001156   0.199885  -0.005785
 475   7  -2.551395  -5.194256   2.653997  -0.000509   0.408882  -0.001245
 476   7  -1.409630  -3.187191   3.512703   0.001768   0.408882   0.004324
 477   6  -2.377666  -6.194990   1.677228  -0.002171   0.408882  -0.005310
 478   6  -1.456054  -4.578091   3.291410   0.000902   0.408882   0.002207
 479   6  -0.462396  -2.829722   3.556818   0.000768   0.199885   0.003843
 480   7  -1.043628  -2.518552  -3.558999   0.000891   0.199432   0.004467
 481   7  -2.033929  -4.262862  -3.286380   0.000933   0.407873   0.002288
 482   7  -2.946973  -5.875783  -1.670599  -0.002260   0.407873  -0.005542
 483   6  -0.864658  -3.513581  -3.511855   0.001726   0.407873   0.004233
 484   6  -2.000252  -5.515707  -2.647082  -0.000503   0.407873  -0.001233
 485   6  -2.586458  -6.553317  -1.010817  -0.001141   0.199432  -0.005723
 486  11  -2.017171  -7.238216  -0.700121  -0.000640   0.070175  -0.009116
 487  11  -1.307808  -7.237834  -1.604884  -0.001368   0.157634  -0.008681
 488  11  -0.001316  -7.237660  -2.070859  -0.001182   0.157634  -0.007497
 489  11   1.305739  -7.237896  -1.606466  -0.001341   0.157634  -0.008505
 490  11   2.016196  -7.238311  -0.702562  -0.000600   0.070175  -0.008544
 491   6  -1.986977  -6.911988  -1.205097  -0.001390   0.152005  -0.009141
 492   6  -0.780242  -6.911583  -2.190127  -0.001032   0.152005  -0.006792
 493   6   0.777480  -6.911620  -2.191070  -0.001074   0.152005  -0.007068
 494   6   1.985407  -6.912082  -1.207500  -0.001462   0.152005  -0.009620
 495  11   2.016454  -7.238927   0.696432  -0.000679   0.070092  -0.009691
 496  11   1.307389  -7.239308   1.599813  -0.001338   0.157403  -0.008504
 497  11   0.002326  -7.239482   2.065483  -0.001273   0.157403  -0.008085
 498  11  -1.303809  -7.239247   1.602832  -0.001317   0.157403  -0.008367
 499  11  -2.014962  -7.238833   0.701093  -0.000608   0.070092  -0.008674
 500   6   1.986281  -6.913143   1.201281  -0.001376   0.151865  -0.009063
 501   6   0.780527  -6.913547   2.184965  -0.001057   0.151865  -0.006958
 502   6  -0.775581  -6.913510   2.186764  -0.000994   0.151865  -0.006543
 503   6  -1.983606  -6.913050   1.205871  -0.001337   0.151865  -0.008805
 504  11  -2.238029  -7.126215   0.093222  -0.001597   0.179569  -0.008893
 505   7  -3.138914  -6.486701  -0.081056  -0.001437   0.253215  -0.005677
 506  12  -5.495717  -3.598700  -1.972137  -0.000618   0.065704  -0.009401
 507  12  -4.961800  -4.537075  -2.058920  -0.001180   0.145603  -0.008101
 508  12  -4.377841  -5.563869  -1.490867  -0.001407   0.145603  -0.009663
 509  12  -4.078469  -6.090884  -0.328701  -0.001504   0.145603  -0.010327
 510  12  -4.182828  -5.908375   0.965052  -0.001517   0.145603  -0.010419
 511  12  -4.649385  -5.088979   1.875498  -0.001176   0.145603  -0.008078
 512  12  -5.292458  -3.958802   2.040292  -0.001287   0.145603  -0.008840
 513   7  -5.031748  -3.756663  -2.288715  -0.001026   0.144181  -0.007119
 514   7  -4.309459  -5.026323  -2.101694  -0.001053   0.144181  -0.007304
 515   7  -3.786532  -5.946168  -1.077415  -0.001336   0.144181  -0.009265
 516   7  -3.671086  -6.150114   0.376475  -0.001678   0.144181  -0.011635
 517   7  -4.009065  -5.556992   1.681347  -0.001239   0.144181  -0.008590
 518   7  -4.665959  -4.402857   2.317882  -0.000990   0.144181  -0.006863
 519   7  -5.255700  -3.366242   2.235086  -0.000512   0.080272  -0.006375
 520   9   1.489833   4.689126   1.564444  -0.001699   0.228079  -0.007450
 521   9   1.641572   5.137838   0.390557  -0.004624   0.459761  -0.010058
 522   9   1.558710   4.892860  -1.125206  -0.004503   0.459761  -0.009793
 523   8   3.042568   4.749195   1.315098   0.001204   0.655731   0.001836
 524   8   3.139441   5.035688  -0.454760   0.001475   0.655731   0.002249
 525   8   2.968170   4.529286  -1.814335   0.000627   0.332357   0.001885
 526  10   5.992858  -3.126876  -1.576011  -0.001535   0.229559  -0.006688
 527  10   6.464415  -3.222273  -0.394243  -0.004251   0.462854  -0.009184
 528  10   6.206801  -3.170795   1.132580  -0.003932   0.462854  -0.008495
 529   8   6.824583  -1.817599  -1.324566   0.001423   0.659639   0.002158
 530   8   7.125476  -1.878772   0.458010   0.001726   0.659639   0.002617
 531   8   6.593097  -1.771864   1.826613   0.000763   0.334423   0.002281
 =====================================================


   1 warning(s) detected.
     A line exceeding 80 characters begins with "http://cactus.nci.ni".
 There may be a problem in your input file.

              2650333  WORDS OF DYNAMIC MEMORY USED
 EXECUTION OF GAMESS TERMINATED NORMALLY Thu Nov 24 16:07:09 2016
 DDI: 263640 bytes (0.3 MB / 0 MWords) used by master data server.

 ----------------------------------------
 CPU timing information for all processes
 ========================================
 0: 515.996 + 0.352 = 516.348
 ----------------------------------------
 ddikick.x: exited gracefully.
