----- GAMESS execution script -----

          ******************************************************
          *         GAMESS VERSION =  5 DEC 2014 (R1)          *
          *             FROM IOWA STATE UNIVERSITY             *
          * M.W.SCHMIDT, K.K.BALDRIDGE, J.A.BOATZ, S.T.ELBERT, *
          *   M.S.GORDON, J.H.JENSEN, S.KOSEKI, N.MATSUNAGA,   *
          *          K.A.NGUYEN, S.J.SU, T.L.WINDUS,           *
          *       TOGETHER WITH M.DUPUIS, J.A.MONTGOMERY       *
          *         J.COMPUT.CHEM.  14, 1347-1363(1993)        *
          **************** 64 BIT LINUX VERSION ****************

 EXECUTION OF GAMESS BEGUN Thu Nov 24 16:07:12 2016

            ECHO OF THE FIRST FEW INPUT CARDS -
 INPUT CARD>! SELECT RESTRICTED HARTREE-FOCK AS DEFAULT                                     
 INPUT CARD>$contrl scftyp=rhf $end                                                         
 INPUT CARD>                                                                                
 INPUT CARD>! THEORY: HF OR DFT                                                             
 INPUT CARD> $contrl mplevl=0 $end                                                          
 INPUT CARD>                                                                                
 INPUT CARD> $system timlim=10000 mwords=20 $end                                            
 INPUT CARD> $SCF DIRSCF=.TRUE. $end                                                        
 INPUT CARD>                                                                                
 INPUT CARD>                                                                                
 INPUT CARD>! BASIS SETS                                                                    
 INPUT CARD>! 6-311G(d,p)                                                                   
 INPUT CARD> $BASIS GBASIS=N311 NGAUSS=6 NDFUNC=1 NPFUNC=1 $END                             
 INPUT CARD>                                                                                
 INPUT CARD>! One of the following                                                          
 INPUT CARD> $guess guess=HUCKEL $end                                                       
 INPUT CARD>                                                                                
 INPUT CARD> $statpt projct=.FALSE. $end                                                    
 INPUT CARD> $STATPT IFREEZ(1)=1,2,3 $END                                                   
 INPUT CARD>                                                                                
 INPUT CARD>! Optimize the geometry with COSMO effects                                      
 INPUT CARD> $statpt opttol=0.0005 nstep=50 $end                                            
 INPUT CARD> $contrl nzvar=1 $end                                                           
 INPUT CARD> $zmat dlc=.t. auto=.t. $end                                                    
 INPUT CARD> $contrl runtyp=OPTIMIZE maxit=200 $end                                         
 INPUT CARD>                                                                                
 INPUT CARD>! Run COSMO on perfect conductor                                                
 INPUT CARD> $COSGMS PRFCND=.TRUE. $end                                                     
 INPUT CARD>                                                                                
 INPUT CARD>! Specifying RSOLV                                                              
 INPUT CARD> $COSGMS COSRAD = 1.4 $end                                                      
 INPUT CARD>                                                                                
 INPUT CARD>! available memory                                                              
 INPUT CARD> $SYSTEM MWORDS=40 $END                                                         
 INPUT CARD>                                                                                
 INPUT CARD> $DATA                                                                          
 INPUT CARD>                                                                                
 INPUT CARD>C1                                                                              
 INPUT CARD>C      6.0      0.0515000000   -1.4162000000    0.0015000000                    
 INPUT CARD>C      6.0     -1.1972000000   -0.7945000000    0.0011000000                    
 INPUT CARD>C      6.0     -1.2891000000    0.5964000000    0.0000000000                    
 INPUT CARD>C      6.0     -0.1348000000    1.3921000000   -0.0005000000                    
 INPUT CARD>C      6.0      1.1127000000    0.7510000000   -0.0002000000                    
 INPUT CARD>C      6.0      1.2241000000   -0.6536000000    0.0008000000                    
 INPUT CARD>H      1.0      0.0841000000   -2.5018000000    0.0025000000                    
 INPUT CARD>H      1.0     -2.1018000000   -1.3968000000    0.0016000000                    
 INPUT CARD>H      1.0     -2.2728000000    1.0608000000   -0.0003000000                    
 INPUT CARD>C      6.0     -0.3071000000    2.8943000000   -0.0017000000                    
 INPUT CARD>H      1.0      2.0285000000    1.3378000000   -0.0006000000                    
 INPUT CARD>C      6.0      2.6126000000   -1.2538000000    0.0015000000                    
   40000000 WORDS OF MEMORY AVAILABLE

     BASIS OPTIONS
     -------------
     GBASIS=N311         IGAUSS=       6      POLAR=POPN311 
     NDFUNC=       1     NFFUNC=       0     DIFFSP=       F
     NPFUNC=       1      DIFFS=       F     BASNAM=        


     RUN TITLE
     ---------
                                                                                 

 THE POINT GROUP OF THE MOLECULE IS C1      
 THE ORDER OF THE PRINCIPAL AXIS IS     0

 ATOM      ATOMIC                      COORDINATES (BOHR)
           CHARGE         X                   Y                   Z
 C           6.0     0.0973208884       -2.6762299438        0.0028345890
 C           6.0    -2.2623799525       -1.5013872972        0.0020786986
 C           6.0    -2.4360457708        1.1270325791        0.0000000000
 C           6.0    -0.2547350631        2.6306875475       -0.0009448630
 C           6.0     2.1026981065        1.4191842168       -0.0003779452
 C           6.0     2.3132135816       -1.2351249056        0.0015117808
 H           1.0     0.1589259556       -4.7277164761        0.0047243150
 H           1.0    -3.9718260810       -2.6395692596        0.0030235616
 H           1.0    -4.2949692249        2.0046213278       -0.0005669178
 C           6.0    -0.5803348508        5.4694339263       -0.0032125342
 H           1.0     3.8333091661        2.5280754264       -0.0011338356
 C           6.0     4.9370981155       -2.3693384434        0.0028345890
 H           1.0    -1.6952731836        5.9896754907        1.6659824308
 H           1.0    -1.6924385946        5.9874078195       -1.6750531155
 C           6.0     1.8184833180        7.0613390983       -0.0020786986
 H           1.0     2.9708382253        6.6894410239       -1.6799664031
 H           1.0     2.9681926089        6.6907638321        1.6780766771
 H           1.0     1.3333906569        9.0727634397       -0.0032125342
 H           1.0     5.9399756972       -1.6671162664        1.6763759237
 H           1.0     5.9447000122       -1.6599353076       -1.6648485952
 C           6.0     5.1183228377       -5.2426668077       -0.0034015068
 H           1.0     4.2224037470       -6.0507136401       -1.6845017455
 H           1.0     4.2208919662       -6.0582725440        1.6731633895
 H           1.0     7.1032910152       -5.8271590557       -0.0037794520

          INTERNUCLEAR DISTANCES (ANGS.)




     $CONTRL OPTIONS
     ---------------
 SCFTYP=RHF          RUNTYP=OPTIMIZE     EXETYP=RUN     
 MPLEVL=       0     CITYP =NONE         CCTYP =NONE         VBTYP =NONE    
 DFTTYP=NONE         TDDFT =NONE    
 MULT  =       1     ICHARG=       0     NZVAR =       1     COORD =UNIQUE  
 PP    =NONE         RELWFN=NONE         LOCAL =NONE         NUMGRD=       F
 ISPHER=      -1     NOSYM =       0     MAXIT =     200     UNITS =ANGS    
 PLTORB=       F     MOLPLT=       F     AIMPAC=       F     FRIEND=        
 NPRINT=       7     IREST =       0     GEOM  =INPUT   
 NORMF =       0     NORMP =       0     ITOL  =      20     ICUT  =       9
 INTTYP=BEST         GRDTYP=BEST         QMTTOL= 1.0E-06

     $SYSTEM OPTIONS
     ---------------
  REPLICATED MEMORY=    40000000 WORDS (ON EVERY NODE).
 DISTRIBUTED MEMDDI=           0 MILLION WORDS IN AGGREGATE,
 MEMDDI DISTRIBUTED OVER   1 PROCESSORS IS           0 WORDS/PROCESSOR.
 TOTAL MEMORY REQUESTED ON EACH PROCESSOR=    40000000 WORDS.
 TIMLIM=       10000.00 MINUTES, OR       6.9 DAYS.
 PARALL= F  BALTYP=  DLB     KDIAG=    0  COREFL= F
 MXSEQ2=     300 MXSEQ3=     150  mem10=         0

     $COSGMS OPTIONS
     ---------------
     EPSI  =   INFTY     NSPA  =      92     COSRAD=    1.40
     DISEX =   10.00     OUTCHG=DBLCAV       COSBUG=       F
     COSWRT=       F     DCOSMO=       F

     SYMMETRY COORDINATES WILL NOT BE USED FOR 
     THE COSMO CALCULATION, EVEN IF SPECIFIED:
         -- SWITCHING TO C1 POINT GROUP --


     DEFINITION OF CAVITY
     ---------------------------
     ATOM         COORDINATES           RADIUS 
     1    0.0973   -2.6762    0.0028    2.0000
     2   -2.2624   -1.5014    0.0021    2.0000
     3   -2.4360    1.1270    0.0000    2.0000
     4   -0.2547    2.6307   -0.0009    2.0000
     5    2.1027    1.4192   -0.0004    2.0000
     6    2.3132   -1.2351    0.0015    2.0000
     7    0.1589   -4.7277    0.0047    1.3000
     8   -3.9718   -2.6396    0.0030    1.3000
     9   -4.2950    2.0046   -0.0006    1.3000
    10   -0.5803    5.4694   -0.0032    2.0000
    11    3.8333    2.5281   -0.0011    1.3000
    12    4.9371   -2.3693    0.0028    2.0000
    13   -1.6953    5.9897    1.6660    1.3000
    14   -1.6924    5.9874   -1.6751    1.3000
    15    1.8185    7.0613   -0.0021    2.0000
    16    2.9708    6.6894   -1.6800    1.3000
    17    2.9682    6.6908    1.6781    1.3000
    18    1.3334    9.0728   -0.0032    1.3000
    19    5.9400   -1.6671    1.6764    1.3000
    20    5.9447   -1.6599   -1.6648    1.3000
    21    5.1183   -5.2427   -0.0034    2.0000
    22    4.2224   -6.0507   -1.6845    1.3000
    23    4.2209   -6.0583    1.6732    1.3000
    24    7.1033   -5.8272   -0.0038    1.3000

          ----------------
          PROPERTIES INPUT
          ----------------

     MOMENTS            FIELD           POTENTIAL          DENSITY
 IEMOM =       1   IEFLD =       0   IEPOT =       0   IEDEN =       0
 WHERE =COMASS     WHERE =NUCLEI     WHERE =NUCLEI     WHERE =NUCLEI  
 OUTPUT=BOTH       OUTPUT=BOTH       OUTPUT=BOTH       OUTPUT=BOTH    
 IEMINT=       0   IEFINT=       0                     IEDINT=       0
                                                       MORB  =       0
          EXTRAPOLATION IN EFFECT
          SOSCF IN EFFECT
 ORBITAL PRINTING OPTION: NPREO=     1   274     2     1

     -------------------------------
     INTEGRAL TRANSFORMATION OPTIONS
     -------------------------------
     NWORD  =            0
     CUTOFF = 1.0E-09     MPTRAN =       0
     DIRTRF =       T     AOINTS =DUP     

          ----------------------
          INTEGRAL INPUT OPTIONS
          ----------------------
 NOPK  =       1 NORDER=       0 SCHWRZ=       T


 -----------------------------------------------
  STATISTICS ON AUTOMATIC COORDINATE GENERATION 
 -----------------------------------------------
  NUMBER OF USER SPECIFIED BONDS                             0
  NUMBER OF BONDS                                           24
  NUMBER OF ANGLES                                          42
  NUMBER OF TORSIONS                                        54
  NUMBER OF EXTRA COORD.                                     0
  NUMBER OF EXTRA COORD. FOR CONSTRAINTS                     0
  NUMBER OF CONSTRAINED COORD.                               0

  TOTAL NUMBER OF PRIMITIVES                               120
 -----------------------------------------------

   --- ENCODED Z MATRIX ---
 COORD  TYPE   I   J   K   L   M   N
    1      1    1   7
    2      1    1   2
    3      1    1   6
    4      1    2   8
    5      1    2   3
    6      1    3   4
    7      1    3   9
    8      1    4  10
    9      1    4   5
   10      1    5  11
   11      1    5   6
   12      1    6  12
   13      1   10  15
   14      1   10  14
   15      1   10  13
   16      1   12  21
   17      1   12  20
   18      1   12  19
   19      1   15  18
   20      1   15  17
   21      1   15  16
   22      1   21  24
   23      1   21  23
   24      1   21  22
   25      2    1   6   5
   26      2    1   6  12
   27      2    1   2   3
   28      2    1   2   8
   29      2    2   1   7
   30      2    2   3   9
   31      2    2   1   6
   32      2    2   3   4
   33      2    3   4  10
   34      2    3   4   5
   35      2    3   2   8
   36      2    4  10  15
   37      2    4   5   6
   38      2    4   3   9
   39      2    4   5  11
   40      2    4  10  13
   41      2    4  10  14
   42      2    5   4  10
   43      2    5   6  12
   44      2    6  12  19
   45      2    6  12  20
   46      2    6  12  21
   47      2    6   1   7
   48      2    6   5  11
   49      2   10  15  16
   50      2   10  15  17
   51      2   10  15  18
   52      2   12  21  22
   53      2   12  21  23
   54      2   12  21  24
   55      2   13  10  14
   56      2   13  10  15
   57      2   14  10  15
   58      2   16  15  18
   59      2   16  15  17
   60      2   17  15  18
   61      2   19  12  20
   62      2   19  12  21
   63      2   20  12  21
   64      2   22  21  23
   65      2   22  21  24
   66      2   23  21  24
   67      3    1   6  12  21
   68      3    1   2   3   9
   69      3    1   6   5   4
   70      3    1   2   3   4
   71      3    1   6  12  19
   72      3    1   6   5  11
   73      3    1   6  12  20
   74      3    2   3   4   5
   75      3    2   3   4  10
   76      3    2   1   6  12
   77      3    2   1   6   5
   78      3    3   4  10  14
   79      3    3   4  10  15
   80      3    3   2   1   6
   81      3    3   2   1   7
   82      3    3   4   5   6
   83      3    3   4   5  11
   84      3    3   4  10  13
   85      3    4   3   2   8
   86      3    4   5   6  12
   87      3    4  10  15  16
   88      3    4  10  15  17
   89      3    4  10  15  18
   90      3    5   6  12  21
   91      3    5   4  10  14
   92      3    5   4  10  13
   93      3    5   6   1   7
   94      3    5   4  10  15
   95      3    5   4   3   9
   96      3    5   6  12  19
   97      3    5   6  12  20
   98      3    6   1   2   8
   99      3    6   5   4  10
  100      3    6  12  21  22
  101      3    6  12  21  23
  102      3    6  12  21  24
  103      3    7   1   2   8
  104      3    7   1   6  12
  105      3    8   2   3   9
  106      3    9   3   4  10
  107      3   10   4   5  11
  108      3   11   5   6  12
  109      3   13  10  15  18
  110      3   13  10  15  17
  111      3   13  10  15  16
  112      3   14  10  15  18
  113      3   14  10  15  17
  114      3   14  10  15  16
  115      3   19  12  21  24
  116      3   19  12  21  23
  117      3   19  12  21  22
  118      3   20  12  21  24
  119      3   20  12  21  23
  120      3   20  12  21  22

          INDEP./SYM. INTERNAL COORDINATES
          --------------------------------
 CRD  1=  -0.1053 (  2)  0.1114 (  8)  0.1759 (  9)  0.1832 ( 11) -0.3644 ( 26)
          -0.3710 ( 33)  0.3835 ( 36) -0.1081 ( 37) -0.1223 ( 40) -0.1223 ( 41)
           0.4099 ( 42)  0.3450 ( 43) -0.2402 ( 46) -0.1011 ( 56) -0.1010 ( 57)
 CRD  2=  -0.1080 (  3) -0.1229 (  8) -0.1097 ( 11) -0.1800 ( 12) -0.3279 ( 26)
           0.2065 ( 33) -0.3293 ( 36) -0.2623 ( 42)  0.2690 ( 43)  0.1621 ( 44)
           0.1621 ( 45) -0.5258 ( 46)  0.1497 ( 62)  0.1496 ( 63)
 CRD  3=   0.1782 ( 52) -0.1772 ( 53) -0.1622 ( 62)  0.1605 ( 63) -0.2928 ( 67)
           0.1238 ( 68)  0.1267 ( 69) -0.1032 ( 71) -0.1032 ( 73)  0.1158 ( 74)
           0.2309 ( 75) -0.1882 ( 79) -0.1067 ( 80) -0.1972 ( 82)  0.2278 ( 86)
           0.1301 ( 89) -0.3994 ( 90) -0.2099 ( 96) -0.2098 ( 97) -0.3194 ( 99)
           0.1060 (102) -0.1047 (104)  0.1393 (106) -0.1314 (107)
 CRD  4=  -0.1004 (  5) -0.1769 (  6)  0.2268 (  9)  0.2370 ( 11)  0.3540 ( 12)
          -0.1981 ( 13)  0.2256 ( 16) -0.2163 ( 25)  0.1215 ( 31) -0.1404 ( 33)
          -0.4124 ( 36)  0.1361 ( 40)  0.1354 ( 41)  0.3142 ( 43)  0.2013 ( 46)
          -0.1101 ( 49) -0.1087 ( 50)  0.1194 ( 56)  0.1183 ( 57) -0.1014 ( 63)
 CRD  5=  -0.1204 (  3)  0.2062 (  5)  0.3097 (  6)  0.4366 (  8)  0.1105 (  9)
           0.2103 ( 11)  0.1181 ( 12)  0.2402 ( 13)  0.1587 ( 16) -0.1972 ( 26)
          -0.1281 ( 28) -0.1139 ( 30)  0.3956 ( 33) -0.2105 ( 34)  0.1368 ( 37)
           0.1120 ( 38) -0.1301 ( 39) -0.1852 ( 42)  0.2027 ( 43)  0.1256 ( 46)
 CRD  6=   0.2016 ( 49) -0.2015 ( 50) -0.1972 ( 56)  0.1968 ( 57) -0.1757 ( 69)
          -0.1384 ( 70)  0.1168 ( 74)  0.1136 ( 75)  0.2357 ( 76)  0.1539 ( 77)
          -0.1860 ( 78) -0.3672 ( 79) -0.1857 ( 84) -0.1008 ( 85) -0.2528 ( 86)
          -0.1893 ( 91) -0.1891 ( 92) -0.3706 ( 94) -0.1129 (102)  0.1623 (104)
          -0.1191 (108)
 CRD  7=  -0.2260 (  2) -0.3769 (  3) -0.4466 ( 12)  0.2236 ( 25) -0.2334 ( 26)
           0.1495 ( 29) -0.1309 ( 36) -0.1296 ( 37)  0.1087 ( 42) -0.1788 ( 44)
          -0.1758 ( 45)  0.3221 ( 46)  0.1411 ( 52)  0.1425 ( 53) -0.2307 ( 54)
          -0.1064 ( 64)
 CRD  8=  -0.2324 ( 44)  0.2330 ( 45)  0.1751 ( 49) -0.1705 ( 50) -0.1616 ( 52)
           0.1618 ( 53)  0.2194 ( 62) -0.2203 ( 63)  0.2957 ( 67)  0.1920 ( 71)
           0.1918 ( 73)  0.1564 ( 75) -0.1766 ( 76) -0.2014 ( 79) -0.1061 ( 85)
           0.1780 ( 86)  0.1305 ( 87)  0.1296 ( 88)  0.1856 ( 89)  0.1727 ( 90)
           0.1176 ( 98) -0.1838 ( 99)  0.1819 (100)  0.1818 (101)  0.1251 (102)
          -0.1272 (107)  0.1226 (108)
 CRD  9=   0.1099 (  1)  0.1025 (  5)  0.3829 (  8)  0.2850 (  9) -0.1059 ( 13)
          -0.1831 ( 16)  0.1071 ( 26) -0.1426 ( 31)  0.1381 ( 32) -0.2315 ( 34)
          -0.2610 ( 36)  0.1952 ( 39)  0.1460 ( 40)  0.1506 ( 41)  0.2886 ( 42)
          -0.1967 ( 43) -0.1490 ( 46)  0.1284 ( 47) -0.2703 ( 48) -0.1410 ( 49)
          -0.1449 ( 50)  0.2065 ( 51)  0.1134 ( 59)
 CRD 10=   0.2423 ( 40) -0.2414 ( 41) -0.1432 ( 44)  0.1444 ( 45)  0.1931 ( 52)
          -0.1954 ( 53) -0.1824 ( 56)  0.1823 ( 57) -0.1344 ( 74) -0.2128 ( 75)
          -0.2253 ( 76) -0.1357 ( 77)  0.1244 ( 86) -0.2032 ( 87) -0.2030 ( 88)
          -0.1768 ( 89) -0.1405 ( 90) -0.1278 ( 91) -0.1276 ( 92) -0.1744 ( 94)
          -0.1063 ( 95)  0.1767 ( 99)  0.1687 (100)  0.1689 (101)  0.2220 (102)
          -0.1548 (104) -0.1847 (106)  0.1375 (107)  0.1628 (108)
 CRD 11=   0.2016 (  2) -0.1440 (  3)  0.2445 (  5) -0.1207 ( 11) -0.4091 ( 13)
           0.3030 ( 16)  0.2047 ( 29)  0.1903 ( 30)  0.1290 ( 37) -0.1088 ( 38)
          -0.1697 ( 47) -0.1435 ( 48) -0.3056 ( 51)  0.2470 ( 54) -0.1520 ( 56)
          -0.1518 ( 57)  0.1540 ( 58)  0.1541 ( 60)  0.1137 ( 62)  0.1134 ( 63)
          -0.1183 ( 65) -0.1183 ( 66)
 CRD 12=   0.1190 (  1) -0.1975 (  6) -0.1073 (  7) -0.1946 (  9)  0.1015 ( 11)
           0.3229 ( 13)  0.4044 ( 16) -0.1524 ( 31)  0.1263 ( 32) -0.1982 ( 38)
          -0.1404 ( 39)  0.1243 ( 48)  0.2711 ( 51)  0.3013 ( 54)  0.1211 ( 56)
           0.1216 ( 57) -0.1283 ( 58) -0.1282 ( 60)  0.1565 ( 62)  0.1562 ( 63)
          -0.1524 ( 65) -0.1522 ( 66)
 CRD 13=   0.1761 (  1)  0.2872 (  2)  0.2928 (  5) -0.2156 (  6) -0.1847 (  9)
           0.1500 ( 11) -0.3305 ( 16) -0.1279 ( 26)  0.2517 ( 29)  0.2683 ( 30)
          -0.1354 ( 31)  0.1072 ( 37) -0.3169 ( 38) -0.2513 ( 39)  0.1123 ( 43)
          -0.1163 ( 47)  0.1441 ( 48) -0.2403 ( 54) -0.1142 ( 62) -0.1138 ( 63)
           0.1264 ( 65)  0.1262 ( 66)
 CRD 14=  -0.1258 (  1)  0.2192 (  2) -0.2439 (  3)  0.1188 (  5)  0.2031 (  7)
           0.2063 (  9) -0.2972 ( 11)  0.3130 ( 13)  0.1763 ( 29)  0.1701 ( 30)
           0.1571 ( 31) -0.1991 ( 32) -0.1519 ( 33)  0.2444 ( 39) -0.3334 ( 47)
          -0.2905 ( 48)  0.2115 ( 51)  0.1101 ( 56)  0.1101 ( 57) -0.1162 ( 58)
          -0.1163 ( 60)
 CRD 15=  -0.1368 ( 20)  0.1372 ( 21)  0.1582 ( 44) -0.1578 ( 45)  0.4702 ( 49)
          -0.4685 ( 50) -0.1553 ( 52)  0.1542 ( 53) -0.1926 ( 58)  0.1925 ( 60)
          -0.1337 ( 62)  0.1338 ( 63) -0.1544 ( 74) -0.1536 ( 75) -0.1375 ( 77)
           0.1135 ( 85)  0.1163 ( 89) -0.1359 ( 93) -0.1105 (100) -0.1103 (101)
          -0.1202 (102)
 CRD 16=   0.2370 (  2) -0.1307 (  3) -0.1211 (  4) -0.3594 (  5) -0.1038 ( 10)
           0.1057 ( 27)  0.3972 ( 28)  0.3024 ( 29) -0.2974 ( 30) -0.1403 ( 31)
          -0.5029 ( 35)  0.2477 ( 38) -0.1622 ( 47)
 CRD 17=  -0.2537 (  2) -0.2875 (  3) -0.3409 (  4) -0.3229 (  6) -0.1020 (  9)
          -0.3193 ( 10) -0.1838 ( 25)  0.2936 ( 27) -0.2922 ( 28)  0.1306 ( 30)
          -0.1706 ( 32) -0.1222 ( 34)  0.2705 ( 37) -0.1501 ( 39)  0.1740 ( 47)
          -0.1204 ( 48)
 CRD 18=   0.1476 ( 23) -0.1477 ( 24)  0.1639 ( 40) -0.1638 ( 41) -0.1751 ( 49)
           0.1748 ( 50) -0.4841 ( 52)  0.4839 ( 53) -0.1345 ( 56)  0.1345 ( 57)
           0.2029 ( 65) -0.2031 ( 66)  0.1238 ( 69) -0.1047 ( 82)  0.1381 ( 86)
          -0.1161 ( 87) -0.1161 ( 88) -0.1276 ( 89) -0.1100 ( 96) -0.1097 ( 97)
 CRD 19=  -0.1029 (  3) -0.1304 (  9) -0.1776 ( 13) -0.1287 ( 14) -0.1289 ( 15)
          -0.1157 ( 16)  0.1588 ( 19)  0.1065 ( 22)  0.2027 ( 36)  0.1384 ( 46)
          -0.2959 ( 49) -0.2956 ( 50)  0.4233 ( 51) -0.1949 ( 52) -0.1949 ( 53)
           0.2802 ( 54)  0.1156 ( 55)  0.2871 ( 59)  0.1897 ( 64)
 CRD 20=   0.1153 ( 10)  0.1076 ( 13) -0.1719 ( 16) -0.1320 ( 17) -0.1317 ( 18)
          -0.1073 ( 19)  0.1602 ( 22) -0.1482 ( 36)  0.2139 ( 46)  0.1913 ( 49)
           0.1917 ( 50) -0.2814 ( 51) -0.2950 ( 52) -0.2953 ( 53)  0.4274 ( 54)
          -0.1868 ( 59)  0.1183 ( 61)  0.2866 ( 64)
 CRD 21=  -0.3568 (  1) -0.1419 (  2)  0.2388 (  4) -0.1392 (  5) -0.1379 (  6)
          -0.4002 (  7)  0.1740 (  8) -0.1840 (  9) -0.2409 ( 10) -0.2196 ( 11)
           0.1664 ( 12) -0.3078 ( 27)  0.1586 ( 28)  0.2086 ( 31)  0.2413 ( 32)
          -0.1102 ( 34)  0.1492 ( 35) -0.1945 ( 38) -0.1461 ( 47)
 CRD 22=  -0.1798 ( 14)  0.1755 ( 15)  0.2051 ( 40) -0.2106 ( 41) -0.1394 ( 44)
           0.1354 ( 45)  0.2020 ( 49) -0.2055 ( 50) -0.1641 ( 56)  0.1662 ( 57)
          -0.1010 ( 58)  0.1006 ( 60)  0.1683 ( 62) -0.1658 ( 63)  0.1327 ( 74)
           0.1606 ( 76)  0.1592 ( 77)  0.2445 ( 78)  0.1926 ( 79) -0.1789 ( 80)
          -0.1007 ( 81) -0.1514 ( 82)  0.2431 ( 84) -0.1201 ( 87) -0.1198 ( 88)
          -0.1158 ( 89)  0.1566 ( 91)  0.1552 ( 92)  0.1046 ( 94)  0.2103 ( 95)
          -0.1952 ( 98) -0.1170 (103)  0.1273 (106)
 CRD 23=  -0.1898 ( 17)  0.1902 ( 18)  0.1496 ( 40) -0.1496 ( 41)  0.2247 ( 44)
          -0.2246 ( 45)  0.1335 ( 52) -0.1334 ( 53) -0.2175 ( 56)  0.2174 ( 57)
          -0.1784 ( 62)  0.1787 ( 63)  0.1379 ( 67)  0.1593 ( 69)  0.1935 ( 71)
           0.1726 ( 72)  0.1937 ( 73) -0.1223 ( 82) -0.1358 ( 83)  0.1214 ( 86)
           0.1780 ( 90)  0.1164 ( 91)  0.1165 ( 92)  0.2336 ( 96)  0.2337 ( 97)
          -0.1406 ( 99) -0.1190 (100) -0.1190 (101) -0.1234 (102) -0.1540 (107)
           0.1346 (108)
 CRD 24=   0.1007 ( 14) -0.1006 ( 15) -0.3635 ( 17)  0.3636 ( 18) -0.1197 ( 23)
           0.1196 ( 24) -0.1069 ( 44)  0.1069 ( 45)  0.1098 ( 52) -0.1098 ( 53)
           0.2830 ( 62) -0.2829 ( 63)  0.1049 ( 68)  0.1001 ( 69)  0.1296 ( 70)
          -0.2396 ( 71) -0.2396 ( 73)  0.1388 ( 85)  0.1155 ( 90) -0.1316 ( 93)
          -0.1733 ( 96) -0.1733 ( 97) -0.1457 (100) -0.1457 (101) -0.1817 (102)
           0.1141 (105)
 CRD 25=   0.3743 ( 14) -0.3743 ( 15)  0.1009 ( 20) -0.1009 ( 21) -0.2531 ( 56)
           0.2531 ( 57) -0.1524 ( 72)  0.2006 ( 78)  0.1191 ( 82)  0.1782 ( 83)
           0.2006 ( 84)  0.1575 ( 87)  0.1575 ( 88)  0.1888 ( 89)  0.2419 ( 91)
           0.2419 ( 92)  0.1369 (107) -0.1469 (108)
 CRD 26=   0.1005 ( 13) -0.1141 ( 16)  0.3054 ( 19)  0.3319 ( 20)  0.3319 ( 21)
          -0.3462 ( 22) -0.3767 ( 23) -0.3768 ( 24) -0.1192 ( 49) -0.1191 ( 50)
          -0.1326 ( 51)  0.1347 ( 52)  0.1348 ( 53)  0.1514 ( 54)  0.1324 ( 58)
           0.1254 ( 59)  0.1324 ( 60) -0.1416 ( 64) -0.1505 ( 65) -0.1506 ( 66)
 CRD 27=   0.1207 ( 13)  0.1062 ( 16)  0.3541 ( 19)  0.3796 ( 20)  0.3796 ( 21)
           0.3117 ( 22)  0.3339 ( 23)  0.3339 ( 24) -0.1347 ( 49) -0.1346 ( 50)
          -0.1495 ( 51) -0.1185 ( 52) -0.1185 ( 53) -0.1313 ( 54)  0.1492 ( 58)
           0.1422 ( 59)  0.1491 ( 60)  0.1251 ( 64)  0.1312 ( 65)  0.1312 ( 66)
 CRD 28=  -0.2453 (  1)  0.1121 (  2) -0.1267 (  5)  0.1561 (  7)  0.3287 (  8)
           0.1166 (  9) -0.3042 ( 12)  0.2495 ( 14)  0.2533 ( 15) -0.1929 ( 17)
          -0.1896 ( 18) -0.1087 ( 22) -0.1590 ( 25)  0.1500 ( 26) -0.1376 ( 29)
           0.1724 ( 30)  0.1510 ( 31) -0.1299 ( 32)  0.1513 ( 34) -0.2304 ( 39)
           0.2484 ( 48) -0.1007 ( 56) -0.1001 ( 57)  0.1183 ( 62)  0.1181 ( 63)
 CRD 29=  -0.2371 ( 14)  0.2327 ( 15) -0.2416 ( 17)  0.2459 ( 18) -0.2032 ( 68)
          -0.2657 ( 70) -0.1100 ( 72)  0.1081 ( 74)  0.1790 ( 75) -0.1794 ( 76)
          -0.1086 ( 77)  0.2653 ( 80)  0.2005 ( 81)  0.1115 ( 83) -0.3052 ( 85)
           0.3049 ( 98)  0.2400 (103) -0.1124 (104) -0.2427 (105)  0.1158 (106)
 CRD 30=   0.2793 ( 14)  0.2790 ( 15)  0.3882 ( 17)  0.3879 ( 18) -0.2341 ( 19)
           0.1069 ( 20)  0.1067 ( 21) -0.3437 ( 22)  0.1507 ( 23)  0.1506 ( 24)
           0.1119 ( 55)  0.1343 ( 59)  0.1501 ( 61)  0.1910 ( 64) -0.1021 (110)
           0.1021 (114) -0.1451 (116)  0.1451 (120)
 CRD 31=   0.1607 ( 14)  0.1607 ( 15) -0.1059 ( 17) -0.1056 ( 18) -0.5133 ( 19)
           0.2295 ( 20)  0.2302 ( 21)  0.3756 ( 22) -0.1634 ( 23) -0.1628 ( 24)
          -0.1244 ( 58)  0.2582 ( 59) -0.1248 ( 60) -0.1843 ( 64)  0.1335 ( 87)
          -0.1336 ( 88) -0.1611 (110)  0.1060 (111) -0.1061 (113)  0.1610 (114)
           0.1144 (116) -0.1145 (120)
 CRD 32=  -0.2682 ( 20)  0.2691 ( 21)  0.4791 ( 23) -0.4781 ( 24)  0.1453 ( 58)
          -0.1457 ( 60) -0.2590 ( 65)  0.2586 ( 66)  0.1126 ( 89) -0.2002 (102)
           0.1077 (109)  0.1075 (112) -0.1905 (115) -0.1908 (118)
 CRD 33=   0.4776 ( 20) -0.4775 ( 21)  0.2678 ( 23) -0.2685 ( 24) -0.2582 ( 58)
           0.2581 ( 60) -0.1444 ( 65)  0.1448 ( 66) -0.2007 ( 89) -0.1145 (102)
          -0.1872 (109) -0.1871 (112) -0.1059 (115) -0.1058 (118)
 CRD 34=   0.2411 ( 14)  0.2410 ( 15)  0.3042 ( 17)  0.3039 ( 18)  0.3136 ( 19)
          -0.1552 ( 20) -0.1529 ( 21)  0.4069 ( 22) -0.2054 ( 23) -0.2074 ( 24)
           0.1058 ( 55) -0.1395 ( 59)  0.1265 ( 61) -0.1865 ( 64) -0.1084 (100)
           0.1088 (101) -0.1227 (111)  0.1222 (113) -0.1608 (117)  0.1611 (119)
 CRD 35=  -0.1415 (  1)  0.1904 (  8) -0.1549 ( 12) -0.3988 ( 14) -0.3993 ( 15)
           0.3058 ( 17)  0.3048 ( 18) -0.1419 ( 19)  0.1161 ( 20)  0.1161 ( 21)
          -0.1020 ( 23) -0.1019 ( 24) -0.1058 ( 39)  0.1216 ( 48) -0.1939 ( 55)
           0.1292 ( 61)  0.1015 (109)  0.1519 (111) -0.1016 (112) -0.1520 (113)
          -0.1227 (117)  0.1225 (119)
 CRD 36=  -0.1162 (  2) -0.4595 (  4) -0.1662 (  5) -0.1395 (  6) -0.1991 (  7)
           0.1163 (  8)  0.4288 ( 10)  0.2289 ( 12)  0.1491 ( 29)  0.2419 ( 30)
           0.1066 ( 33) -0.1596 ( 37) -0.2381 ( 38)  0.2011 ( 39) -0.2033 ( 42)
          -0.1179 ( 47) -0.1076 ( 56) -0.1077 ( 57)
 CRD 37=   0.2553 ( 14) -0.2555 ( 15) -0.2476 ( 17)  0.2476 ( 18) -0.1302 ( 87)
          -0.1302 ( 88) -0.1327 ( 89)  0.1265 (100)  0.1264 (101)  0.1296 (102)
          -0.2167 (109) -0.2142 (110) -0.2142 (111) -0.2168 (112) -0.2144 (113)
          -0.2143 (114)  0.2080 (115)  0.2048 (116)  0.2048 (117)  0.2082 (118)
           0.2050 (119)  0.2050 (120)
 CRD 38=   0.1740 ( 14) -0.1738 ( 15)  0.1981 ( 17) -0.1979 ( 18) -0.2183 ( 68)
           0.1824 ( 72)  0.1831 ( 81) -0.1816 ( 83) -0.1726 ( 93)  0.2032 ( 95)
           0.1020 (103) -0.1238 (104) -0.1372 (105)  0.1570 (106) -0.1326 (107)
           0.1363 (108) -0.1658 (109) -0.1710 (110) -0.1711 (111) -0.1656 (112)
          -0.1708 (113) -0.1709 (114) -0.1876 (115) -0.1918 (116) -0.1919 (117)
          -0.1877 (118) -0.1919 (119) -0.1920 (120)
 CRD 39=  -0.3320 (  1) -0.1172 (  2) -0.1663 (  3) -0.1256 (  4)  0.1198 (  5)
           0.2131 ( 10)  0.2533 ( 11)  0.1961 ( 12)  0.2121 ( 26) -0.1392 ( 28)
           0.2993 ( 29) -0.1810 ( 30) -0.1079 ( 34)  0.1142 ( 35)  0.1396 ( 38)
          -0.2295 ( 39)  0.1646 ( 42) -0.2472 ( 43) -0.1464 ( 46) -0.2926 ( 47)
           0.2164 ( 48) -0.1318 ( 61)
 CRD 40=   0.2503 ( 68) -0.2395 ( 72) -0.2839 ( 81)  0.2427 ( 83) -0.1762 ( 85)
          -0.1418 ( 87) -0.1426 ( 88) -0.1604 ( 89)  0.2796 ( 93) -0.2391 ( 95)
           0.1749 ( 98) -0.1415 (100) -0.1423 (101) -0.1583 (102)  0.1899 (104)
          -0.1618 (106)  0.1606 (107) -0.1549 (108) -0.1482 (109) -0.1305 (110)
          -0.1297 (111) -0.1497 (112) -0.1320 (113) -0.1312 (114) -0.1444 (115)
          -0.1284 (116) -0.1277 (117) -0.1418 (118) -0.1258 (119) -0.1250 (120)
 CRD 41=  -0.2143 (  2)  0.1545 (  3) -0.2755 (  4)  0.2444 (  6)  0.4779 (  7)
           0.2283 (  8) -0.3068 (  9) -0.3057 ( 10) -0.2226 ( 11)  0.1214 ( 12)
           0.1546 ( 25)  0.1143 ( 28) -0.1534 ( 33) -0.1126 ( 36) -0.1158 ( 37)
           0.1448 ( 48) -0.1049 ( 55)
 CRD 42=  -0.4973 (  1) -0.1483 (  2)  0.2257 (  5)  0.3290 (  7) -0.1317 (  8)
           0.1214 ( 10)  0.1945 ( 11)  0.3144 ( 28) -0.1393 ( 29)  0.1265 ( 30)
           0.1598 ( 33) -0.1316 ( 34) -0.3451 ( 35) -0.2019 ( 38)  0.1427 ( 39)
           0.2237 ( 47) -0.1764 ( 48)
 CRD 43=  -0.1358 (  1)  0.1115 (  2)  0.2631 (  3) -0.4983 (  4)  0.3320 (  6)
          -0.2525 (  7)  0.1433 (  9) -0.3274 ( 10)  0.1614 ( 11) -0.1069 ( 19)
           0.1272 ( 30) -0.1830 ( 38) -0.1007 ( 40) -0.1007 ( 41) -0.1076 ( 44)
          -0.1077 ( 45)
 CRD 44=   0.1066 (  2) -0.1612 (  7)  0.1546 (  8)  0.2055 ( 10) -0.1434 ( 11)
          -0.1542 ( 12)  0.1056 ( 13) -0.1043 ( 16) -0.2026 ( 19) -0.1553 ( 20)
          -0.1554 ( 21)  0.2006 ( 22)  0.1533 ( 23)  0.1532 ( 24) -0.1247 ( 39)
          -0.1297 ( 40) -0.1297 ( 41)  0.1253 ( 44)  0.1253 ( 45) -0.1576 ( 49)
          -0.1575 ( 50) -0.1753 ( 51)  0.1557 ( 52)  0.1557 ( 53)  0.1730 ( 54)
           0.1359 ( 56)  0.1359 ( 57)  0.1844 ( 58)  0.1476 ( 59)  0.1843 ( 60)
          -0.1337 ( 62) -0.1338 ( 63) -0.1453 ( 64) -0.1823 ( 65) -0.1824 ( 66)
           0.1034 ( 71) -0.1036 ( 73)  0.1065 ( 78) -0.1064 ( 84)  0.1066 ( 91)
          -0.1063 ( 92)  0.1035 ( 96) -0.1035 ( 97)
 CRD 45=  -0.2632 (  1)  0.1818 (  3) -0.1675 (  4)  0.1685 (  5) -0.1282 (  7)
          -0.1882 (  8)  0.1499 (  9) -0.1810 ( 10) -0.1960 ( 12) -0.1415 ( 13)
          -0.1449 ( 16)  0.1720 ( 19)  0.1494 ( 20)  0.1492 ( 21)  0.1757 ( 22)
           0.1533 ( 23)  0.1535 ( 24)  0.1499 ( 49)  0.1500 ( 50)  0.1578 ( 51)
           0.1538 ( 52)  0.1537 ( 53)  0.1615 ( 54) -0.1663 ( 58) -0.1490 ( 59)
          -0.1664 ( 60) -0.1532 ( 64) -0.1703 ( 65) -0.1702 ( 66)
 CRD 46=  -0.2267 ( 14)  0.2266 ( 15)  0.2243 ( 17) -0.2245 ( 18) -0.1024 ( 23)
           0.1016 ( 24)  0.1581 ( 68) -0.1153 ( 71) -0.1152 ( 73) -0.1086 ( 79)
           0.2076 ( 81)  0.1146 ( 83)  0.1533 ( 90)  0.1886 ( 91)  0.1886 ( 92)
          -0.2702 ( 93) -0.1926 ( 95) -0.1438 ( 99)  0.1705 (103) -0.1127 (104)
           0.1952 (105) -0.1692 (108) -0.1480 (110) -0.1480 (111) -0.1478 (113)
          -0.1478 (114)  0.1384 (116)  0.1385 (117)  0.1386 (119)  0.1387 (120)
 CRD 47=   0.2402 (  1)  0.1177 (  2) -0.4538 (  3) -0.2634 (  5)  0.4440 (  6)
          -0.1045 (  9)  0.1674 ( 11) -0.2433 ( 13) -0.1057 ( 16)  0.1126 ( 20)
           0.1129 ( 21) -0.1896 ( 29)  0.2276 ( 30)  0.1125 ( 31) -0.1045 ( 34)
          -0.2060 ( 38)  0.1024 ( 42) -0.1008 ( 43) -0.1359 ( 59)
 CRD 48=   0.1969 (  1) -0.2527 (  2)  0.1458 (  4) -0.2632 (  5) -0.1466 (  6)
           0.3242 (  7)  0.1398 (  9) -0.1479 ( 10)  0.2699 ( 11)  0.1124 ( 13)
          -0.2807 ( 16)  0.1296 ( 23)  0.1301 ( 24) -0.1528 ( 25)  0.1690 ( 26)
           0.1462 ( 29)  0.1197 ( 31)  0.1683 ( 32)  0.1700 ( 33) -0.1885 ( 38)
           0.1081 ( 39) -0.2659 ( 47)  0.1080 ( 52)  0.1080 ( 53)  0.1008 ( 54)
          -0.1568 ( 64)
 CRD 49=   0.2086 (  1) -0.3700 (  2)  0.1985 (  5)  0.4786 (  9) -0.3559 ( 11)
           0.1974 ( 28)  0.1018 ( 31)  0.1057 ( 33) -0.1435 ( 34) -0.1894 ( 35)
          -0.2682 ( 39)  0.2613 ( 48) -0.1005 (111)  0.1006 (113)
 CRD 50=   0.1106 (  1)  0.1516 (  3) -0.2439 (  4)  0.1920 (  7) -0.2061 (  9)
           0.4370 ( 10) -0.1809 ( 11) -0.1965 ( 13) -0.2178 ( 25) -0.1957 ( 27)
          -0.1527 ( 30)  0.1230 ( 31)  0.1579 ( 32) -0.1703 ( 34)  0.1286 ( 35)
           0.3029 ( 37) -0.1145 ( 39)  0.1380 ( 42)  0.2056 ( 43) -0.1884 ( 48)
          -0.1030 ( 59)  0.1066 ( 61) -0.1035 (117)  0.1020 (119)
 CRD 51=  -0.1865 ( 14)  0.1865 ( 15) -0.1883 ( 17)  0.1893 ( 18)  0.1389 ( 20)
          -0.1396 ( 21)  0.1102 ( 23) -0.1099 ( 24)  0.1073 ( 58) -0.1069 ( 60)
          -0.1800 ( 68)  0.1576 ( 71) -0.1953 ( 72)  0.1582 ( 73) -0.1138 ( 79)
           0.1031 ( 82)  0.2119 ( 83)  0.3090 ( 85)  0.1233 ( 89)  0.1200 ( 95)
          -0.2937 ( 98) -0.2468 (103) -0.1085 (104)  0.1371 (105)  0.1706 (106)
           0.1582 (107) -0.1162 (108) -0.1217 (110) -0.1215 (111) -0.1219 (113)
          -0.1217 (114) -0.1267 (116) -0.1266 (117) -0.1275 (119) -0.1274 (120)
 CRD 52=   0.2009 (  1) -0.2108 (  2) -0.1395 (  3)  0.3597 (  5) -0.2025 (  7)
          -0.1525 (  8)  0.2241 ( 12)  0.1329 ( 13) -0.2774 ( 16)  0.1101 ( 19)
           0.1207 ( 23)  0.1214 ( 24)  0.2359 ( 28) -0.1223 ( 29)  0.1479 ( 31)
          -0.1339 ( 32) -0.1044 ( 33) -0.1772 ( 35)  0.1299 ( 38)  0.1085 ( 40)
           0.1085 ( 41) -0.1143 ( 44) -0.1145 ( 45) -0.1110 ( 55)  0.1379 ( 59)
          -0.1632 ( 64)  0.1605 (111) -0.1604 (113) -0.1295 (117)  0.1300 (119)
 CRD 53=   0.1459 (  1)  0.1879 (  2) -0.2130 (  3) -0.2649 (  4) -0.1030 (  6)
           0.1799 (  7) -0.2563 (  8)  0.1176 (  9) -0.1936 ( 12)  0.2562 ( 13)
           0.1025 ( 16) -0.1045 ( 20) -0.1044 ( 21)  0.1317 ( 22) -0.2509 ( 27)
           0.1004 ( 28) -0.1927 ( 29) -0.1682 ( 30)  0.1640 ( 31)  0.2076 ( 32)
          -0.1060 ( 34)  0.1505 ( 35)  0.1036 ( 44)  0.1035 ( 45)  0.1418 ( 59)
          -0.1125 ( 61)  0.1378 ( 64)  0.1042 (111) -0.1041 (113)  0.1651 (117)
          -0.1650 (119)
 CRD 54=   0.2221 (  2) -0.2321 (  3) -0.1832 (  4)  0.1471 (  5) -0.2753 (  6)
           0.2410 (  8) -0.1310 ( 10)  0.2252 ( 12) -0.1882 ( 16) -0.2098 ( 19)
           0.1533 ( 25) -0.1660 ( 27) -0.1608 ( 29) -0.1770 ( 30)  0.1185 ( 34)
           0.1090 ( 35) -0.1728 ( 37)  0.1164 ( 38)  0.1544 ( 47)  0.1550 ( 55)
          -0.1524 ( 59) -0.1121 ( 87)  0.1121 ( 88) -0.1998 (111)  0.2007 (113)
 CRD 55=  -0.1299 ( 17)  0.1259 ( 18)  0.1096 ( 20) -0.1112 ( 21)  0.2512 ( 23)
          -0.2462 ( 24)  0.1910 ( 65) -0.1868 ( 66)  0.1657 ( 68)  0.1773 ( 72)
           0.1679 ( 76)  0.1200 ( 78) -0.2000 ( 83)  0.1228 ( 84) -0.1683 ( 85)
          -0.1676 ( 86)  0.1126 ( 89) -0.1717 ( 95)  0.1501 ( 98)  0.2574 (102)
           0.1897 (103)  0.1270 (104) -0.1934 (106) -0.1769 (107)  0.1478 (115)
          -0.1306 (116) -0.1365 (117)  0.1512 (118) -0.1272 (119) -0.1331 (120)
 CRD 56=  -0.1251 (  1)  0.2191 (  2) -0.2379 (  5)  0.1051 (  6)  0.1085 (  7)
          -0.2347 (  8)  0.2136 (  9) -0.2413 ( 11)  0.2482 ( 12)  0.1554 ( 13)
          -0.2249 ( 22)  0.1038 ( 24)  0.1681 ( 25) -0.1178 ( 28) -0.1489 ( 31)
           0.1282 ( 32) -0.1741 ( 34)  0.1027 ( 35) -0.1520 ( 38) -0.1649 ( 39)
           0.1489 ( 47)  0.1534 ( 48)  0.1484 ( 61) -0.1548 ( 64) -0.1204 (100)
           0.1215 (101) -0.1942 (117)  0.1987 (119)
 CRD 57=   0.1233 ( 14) -0.1234 ( 15) -0.2463 ( 20)  0.2470 ( 21)  0.1275 ( 23)
          -0.1283 ( 24) -0.1868 ( 58)  0.1872 ( 60)  0.1408 ( 68) -0.1157 ( 72)
           0.1830 ( 75)  0.2285 ( 81) -0.2558 ( 89) -0.1965 ( 93) -0.1198 ( 95)
           0.1174 ( 96)  0.1181 ( 97) -0.1274 ( 98) -0.1489 ( 99)  0.1340 (102)
           0.1098 (103) -0.1555 (104)  0.2595 (105) -0.1544 (108) -0.1480 (109)
           0.1319 (110)  0.1312 (111) -0.1477 (112)  0.1322 (113)  0.1314 (114)
 CRD 58=  -0.1181 (  2)  0.1224 (  6) -0.1558 (  9)  0.1456 ( 11) -0.1248 ( 12)
           0.2876 ( 13) -0.1127 ( 14) -0.1129 ( 15)  0.2767 ( 16) -0.2258 ( 19)
          -0.1435 ( 22)  0.1604 ( 26) -0.1524 ( 33)  0.1204 ( 42)  0.1695 ( 55)
          -0.1288 ( 56) -0.1288 ( 57)  0.1185 ( 58)  0.1186 ( 60)  0.1427 ( 61)
          -0.1164 ( 62) -0.1163 ( 63)  0.1318 ( 71) -0.1315 ( 73) -0.1474 ( 78)
           0.1468 ( 84) -0.1116 ( 87)  0.1115 ( 88) -0.1474 ( 91)  0.1468 ( 92)
           0.1315 ( 96) -0.1318 ( 97) -0.1441 (111)  0.1442 (113)
 CRD 59=   0.1570 (  3)  0.1931 (  6) -0.1256 (  8)  0.1179 ( 10) -0.1915 ( 11)
           0.2664 ( 13) -0.2790 ( 16) -0.1427 ( 19)  0.1967 ( 22) -0.1564 ( 26)
           0.1220 ( 37) -0.1013 ( 39)  0.1777 ( 42)  0.1522 ( 43) -0.1014 ( 44)
          -0.1016 ( 45)  0.1310 ( 55) -0.1158 ( 56) -0.1158 ( 57) -0.1470 ( 61)
           0.1269 ( 62)  0.1270 ( 63) -0.1056 ( 65) -0.1055 ( 66) -0.1393 ( 71)
           0.1388 ( 73) -0.1272 ( 78)  0.1278 ( 84) -0.1274 ( 91)  0.1276 ( 92)
          -0.1392 ( 96)  0.1390 ( 97)  0.1175 (117) -0.1175 (119)
 CRD 60=   0.1072 ( 14) -0.1050 ( 15) -0.1175 ( 17)  0.1246 ( 18)  0.1580 ( 20)
          -0.1564 ( 21) -0.1434 ( 23)  0.1487 ( 24)  0.1106 ( 49) -0.1119 ( 50)
          -0.1128 ( 52)  0.1088 ( 53)  0.1176 ( 58) -0.1164 ( 60) -0.1086 ( 62)
           0.1051 ( 63) -0.1072 ( 65)  0.1109 ( 66)  0.1752 ( 68)  0.1228 ( 71)
           0.1276 ( 73)  0.1714 ( 74)  0.1730 ( 77)  0.1930 ( 79)  0.1702 ( 81)
          -0.1449 ( 87) -0.1423 ( 88) -0.1280 ( 90) -0.1017 ( 93)  0.1062 ( 94)
           0.1449 (100)  0.1528 (101)  0.1828 (103) -0.1776 (104)  0.1625 (105)
          -0.1692 (106)  0.2019 (109)  0.1993 (112) -0.1995 (115) -0.2077 (118)
 CRD 61=  -0.1811 (  8) -0.1787 ( 12)  0.1179 ( 14)  0.1225 ( 15)  0.1253 ( 17)
           0.1206 ( 18) -0.1680 ( 19) -0.1708 ( 22)  0.1661 ( 36)  0.1714 ( 46)
           0.1504 ( 51)  0.1533 ( 54) -0.1834 ( 55) -0.1339 ( 59) -0.1877 ( 61)
          -0.1366 ( 64) -0.1291 ( 87)  0.1352 ( 88) -0.1373 (100)  0.1317 (101)
           0.1312 (109)  0.2677 (110) -0.1395 (112) -0.2672 (114)  0.1415 (115)
           0.2723 (116) -0.1340 (118) -0.2722 (120)
 CRD 62=   0.1785 (  8) -0.1806 ( 12) -0.1246 ( 14) -0.1218 ( 15)  0.1214 ( 17)
           0.1193 ( 18)  0.1690 ( 19) -0.1661 ( 22) -0.1725 ( 36)  0.1670 ( 46)
          -0.1524 ( 51)  0.1495 ( 54)  0.1878 ( 55)  0.1355 ( 59) -0.1836 ( 61)
          -0.1327 ( 64)  0.1351 ( 87) -0.1315 ( 88) -0.1322 (100)  0.1297 (101)
          -0.1397 (109) -0.2703 (110)  0.1347 (112)  0.2707 (114)  0.1365 (115)
           0.2659 (116) -0.1333 (118) -0.2657 (120)
 CRD 63=   0.1443 ( 14) -0.1446 ( 15)  0.1256 ( 17) -0.1248 ( 18)  0.1376 ( 20)
          -0.1378 ( 21)  0.1511 ( 23) -0.1504 ( 24)  0.1155 ( 49) -0.1154 ( 50)
           0.1151 ( 52) -0.1156 ( 53)  0.1164 ( 56) -0.1163 ( 57)  0.1026 ( 58)
          -0.1027 ( 60)  0.1059 ( 62) -0.1061 ( 63)  0.1121 ( 65) -0.1116 ( 66)
           0.1504 ( 67)  0.1869 ( 69) -0.1175 ( 72)  0.1137 ( 79) -0.1802 ( 82)
           0.1303 ( 83)  0.1358 ( 86) -0.1689 ( 87) -0.1691 ( 88)  0.2042 ( 90)
          -0.1282 ( 91) -0.1279 ( 92) -0.1183 ( 93)  0.1192 ( 95) -0.1434 ( 99)
          -0.1608 (100) -0.1599 (101)  0.1671 (107) -0.1686 (108)  0.2100 (109)
           0.2102 (112)  0.2054 (115)  0.2046 (118)
 CRD 64=   0.3418 ( 70) -0.1087 ( 72) -0.1425 ( 74) -0.1926 ( 75)  0.1915 ( 76)
           0.1116 ( 77) -0.3252 ( 80)  0.1279 ( 83) -0.1505 ( 93) -0.1463 ( 94)
           0.1597 ( 95)  0.1228 ( 96)  0.1229 ( 97)  0.1095 ( 98)  0.3635 (103)
          -0.3917 (105)  0.1096 (106)  0.1810 (107) -0.1841 (108)
 CRD 65=  -0.2714 ( 67) -0.1190 ( 71)  0.1134 ( 72) -0.1187 ( 73) -0.1944 ( 74)
          -0.2010 ( 77) -0.1928 ( 78)  0.1175 ( 80)  0.1073 ( 82) -0.1929 ( 84)
           0.1014 ( 85) -0.1667 ( 86) -0.1500 ( 87) -0.1500 ( 88)  0.2364 ( 94)
           0.1498 ( 96)  0.1501 ( 97)  0.1015 ( 98) -0.1677 ( 99)  0.1505 (100)
           0.1505 (101) -0.1116 (103)  0.2891 (104)  0.2486 (106) -0.1935 (107)
          -0.1414 (108)
 CRD 66=  -0.1968 ( 67)  0.3016 ( 69) -0.2049 ( 70) -0.1080 ( 71) -0.1078 ( 73)
           0.2467 ( 74) -0.2506 ( 77)  0.1489 ( 78)  0.2066 ( 80) -0.2985 ( 82)
           0.1490 ( 84) -0.1251 ( 91) -0.1250 ( 92) -0.2152 ( 94)  0.1645 ( 96)
           0.1647 ( 97) -0.1415 (103)  0.2291 (104)  0.1357 (105) -0.2059 (106)
           0.2672 (107) -0.2422 (108)

 THE DETERMINANT OF THE G MATRIX IS 10**(   -27)


                     --------------------
                     INTERNAL COORDINATES
                     --------------------

                 - - ATOMS - -         COORDINATE      COORDINATE
 NO.   TYPE    I  J  K  L  M  N        (BOHR,RAD)       (ANG,DEG)
 ----------------------------------------------------------------
   1 STRETCH   1  7                     2.0524122       1.0860898
   2 STRETCH   1  2                     2.6359901       1.3949060
   3 STRETCH   1  6                     2.6432870       1.3987673
   4 STRETCH   2  8                     2.0536955       1.0867689
   5 STRETCH   2  3                     2.6341517       1.3939332
   6 STRETCH   3  4                     2.6493576       1.4019798
   7 STRETCH   3  9                     2.0556650       1.0878112
   8 STRETCH   4 10                     2.8573592       1.5120495
   9 STRETCH   4  5                     2.6505154       1.4025924
  10 STRETCH   5 11                     2.0553965       1.0876691
  11 STRETCH   5  6                     2.6626448       1.4090110
  12 STRETCH   6 12                     2.8585332       1.5126707
  13 STRETCH  10 15                     2.8789741       1.5234876
  14 STRETCH  10 14                     2.0736737       1.0973409
  15 STRETCH  10 13                     2.0736322       1.0973190
  16 STRETCH  12 21                     2.8790445       1.5235248
  17 STRETCH  12 20                     2.0735674       1.0972847
  18 STRETCH  12 19                     2.0735525       1.0972768
  19 STRETCH  15 18                     2.0690926       1.0949167
  20 STRETCH  15 17                     2.0693186       1.0950363
  21 STRETCH  15 16                     2.0691876       1.0949670
  22 STRETCH  21 24                     2.0692342       1.0949916
  23 STRETCH  21 23                     2.0691701       1.0949577
  24 STRETCH  21 22                     2.0692290       1.0949889
  25 BEND      1  6  5                  2.0682723     118.5032760
  26 BEND      1  6 12                  2.1569632     123.5848863
  27 BEND      1  2  3                  2.0987212     120.2478681
  28 BEND      1  2  8                  2.0922284     119.8758562
  29 BEND      2  1  7                  2.0627652     118.1877421
  30 BEND      2  3  9                  2.0778484     119.0519430
  31 BEND      2  1  6                  2.1030230     120.4943424
  32 BEND      2  3  4                  2.1083527     120.7997106
  33 BEND      3  4 10                  2.0601297     118.0367391
  34 BEND      3  4  5                  2.0633480     118.2211309
  35 BEND      3  2  8                  2.0922357     119.8762756
  36 BEND      4 10 15                  2.0424872     117.0258968
  37 BEND      4  5  6                  2.1246534     121.7336703
  38 BEND      4  3  9                  2.0969842     120.1483457
  39 BEND      4  5 11                  2.0970347     120.1512371
  40 BEND      4 10 13                  1.8858629     108.0519851
  41 BEND      4 10 14                  1.8858947     108.0538092
  42 BEND      5  4 10                  2.1597076     123.7421279
  43 BEND      5  6 12                  2.0579497     117.9118348
  44 BEND      6 12 19                  1.8859379     108.0562824
  45 BEND      6 12 20                  1.8859057     108.0544358
  46 BEND      6 12 21                  2.0417899     116.9859466
  47 BEND      6  1  7                  2.1173971     121.3179150
  48 BEND      6  5 11                  2.0614973     118.1150920
  49 BEND     10 15 16                  1.9437091     111.3663255
  50 BEND     10 15 17                  1.9436062     111.3604333
  51 BEND     10 15 18                  1.9200371     110.0100209
  52 BEND     12 21 22                  1.9436094     111.3606166
  53 BEND     12 21 23                  1.9437119     111.3664861
  54 BEND     12 21 24                  1.9201496     110.0164700
  55 BEND     13 10 14                  1.8733488     107.3349821
  56 BEND     13 10 15                  1.8848949     107.9965245
  57 BEND     14 10 15                  1.8849938     108.0021911
  58 BEND     16 15 18                  1.8805710     107.7487831
  59 BEND     16 15 17                  1.8931368     108.4687476
  60 BEND     17 15 18                  1.8805173     107.7457019
  61 BEND     19 12 20                  1.8736321     107.3512109
  62 BEND     19 12 21                  1.8852409     108.0163485
  63 BEND     20 12 21                  1.8850521     108.0055266
  64 BEND     22 21 23                  1.8929024     108.4553182
  65 BEND     22 21 24                  1.8806156     107.7513354
  66 BEND     23 21 24                  1.8805883     107.7497746
  67 TORSION   1  6 12 21               0.0035743       0.2047944
  68 TORSION   1  2  3  9               3.1415873     179.9996943
  69 TORSION   1  6  5  4               0.0000034       0.0001921
  70 TORSION   1  2  3  4              -0.0001834      -0.0105100
  71 TORSION   1  6 12 19              -2.1270788    -121.8726395
  72 TORSION   1  6  5 11               3.1414464     179.9916174
  73 TORSION   1  6 12 20               2.1339514     122.2664067
  74 TORSION   2  3  4  5               0.0002720       0.0155826
  75 TORSION   2  3  4 10               3.1415895     179.9998217
  76 TORSION   2  1  6 12               3.1413324     179.9850868
  77 TORSION   2  1  6  5               0.0000917       0.0052512
  78 TORSION   3  4 10 14              -1.0116390     -57.9626464
  79 TORSION   3  4 10 15               3.1407643     179.9525384
  80 TORSION   3  2  1  6              -0.0000034      -0.0001927
  81 TORSION   3  2  1  7               3.1414480     179.9917118
  82 TORSION   3  4  5  6              -0.0001827      -0.0104653
  83 TORSION   3  4  5 11               3.1415626     179.9982809
  84 TORSION   3  4 10 13               1.0101390      57.8767040
  85 TORSION   4  3  2  8               3.1414602     179.9924099
  86 TORSION   4  5  6 12              -3.1412575    -179.9807982
  87 TORSION   4 10 15 16               1.0581059      60.6250044
  88 TORSION   4 10 15 17              -1.0575084     -60.5907668
  89 TORSION   4 10 15 18              -3.1412275    -179.9790762
  90 TORSION   5  6 12 21              -3.1383683    -179.8152587
  91 TORSION   5  4 10 14               2.1296622     122.0206530
  92 TORSION   5  4 10 13              -2.1317451    -122.1399966
  93 TORSION   5  6  1  7              -3.1413552    -179.9863964
  94 TORSION   5  4 10 15              -0.0011198      -0.0641622
  95 TORSION   5  4  3  9              -3.1415007    -179.9947333
  96 TORSION   5  6 12 19               1.0141638      58.1073075
  97 TORSION   5  6 12 20              -1.0079913     -57.7536463
  98 TORSION   6  1  2  8               3.1415383     179.9968874
  99 TORSION   6  5  4 10              -3.1414833    -179.9937359
 100 TORSION   6 12 21 22               1.0566475      60.5414411
 101 TORSION   6 12 21 23              -1.0586713     -60.6573969
 102 TORSION   6 12 21 24               3.1405651     179.9411230
 103 TORSION   7  1  2  8              -0.0001956      -0.0112081
 104 TORSION   7  1  6 12              -0.0001145      -0.0065607
 105 TORSION   8  2  3  9               0.0000456       0.0026142
 106 TORSION   9  3  4 10              -0.0001832      -0.0104942
 107 TORSION  10  4  5 11               0.0002620       0.0150103
 108 TORSION  11  5  6 12               0.0001855       0.0106271
 109 TORSION  13 10 15 18              -1.0100999     -57.8744628
 110 TORSION  13 10 15 17               1.0736192      61.5138466
 111 TORSION  13 10 15 16              -3.0939518    -177.2703822
 112 TORSION  14 10 15 18               1.0107084      57.9093258
 113 TORSION  14 10 15 17               3.0944275     177.2976352
 114 TORSION  14 10 15 16              -1.0731435     -61.4865936
 115 TORSION  19 12 21 24              -1.0116051     -57.9607043
 116 TORSION  19 12 21 23               1.0723438      61.4407758
 117 TORSION  19 12 21 22              -3.0955227    -177.3603862
 118 TORSION  20 12 21 24               1.0097447      57.8541070
 119 TORSION  20 12 21 23               3.0936936     177.2555871
 120 TORSION  20 12 21 22              -1.0741729     -61.5455750

     ------------------------------------------
     THE POINT GROUP IS C1 , NAXIS= 1, ORDER= 1
     ------------------------------------------

     DIMENSIONS OF THE SYMMETRY SUBSPACES ARE
 A   =  274

 ..... DONE SETTING UP THE RUN .....
 STEP CPU TIME =     0.01 TOTAL CPU TIME =        0.0 (    0.0 MIN)
 TOTAL WALL CLOCK TIME=        0.0 SECONDS, CPU UTILIZATION IS  33.33%


          -----------------------------
          STATIONARY POINT LOCATION RUN
          -----------------------------

 OBTAINING INITIAL HESSIAN, HESS=GUESS   
 DIAGONAL GUESS HESSIAN IN INTERNAL COORDS IS
     1  0.3490     2  0.4774     3  0.4739     4  0.3486     5  0.4783
     6  0.4709     7  0.3478     8  0.3802     9  0.4704    10  0.3479
    11  0.4645    12  0.3797    13  0.3718    14  0.3415    15  0.3415
    16  0.3718    17  0.3415    18  0.3415    19  0.3431    20  0.3430
    21  0.3430    22  0.3430    23  0.3430    24  0.3430    25  0.2672
    26  0.2593    27  0.2687    28  0.2326    29  0.2326    30  0.2325
    31  0.2683    32  0.2681    33  0.2591    34  0.2675    35  0.2326
    36  0.2502    37  0.2669    38  0.2320    39  0.2320    40  0.2247
    41  0.2247    42  0.2590    43  0.2585    44  0.2247    45  0.2247
    46  0.2502    47  0.2324    48  0.2316    49  0.2242    50  0.2242
    51  0.2242    52  0.2242    53  0.2242    54  0.2242    55  0.2027
    56  0.2240    57  0.2240    58  0.2029    59  0.2029    60  0.2029
    61  0.2027    62  0.2240    63  0.2240    64  0.2029    65  0.2029
    66  0.2029    67  0.2500    68  0.2500    69  0.2500    70  0.2500
    71  0.2500    72  0.2500    73  0.2500    74  0.2500    75  0.2500
    76  0.2500    77  0.2500    78  0.2500    79  0.2500    80  0.2500
    81  0.2500    82  0.2500    83  0.2500    84  0.2500    85  0.2500
    86  0.2500    87  0.2500    88  0.2500    89  0.2500    90  0.2500
    91  0.2500    92  0.2500    93  0.2500    94  0.2500    95  0.2500
    96  0.2500    97  0.2500    98  0.2500    99  0.2500   100  0.2500
   101  0.2500   102  0.2500   103  0.2500   104  0.2500   105  0.2500
   106  0.2500   107  0.2500   108  0.2500   109  0.2500   110  0.2500
   111  0.2500   112  0.2500   113  0.2500   114  0.2500   115  0.2500
   116  0.2500   117  0.2500   118  0.2500   119  0.2500   120  0.2500
 TRANSFORMING HESSIAN TO SYMMETRY COORDINATES

          PARAMETERS CONTROLLING GEOMETRY SEARCH ARE
          METHOD =QA                  UPHESS =BFGS    
          NNEG   =         0          NFRZ   =         3
          NSTEP  =        50          IFOLOW =         1
          HESS   =GUESS               RESTAR =         F
          IHREP  =         0          HSSEND =         F
          NPRT   =         0          NPUN   =         0
          OPTTOL = 5.000E-04          RMIN   = 1.500E-03
          RMAX   = 1.000E-01          RLIM   = 7.000E-02
          DXMAX  = 3.000E-01          PURIFY =         F
          MOVIE  =         F          TRUPD  =         T
          TRMAX  = 5.000E-01          TRMIN  = 5.000E-02
          ITBMAT =         5          STPT   =         F
          STSTEP = 1.000E-02          PROJCT=          F
          FROZEN COORD(S)=   1   2   3


      ***** EQUILIBRIUM GEOMETRY LOCATED *****
            (SUBJECT TO   3 CONSTRAINT(S))
 COORDINATES OF ALL ATOMS ARE (ANGS)
   ATOM   CHARGE       X              Y              Z
 ------------------------------------------------------------
 C           6.0   0.0577377394  -1.4095372474   0.0014495513
 C           6.0  -1.1894810203  -0.7845829539   0.0010637544
 C           6.0  -1.2855056714   0.5877701576   0.0000600160
 C           6.0  -0.1324306065   1.3822956738  -0.0005074274
 C           6.0   1.0950660960   0.7463007457  -0.0001915264
 C           6.0   1.2137730137  -0.6515503568   0.0007943859
 H           1.0   0.1019882115  -2.4827254621   0.0023079329
 H           1.0  -2.0836720217  -1.3836568381   0.0015408269
 H           1.0  -2.2541858080   1.0584736506  -0.0002334905
 C           6.0  -0.3037593487   2.8935768252  -0.0016603489
 H           1.0   1.9992605495   1.3289764637  -0.0006581322
 C           6.0   2.6116021223  -1.2517460606   0.0014855045
 H           1.0  -0.9036389838   3.1609211974   0.8651376092
 H           1.0  -0.9021654205   3.1597881770  -0.8698301437
 C           6.0   0.9678062804   3.7381723758  -0.0011197049
 H           1.0   1.5771780156   3.5508755232  -0.8803145239
 H           1.0   1.5759256768   3.5516206429   0.8791065932
 H           1.0   0.7017375387   4.7909255809  -0.0017320048
 H           1.0   3.1408262914  -0.8687525253   0.8708921578
 H           1.0   3.1432770192  -0.8649036896  -0.8646838401
 C           6.0   2.7071077680  -2.7760278084  -0.0017700737
 H           1.0   2.2407282494  -3.2078443466  -0.8824387049
 H           1.0   2.2399037771  -3.2117797595   0.8765101025
 H           1.0   3.7513928829  -3.0734942783  -0.0018535689


                     --------------------
                     INTERNAL COORDINATES
                     --------------------

                 - - ATOMS - -         COORDINATE      COORDINATE
 NO.   TYPE    I  J  K  L  M  N        (BOHR,RAD)       (ANG,DEG)
 ----------------------------------------------------------------
   1 STRETCH   1  7                     2.0297555       1.0741005
   2 STRETCH   1  2                     2.6362339       1.3950350
   3 STRETCH   1  6                     2.6123110       1.3823755
   4 STRETCH   2  8                     2.0339521       1.0763212
   5 STRETCH   2  3                     2.5997127       1.3757088
   6 STRETCH   3  4                     2.6461922       1.4003047
   7 STRETCH   3  9                     2.0352121       1.0769880
   8 STRETCH   4 10                     2.8742015       1.5209621
   9 STRETCH   4  5                     2.6124994       1.3824752
  10 STRETCH   5 11                     2.0327329       1.0756760
  11 STRETCH   5  6                     2.6510640       1.4028827
  12 STRETCH   6 12                     2.8747208       1.5212369
  13 STRETCH  10 15                     2.8846784       1.5265062
  14 STRETCH  10 14                     2.0550951       1.0875096
  15 STRETCH  10 13                     2.0550866       1.0875051
  16 STRETCH  12 21                     2.8861299       1.5272743
  17 STRETCH  12 20                     2.0550060       1.0874624
  18 STRETCH  12 19                     2.0550544       1.0874880
  19 STRETCH  15 18                     2.0519694       1.0858555
  20 STRETCH  15 17                     2.0522538       1.0860060
  21 STRETCH  15 16                     2.0522438       1.0860007
  22 STRETCH  21 24                     2.0519133       1.0858258
  23 STRETCH  21 23                     2.0523637       1.0860642
  24 STRETCH  21 22                     2.0523787       1.0860721
  25 BEND      1  6  5                  2.0664352     118.3980155
  26 BEND      1  6 12                  2.1556636     123.5104289
  27 BEND      1  2  3                  2.1051632     120.6169683
  28 BEND      1  2  8                  2.0868021     119.5649529
  29 BEND      2  1  7                  2.0765157     118.9755835
  30 BEND      2  3  9                  2.0929757     119.9186722
  31 BEND      2  1  6                  2.0967261     120.1335553
  32 BEND      2  3  4                  2.1042781     120.5662550
  33 BEND      3  4 10                  2.0612505     118.1009525
  34 BEND      3  4  5                  2.0602128     118.0414984
  35 BEND      3  2  8                  2.0912200     119.8180788
  36 BEND      4 10 15                  2.0442160     117.1249506
  37 BEND      4  5  6                  2.1335552     122.2437071
  38 BEND      4  3  9                  2.0859315     119.5150727
  39 BEND      4  5 11                  2.0911130     119.8119470
  40 BEND      4 10 13                  1.8815749     107.8063033
  41 BEND      4 10 14                  1.8815962     107.8075187
  42 BEND      5  4 10                  2.1617220     123.8575484
  43 BEND      5  6 12                  2.0610864     118.0915533
  44 BEND      6 12 19                  1.8844978     107.9737685
  45 BEND      6 12 20                  1.8844521     107.9711529
  46 BEND      6 12 21                  2.0389406     116.8226900
  47 BEND      6  1  7                  2.1099436     120.8908611
  48 BEND      6  5 11                  2.0585172     117.9443459
  49 BEND     10 15 16                  1.9516303     111.8201782
  50 BEND     10 15 17                  1.9516206     111.8196235
  51 BEND     10 15 18                  1.9095487     109.4090794
  52 BEND     12 21 22                  1.9516264     111.8199532
  53 BEND     12 21 23                  1.9517550     111.8273220
  54 BEND     12 21 24                  1.9108721     109.4849078
  55 BEND     13 10 14                  1.8468816     105.8185192
  56 BEND     13 10 15                  1.8998932     108.8558629
  57 BEND     14 10 15                  1.8999053     108.8565553
  58 BEND     16 15 18                  1.8799385     107.7125410
  59 BEND     16 15 17                  1.8884554     108.2005235
  60 BEND     17 15 18                  1.8799010     107.7103939
  61 BEND     19 12 20                  1.8478951     105.8765883
  62 BEND     19 12 21                  1.8994448     108.8301725
  63 BEND     20 12 21                  1.8994416     108.8299888
  64 BEND     22 21 23                  1.8875555     108.1489643
  65 BEND     22 21 24                  1.8796903     107.6983195
  66 BEND     23 21 24                  1.8795477     107.6901501
  67 TORSION   1  6 12 21               0.0034876       0.1998241
  68 TORSION   1  2  3  9               3.1415877     179.9997135
  69 TORSION   1  6  5  4               0.0000143       0.0008208
  70 TORSION   1  2  3  4              -0.0000707      -0.0040522
  71 TORSION   1  6 12 19              -2.1428260    -122.7748834
  72 TORSION   1  6  5 11               3.1415521     179.9976748
  73 TORSION   1  6 12 20               2.1497598     123.1721607
  74 TORSION   2  3  4  5               0.0001333       0.0076374
  75 TORSION   2  3  4 10               3.1415577     179.9980002
  76 TORSION   2  1  6 12               3.1413288     179.9848836
  77 TORSION   2  1  6  5               0.0000522       0.0029905
  78 TORSION   3  4 10 14              -0.9941005     -56.9577639
  79 TORSION   3  4 10 15               3.1407518     179.9518215
  80 TORSION   3  2  1  6              -0.0000244      -0.0013969
  81 TORSION   3  2  1  7               3.1415164     179.9956326
  82 TORSION   3  4  5  6              -0.0001059      -0.0060698
  83 TORSION   3  4  5 11               3.1415426     179.9971334
  84 TORSION   3  4 10 13               0.9924523      56.8633275
  85 TORSION   4  3  2  8               3.1415396     179.9969629
  86 TORSION   4  5  6 12              -3.1412796    -179.9820659
  87 TORSION   4 10 15 16               1.0606967      60.7734433
  88 TORSION   4 10 15 17              -1.0601285     -60.7408904
  89 TORSION   4 10 15 18              -3.1412822    -179.9822109
  90 TORSION   5  6 12 21              -3.1384202    -179.8182308
  91 TORSION   5  4 10 14               2.1473134     123.0319933
  92 TORSION   5  4 10 13              -2.1493191    -123.1469153
  93 TORSION   5  6  1  7              -3.1414876    -179.9939813
  94 TORSION   5  4 10 15              -0.0010196      -0.0584213
  95 TORSION   5  4  3  9              -3.1415248    -179.9961132
  96 TORSION   5  6 12 19               0.9984516      57.2070617
  97 TORSION   5  6 12 20              -0.9921480     -56.8458943
  98 TORSION   6  1  2  8               3.1415506     179.9975905
  99 TORSION   6  5  4 10              -3.1415199    -179.9958326
 100 TORSION   6 12 21 22               1.0589148      60.6713518
 101 TORSION   6 12 21 23              -1.0608403     -60.7816704
 102 TORSION   6 12 21 24               3.1406784     179.9476166
 103 TORSION   7  1  2  8              -0.0000939      -0.0053799
 104 TORSION   7  1  6 12              -0.0002110      -0.0120882
 105 TORSION   8  2  3  9               0.0000127       0.0007286
 106 TORSION   9  3  4 10              -0.0001004      -0.0057504
 107 TORSION  10  4  5 11               0.0001286       0.0073705
 108 TORSION  11  5  6 12               0.0002581       0.0147881
 109 TORSION  13 10 15 18              -1.0023936     -57.4329250
 110 TORSION  13 10 15 17               1.0787600      61.8083955
 111 TORSION  13 10 15 16              -3.0836001    -176.6772708
 112 TORSION  14 10 15 18               1.0029762      57.4663015
 113 TORSION  14 10 15 17               3.0841298     176.7076219
 114 TORSION  14 10 15 16              -1.0782303     -61.7780444
 115 TORSION  19 12 21 24              -1.0039236     -57.5205850
 116 TORSION  19 12 21 23               1.0777430      61.7501280
 117 TORSION  19 12 21 22              -3.0856871    -176.7968498
 118 TORSION  20 12 21 24               1.0021587      57.4194620
 119 TORSION  20 12 21 23               3.0838253     176.6901750
 120 TORSION  20 12 21 22              -1.0796049     -61.8568029

          INTERNUCLEAR DISTANCES (ANGS.)


 =====================================================
   GAMESS/COSab RESULTS
 =====================================================

   Dielectric Constant                  = INFTY
   Basic Grid Size                      =                 1082
   Number of Segments                   =                   92
   Number of Segments located on spheres=                  318
   Number of Segments of the cavity     =                  866
   Solvent Radius (rsolv)               = 1.40
   Outlying Charge Error Method         = double cavity

 =====================================================

  Total solvated Energy (a.u.)          =  -386.9355626506
  Total Energy corrected (a.u.)         =  -386.9355537930

  Outlying charge effect (a.u.)         =     0.0000088575
  Outlying charge effect (kcal/mol)     =     0.0055581742

  Dielectric Energy (a.u.)              =    -0.0066824289
  Dielectric energy corr. (a.u.)        =    -0.0066735714

  Sum of polarization charges           =     0.0300767367
  Sum of polarization charges(cor.)     =    -0.0300767367

  Total surface area of cavity (A**2)   =  192.19
  Total volume of cavity (A**3)         =  192.81

 =====================================================
 NPS=                   866
NR.  ATOM  (X, Y, Z)(a.u.)                  CHARGE(e)  AREA(A**2) SIGMA(e/A**2)
   1   1  -0.032509  -1.679818   3.649137   0.000864   0.092912   0.009301
   2   1  -1.347290  -4.824389   2.740307   0.001313   0.278737   0.004710
   3   1   0.069239  -4.205995  -3.447462   0.001797   0.325193   0.005526
   4   1  -0.230758  -5.184857  -2.792308   0.000955   0.278737   0.003428
   5   1  -1.955818  -5.503277  -1.396128   0.000024   0.046456   0.000522
   6   1  -1.599690  -5.381868   1.996598   0.000467   0.278737   0.001674
   7   1   0.158806  -4.444925   3.335721   0.001247   0.232280   0.005370
   8   1  -0.680097  -4.606094   3.147296   0.000854   0.185824   0.004596
   9   1  -1.725816  -5.229306  -2.079257   0.000409   0.185824   0.002200
  10   1  -1.014451  -4.506874  -3.099586   0.001786   0.371649   0.004807
  11   1   0.794330  -3.368314   3.652138   0.002275   0.278737   0.008161
  12   1   0.452573  -2.358749   3.754174   0.001541   0.232280   0.006636
  13   1  -0.358889  -2.586916   3.752309   0.001903   0.185824   0.010239
  14   1  -1.003043  -3.728076   3.454447   0.001104   0.232280   0.004752
  15   1  -0.488998  -3.294476  -3.675390   0.003426   0.464561   0.007376
  16   1   0.866210  -3.313463  -3.642650   0.002510   0.325193   0.007718
  17   1  -1.142230  -5.211531  -2.492600   0.000445   0.185824   0.002393
  18   1  -0.220727  -5.153794   2.826667   0.000772   0.232280   0.003322
  19   1   0.143908  -2.121968  -3.737541   0.003616   0.464561   0.007783
  20   1  -0.132527  -3.561415   3.666045   0.002040   0.325193   0.006272
  21   2  -1.459404  -1.023313   3.669662   0.001082   0.139368   0.007761
  22   2  -2.919407  -3.829204   2.887643   0.000868   0.278737   0.003115
  23   2  -4.852897  -1.366924   2.737749   0.001214   0.278737   0.004355
  24   2  -3.557329  -2.476714  -3.401113   0.001467   0.371649   0.003946
  25   2  -4.251519  -3.011664  -2.814280   0.000862   0.325193   0.002650
  26   2  -5.662317  -1.185387  -1.590760   0.000103   0.092912   0.001110
  27   2  -5.459647  -1.442860   1.993652   0.000427   0.278737   0.001533
  28   2  -3.673974  -3.885970   2.546479   0.000549   0.278737   0.001970
  29   2  -3.287261  -4.874107  -1.302534  -0.000105   0.092912  -0.001125
  30   2  -3.187950  -4.596360   1.926898   0.000175   0.185824   0.000943
  31   2  -3.504000  -2.983136   3.235388   0.001213   0.325193   0.003730
  32   2  -4.241748  -1.880720   3.187903   0.000919   0.232280   0.003956
  33   2  -5.313834  -1.354073  -2.204146   0.000321   0.185824   0.001726
  34   2  -4.402487  -1.579356  -3.101572   0.001838   0.418105   0.004396
  35   2  -3.099125  -3.678211  -2.954179   0.001443   0.371649   0.003882
  36   2  -3.152619  -4.521580  -2.054810   0.000414   0.185824   0.002227
  37   2  -2.536854  -2.662714   3.580855   0.002072   0.325193   0.006371
  38   2  -2.009954  -1.733066   3.765646   0.001304   0.232280   0.005614
  39   2  -2.465521  -1.149501   3.760444   0.002109   0.232280   0.009080
  40   2  -3.687203  -1.139428   3.479727   0.001271   0.278737   0.004559
  41   2  -3.119430  -1.358782  -3.673475   0.003351   0.511017   0.006557
  42   2  -2.440854  -2.623248  -3.596054   0.002014   0.418105   0.004816
  43   2  -4.939908  -2.016078  -2.596500   0.000550   0.232280   0.002369
  44   2  -4.436877  -2.641539   2.856678   0.000922   0.325193   0.002837
  45   2  -3.165673  -4.941729   1.217147  -0.000076   0.092912  -0.000819
  46   2  -3.686479  -4.033730  -2.386814   0.000255   0.185824   0.001373
  47   2  -1.765007  -1.231108  -3.738034   0.003606   0.464561   0.007763
  48   2  -3.248983  -1.901901   3.622241   0.001363   0.278737   0.004891
  49   3  -1.587031   0.585902  -3.646727   0.000776   0.092912   0.008354
  50   3  -4.994258   0.637828  -2.735100   0.001444   0.278737   0.005181
  51   3  -3.817962   1.784038   3.450103   0.001896   0.371649   0.005103
  52   3  -4.792712   1.855157   2.853915   0.000849   0.232280   0.003655
  53   3  -5.770153   0.346776   1.593569   0.000145   0.092912   0.001559
  54   3  -5.605536   0.629622  -1.990881   0.000545   0.278737   0.001954
  55   3  -4.007067   2.334145  -3.208933   0.001352   0.325193   0.004157
  56   3  -4.459655   1.230774  -3.185371   0.001129   0.232280   0.004861
  57   3  -5.448052   0.561787   2.206887   0.000423   0.185824   0.002278
  58   3  -4.565348   0.818948   3.104350   0.001968   0.371649   0.005294
  59   3  -4.309506   2.606448   2.917603   0.001006   0.278737   0.003609
  60   3  -2.861766   2.094616  -3.623297   0.002260   0.325193   0.006949
  61   3  -2.015617   1.301838  -3.751765   0.001560   0.232280   0.006716
  62   3  -2.599869   0.750734  -3.758281   0.002314   0.232280   0.009963
  63   3  -3.808505   0.572772  -3.477318   0.001481   0.278737   0.005313
  64   3  -3.255437   0.740710   3.669557   0.003234   0.418105   0.007735
  65   3  -2.854508   2.008159   3.646763   0.002493   0.371649   0.006708
  66   3  -5.218343   1.183760   2.549615   0.000569   0.185824   0.003064
  67   3  -4.782264   2.051703  -2.803839   0.001175   0.325193   0.003612
  68   3  -1.915717   0.927995   3.740057   0.003587   0.464561   0.007721
  69   3  -3.479320   1.388258  -3.619910   0.001632   0.278737   0.005853
  70   4   0.596430   3.215242  -3.634632   0.000841   0.139368   0.006037
  71   4  -0.823412   2.887925  -3.726498   0.000676   0.139368   0.004848
  72   4  -0.106006   3.059147  -3.751102   0.000804   0.185824   0.004324
  73   4   0.161129   2.372321  -3.750281   0.000454   0.139368   0.003260
  74   4  -0.231244   1.912490   3.713126   0.002675   0.371649   0.007197
  75   4  -0.706180   2.950369   3.735629   0.001055   0.232280   0.004541
  76   4   0.431388   3.098022   3.684637   0.001696   0.371649   0.004564
  77   4  -0.436694   1.992229  -3.724548   0.001893   0.232280   0.008150
  78   5   1.203816   0.829061  -3.633157   0.001290   0.139368   0.009256
  79   5   3.305591   2.331473   3.450363   0.001639   0.325193   0.005040
  80   5   4.310345   2.452259   2.859125   0.000733   0.232280   0.003156
  81   5   3.885405   1.922770  -3.275062   0.000730   0.185824   0.003928
  82   5   3.268145   2.501950  -3.414380   0.001064   0.185824   0.005725
  83   5   4.011508   1.847356   3.212328   0.000574   0.139368   0.004119
  84   5   3.136658   1.265068  -3.623075   0.002369   0.325193   0.007285
  85   5   2.019817   0.953507  -3.751777   0.001531   0.232280   0.006592
  86   5   1.739078   1.748313  -3.750149   0.001795   0.185824   0.009658
  87   5   2.204301   2.595919  -3.586499   0.000993   0.139368   0.007128
  88   5   2.180329   2.312474   3.668162   0.003013   0.418105   0.007207
  89   5   2.955007   1.320924   3.672775   0.002420   0.325193   0.007443
  90   5   4.338840   2.400625  -2.855717   0.000591   0.185824   0.003178
  91   5   1.644628   1.070380   3.739733   0.003740   0.464561   0.008051
  92   5   2.661891   1.951631  -3.693618   0.001478   0.232280   0.006364
  93   6   3.062928  -0.603230   3.648155   0.000383   0.092912   0.004119
  94   6   2.442530  -2.044511   3.689406   0.001133   0.232280   0.004876
  95   6   2.764692  -1.264383   3.751336   0.000833   0.185824   0.004481
  96   6   2.229528  -0.757737   3.750615   0.001018   0.139368   0.007306
  97   6   1.650400  -0.951503  -3.712287   0.002691   0.371649   0.007241
  98   6   2.411819  -2.175286  -3.656254   0.001209   0.232280   0.005204
  99   6   2.785296  -0.986020  -3.737821   0.001694   0.371649   0.004559
 100   6   1.651863  -1.167855   3.725505   0.001759   0.232280   0.007574
 101   7  -0.101770  -7.130583  -0.006650  -0.004137   0.431809  -0.009581
 102   7  -0.290980  -6.425082  -1.667898  -0.001274   0.294415  -0.004328
 103   7  -1.457847  -6.452849  -0.452773  -0.001933   0.294415  -0.006564
 104   7  -0.887492  -6.305820   1.508607  -0.000716   0.255160  -0.002807
 105   7  -0.729745  -6.724193  -1.021812  -0.002593   0.392554  -0.006605
 106   7  -1.204297  -6.647008   0.514360  -0.002877   0.431809  -0.006663
 107   7  -0.214254  -6.718009   1.332308  -0.002389   0.314043  -0.007606
 108   8  -5.949570  -4.023262  -0.052235  -0.005325   0.608459  -0.008751
 109   8  -4.787182  -4.490518   1.342589  -0.002255   0.412182  -0.005470
 110   8  -4.424449  -4.922971  -0.682717  -0.002157   0.333671  -0.006465
 111   8  -5.416248  -3.467572  -1.763800  -0.001669   0.353299  -0.004724
 112   8  -6.311532  -2.110232  -0.377762  -0.002295   0.333671  -0.006879
 113   8  -5.913949  -2.593864   1.461902  -0.001489   0.333671  -0.004464
 114   8  -4.761379  -4.908246   0.313176  -0.003562   0.490692  -0.007259
 115   8  -5.135271  -4.349011  -1.259187  -0.003138   0.490692  -0.006395
 116   8  -6.107512  -2.893696  -1.114517  -0.003334   0.510320  -0.006534
 117   8  -6.343940  -2.682033   0.492816  -0.003584   0.490692  -0.007304
 118   8  -5.588722  -3.714296   1.451987  -0.003604   0.549575  -0.006558
 119   9  -6.570933   2.830213  -0.070248  -0.004191   0.510320  -0.008212
 120   9  -5.795971   2.752136   1.763052  -0.001856   0.392554  -0.004727
 121   9  -6.541749   1.174098   0.380715  -0.002255   0.333671  -0.006757
 122   9  -6.204238   1.895948  -1.498227  -0.001841   0.412182  -0.004468
 123   9  -5.921010   3.769596  -0.380999  -0.003469   0.412182  -0.008417
 124   9  -5.966679   3.498092   0.936611  -0.003259   0.412182  -0.007908
 125   9  -6.426316   1.979369   1.157508  -0.003059   0.510320  -0.005994
 126   9  -6.626089   1.632146  -0.548398  -0.002970   0.451437  -0.006578
 127   9  -5.867169   3.073429  -1.516918  -0.003315   0.510320  -0.006495
 128  10  -2.501881   8.706810   0.276338   0.000305   0.185824   0.001641
 129  10  -4.245990   6.275808  -0.388358   0.000555   0.185824   0.002986
 130  10   0.292625   5.086751  -3.662081   0.000134   0.139368   0.000959
 131  10  -0.036255   5.761822  -3.732595   0.000008   0.046456   0.000170
 132  10  -4.191362   6.489051   0.392612   0.000627   0.185824   0.003374
 133  10  -2.549142   8.527802   1.007360   0.000305   0.278737   0.001095
 134  10  -0.200122   4.914767   3.716843   0.000174   0.185824   0.000939
 135  10  -3.136537   8.229714  -0.304845   0.001013   0.325193   0.003116
 136  10  -3.960061   7.130194  -0.240323   0.001171   0.278737   0.004202
 137  10  -2.433482   8.640479  -0.876312   0.000415   0.278737   0.001487
 138  10  -0.215012   4.977254  -3.733359   0.000049   0.046456   0.001064
 139  10  -3.564483   7.762452   0.274576   0.000977   0.278737   0.003507
 140  10   0.005745   5.493150   3.731489   0.000050   0.046456   0.001080
 141  11   5.964154   3.628103   0.093655  -0.001857   0.196277  -0.009460
 142  11   5.544659   3.025996   1.626452  -0.001557   0.215905  -0.007212
 143  11   6.121806   3.087369  -0.459667  -0.002746   0.314043  -0.008744
 144  11   6.029810   3.102427   0.783206  -0.002494   0.294415  -0.008472
 145  11   5.633898   3.113487  -1.494024  -0.002458   0.314043  -0.007828
 146  12   8.703201  -2.318220   0.293057   0.000312   0.185824   0.001677
 147  12   7.473367   0.410366  -0.367119   0.000569   0.185824   0.003064
 148  12   4.181658  -2.914163  -3.659883   0.000138   0.139368   0.000988
 149  12   4.930892  -2.967103  -3.728441   0.000009   0.046456   0.000191
 150  12   7.628438   0.254059   0.413838   0.000641   0.185824   0.003448
 151  12   8.569821  -2.189853   1.024085   0.000315   0.278737   0.001129
 152  12   4.258583  -2.423112   3.720757   0.000182   0.185824   0.000979
 153  12   8.609436  -1.528290  -0.286081   0.001024   0.325193   0.003149
 154  12   8.069521  -0.265221  -0.219381   0.001187   0.278737   0.004258
 155  12   8.614792  -2.340861  -0.859918   0.000422   0.278737   0.001515
 156  12   4.341129  -2.419673  -3.729264   0.000051   0.046456   0.001106
 157  12   8.417458  -0.925637   0.294569   0.000989   0.278737   0.003548
 158  12   4.656237  -2.890858   3.735154   0.000052   0.046456   0.001124
 159  13  -2.979418   6.708468   3.603904  -0.002850   0.490692  -0.005808
 160  13  -1.489591   7.155922   3.777037  -0.001105   0.274788  -0.004022
 161  13  -1.635197   5.353165   4.010850  -0.001238   0.353299  -0.003504
 162  13  -4.032596   6.709574   1.930587  -0.001045   0.353299  -0.002957
 163  13  -2.721367   8.098716   2.334806  -0.001080   0.353299  -0.003057
 164  13  -1.606046   6.328997   4.063493  -0.001786   0.431809  -0.004137
 165  13  -2.833255   5.413453   3.745466  -0.002449   0.451437  -0.005425
 166  13  -3.793147   5.975573   2.933198  -0.002608   0.451437  -0.005778
 167  13  -3.538731   7.412222   2.416890  -0.001787   0.451437  -0.003957
 168  13  -2.283187   7.714097   3.269905  -0.001714   0.431809  -0.003970
 169  14  -3.212348   6.944322  -3.321660  -0.002676   0.471065  -0.005680
 170  14  -1.999948   5.210006  -3.960784  -0.001632   0.392554  -0.004156
 171  14  -1.213607   6.271655  -4.031927  -0.001242   0.392554  -0.003165
 172  14  -2.178644   7.997737  -2.948902  -0.001363   0.333671  -0.004084
 173  14  -3.825909   7.154268  -2.013026  -0.001011   0.372926  -0.002710
 174  14  -2.391190   6.204783  -3.990954  -0.001941   0.372926  -0.005206
 175  14  -1.889772   7.290782  -3.707568  -0.001695   0.412182  -0.004112
 176  14  -3.045681   7.888828  -2.391855  -0.001367   0.412182  -0.003317
 177  14  -4.034706   6.186516  -2.392380  -0.002236   0.451437  -0.004954
 178  14  -3.345262   5.650356  -3.444083  -0.002521   0.431809  -0.005837
 179  15   2.269669   9.775091  -2.598390   0.000976   0.232280   0.004202
 180  15   5.202082   8.768063   0.046872   0.000765   0.371649   0.002060
 181  15   0.487139   9.018714   2.941284   0.000884   0.325193   0.002717
 182  15   1.379195   9.596985   2.766766   0.000635   0.185824   0.003417
 183  15   0.869203   8.013762   3.527968   0.000708   0.278737   0.002540
 184  15   1.455073   8.386847   3.518533   0.000566   0.185824   0.003047
 185  15   5.266848   8.317305  -0.947737   0.000949   0.371649   0.002554
 186  15   2.545500   9.139247  -3.078572   0.001557   0.371649   0.004190
 187  15   1.209411   7.082907  -3.730404   0.000243   0.185824   0.001306
 188  15   2.814804   9.818135   2.391144   0.001669   0.371649   0.004492
 189  15   3.003811   9.273405   2.830361   0.000953   0.232280   0.004104
 190  15   0.913525   8.177184  -3.496034   0.000562   0.232280   0.002418
 191  15   1.209983   9.229197  -3.037521   0.001352   0.371649   0.003638
 192  15   3.414797   9.831307  -2.029886   0.002219   0.511017   0.004343
 193  15   4.598703   9.456858  -0.944030   0.001071   0.418105   0.002561
 194  15   5.539633   7.687157   0.353460   0.001233   0.371649   0.003317
 195  15   5.554103   6.462540   0.210214   0.001521   0.371649   0.004091
 196  15   3.719664  10.123663   1.159123   0.001139   0.371649   0.003064
 197  15   4.530267   9.670861   0.435767   0.001054   0.464561   0.002269
 198  15   5.057123   8.673769   1.125622   0.000806   0.325193   0.002478
 199  15  -0.000553   9.352333   2.385680   0.000235   0.139368   0.001683
 200  15   1.839807   9.065139   3.204147   0.001541   0.371649   0.004148
 201  15   1.203429   6.991532   3.724521   0.000220   0.185824   0.001184
 202  15   5.565871   7.115985  -0.564686   0.000942   0.278737   0.003381
 203  15   4.304898   9.250351  -1.838970   0.000871   0.278737   0.003124
 204  15   1.628930   8.341078  -3.553687   0.000681   0.232280   0.002932
 205  15   4.180526   9.384878   1.833144   0.001454   0.418105   0.003478
 206  15   0.172884   9.123057  -2.704472   0.000940   0.371649   0.002529
 207  15   3.846307  10.210455  -0.563269   0.000883   0.371649   0.002377
 208  16   4.230109   6.862933  -3.773090  -0.002069   0.392554  -0.005272
 209  16   3.425634   7.949759  -3.737291  -0.001008   0.392554  -0.002569
 210  16   2.487685   6.276534  -4.030890  -0.001142   0.333671  -0.003422
 211  16   5.381407   6.382118  -2.067111  -0.001319   0.392554  -0.003359
 212  16   5.126633   7.630741  -2.426149  -0.000929   0.372926  -0.002490
 213  16   2.945578   7.131995  -4.083471  -0.001184   0.372926  -0.003175
 214  16   3.445737   5.760226  -3.880811  -0.002387   0.451437  -0.005288
 215  16   4.620445   5.753941  -3.222762  -0.002519   0.412182  -0.006110
 216  16   5.035295   6.741069  -3.009569  -0.001475   0.314043  -0.004697
 217  16   4.386329   8.042353  -3.174821  -0.001149   0.392554  -0.002928
[...]
 607  22   1.989813  -7.468341  -1.648989  -0.000058   0.298186  -0.000193
 608  22   1.846855  -6.849312  -2.501915  -0.000375   0.298186  -0.001259
 609   7   0.655385  -6.695011  -1.527146  -0.002694   0.597112  -0.004512
 610  23   1.849155  -6.852120   2.501258  -0.000464   0.301612  -0.001540
 611  23   1.990287  -7.476147   1.635703  -0.000106   0.301612  -0.000352
 612   7   0.657810  -6.697243   1.526113  -0.002775   0.604053  -0.004595
 613   9  -6.288432   0.275070  -0.073058  -0.000446   0.249836  -0.001785
 614   8  -6.186251  -1.188209   0.075972  -0.000492   0.249836  -0.001968
 615   9  -4.735039   4.651017   0.815370  -0.000288   0.079032  -0.003646
 616  10  -4.296907   5.503178   0.902607  -0.000017   0.079032  -0.000216
 617  13  -4.237228   5.573989   1.193915  -0.000214   0.079032  -0.002713
 618   9  -4.733562   4.648645  -0.825464  -0.000368   0.078952  -0.004665
 619  10  -4.295396   5.500564  -0.914802  -0.000048   0.078952  -0.000609
 620  14  -4.235109   5.571104  -1.206042  -0.000211   0.078952  -0.002668
 621  10  -4.484253   5.519104  -0.142621   0.000497   0.532493   0.000934
 622   9  -5.225276   4.311220   0.142262  -0.002422   0.376817  -0.006428
 623  13  -4.368965   5.543612   1.635474  -0.000011   0.268791  -0.000043
 624  13  -4.146489   5.095859   2.376095  -0.000195   0.268791  -0.000726
 625   9  -5.049375   4.040987   1.470505  -0.001437   0.537391  -0.002674
 626  14  -4.144469   5.092812  -2.382969  -0.000165   0.267732  -0.000618
 627  14  -4.366445   5.540378  -1.646584   0.000057   0.267732   0.000214
 628   9  -5.048238   4.038576  -1.476988  -0.001439   0.535267  -0.002688
 629  10   0.038600   6.301602   3.640530  -0.000021   0.028637  -0.000724
 630  13  -0.255836   6.356174   3.690107  -0.000054   0.028637  -0.001894
 631  15   0.452523   6.574889   3.598863   0.000030   0.028637   0.001039
 632  10  -1.511992   8.637199   1.847054  -0.000058   0.028637  -0.002026
 633  13  -1.667805   8.482969   2.056968  -0.000104   0.028637  -0.003647
 634  15  -1.078136   8.880461   1.828442  -0.000017   0.028637  -0.000610
 635  13  -1.001918   5.179035   3.848109  -0.000190   0.071357  -0.002657
 636  13  -0.641270   5.994663   3.846136  -0.000187   0.071357  -0.002627
 637  10  -0.462139   5.427609   3.723556  -0.000460   0.155525  -0.002956
 638  13  -2.205592   8.341852   2.039583  -0.000226   0.072845  -0.003105
 639  13  -3.149430   7.882371   1.528104  -0.000477   0.163489  -0.002920
 640  13  -3.953253   6.744383   1.322796  -0.000468   0.163489  -0.002863
 641  10  -2.421883   8.350264   1.465855  -0.000426   0.158070  -0.002693
 642  10  -3.596421   7.433570   0.935734  -0.000097   0.158070  -0.000616
 643  10  -4.152481   6.271375   0.909361  -0.000022   0.088996  -0.000247
 644  10  -1.508786   8.634764  -1.859130  -0.000042   0.028635  -0.001475
 645  14  -1.664250   8.480257  -2.069100  -0.000072   0.028635  -0.002526
 646  15  -1.074962   8.878050  -1.840084   0.000004   0.028635   0.000133
 647  10   0.044789   6.296997  -3.646828  -0.000030   0.028635  -0.001036
 648  14  -0.249565   6.351489  -3.696977  -0.000076   0.028635  -0.002662
 649  15   0.458641   6.570337  -3.604801   0.000007   0.028635   0.000230
 650  14  -0.634744   5.989710  -3.853207  -0.000184   0.071373  -0.002575
 651  14  -0.995465   5.173906  -3.854719  -0.000199   0.071373  -0.002794
 652  10  -0.455872   5.422737  -3.729569  -0.000439   0.155552  -0.002821
 653  14  -4.116717   6.317487  -1.352619  -0.000135   0.072874  -0.001858
 654  14  -3.623985   7.376525  -1.367515  -0.000472   0.163569  -0.002884
 655  14  -2.576996   8.192791  -1.838897  -0.000650   0.163569  -0.003972
 656  10  -3.962826   6.718601  -0.914913  -0.000182   0.158119  -0.001149
 657  10  -3.059851   7.996942  -1.145340  -0.000294   0.158119  -0.001859
 658  10  -2.020559   8.518552  -1.701767  -0.000138   0.089032  -0.001554
 659  10   0.819819   5.950485  -3.601642  -0.000005   0.024647  -0.000201
 660  15   1.233865   6.223069  -3.645285  -0.000029   0.024647  -0.001157
 661  16   1.531242   6.204097  -3.698284  -0.000064   0.024647  -0.002582
 662  10   0.814671   5.953565   3.596923   0.000002   0.024647   0.000098
 663  15   1.228655   6.226187   3.640925  -0.000021   0.024647  -0.000835
 664  17   1.525954   6.207256   3.694363  -0.000043   0.024647  -0.001744
 665  10  -1.186370   8.953536  -1.609794   0.000001   0.027855   0.000023
 666  15  -0.793492   9.258398  -1.630726  -0.000020   0.027855  -0.000702
 667  18  -0.694121   9.504547  -1.485234  -0.000049   0.027855  -0.001743
 668  10  -1.188621   8.954844   1.599799  -0.000017   0.027855  -0.000594
 669  15  -0.795772   9.259723   1.621034  -0.000030   0.027855  -0.001077
 670  18  -0.696197   9.505753   1.475480  -0.000065   0.027855  -0.002344
 671  15   0.965866   6.403696  -3.674033   0.000075   0.089963   0.000836
 672  10   0.311770   6.098987  -3.674836   0.000067   0.089963   0.000746
 673  15  -0.864680   9.158364  -1.760547   0.000026   0.011088   0.002301
 674  10  -1.462487   8.768903  -1.749077   0.000018   0.011088   0.001659
 675  15  -0.870876   9.165423   1.738327   0.000016   0.010721   0.001479
 676  10  -1.461788   8.765582   1.749420   0.000009   0.010721   0.000871
 677  15   0.900218   6.497768   3.669444   0.000100   0.090260   0.001109
 678  10   0.365928   6.012691   3.668828   0.000076   0.090260   0.000846
 679  16   1.905651   5.723972  -3.693456  -0.000491   0.187237  -0.002624
 680  10   0.797009   5.442885  -3.638394   0.000192   0.263677   0.000727
 681  17   1.825431   5.896116   3.724144  -0.000420   0.186867  -0.002249
 682  10   0.859284   5.293508   3.603997   0.000181   0.263158   0.000687
 683  18  -0.800051   9.755348  -1.076514  -0.000509   0.214848  -0.002369
 684  18  -0.877482   9.796438   0.468748  -0.001994   0.442233  -0.004510
 685  10  -1.671157   9.032843  -0.550398  -0.000169   0.586225  -0.000289
 686  10  -1.602853   8.996708   1.207542   0.000232   0.302688   0.000767
 687  11   6.310032   1.631230   0.832925  -0.000299   0.077830  -0.003845
 688  12   6.825616   0.836279   0.923056  -0.000014   0.077830  -0.000181
 689  19   6.856544   0.748017   1.213988  -0.000206   0.077830  -0.002653
 690  11   6.316757   1.632726  -0.813698  -0.000387   0.078122  -0.004951
 691  12   6.832785   0.837553  -0.899476  -0.000045   0.078122  -0.000581
 692  20   6.864386   0.751170  -1.190919  -0.000203   0.078122  -0.002598
 693  12   6.936256   0.989445  -0.124167   0.000491   0.528411   0.000929
 694  11   6.260587   2.218819   0.157563  -0.002509   0.374259  -0.006703
 695  11   5.344082   4.663592  -0.776385  -0.000343   0.082567  -0.004160
 696  15   5.275359   5.597663  -0.852259   0.000085   0.082567   0.001026
 697  16   5.241990   5.602266  -1.155961  -0.000144   0.082567  -0.001747
 698  11   5.342637   4.663518   0.777526  -0.000443   0.082555  -0.005364
 699  15   5.273857   5.597562   0.853650   0.000030   0.082555   0.000361
 700  17   5.239999   5.602507   1.157289  -0.000151   0.082555  -0.001828
 701  15   5.451119   5.580300   0.125775   0.000888   0.475825   0.001867
 702  11   5.631109   4.207632  -0.134549  -0.002555   0.337245  -0.007576
 703  16   5.309642   5.449841  -1.643648  -0.000075   0.300842  -0.000251
 704  16   4.837407   5.019382  -2.504339  -0.000393   0.300842  -0.001307
 705  11   5.291187   3.904902  -1.528388  -0.002630   0.602475  -0.004365
 706  17   4.836413   5.021481   2.501684  -0.000466   0.299907  -0.001554
 707  17   5.307435   5.450664   1.644045  -0.000102   0.299907  -0.000341
 708  11   5.290592   3.905864   1.527290  -0.002768   0.600580  -0.004610
 709  19   6.888769   0.875877   1.657588  -0.000012   0.270133  -0.000043
 710  19   6.376139   0.904410   2.400997  -0.000202   0.270133  -0.000749
 711  11   5.923619   2.199708   1.490239  -0.001445   0.540114  -0.002676
 712  20   6.379095   0.908540  -2.395134  -0.000182   0.273999  -0.000666
 713  20   6.896509   0.880288  -1.638314   0.000050   0.273999   0.000182
 714  11   5.926953   2.200917  -1.481966  -0.001623   0.547873  -0.002962
 715  12   5.339453  -3.323236   3.645042  -0.000019   0.028674  -0.000661
 716  19   5.533973  -3.095844   3.695817  -0.000053   0.028674  -0.001843
 717  21   5.369245  -3.818492   3.602113   0.000032   0.028674   0.001130
 718  12   8.144047  -3.143674   1.858700  -0.000056   0.028674  -0.001955
 719  19   8.087836  -2.932334   2.069174  -0.000102   0.028674  -0.003566
 720  21   8.137767  -3.641239   1.838746  -0.000015   0.028674  -0.000540
 721  19   8.234620  -2.395689   2.053708  -0.000223   0.072889  -0.003063
 722  19   8.309539  -1.346144   1.545761  -0.000472   0.163613  -0.002882
 723  19   7.725265  -0.079943   1.343646  -0.000461   0.163613  -0.002817
 724  12   8.351408  -2.210308   1.480795  -0.000419   0.158142  -0.002651
 725  12   8.145262  -0.732188   0.955148  -0.000090   0.158142  -0.000568
 726  12   7.415640   0.330645   0.931096  -0.000015   0.089050  -0.000163
 727  19   4.887957  -1.860882   3.855333  -0.000186   0.071358  -0.002610
 728  19   5.413397  -2.581506   3.852928  -0.000185   0.071358  -0.002595
 729  12   4.833224  -2.452246   3.728999  -0.000453   0.155524  -0.002912
 730  12   8.149256  -3.135416  -1.847498  -0.000040   0.028673  -0.001405
 731  20   8.093638  -2.923147  -2.057173  -0.000071   0.028673  -0.002468
 732  21   8.142924  -3.633066  -1.829780   0.000007   0.028673   0.000228
 733  12   5.349808  -3.306990  -3.642489  -0.000028   0.028673  -0.000983
 734  20   5.544459  -3.079381  -3.691693  -0.000075   0.028673  -0.002604
 735  21   5.379481  -3.802433  -3.601685   0.000008   0.028673   0.000294
 736  20   5.424355  -2.564398  -3.846846  -0.000182   0.071340  -0.002546
 737  20   4.898983  -1.843943  -3.847569  -0.000196   0.071340  -0.002753
 738  12   4.843878  -2.435788  -3.724027  -0.000432   0.155491  -0.002781
 739  20   7.448014   0.278275  -1.335112  -0.000128   0.072782  -0.001765
 740  20   8.117079  -0.677580  -1.351319  -0.000463   0.163322  -0.002833
 741  20   8.300552  -1.990073  -1.824872  -0.000642   0.163322  -0.003933
 742  12   7.717027  -0.056595  -0.897851  -0.000170   0.157958  -0.001074
 743  12   8.371163  -1.476280  -1.130373  -0.000285   0.157958  -0.001804
 744  12   8.304098  -2.634624  -1.688867  -0.000134   0.088920  -0.001504
 745  12   4.657925  -3.805284  -3.599329  -0.000004   0.024655  -0.000149
 746  21   4.686939  -4.300295  -3.644251  -0.000027   0.024655  -0.001103
 747  22   4.521855  -4.548239  -3.698002  -0.000062   0.024655  -0.002516
 748  12   4.653914  -3.820966   3.598339   0.000004   0.024645   0.000177
 749  21   4.682877  -4.316167   3.641144  -0.000022   0.024645  -0.000893
 750  23   4.517801  -4.564384   3.693642  -0.000041   0.024645  -0.001666
 751  12   8.264190  -3.574998  -1.597504   0.000003   0.027768   0.000119
 752  21   8.331861  -4.067863  -1.619600  -0.000017   0.027768  -0.000620
 753  24   8.494673  -4.278032  -1.474884  -0.000046   0.027768  -0.001672
 754  12   8.262456  -3.581955   1.601460  -0.000015   0.027768  -0.000525
 755  21   8.330104  -4.074912   1.621485  -0.000028   0.027768  -0.001000
 756  24   8.493073  -4.284449   1.476033  -0.000062   0.027768  -0.002248
 757  21   4.979049  -4.158341  -3.672388   0.000079   0.090705   0.000867
 758  12   5.043118  -3.439117  -3.671276   0.000071   0.090705   0.000778
 759  21   8.280778  -3.955566  -1.750014   0.000027   0.011427   0.002364
 760  12   8.242629  -3.242774  -1.736391   0.000020   0.011427   0.001716
 761  21   8.284154  -3.962831   1.742472   0.000018   0.012486   0.001464
 762  12   8.232396  -3.250894   1.757200   0.000011   0.012486   0.000856
 763  21   5.079843  -4.167745   3.671045   0.000095   0.089651   0.001063
 764  12   4.927756  -3.462065   3.671920   0.000080   0.089651   0.000897
 765  22   3.925338  -4.632635  -3.696074  -0.000476   0.184888  -0.002576
 766  12   4.234893  -3.531668  -3.637502   0.000201   0.260371   0.000771
 767  23   4.100158  -4.668351   3.722941  -0.000401   0.186039  -0.002153
 768  12   4.062693  -3.529610   3.606003   0.000196   0.261989   0.000749
 769  24   8.763364  -4.313737  -1.067237  -0.000496   0.214239  -0.002314
 770  24   8.835253  -4.271586   0.473146  -0.001951   0.440842  -0.004426
 771  12   8.572674  -3.198616  -0.540344  -0.000133   0.584676  -0.000227
 772  12   8.505486  -3.243868   1.211636   0.000247   0.301820   0.000818
 773  15  -0.699782   8.902482   2.273361   0.000355   0.309879   0.001147
 774  15   0.150063   7.694318   3.304256   0.000068   0.599295   0.000114
 775  13  -1.294169   7.918818   2.911614  -0.002288   0.453681  -0.005042
 776  13  -0.569740   6.748665   3.696890  -0.000551   0.219932  -0.002503
 777  15   0.463736   7.154574  -3.618703   0.000444   0.309862   0.001433
 778  15  -0.364651   8.473080  -2.713400   0.000010   0.599264   0.000017
 779  14  -0.836664   7.234081  -3.443036  -0.002190   0.453654  -0.004827
 780  14  -1.587841   8.285397  -2.526038  -0.000626   0.219920  -0.002848
 781  16   1.880062   6.567893  -3.857269  -0.000133   0.066351  -0.002002
 782  16   2.269075   7.565572  -3.800184  -0.000335   0.146132  -0.002289
 783  16   3.156969   8.407225  -3.364082  -0.000262   0.146132  -0.001794
 784  16   4.231554   8.520562  -2.643427  -0.000282   0.146132  -0.001931
 785  16   5.081148   7.862163  -1.914304  -0.000350   0.146132  -0.002395
 786  16   5.380269   6.684263  -1.456046  -0.000298   0.146132  -0.002039
 787  15   1.617998   7.078716  -3.734178  -0.000235   0.146582  -0.001601
 788  15   2.355941   8.313120  -3.485678  -0.000063   0.146582  -0.000429
 789  15   3.515482   8.877381  -2.802202   0.000033   0.146582   0.000227
 790  15   4.652394   8.555328  -1.945593  -0.000127   0.146582  -0.000868
 791  15   5.331118   7.470340  -1.244022  -0.000155   0.146582  -0.001058
 792  15   5.419583   6.329865  -0.939743   0.000066   0.081062   0.000809
 793  17   5.380088   6.277424   1.369422  -0.000148   0.066358  -0.002233
 794  17   5.310406   7.313585   1.637172  -0.000295   0.146149  -0.002021
 795  17   4.705700   8.279990   2.259766  -0.000359   0.146149  -0.002458
 796  17   3.692835   8.567531   3.020461  -0.000223   0.146149  -0.001525
 797  17   2.659926   8.066029   3.627771  -0.000271   0.146149  -0.001857
 798  17   2.002766   6.967649   3.848983  -0.000414   0.146149  -0.002835
 799  15   5.405611   6.764104   1.041871  -0.000087   0.146594  -0.000595
 800  15   5.069091   8.088438   1.555046  -0.000119   0.146594  -0.000811
 801  15   4.113331   8.829347   2.372378  -0.000040   0.146594  -0.000276
 802  15   2.904562   8.702926   3.180679   0.000022   0.146594   0.000147
 803  15   1.905966   7.757617   3.670221  -0.000129   0.146594  -0.000878
 804  15   1.465890   6.661000   3.741832  -0.000071   0.081070  -0.000879
 805  18  -0.322728   9.858422   1.631695  -0.000147   0.067471  -0.002179
 806  18   0.651253  10.104826   2.053501  -0.000330   0.149106  -0.002212
 807  18   1.919080  10.425149   1.882990  -0.000288   0.149106  -0.001935
 808  18   2.837163  10.656643   0.965058  -0.000312   0.149106  -0.002092
 809  18   3.041848  10.707612  -0.336699  -0.000376   0.149106  -0.002524
 810  18   2.452057  10.557868  -1.506652  -0.000257   0.149106  -0.001721
 811  18   1.301410  10.266725  -2.081379  -0.000325   0.149106  -0.002180
 812  18   0.045680   9.949505  -1.833229  -0.000433   0.149106  -0.002904
 813  15   0.002423   9.595637   2.050225  -0.000242   0.148565  -0.001631
 814  15   1.412923   9.952281   2.330725   0.000010   0.148565   0.000065
 815  15   2.706653  10.278873   1.686530   0.000039   0.148565   0.000263
 816  15   3.371163  10.446049   0.372809  -0.000159   0.148565  -0.001071
 817  15   3.143238  10.387590  -1.090072  -0.000128   0.148565  -0.000862
 818  15   2.113161  10.126651  -2.122659   0.000024   0.148565   0.000162
 819  15   0.688947   9.766592  -2.315944  -0.000106   0.148565  -0.000710
 820  15  -0.392135   9.493629  -1.865165  -0.000058   0.082431  -0.000698
 821  21   7.966392  -3.981325   2.282618   0.000370   0.310149   0.001192
 822  21   6.491450  -4.115889   3.309770   0.000093   0.599806   0.000155
 823  19   7.409795  -2.976291   2.922489  -0.002273   0.454102  -0.005006
 824  19   6.031161  -3.020493   3.704283  -0.000544   0.220126  -0.002470
 825  21   5.883220  -4.099228  -3.615463   0.000457   0.310135   0.001473
 826  21   7.438449  -4.043662  -2.706300   0.000037   0.599778   0.000061
 827  20   6.602608  -3.013262  -3.435395  -0.002177   0.454079  -0.004795
 828  20   7.887585  -2.890860  -2.514805  -0.000618   0.220116  -0.002809
 829  22   4.680034  -5.050519  -3.858358  -0.000142   0.072727  -0.001949
 830  22   5.377499  -5.983681  -3.770158  -0.000394   0.163328  -0.002410
 831  22   5.572213  -7.274586  -3.240292  -0.000311   0.163328  -0.001903
 832  22   4.921582  -8.225535  -2.429438  -0.000404   0.163328  -0.002476
 833  22   3.723579  -8.401015  -1.708949  -0.000451   0.163328  -0.002762
 834  22   2.695007  -7.951794  -1.384503  -0.000075   0.072727  -0.001033
 835  21   5.273113  -5.124181  -3.723379  -0.000276   0.157701  -0.001747
 836  21   5.956639  -6.514721  -3.403527  -0.000101   0.157701  -0.000643
 837  21   5.684614  -7.852332  -2.603581  -0.000006   0.157701  -0.000037
 838  21   4.581620  -8.524420  -1.689899  -0.000205   0.157701  -0.001298
 839  21   3.152801  -8.223184  -1.080925  -0.000091   0.157701  -0.000578
 840  23   2.695902  -7.959764   1.363680  -0.000159   0.072704  -0.002185
 841  23   3.724170  -8.409110   1.687738  -0.000372   0.163267  -0.002275
 842  23   4.920723  -8.235545   2.410364  -0.000429   0.163267  -0.002626
 843  23   5.569494  -7.287738   3.225724  -0.000288   0.163267  -0.001765
 844  23   5.373535  -5.999507   3.760621  -0.000425   0.163267  -0.002602
 845  23   4.675818  -5.067251   3.851992  -0.000158   0.072704  -0.002168
 846  21   3.154292  -8.229448   1.059663  -0.000119   0.157664  -0.000752
 847  21   4.582164  -8.531677   1.669284  -0.000197   0.157664  -0.001249
 848  21   5.683145  -7.862630   2.586897  -0.000002   0.157664  -0.000013
 849  21   5.953307  -6.528536   3.392504  -0.000021   0.157664  -0.000130
 850  21   5.268995  -5.140020   3.717373  -0.000271   0.157664  -0.001717
 851  24   8.611324  -4.784690   1.631985  -0.000143   0.067549  -0.002120
 852  24   8.335760  -5.752176   2.053871  -0.000326   0.149315  -0.002182
 853  24   7.977165  -7.010986   1.881808  -0.000287   0.149315  -0.001921
 854  24   7.717892  -7.920917   0.961154  -0.000312   0.149315  -0.002091
 855  24   7.660886  -8.120684  -0.342549  -0.000377   0.149315  -0.002527
 856  24   7.828780  -7.530971  -1.511672  -0.000256   0.149315  -0.001717
 857  24   8.154913  -6.385921  -2.082020  -0.000321   0.149315  -0.002152
 858  24   8.509795  -5.140170  -1.827139  -0.000428   0.149315  -0.002868
 859  21   8.220612  -4.934828   2.050449  -0.000236   0.148700  -0.001589
 860  21   7.821577  -6.335726   2.330300   0.000013   0.148700   0.000086
 861  21   7.455848  -7.619451   1.683497   0.000039   0.148700   0.000262
 862  21   7.268635  -8.276305   0.366852  -0.000161   0.148700  -0.001083
 863  21   7.334272  -8.045488  -1.096868  -0.000129   0.148700  -0.000869
 864  21   7.626697  -7.018644  -2.126499   0.000027   0.148700   0.000180
 865  21   8.029805  -5.603477  -2.313230  -0.000100   0.148700  -0.000672
 866  21   8.334998  -4.532214  -1.856112  -0.000052   0.082526  -0.000632
 =====================================================

              6539235  WORDS OF DYNAMIC MEMORY USED
 EXECUTION OF GAMESS TERMINATED NORMALLY Thu Nov 24 16:34:38 2016
 DDI: 263640 bytes (0.3 MB / 0 MWords) used by master data server.

 ----------------------------------------
 CPU timing information for all processes
 ========================================
 0: 1637.672 + 0.948 = 1638.620
 ----------------------------------------
 ddikick.x: exited gracefully.
