----- GAMESS execution script -----

          ******************************************************
          *         GAMESS VERSION =  5 DEC 2014 (R1)          *
          *             FROM IOWA STATE UNIVERSITY             *
          * M.W.SCHMIDT, K.K.BALDRIDGE, J.A.BOATZ, S.T.ELBERT, *
          *   M.S.GORDON, J.H.JENSEN, S.KOSEKI, N.MATSUNAGA,   *
          *          K.A.NGUYEN, S.J.SU, T.L.WINDUS,           *
          *       TOGETHER WITH M.DUPUIS, J.A.MONTGOMERY       *
          *         J.COMPUT.CHEM.  14, 1347-1363(1993)        *
          **************** 64 BIT LINUX VERSION ****************

 EXECUTION OF GAMESS BEGUN Thu Nov 24 16:21:23 2016

            ECHO OF THE FIRST FEW INPUT CARDS -
 INPUT CARD>! SELECT RESTRICTED HARTREE-FOCK AS DEFAULT                                     
 INPUT CARD>$contrl scftyp=rhf $end                                                         
 INPUT CARD>                                                                                
 INPUT CARD>! THEORY: HF OR DFT                                                             
 INPUT CARD> $contrl mplevl=0 $end                                                          
 INPUT CARD>                                                                                
 INPUT CARD> $system timlim=10000 mwords=20 $end                                            
 INPUT CARD> $SCF DIRSCF=.TRUE. $end                                                        
 INPUT CARD>                                                                                
 INPUT CARD>                                                                                
 INPUT CARD>! BASIS SETS                                                                    
 INPUT CARD>! 6-311G(d,p)                                                                   
 INPUT CARD> $BASIS GBASIS=N311 NGAUSS=6 NDFUNC=1 NPFUNC=1 $END                             
 INPUT CARD>                                                                                
 INPUT CARD>! One of the following                                                          
 INPUT CARD> $guess guess=HUCKEL $end                                                       
 INPUT CARD>                                                                                
 INPUT CARD> $statpt projct=.FALSE. $end                                                    
 INPUT CARD> $STATPT IFREEZ(1)=1,2,3 $END                                                   
 INPUT CARD>                                                                                
 INPUT CARD>! Optimize the geometry with COSMO effects                                      
 INPUT CARD> $statpt opttol=0.0005 nstep=50 $end                                            
 INPUT CARD> $contrl nzvar=1 $end                                                           
 INPUT CARD> $zmat dlc=.t. auto=.t. $end                                                    
 INPUT CARD> $contrl runtyp=OPTIMIZE maxit=200 $end                                         
 INPUT CARD>                                                                                
 INPUT CARD>! Run COSMO on perfect conductor                                                
 INPUT CARD> $COSGMS PRFCND=.TRUE. $end                                                     
 INPUT CARD>                                                                                
 INPUT CARD>! Specifying RSOLV                                                              
 INPUT CARD> $COSGMS COSRAD = 1.4 $end                                                      
 INPUT CARD>                                                                                
 INPUT CARD>! available memory                                                              
 INPUT CARD> $SYSTEM MWORDS=40 $END                                                         
 INPUT CARD>                                                                                
 INPUT CARD> $DATA                                                                          
 INPUT CARD>Benzene, 1-ethenyl-3-methyl-, ID: C100801                                       
 INPUT CARD>C1                                                                              
 INPUT CARD>C      6.0      5.7001000000    4.3450000000    0.3935000000                    
 INPUT CARD>C      6.0      4.9813000000    3.2455000000    0.6113000000                    
 INPUT CARD>C      6.0      3.6197000000    3.2796000000    1.1421000000                    
 INPUT CARD>C      6.0      2.9258000000    2.0842000000    1.3467000000                    
 INPUT CARD>C      6.0      3.0009000000    4.4951000000    1.4493000000                    
 INPUT CARD>C      6.0      1.6261000000    2.1028000000    1.8521000000                    
 INPUT CARD>C      6.0      1.7078000000    4.5137000000    1.9547000000                    
 INPUT CARD>C      6.0      0.8862000000    0.8298000000    2.0526000000                    
 INPUT CARD>C      6.0      1.0198000000    3.3229000000    2.1571000000                    
 INPUT CARD>H      1.0      5.3041000000    5.3402000000    0.6029000000                    
 INPUT CARD>H      1.0      6.7106000000    4.3250000000    0.0000000000                    
 INPUT CARD>H      1.0      5.3918000000    2.2508000000    0.3965000000                    
   40000000 WORDS OF MEMORY AVAILABLE

     BASIS OPTIONS
     -------------
     GBASIS=N311         IGAUSS=       6      POLAR=POPN311 
     NDFUNC=       1     NFFUNC=       0     DIFFSP=       F
     NPFUNC=       1      DIFFS=       F     BASNAM=        


     RUN TITLE
     ---------
 Benzene, 1-ethenyl-3-methyl-, ID: C100801                                       

 THE POINT GROUP OF THE MOLECULE IS C1      
 THE ORDER OF THE PRINCIPAL AXIS IS     0

 ATOM      ATOMIC                      COORDINATES (BOHR)
           CHARGE         X                   Y                   Z
 C           6.0    10.7716271026        8.2108594167        0.7436071762
 C           6.0     9.4132920626        6.1331056932        1.1551894963
 C           6.0     6.8402411578        6.1975453493        2.1582560506
 C           6.0     5.5289602949        3.9385669036        2.5448939877
 C           6.0     5.6708787166        8.4945072874        2.7387798740
 C           6.0     3.0728834286        3.9737158070        3.4999615019
 C           6.0     3.2272740418        8.5296561908        3.6938473882
 C           6.0     1.6746751703        1.5680946246        3.8788515624
 C           6.0     1.9271425623        6.2793704846        4.0763279281
 H           1.0    10.0232956115       10.0915147196        1.1393157980
 H           1.0    12.6811952132        8.1730648969        0.0000000000
 H           1.0    10.1890245806        4.2533952532        0.7492763541
 H           1.0     6.4330052074        2.1278314622        2.0974068738
 H           1.0     6.7285583519       10.2579995792        2.4247074148
 H           1.0     2.3234181019       10.3343445091        4.1475705979
 H           1.0     0.2806243092        1.7175719502        5.4085847495
 H           1.0     0.6510106028        1.0467192246        2.1493743384
 H           1.0     2.9511850750        0.0000000000        4.3454249088
 H           1.0     0.0000000000        6.3118737716        4.8325962684

          INTERNUCLEAR DISTANCES (ANGS.)




     $CONTRL OPTIONS
     ---------------
 SCFTYP=RHF          RUNTYP=OPTIMIZE     EXETYP=RUN     
 MPLEVL=       0     CITYP =NONE         CCTYP =NONE         VBTYP =NONE    
 DFTTYP=NONE         TDDFT =NONE    
 MULT  =       1     ICHARG=       0     NZVAR =       1     COORD =UNIQUE  
 PP    =NONE         RELWFN=NONE         LOCAL =NONE         NUMGRD=       F
 ISPHER=      -1     NOSYM =       0     MAXIT =     200     UNITS =ANGS    
 PLTORB=       F     MOLPLT=       F     AIMPAC=       F     FRIEND=        
 NPRINT=       7     IREST =       0     GEOM  =INPUT   
 NORMF =       0     NORMP =       0     ITOL  =      20     ICUT  =       9
 INTTYP=BEST         GRDTYP=BEST         QMTTOL= 1.0E-06

     $SYSTEM OPTIONS
     ---------------
  REPLICATED MEMORY=    40000000 WORDS (ON EVERY NODE).
 DISTRIBUTED MEMDDI=           0 MILLION WORDS IN AGGREGATE,
 MEMDDI DISTRIBUTED OVER   1 PROCESSORS IS           0 WORDS/PROCESSOR.
 TOTAL MEMORY REQUESTED ON EACH PROCESSOR=    40000000 WORDS.
 TIMLIM=       10000.00 MINUTES, OR       6.9 DAYS.
 PARALL= F  BALTYP=  DLB     KDIAG=    0  COREFL= F
 MXSEQ2=     300 MXSEQ3=     150  mem10=         0

     $COSGMS OPTIONS
     ---------------
     EPSI  =   INFTY     NSPA  =      92     COSRAD=    1.40
     DISEX =   10.00     OUTCHG=DBLCAV       COSBUG=       F
     COSWRT=       F     DCOSMO=       F

     SYMMETRY COORDINATES WILL NOT BE USED FOR 
     THE COSMO CALCULATION, EVEN IF SPECIFIED:
         -- SWITCHING TO C1 POINT GROUP --


     DEFINITION OF CAVITY
     ---------------------------
     ATOM         COORDINATES           RADIUS 
     1   10.7716    8.2109    0.7436    2.0000
     2    9.4133    6.1331    1.1552    2.0000
     3    6.8402    6.1975    2.1583    2.0000
     4    5.5290    3.9386    2.5449    2.0000
     5    5.6709    8.4945    2.7388    2.0000
     6    3.0729    3.9737    3.5000    2.0000
     7    3.2273    8.5297    3.6938    2.0000
     8    1.6747    1.5681    3.8789    2.0000
     9    1.9271    6.2794    4.0763    2.0000
    10   10.0233   10.0915    1.1393    1.3000
    11   12.6812    8.1731    0.0000    1.3000
    12   10.1890    4.2534    0.7493    1.3000
    13    6.4330    2.1278    2.0974    1.3000
    14    6.7286   10.2580    2.4247    1.3000
    15    2.3234   10.3343    4.1476    1.3000
    16    0.2806    1.7176    5.4086    1.3000
    17    0.6510    1.0467    2.1494    1.3000
    18    2.9512    0.0000    4.3454    1.3000
    19    0.0000    6.3119    4.8326    1.3000

          ----------------
          PROPERTIES INPUT
          ----------------

     MOMENTS            FIELD           POTENTIAL          DENSITY
 IEMOM =       1   IEFLD =       0   IEPOT =       0   IEDEN =       0
 WHERE =COMASS     WHERE =NUCLEI     WHERE =NUCLEI     WHERE =NUCLEI  
 OUTPUT=BOTH       OUTPUT=BOTH       OUTPUT=BOTH       OUTPUT=BOTH    
 IEMINT=       0   IEFINT=       0                     IEDINT=       0
                                                       MORB  =       0
          EXTRAPOLATION IN EFFECT
          SOSCF IN EFFECT
 ORBITAL PRINTING OPTION: NPREO=     1   231     2     1

     -------------------------------
     INTEGRAL TRANSFORMATION OPTIONS
     -------------------------------
     NWORD  =            0
     CUTOFF = 1.0E-09     MPTRAN =       0
     DIRTRF =       T     AOINTS =DUP     

          ----------------------
          INTEGRAL INPUT OPTIONS
          ----------------------
 NOPK  =       1 NORDER=       0 SCHWRZ=       T


 -----------------------------------------------
  STATISTICS ON AUTOMATIC COORDINATE GENERATION 
 -----------------------------------------------
  NUMBER OF USER SPECIFIED BONDS                             0
  NUMBER OF BONDS                                           19
  NUMBER OF ANGLES                                          30
  NUMBER OF TORSIONS                                        38
  NUMBER OF EXTRA COORD.                                     0
  NUMBER OF EXTRA COORD. FOR CONSTRAINTS                     0
  NUMBER OF CONSTRAINED COORD.                               0

  TOTAL NUMBER OF PRIMITIVES                                87
 -----------------------------------------------

   --- ENCODED Z MATRIX ---
 COORD  TYPE   I   J   K   L   M   N
    1      1    1  11
    2      1    1  10
    3      1    1   2
    4      1    2  12
    5      1    2   3
    6      1    3   4
    7      1    3   5
    8      1    4  13
    9      1    4   6
   10      1    5  14
   11      1    5   7
   12      1    6   8
   13      1    6   9
   14      1    7  15
   15      1    7   9
   16      1    8  18
   17      1    8  17
   18      1    8  16
   19      1    9  19
   20      2    1   2  12
   21      2    1   2   3
   22      2    2   3   4
   23      2    2   1  11
   24      2    2   3   5
   25      2    2   1  10
   26      2    3   5  14
   27      2    3   5   7
   28      2    3   2  12
   29      2    3   4  13
   30      2    3   4   6
   31      2    4   6   8
   32      2    4   3   5
   33      2    4   6   9
   34      2    5   7   9
   35      2    5   7  15
   36      2    6   4  13
   37      2    6   9  19
   38      2    6   9   7
   39      2    6   8  16
   40      2    6   8  17
   41      2    6   8  18
   42      2    7   9  19
   43      2    7   5  14
   44      2    8   6   9
   45      2    9   7  15
   46      2   10   1  11
   47      2   16   8  17
   48      2   16   8  18
   49      2   17   8  18
   50      3    1   2   3   5
   51      3    1   2   3   4
   52      3    2   3   5  14
   53      3    2   3   4   6
   54      3    2   3   4  13
   55      3    2   3   5   7
   56      3    3   4   6   8
   57      3    3   2   1  11
   58      3    3   5   7   9
   59      3    3   5   7  15
   60      3    3   4   6   9
   61      3    3   2   1  10
   62      3    4   6   9  19
   63      3    4   6   9   7
   64      3    4   3   5   7
   65      3    4   3   5  14
   66      3    4   6   8  16
   67      3    4   6   8  17
   68      3    4   6   8  18
   69      3    4   3   2  12
   70      3    5   3   4   6
   71      3    5   3   2  12
   72      3    5   3   4  13
   73      3    5   7   9  19
   74      3    5   7   9   6
   75      3    6   9   7  15
   76      3    7   9   6   8
   77      3    8   6   9  19
   78      3    8   6   4  13
   79      3    9   6   8  17
   80      3    9   6   8  16
   81      3    9   7   5  14
   82      3    9   6   4  13
   83      3    9   6   8  18
   84      3   10   1   2  12
   85      3   11   1   2  12
   86      3   14   5   7  15
   87      3   15   7   9  19

          INDEP./SYM. INTERNAL COORDINATES
          --------------------------------
 CRD  1=   0.1213 (  6) -0.1124 (  7)  0.1435 (  9) -0.1336 ( 11)  0.1748 ( 20)
          -0.4297 ( 21)  0.4712 ( 22)  0.1246 ( 23) -0.5045 ( 24) -0.1168 ( 25)
           0.2549 ( 28) -0.1285 ( 30)  0.2074 ( 31) -0.2043 ( 44)
 CRD  2=   0.1698 (  3)  0.2629 (  5)  0.2505 (  6)  0.2386 (  9) -0.1584 ( 13)
          -0.2077 ( 20)  0.3234 ( 21)  0.1348 ( 25) -0.1158 ( 28)  0.4793 ( 31)
          -0.1121 ( 32) -0.1165 ( 39)  0.1541 ( 41) -0.4531 ( 44)
 CRD  3=   0.2057 ( 40) -0.1044 ( 41)  0.2981 ( 50)  0.4350 ( 51)  0.1655 ( 52)
          -0.3178 ( 53) -0.1056 ( 54)  0.1667 ( 55)  0.3097 ( 56) -0.1925 ( 57)
           0.1027 ( 58)  0.2021 ( 60) -0.1489 ( 66)  0.2580 ( 69) -0.1827 ( 70)
           0.1210 ( 71) -0.1358 ( 73) -0.1761 ( 76) -0.1238 ( 77)  0.1039 ( 81)
           0.2194 ( 84)
 CRD  4=   0.2179 (  3)  0.2481 (  5)  0.2596 (  6)  0.1667 (  9)  0.3760 ( 12)
           0.2360 ( 13)  0.1690 ( 15) -0.1455 ( 20)  0.1660 ( 21)  0.2600 ( 22)
          -0.1741 ( 24)  0.1108 ( 25)  0.1455 ( 30) -0.1834 ( 31) -0.1662 ( 33)
          -0.1212 ( 35) -0.1509 ( 36)  0.1138 ( 37)  0.2246 ( 39)  0.3496 ( 44)
          -0.1133 ( 47)
 CRD  5=  -0.1428 (  3) -0.3391 (  5) -0.1474 ( 11)  0.4083 ( 12)  0.1476 ( 13)
           0.1650 ( 15)  0.1309 ( 20) -0.2571 ( 22) -0.1760 ( 27) -0.1097 ( 28)
          -0.1820 ( 29)  0.2664 ( 31)  0.2655 ( 32) -0.2870 ( 33)  0.1692 ( 36)
           0.1821 ( 38)  0.1077 ( 40)  0.2017 ( 41) -0.1096 ( 42) -0.1095 ( 48)
          -0.1324 ( 49)
 CRD  6=   0.1143 (  2)  0.1359 (  3) -0.1728 (  4) -0.3000 (  5) -0.3782 (  7)
          -0.1637 (  9) -0.1851 ( 11) -0.2016 ( 12)  0.3286 ( 21)  0.1190 ( 22)
          -0.2632 ( 23) -0.2509 ( 24)  0.3246 ( 25) -0.1502 ( 26) -0.2802 ( 28)
           0.1388 ( 29) -0.1304 ( 30)  0.1319 ( 32)  0.1352 ( 43)
 CRD  7=  -0.1390 ( 39)  0.2826 ( 40) -0.1461 ( 41) -0.2306 ( 52)  0.2572 ( 53)
           0.2129 ( 54) -0.3382 ( 55)  0.1062 ( 56)  0.2339 ( 57)  0.1164 ( 59)
           0.1915 ( 61) -0.1236 ( 62) -0.2142 ( 63) -0.2355 ( 64) -0.1280 ( 65)
           0.1317 ( 68)  0.1199 ( 69)  0.1557 ( 70)  0.2228 ( 71)  0.1114 ( 72)
           0.1354 ( 74)  0.1098 ( 75) -0.2526 ( 76) -0.1619 ( 77)  0.1504 ( 78)
           0.1106 ( 79)  0.1121 ( 82)  0.1702 ( 83)
 CRD  8=   0.2103 ( 39) -0.4368 ( 40)  0.2279 ( 41) -0.1237 ( 48)  0.3373 ( 50)
           0.2539 ( 51)  0.1268 ( 53) -0.1203 ( 55) -0.1533 ( 56)  0.2307 ( 61)
           0.1704 ( 66)  0.2788 ( 69)  0.3622 ( 71)  0.1398 ( 76) -0.1136 ( 78)
           0.2046 ( 84)
 CRD  9=   0.3207 (  6)  0.3088 (  7)  0.1044 (  8) -0.2599 (  9) -0.2621 ( 11)
          -0.1841 ( 15) -0.1974 ( 19)  0.3560 ( 26) -0.1036 ( 27)  0.3745 ( 29)
          -0.1161 ( 30) -0.2585 ( 36)  0.2099 ( 38)  0.1041 ( 41) -0.2296 ( 42)
          -0.2523 ( 43)  0.1089 ( 44)
 CRD 10=  -0.1211 (  3) -0.1603 (  6)  0.1244 (  8)  0.2690 (  9) -0.2153 ( 10)
          -0.2682 ( 11)  0.3125 ( 13) -0.3027 ( 15) -0.1316 ( 20) -0.1205 ( 23)
           0.2138 ( 27) -0.1561 ( 29) -0.1387 ( 30)  0.2948 ( 36)  0.3802 ( 37)
          -0.2894 ( 42) -0.2705 ( 43)
 CRD 11=  -0.2415 (  3)  0.1801 (  7)  0.1056 (  8)  0.2012 ( 11)  0.2803 ( 13)
           0.2855 ( 14)  0.2696 ( 15)  0.1007 ( 19) -0.2665 ( 20) -0.2308 ( 23)
           0.1144 ( 25) -0.1634 ( 26)  0.1163 ( 27)  0.2270 ( 28)  0.1070 ( 29)
          -0.1018 ( 30)  0.1222 ( 33) -0.2368 ( 34) -0.1141 ( 37) -0.2635 ( 39)
           0.2655 ( 41)  0.1820 ( 45)  0.1163 ( 46) -0.1099 ( 49)
 CRD 12=  -0.1544 (  1) -0.4530 (  3) -0.2510 ( 13) -0.1218 ( 14) -0.3282 ( 20)
          -0.3434 ( 23)  0.1233 ( 25) -0.1142 ( 27)  0.3284 ( 28)  0.1091 ( 34)
           0.2776 ( 39) -0.2524 ( 41) -0.1196 ( 45)  0.2201 ( 46) -0.1130 ( 47)
 CRD 13=  -0.3218 ( 11)  0.2858 ( 15)  0.2330 ( 26) -0.4920 ( 35) -0.1999 ( 37)
          -0.1244 ( 38)  0.3242 ( 42) -0.3165 ( 43)  0.4456 ( 45)
 CRD 14=   0.1054 (  3)  0.1058 (  6)  0.2276 (  7)  0.3305 (  8)  0.1876 (  9)
           0.2209 ( 14) -0.1227 ( 16)  0.1243 ( 18) -0.1120 ( 28) -0.2630 ( 30)
           0.1448 ( 32) -0.2020 ( 34)  0.1948 ( 36) -0.1744 ( 37)  0.1573 ( 38)
           0.3963 ( 39) -0.3955 ( 41)  0.1085 ( 45) -0.1545 ( 47)  0.1651 ( 49)
 CRD 15=   0.1153 ( 16) -0.2224 ( 17)  0.1070 ( 18)  0.2047 ( 39) -0.4403 ( 40)
           0.2199 ( 41)  0.1294 ( 47) -0.2346 ( 48)  0.1218 ( 49) -0.1374 ( 50)
          -0.1062 ( 53)  0.2208 ( 56)  0.1536 ( 58)  0.2235 ( 60) -0.1260 ( 61)
          -0.1711 ( 62) -0.2109 ( 63) -0.1403 ( 64) -0.1476 ( 65) -0.1453 ( 71)
          -0.2082 ( 76) -0.1684 ( 77)  0.1705 ( 78)  0.1610 ( 81)  0.1732 ( 82)
          -0.1177 ( 84)
 CRD 16=  -0.1570 (  5)  0.2329 (  6)  0.1042 (  7)  0.2452 (  8)  0.2174 (  9)
           0.3723 ( 10)  0.1659 ( 11) -0.1578 ( 12)  0.1339 ( 13) -0.2139 ( 14)
           0.1622 ( 15)  0.3866 ( 19)  0.1603 ( 26) -0.2149 ( 27)  0.3028 ( 34)
          -0.1504 ( 35)  0.1787 ( 37) -0.2236 ( 38) -0.1524 ( 45)
 CRD 17=  -0.1349 ( 51) -0.1091 ( 55)  0.2584 ( 57)  0.1167 ( 58)  0.1567 ( 59)
           0.1632 ( 61) -0.1092 ( 62) -0.3172 ( 66) -0.3208 ( 67) -0.3154 ( 68)
          -0.1468 ( 74) -0.1868 ( 75) -0.3534 ( 79) -0.3498 ( 80) -0.3480 ( 83)
           0.1349 ( 85)
 CRD 18=  -0.2706 (  1)  0.3273 (  2)  0.2762 (  3)  0.4924 (  4) -0.1180 (  6)
           0.1114 (  7)  0.1260 ( 20) -0.2503 ( 21) -0.2824 ( 23)  0.4707 ( 25)
           0.1243 ( 28) -0.1883 ( 46)
 CRD 19=  -0.1932 ( 51) -0.1118 ( 53) -0.1893 ( 54)  0.1122 ( 56)  0.3477 ( 57)
           0.1261 ( 58)  0.1279 ( 60)  0.1993 ( 61)  0.1184 ( 65)  0.1618 ( 66)
           0.1694 ( 67)  0.1674 ( 68) -0.1056 ( 69) -0.2196 ( 70) -0.2971 ( 72)
          -0.2141 ( 73) -0.2191 ( 74) -0.1865 ( 75)  0.1077 ( 76)  0.1027 ( 77)
           0.1896 ( 78)  0.1536 ( 79)  0.1460 ( 80)  0.2053 ( 82)  0.1516 ( 83)
           0.1076 ( 84)  0.2559 ( 85) -0.1815 ( 87)
 CRD 20=   0.1318 (  5)  0.3866 ( 16)  0.3787 ( 17)  0.3775 ( 18) -0.1233 ( 19)
          -0.1080 ( 20) -0.1464 ( 29) -0.1411 ( 33)  0.1052 ( 36)  0.1117 ( 38)
          -0.2383 ( 39) -0.2273 ( 40) -0.2254 ( 41) -0.1053 ( 42)  0.2475 ( 47)
           0.2534 ( 48)  0.2363 ( 49)
 CRD 21=   0.4859 (  1)  0.5787 (  2) -0.2761 ( 23) -0.2157 ( 25)  0.4918 ( 46)
 CRD 22=   0.2613 (  1)  0.1663 (  3)  0.2523 (  5) -0.1027 (  9)  0.2484 ( 10)
          -0.1225 ( 11) -0.3014 ( 12) -0.3025 ( 16) -0.2767 ( 17) -0.2597 ( 18)
          -0.1585 ( 19) -0.2263 ( 20) -0.1422 ( 24) -0.1670 ( 27)  0.1761 ( 28)
          -0.2295 ( 29)  0.1841 ( 32) -0.1082 ( 33)  0.2603 ( 36)  0.1126 ( 38)
          -0.1080 ( 42)  0.1385 ( 43)  0.1066 ( 44)
 CRD 23=  -0.4184 ( 16)  0.5705 ( 18)  0.3044 ( 47) -0.3921 ( 49)  0.2622 ( 67)
          -0.1701 ( 68)  0.2511 ( 79) -0.1813 ( 83)
 CRD 24=  -0.3483 ( 16)  0.5220 ( 17) -0.1436 ( 18) -0.1050 ( 40)  0.2744 ( 47)
          -0.4022 ( 48)  0.1292 ( 49)  0.1233 ( 57) -0.1108 ( 59) -0.2852 ( 66)
           0.1548 ( 68) -0.2337 ( 80)  0.2063 ( 83)  0.1088 ( 85)
 CRD 25=  -0.1476 ( 16)  0.3090 ( 17) -0.1542 ( 18) -0.1136 ( 52) -0.1902 ( 55)
          -0.3141 ( 57)  0.2454 ( 58)  0.2979 ( 59) -0.2379 ( 61) -0.1547 ( 64)
           0.1274 ( 68) -0.1432 ( 73) -0.2023 ( 74) -0.2548 ( 75)  0.1572 ( 76)
           0.1669 ( 81) -0.2150 ( 84) -0.2912 ( 85)  0.2194 ( 86) -0.1957 ( 87)
 CRD 26=   0.1955 (  4)  0.1360 (  5)  0.4092 (  8) -0.1433 ( 11)  0.2190 ( 12)
          -0.4999 ( 14) -0.1672 ( 15)  0.2104 ( 16)  0.1339 ( 17) -0.1261 ( 20)
          -0.1264 ( 22) -0.1526 ( 26)  0.1448 ( 28) -0.1751 ( 30) -0.1503 ( 31)
           0.1166 ( 33) -0.1914 ( 37)  0.1221 ( 41)  0.2299 ( 42)  0.1769 ( 43)
 CRD 27=   0.2129 ( 52) -0.1931 ( 54) -0.1490 ( 57)  0.1484 ( 59) -0.1051 ( 61)
          -0.3318 ( 62)  0.3184 ( 65) -0.2975 ( 72)  0.3459 ( 73) -0.1431 ( 75)
          -0.2219 ( 77)  0.1927 ( 78) -0.3442 ( 81)  0.3026 ( 82) -0.1037 ( 85)
          -0.1183 ( 86)  0.1198 ( 87)
 CRD 28=   0.2066 (  1)  0.1759 (  3) -0.3426 (  4) -0.1510 (  5) -0.3366 (  6)
           0.1866 (  7) -0.2434 (  8)  0.2828 ( 10)  0.1411 ( 12) -0.1348 ( 15)
           0.1128 ( 16)  0.1353 ( 19) -0.1401 ( 20)  0.1458 ( 22) -0.1764 ( 24)
           0.2431 ( 26) -0.1107 ( 29) -0.1152 ( 31)  0.1353 ( 33)  0.1457 ( 35)
           0.1646 ( 36) -0.1112 ( 37)  0.1665 ( 42) -0.2324 ( 43) -0.1353 ( 46)
 CRD 29=  -0.1461 (  1) -0.1691 (  4)  0.1002 (  6)  0.2509 (  8)  0.2978 (  9)
           0.1794 ( 11) -0.2038 ( 13)  0.1358 ( 16) -0.2058 ( 18) -0.4641 ( 19)
           0.1398 ( 20)  0.1504 ( 22) -0.1290 ( 28) -0.2484 ( 29) -0.1987 ( 31)
          -0.1491 ( 32)  0.1774 ( 36) -0.1686 ( 37) -0.1603 ( 39)  0.1122 ( 41)
           0.1682 ( 42) -0.1393 ( 43)  0.2167 ( 44)  0.1157 ( 47)
 CRD 30=   0.1627 (  6) -0.5187 ( 10) -0.1600 ( 11)  0.2183 ( 15)  0.3779 ( 19)
           0.2066 ( 26) -0.1353 ( 29) -0.1288 ( 33)  0.3277 ( 35)  0.1060 ( 36)
          -0.2042 ( 37)  0.1315 ( 42) -0.1328 ( 43)  0.1385 ( 44) -0.3500 ( 45)
 CRD 31=  -0.2973 (  1) -0.1844 (  4)  0.2066 (  5)  0.1013 (  6)  0.3167 (  7)
          -0.3673 (  8)  0.2983 ( 13) -0.5017 ( 14)  0.1845 ( 20) -0.1364 ( 26)
          -0.2035 ( 28)  0.1020 ( 36) -0.1712 ( 37)  0.1222 ( 46)
 CRD 32=  -0.1482 (  1) -0.3742 (  2)  0.4297 (  4)  0.1705 (  5) -0.1324 (  7)
          -0.1299 (  9)  0.2625 ( 10)  0.1810 ( 14) -0.1210 ( 15)  0.1718 ( 19)
           0.1153 ( 20)  0.1543 ( 21)  0.1321 ( 22) -0.1734 ( 23) -0.1554 ( 24)
          -0.1576 ( 25) -0.2696 ( 28)  0.1639 ( 36)  0.3310 ( 46)
 CRD 33=  -0.1087 ( 17)  0.1174 ( 56)  0.2860 ( 57) -0.3150 ( 61)  0.1288 ( 62)
           0.1044 ( 64)  0.1771 ( 65) -0.1007 ( 66)  0.2545 ( 69)  0.3385 ( 71)
          -0.1153 ( 73) -0.1174 ( 81) -0.6346 ( 84) -0.1529 ( 86)
 CRD 34=   0.3759 (  1) -0.3639 (  2)  0.3685 (  4) -0.3758 (  5) -0.2476 (  8)
           0.2534 (  9)  0.1539 ( 11)  0.2183 ( 13) -0.2086 ( 14) -0.2318 ( 19)
           0.1078 ( 42)
 CRD 35=  -0.1081 (  2)  0.1922 (  6)  0.1922 (  7) -0.1667 (  8) -0.3378 ( 10)
           0.1524 ( 11) -0.3359 ( 12) -0.1031 ( 13)  0.2213 ( 15)  0.1906 ( 16)
           0.1934 ( 17)  0.1884 ( 18) -0.1767 ( 19) -0.1182 ( 27) -0.1157 ( 29)
           0.1493 ( 33)  0.1676 ( 36)  0.1838 ( 37)  0.1888 ( 39)  0.1886 ( 40)
           0.1906 ( 41) -0.1264 ( 42) -0.2025 ( 47) -0.1996 ( 48) -0.2038 ( 49)
 CRD 36=   0.1247 (  1)  0.3420 (  7) -0.1762 (  8)  0.3646 (  9) -0.3481 ( 11)
          -0.4139 ( 13)  0.1095 ( 14)  0.1648 ( 16) -0.1771 ( 18)  0.2618 ( 19)
          -0.2426 ( 26)  0.1279 ( 38) -0.1213 ( 42)  0.2249 ( 43)  0.1106 ( 44)
           0.1222 ( 47) -0.1107 ( 49)
 CRD 37=  -0.1539 ( 16)  0.3020 ( 17) -0.1508 ( 18) -0.1055 ( 47)  0.2113 ( 48)
          -0.1032 ( 49)  0.1496 ( 51) -0.1784 ( 53) -0.1955 ( 54)  0.1167 ( 55)
           0.2589 ( 57) -0.1035 ( 59) -0.1581 ( 61) -0.1945 ( 62) -0.2237 ( 65)
           0.2461 ( 66)  0.1000 ( 67)  0.1973 ( 69)  0.1319 ( 73)  0.1662 ( 75)
           0.2294 ( 81)  0.1099 ( 82) -0.2166 ( 83) -0.2080 ( 84)  0.2090 ( 85)
           0.2688 ( 87)
 CRD 38=  -0.1594 (  1) -0.2532 (  2)  0.3764 (  3) -0.1233 (  4) -0.4412 (  6)
           0.2026 (  7)  0.2419 (  8) -0.1112 ( 10)  0.1024 ( 12) -0.1231 ( 13)
          -0.1318 ( 14)  0.3183 ( 15) -0.1089 ( 19) -0.1883 ( 23) -0.1156 ( 24)
           0.1208 ( 30) -0.1770 ( 36)  0.1668 ( 37) -0.1188 ( 42)  0.2825 ( 46)
 CRD 39=  -0.2862 (  1)  0.2347 (  2) -0.1460 (  7) -0.2907 (  8)  0.3361 (  9)
          -0.1663 ( 11) -0.1045 ( 12)  0.1329 ( 14)  0.1662 ( 15) -0.2506 ( 19)
          -0.1704 ( 20)  0.1202 ( 21) -0.1700 ( 22)  0.1782 ( 23) -0.2131 ( 25)
           0.2766 ( 29) -0.1995 ( 30)  0.2108 ( 32)  0.1169 ( 34) -0.1558 ( 38)
           0.1340 ( 42) -0.2159 ( 45)
 CRD 40=  -0.1878 (  1)  0.3274 (  3) -0.1059 (  5)  0.1548 (  6) -0.1642 (  8)
          -0.2805 ( 10)  0.2424 ( 11)  0.2669 ( 12)  0.1684 ( 14) -0.3444 ( 15)
          -0.1235 ( 18) -0.1230 ( 20) -0.1383 ( 25) -0.2139 ( 27)  0.1443 ( 28)
          -0.1352 ( 30)  0.1017 ( 32)  0.1022 ( 33)  0.1422 ( 34) -0.2795 ( 35)
           0.1403 ( 36)  0.1498 ( 43)  0.1373 ( 45)  0.1718 ( 46)  0.1160 ( 47)
 CRD 41=  -0.2009 ( 52)  0.1237 ( 53) -0.1539 ( 55) -0.1917 ( 57) -0.3313 ( 59)
           0.1269 ( 61)  0.1952 ( 62) -0.1179 ( 68)  0.1729 ( 71) -0.2794 ( 72)
          -0.2237 ( 73)  0.3164 ( 75)  0.2229 ( 77)  0.2365 ( 78) -0.1029 ( 79)
           0.2641 ( 82) -0.1456 ( 83) -0.2793 ( 85) -0.2832 ( 86)  0.1201 ( 87)
 CRD 42=   0.2723 (  2) -0.2807 (  3)  0.2923 (  4) -0.1007 (  6)  0.2429 ( 11)
           0.2478 ( 12) -0.2753 ( 13) -0.2078 ( 14)  0.1477 ( 15) -0.1173 ( 18)
          -0.1075 ( 20)  0.2532 ( 21)  0.1394 ( 22)  0.2494 ( 23) -0.1919 ( 24)
          -0.1227 ( 25)  0.1300 ( 26) -0.1457 ( 28)  0.1012 ( 33) -0.1520 ( 34)
           0.1490 ( 37) -0.2136 ( 42)  0.1463 ( 45) -0.1266 ( 46)  0.1032 ( 47)
 CRD 43=   0.2122 (  1) -0.2824 (  3)  0.2812 (  5)  0.1458 (  7) -0.1263 (  9)
          -0.1374 ( 10) -0.1604 ( 11)  0.3058 ( 12)  0.2201 ( 14) -0.1496 ( 16)
          -0.2258 ( 19)  0.2049 ( 20) -0.1202 ( 24)  0.1879 ( 25) -0.1612 ( 27)
          -0.1682 ( 28)  0.1853 ( 33)  0.2190 ( 34)  0.1186 ( 37) -0.2425 ( 38)
           0.1239 ( 42)  0.1440 ( 43) -0.1006 ( 44) -0.1609 ( 45) -0.1220 ( 46)
           0.1351 ( 49)
 CRD 44=  -0.1588 (  1)  0.1394 (  2)  0.1960 (  4) -0.3817 (  5)  0.3275 (  7)
           0.1068 (  8) -0.1012 (  9) -0.2430 ( 11)  0.1316 ( 14) -0.1842 ( 16)
           0.1906 ( 18) -0.2035 ( 20)  0.1960 ( 21)  0.1881 ( 22)  0.1715 ( 23)
          -0.1848 ( 25) -0.1786 ( 26) -0.1705 ( 29)  0.1399 ( 30) -0.2057 ( 32)
           0.1203 ( 34)  0.1539 ( 43) -0.1303 ( 47)  0.1302 ( 49) -0.1464 ( 67)
          -0.1465 ( 79)
 CRD 45=   0.1653 (  3) -0.1410 (  5)  0.3604 (  6) -0.1742 (  7) -0.1096 (  8)
          -0.1809 (  9)  0.2044 ( 10) -0.1603 ( 11)  0.2770 ( 12) -0.1695 ( 13)
           0.3165 ( 15) -0.1018 ( 19) -0.1040 ( 21)  0.2087 ( 24) -0.1134 ( 26)
           0.2192 ( 27)  0.1459 ( 28) -0.1173 ( 30) -0.1135 ( 31) -0.1134 ( 32)
           0.2291 ( 33) -0.1043 ( 34)  0.1827 ( 35)  0.2027 ( 36)  0.1931 ( 37)
          -0.1133 ( 38) -0.1058 ( 43) -0.1156 ( 44)
 CRD 46=   0.1795 ( 16) -0.3418 ( 17)  0.1623 ( 18)  0.1778 ( 40)  0.1249 ( 47)
          -0.2376 ( 48)  0.1129 ( 49) -0.2007 ( 52) -0.1817 ( 54) -0.2129 ( 56)
          -0.1087 ( 59) -0.1443 ( 60)  0.1555 ( 63) -0.2127 ( 65) -0.1842 ( 66)
           0.2423 ( 68) -0.1698 ( 72)  0.1530 ( 73)  0.2241 ( 76) -0.2532 ( 80)
           0.2306 ( 81)  0.1733 ( 83)  0.1642 ( 86)  0.2194 ( 87)
 CRD 47=   0.1010 (  5) -0.1269 (  7) -0.1268 (  8)  0.2548 (  9)  0.1172 ( 11)
          -0.2536 ( 13) -0.2987 ( 16)  0.3084 ( 18)  0.1233 ( 19) -0.1343 ( 30)
          -0.2381 ( 31)  0.1286 ( 38) -0.2081 ( 39)  0.2015 ( 41)  0.2367 ( 44)
          -0.2079 ( 47)  0.2156 ( 49)  0.1277 ( 66) -0.2669 ( 67)  0.1410 ( 68)
          -0.2675 ( 79)  0.1270 ( 80)  0.1403 ( 83)
 CRD 48=   0.1908 ( 50)  0.2771 ( 51)  0.1245 ( 53) -0.1220 ( 54) -0.1169 ( 55)
          -0.1143 ( 56) -0.3848 ( 61)  0.1669 ( 62) -0.2029 ( 64) -0.1314 ( 69)
           0.2096 ( 70) -0.2177 ( 71) -0.1604 ( 73)  0.2101 ( 77)  0.1318 ( 78)
          -0.1225 ( 80) -0.1331 ( 81)  0.1750 ( 82)  0.4887 ( 85) -0.1239 ( 86)
          -0.1696 ( 87)
 CRD 49=   0.1074 ( 52)  0.2109 ( 54) -0.1927 ( 55)  0.3383 ( 58) -0.1001 ( 59)
           0.1446 ( 60) -0.1668 ( 62) -0.1274 ( 64)  0.1726 ( 65)  0.1192 ( 67)
           0.1638 ( 68) -0.1559 ( 69) -0.1139 ( 70)  0.1464 ( 72) -0.3072 ( 74)
           0.1315 ( 75)  0.1897 ( 76) -0.2391 ( 78) -0.1153 ( 82)  0.1057 ( 85)
          -0.4079 ( 86)  0.3644 ( 87)
 CRD 50=  -0.3286 ( 50)  0.2942 ( 52) -0.1842 ( 53) -0.1830 ( 54) -0.1575 ( 56)
           0.1147 ( 59)  0.1100 ( 60)  0.2594 ( 61) -0.2263 ( 63) -0.2106 ( 64)
           0.1120 ( 67)  0.1778 ( 68)  0.2608 ( 69)  0.1072 ( 70)  0.1084 ( 72)
          -0.1134 ( 73)  0.1241 ( 74)  0.1051 ( 75)  0.2785 ( 77) -0.1587 ( 78)
          -0.1568 ( 79) -0.2275 ( 80) -0.1198 ( 81)  0.1089 ( 82) -0.2233 ( 85)
          -0.1008 ( 86) -0.1324 ( 87)
 CRD 51=   0.1980 ( 50) -0.2102 ( 52)  0.2535 ( 54) -0.2239 ( 58)  0.3155 ( 60)
          -0.1199 ( 61) -0.2802 ( 63)  0.2569 ( 64)  0.1034 ( 66)  0.1498 ( 67)
           0.1932 ( 68) -0.2036 ( 69) -0.3034 ( 70)  0.2351 ( 74)  0.2323 ( 77)
          -0.2628 ( 78) -0.1352 ( 79) -0.1816 ( 80)  0.1617 ( 86) -0.1719 ( 87)

 THE DETERMINANT OF THE G MATRIX IS 10**(   -23)


                     --------------------
                     INTERNAL COORDINATES
                     --------------------

                 - - ATOMS - -         COORDINATE      COORDINATE
 NO.   TYPE    I  J  K  L  M  N        (BOHR,RAD)       (ANG,DEG)
 ----------------------------------------------------------------
   1 STRETCH   1 11                     2.0495927       1.0845979
   2 STRETCH   1 10                     2.0623893       1.0913695
   3 STRETCH   1  2                     2.5162541       1.3315444
   4 STRETCH   2 12                     2.0736050       1.0973046
   5 STRETCH   2  3                     2.7624058       1.4618023
   6 STRETCH   3  4                     2.6404413       1.3972614
   7 STRETCH   3  5                     2.6420542       1.3981150
   8 STRETCH   4 13                     2.0727529       1.0968537
   9 STRETCH   4  6                     2.6354702       1.3946309
  10 STRETCH   5 14                     2.0802002       1.1007946
  11 STRETCH   5  7                     2.6238508       1.3884822
  12 STRETCH   6  8                     2.8081234       1.4859950
  13 STRETCH   6  9                     2.6383639       1.3961621
  14 STRETCH   7 15                     2.0687485       1.0947346
  15 STRETCH   7  9                     2.6268649       1.3900771
  16 STRETCH   8 18                     2.0751118       1.0981020
  17 STRETCH   8 17                     2.0762497       1.0987041
  18 STRETCH   8 16                     2.0750433       1.0980657
  19 STRETCH   9 19                     2.0704774       1.0956495
  20 BEND      1  2 12                  2.1112853     120.9677359
  21 BEND      1  2  3                  2.1447459     122.8848876
  22 BEND      2  3  4                  2.0895360     119.7215920
  23 BEND      2  1 11                  2.1496468     123.1656918
  24 BEND      2  3  5                  2.1086834     120.8186609
  25 BEND      2  1 10                  2.1243498     121.7162769
  26 BEND      3  5 14                  2.0700944     118.6076711
  27 BEND      3  5  7                  2.0988075     120.2528130
  28 BEND      3  2 12                  2.0271541     116.1473755
  29 BEND      3  4 13                  2.0934352     119.9449993
  30 BEND      3  4  6                  2.0995583     120.2958270
  31 BEND      4  6  8                  2.0961208     120.0988749
  32 BEND      4  3  5                  2.0849658     119.4597387
  33 BEND      4  6  9                  2.0892337     119.7042734
  34 BEND      5  7  9                  2.0972381     120.1628929
  35 BEND      5  7 15                  2.0925649     119.8951381
  36 BEND      6  4 13                  2.0901917     119.7591616
  37 BEND      6  9 19                  2.0917546     119.8487087
  38 BEND      6  9  7                  2.0965634     120.1242364
  39 BEND      6  8 16                  1.9522461     111.8554625
  40 BEND      6  8 17                  1.9264672     110.3784426
  41 BEND      6  8 18                  1.9513098     111.8018152
  42 BEND      7  9 19                  2.0948671     120.0270419
  43 BEND      7  5 14                  2.1142824     121.1394572
  44 BEND      8  6  9                  2.0977870     120.1943436
  45 BEND      9  7 15                  2.0933821     119.9419591
  46 BEND     10  1 11                  2.0091887     115.1180309
  47 BEND     16  8 17                  1.8764720     107.5139278
  48 BEND     16  8 18                  1.8775340     107.5747751
  49 BEND     17  8 18                  1.8763516     107.5070276
  50 TORSION   1  2  3  5               0.0008154       0.0467187
  51 TORSION   1  2  3  4              -3.1401902    -179.9196431
  52 TORSION   2  3  5 14               0.0000791       0.0045293
  53 TORSION   2  3  4  6              -3.1411975    -179.9773606
  54 TORSION   2  3  4 13               0.0010954       0.0627619
  55 TORSION   2  3  5  7              -3.1399926    -179.9083220
  56 TORSION   3  4  6  8               3.1287357     179.2633506
  57 TORSION   3  2  1 11               3.1414569     179.9922246
  58 TORSION   3  5  7  9              -0.0011413      -0.0653930
  59 TORSION   3  5  7 15               3.1398162     179.8982157
  60 TORSION   3  4  6  9              -0.0028222      -0.1617004
  61 TORSION   3  2  1 10              -0.0000040      -0.0002305
  62 TORSION   4  6  9 19              -3.1381711    -179.8039575
  63 TORSION   4  6  9  7               0.0026975       0.1545579
  64 TORSION   4  3  5  7               0.0010145       0.0581270
  65 TORSION   4  3  5 14               3.1410861     179.9709783
  66 TORSION   4  6  8 16               2.6490074     151.7769427
  67 TORSION   4  6  8 17              -1.5456797     -88.5609223
  68 TORSION   4  6  8 18               0.5420531      31.0573567
  69 TORSION   4  3  2 12               0.0012055       0.0690715
  70 TORSION   5  3  4  6               0.0009742       0.0558175
  71 TORSION   5  3  2 12              -3.1409742    -179.9645667
  72 TORSION   5  3  4 13              -3.1399182    -179.9040600
  73 TORSION   5  7  9 19               3.1401436     179.9169754
  74 TORSION   5  7  9  6              -0.0007237      -0.0414656
  75 TORSION   6  9  7 15               3.1415044     179.9949429
  76 TORSION   7  9  6  8              -3.1288506    -179.2699365
  77 TORSION   8  6  9 19               0.0134661       0.7715481
  78 TORSION   8  6  4 13              -0.0135559      -0.7766973
  79 TORSION   9  6  8 17               1.5858286      90.8612882
  80 TORSION   9  6  8 16              -0.5026696     -28.8008469
  81 TORSION   9  7  5 14              -3.1411738    -179.9760035
  82 TORSION   9  6  4 13               3.1380715     179.7982517
  83 TORSION   9  6  8 18              -2.6096239    -149.5204329
  84 TORSION  10  1  2 12              -3.1413905    -179.9884159
  85 TORSION  11  1  2 12               0.0000705       0.0040392
  86 TORSION  14  5  7 15              -0.0002163      -0.0123949
  87 TORSION  15  7  9 19              -0.0008136      -0.0466162

     ------------------------------------------
     THE POINT GROUP IS C1 , NAXIS= 1, ORDER= 1
     ------------------------------------------

     DIMENSIONS OF THE SYMMETRY SUBSPACES ARE
 A   =  231

 ..... DONE SETTING UP THE RUN .....
 STEP CPU TIME =     0.01 TOTAL CPU TIME =        0.0 (    0.0 MIN)
 TOTAL WALL CLOCK TIME=        0.0 SECONDS, CPU UTILIZATION IS  50.00%


          -----------------------------
          STATIONARY POINT LOCATION RUN
          -----------------------------

 OBTAINING INITIAL HESSIAN, HESS=GUESS   
 DIAGONAL GUESS HESSIAN IN INTERNAL COORDS IS
     1  0.3500     2  0.3454     3  0.5400     4  0.3415     5  0.4192
     6  0.4753     7  0.4745     8  0.3418     9  0.4777    10  0.3392
    11  0.4834    12  0.4000    13  0.4763    14  0.3432    15  0.4819
    16  0.3410    17  0.3406    18  0.3410    19  0.3426    20  0.2359
    21  0.2683    22  0.2632    23  0.2368    24  0.2632    25  0.2363
    26  0.2315    27  0.2689    28  0.2277    29  0.2318    30  0.2685
    31  0.2616    32  0.2682    33  0.2685    34  0.2695    35  0.2325
    36  0.2319    37  0.2319    38  0.2689    39  0.2262    40  0.2262
    41  0.2262    42  0.2323    43  0.2321    44  0.2615    45  0.2324
    46  0.2036    47  0.2026    48  0.2026    49  0.2026    50  0.2500
    51  0.2500    52  0.2500    53  0.2500    54  0.2500    55  0.2500
    56  0.2500    57  0.2500    58  0.2500    59  0.2500    60  0.2500
    61  0.2500    62  0.2500    63  0.2500    64  0.2500    65  0.2500
    66  0.2500    67  0.2500    68  0.2500    69  0.2500    70  0.2500
    71  0.2500    72  0.2500    73  0.2500    74  0.2500    75  0.2500
    76  0.2500    77  0.2500    78  0.2500    79  0.2500    80  0.2500
    81  0.2500    82  0.2500    83  0.2500    84  0.2500    85  0.2500
    86  0.2500    87  0.2500
 TRANSFORMING HESSIAN TO SYMMETRY COORDINATES

          PARAMETERS CONTROLLING GEOMETRY SEARCH ARE
          METHOD =QA                  UPHESS =BFGS    
          NNEG   =         0          NFRZ   =         3
          NSTEP  =        50          IFOLOW =         1
          HESS   =GUESS               RESTAR =         F
          IHREP  =         0          HSSEND =         F
          NPRT   =         0          NPUN   =         0
          OPTTOL = 5.000E-04          RMIN   = 1.500E-03
          RMAX   = 1.000E-01          RLIM   = 7.000E-02
          DXMAX  = 3.000E-01          PURIFY =         F
          MOVIE  =         F          TRUPD  =         T
          TRMAX  = 5.000E-01          TRMIN  = 5.000E-02
          ITBMAT =         5          STPT   =         F
          STSTEP = 1.000E-02          PROJCT=          F
          FROZEN COORD(S)=   1   2   3


      ***** EQUILIBRIUM GEOMETRY LOCATED *****
            (SUBJECT TO   3 CONSTRAINT(S))
 COORDINATES OF ALL ATOMS ARE (ANGS)
   ATOM   CHARGE       X              Y              Z
 ------------------------------------------------------------
 C           6.0   5.7108739761   4.3507812821   0.3878519761
 C           6.0   4.9989524195   3.2576776362   0.6059684886
 C           6.0   3.6181736747   3.2758287861   1.1428654945
 C           6.0   2.9137209427   2.0983709342   1.3545209272
 C           6.0   2.9981434515   4.4866720800   1.4493042530
 C           6.0   1.6133243894   2.1070769564   1.8595161549
 C           6.0   1.7182776813   4.5116143353   1.9502660288
 C           6.0   0.8719413529   0.8045723440   2.0528215527
 C           6.0   1.0226942143   3.3267932544   2.1575720554
 H           1.0   5.3120001313   5.3268601576   0.5950100691
 H           1.0   6.7099303166   4.3176556854  -0.0021071710
 H           1.0   5.4219595606   2.2894220667   0.3898466951
 H           1.0   3.3758703218   1.1519735797   1.1263960586
 H           1.0   3.5174977606   5.4113997520   1.2984516717
 H           1.0   1.2662622447   5.4598980392   2.1802041586
 H           1.0   0.1433770755   0.8802653896   2.8518389713
 H           1.0   0.3433704318   0.5266118388   1.1445102668
 H           1.0   1.5614758630   0.0025094463   2.2918163785
 H           1.0   0.0227821867   3.3659261246   2.5522096321


                     --------------------
                     INTERNAL COORDINATES
                     --------------------

                 - - ATOMS - -         COORDINATE      COORDINATE
 NO.   TYPE    I  J  K  L  M  N        (BOHR,RAD)       (ANG,DEG)
 ----------------------------------------------------------------
   1 STRETCH   1 11                     2.0276320       1.0729767
   2 STRETCH   1 10                     2.0306816       1.0745905
   3 STRETCH   1  2                     2.4993601       1.3226045
   4 STRETCH   2 12                     2.0380697       1.0785001
   5 STRETCH   2  3                     2.7998175       1.4815997
   6 STRETCH   3  4                     2.6235622       1.3883295
   7 STRETCH   3  5                     2.6351236       1.3944474
   8 STRETCH   4 13                     2.0364294       1.0776321
   9 STRETCH   4  6                     2.6362370       1.3950366
  10 STRETCH   5 14                     2.0243955       1.0712641
  11 STRETCH   5  7                     2.5976971       1.3746422
  12 STRETCH   6  8                     2.8556342       1.5111367
  13 STRETCH   6  9                     2.6221534       1.3875839
  14 STRETCH   7 15                     2.0321642       1.0753750
  15 STRETCH   7  9                     2.6257082       1.3894651
  16 STRETCH   8 18                     2.0491822       1.0843806
  17 STRETCH   8 17                     2.0542275       1.0870504
  18 STRETCH   8 16                     2.0483829       1.0839576
  19 STRETCH   9 19                     2.0327464       1.0756832
  20 BEND      1  2 12                  2.0918887     119.8563914
  21 BEND      1  2  3                  2.1546934     123.4548405
  22 BEND      2  3  4                  2.1150000     121.1805739
  23 BEND      2  1 11                  2.1360260     122.3852727
  24 BEND      2  3  5                  2.0997814     120.3086146
  25 BEND      2  1 10                  2.1166176     121.2732552
  26 BEND      3  5 14                  2.0979136     120.2015925
  27 BEND      3  5  7                  2.1057803     120.6523252
  28 BEND      3  2 12                  2.0366031     116.6887648
  29 BEND      3  4 13                  2.0885720     119.6663602
  30 BEND      3  4  6                  2.1210245     121.5257530
  31 BEND      4  6  8                  2.0923834     119.8847358
  32 BEND      4  3  5                  2.0684026     118.5107386
  33 BEND      4  6  9                  2.0714737     118.6867022
  34 BEND      5  7  9                  2.1001753     120.3311790
  35 BEND      5  7 15                  2.0774747     119.0305351
  36 BEND      6  4 13                  2.0735886     118.8078734
  37 BEND      6  9 19                  2.1018635     120.4279062
  38 BEND      6  9  7                  2.0995081     120.2929533
  39 BEND      6  8 16                  1.9432072     111.3375692
  40 BEND      6  8 17                  1.9305768     110.6138999
  41 BEND      6  8 18                  1.9323795     110.7171888
  42 BEND      7  9 19                  2.0818132     119.2791104
  43 BEND      7  5 14                  2.0794883     119.1459004
  44 BEND      8  6  9                  2.1192315     121.4230206
  45 BEND      9  7 15                  2.1055334     120.6381788
  46 BEND     10  1 11                  2.0305417     116.3414721
  47 BEND     16  8 17                  1.8827955     107.8762361
  48 BEND     16  8 18                  1.8929222     108.4564531
  49 BEND     17  8 18                  1.8799162     107.7112652
  50 TORSION   1  2  3  5              -0.0010108      -0.0579119
  51 TORSION   1  2  3  4              -3.1408640    -179.9582487
  52 TORSION   2  3  5 14              -0.0004778      -0.0273751
  53 TORSION   2  3  4  6              -3.1414312    -179.9907510
  54 TORSION   2  3  4 13               0.0009047       0.0518360
  55 TORSION   2  3  5  7              -3.1393391    -179.8708813
  56 TORSION   3  4  6  8               3.1230208     178.9359088
  57 TORSION   3  2  1 11              -3.1411558    -179.9749696
  58 TORSION   3  5  7  9              -0.0009540      -0.0546614
  59 TORSION   3  5  7 15               3.1385730     179.8269884
  60 TORSION   3  4  6  9              -0.0038406      -0.2200512
  61 TORSION   3  2  1 10               0.0003709       0.0212519
  62 TORSION   4  6  9 19              -3.1370762    -179.7412271
  63 TORSION   4  6  9  7               0.0034062       0.1951616
  64 TORSION   4  3  5  7               0.0005600       0.0320854
  65 TORSION   4  3  5 14               3.1394213     179.8755916
  66 TORSION   4  6  8 16               2.6514399     151.9163140
  67 TORSION   4  6  8 17              -1.5384646     -88.1475264
  68 TORSION   4  6  8 18               0.5441530      31.1776689
  69 TORSION   4  3  2 12               0.0010951       0.0627422
  70 TORSION   5  3  4  6               0.0018704       0.1071647
  71 TORSION   5  3  2 12               3.1409483     179.9630790
  72 TORSION   5  3  4 13              -3.1389790    -179.8502483
  73 TORSION   5  7  9 19               3.1394215     179.8755993
  74 TORSION   5  7  9  6              -0.0010737      -0.0615173
  75 TORSION   6  9  7 15              -3.1405672    -179.9412471
  76 TORSION   7  9  6  8              -3.1232188    -178.9472585
  77 TORSION   8  6  9 19               0.0194840       1.1163528
  78 TORSION   8  6  4 13              -0.0193090      -1.1063225
  79 TORSION   9  6  8 17               1.5879839      90.9847763
  80 TORSION   9  6  8 16              -0.5052970     -28.9513833
  81 TORSION   9  7  5 14              -3.1398439    -179.8998020
  82 TORSION   9  6  4 13               3.1370150     179.7377174
  83 TORSION   9  6  8 18              -2.6125839    -149.6900284
  84 TORSION  10  1  2 12               3.1415861     179.9996272
  85 TORSION  11  1  2 12               0.0000594       0.0034058
  86 TORSION  14  5  7 15              -0.0003168      -0.0181522
  87 TORSION  15  7  9 19              -0.0000721      -0.0041304

          INTERNUCLEAR DISTANCES (ANGS.)


 =====================================================
   GAMESS/COSab RESULTS
 =====================================================

   Dielectric Constant                  = INFTY
   Basic Grid Size                      =                 1082
   Number of Segments                   =                   92
   Number of Segments located on spheres=                  303
   Number of Segments of the cavity     =                  726
   Solvent Radius (rsolv)               = 1.40
   Outlying Charge Error Method         = double cavity

 =====================================================

  Total solvated Energy (a.u.)          =  -346.7052823952
  Total Energy corrected (a.u.)         =  -346.7053634306

  Outlying charge effect (a.u.)         =    -0.0000810354
  Outlying charge effect (kcal/mol)     =    -0.0508505080

  Dielectric Energy (a.u.)              =    -0.0087365629
  Dielectric energy corr. (a.u.)        =    -0.0088175983

  Sum of polarization charges           =     0.0259558808
  Sum of polarization charges(cor.)     =    -0.0259558808

  Total surface area of cavity (A**2)   =  171.36
  Total volume of cavity (A**3)         =  169.06

 =====================================================
 NPS=                   726
NR.  ATOM  (X, Y, Z)(a.u.)                  CHARGE(e)  AREA(A**2) SIGMA(e/A**2)
   1   1  13.016679   7.031499   3.546866   0.002259   0.325193   0.006945
   2   1  12.033313   7.740054  -2.804210   0.001680   0.464561   0.003616
   3   1  13.054068  10.389100   2.847161   0.000616   0.418105   0.001473
   4   1  12.377651  11.017177  -1.255968   0.000120   0.278737   0.000432
   5   1   8.831383   9.890866  -2.033735   0.001843   0.418105   0.004409
   6   1  13.533322   6.325669   2.514537   0.001621   0.232280   0.006981
   7   1  13.491318   5.618811   0.261263  -0.000246   0.092912  -0.002649
   8   1  12.774494   5.843354  -1.434342  -0.000046   0.092912  -0.000497
   9   1  12.179353   6.437918  -2.296486   0.001260   0.325193   0.003875
  10   1   9.035365  10.745016  -1.465207   0.000824   0.325193   0.002535
  11   1  11.841433  11.658300  -0.438933  -0.000157   0.371649  -0.000423
  12   1  12.215842  11.165854   2.627478   0.000324   0.418105   0.000774
  13   1  13.809070   7.049062   2.683884   0.001772   0.325193   0.005450
  14   1  14.146100   7.583767   2.353778   0.000577   0.185824   0.003103
  15   1  10.976482   7.146382  -2.885603   0.003583   0.464561   0.007712
  16   1  11.056400   9.580484   4.249779   0.001254   0.278737   0.004500
  17   1  12.120326  10.158379   3.694236   0.001322   0.464561   0.002846
  18   1  13.122115  11.060506   1.625348   0.000284   0.371649   0.000763
  19   1  12.936992  11.283753   0.178352   0.000103   0.371649   0.000278
  20   1  11.304624  11.102744  -1.659042   0.000788   0.603929   0.001304
  21   1  10.166371  10.488230  -2.226137   0.001110   0.464561   0.002390
  22   1  11.050087   8.518733   4.491843   0.002476   0.325193   0.007613
  23   1  12.155593   7.669068   4.214213   0.003648   0.371649   0.009815
  24   1  13.276644   8.107012   3.578552   0.002317   0.464561   0.004988
  25   1  13.280445   9.368233   3.336289   0.001254   0.464561   0.002700
  26   1  13.777151  10.189476   1.958184   0.000292   0.371649   0.000784
  27   1  14.118559   9.204496   2.233753   0.000492   0.278737   0.001764
  28   1  13.054122  10.918108  -0.644332  -0.000156   0.278737  -0.000560
  29   1  12.499188  10.194816  -2.001461   0.000232   0.418105   0.000555
  30   1  12.096523   9.083010  -2.708113   0.000935   0.371649   0.002516
  31   1  10.831609   8.487310  -3.036980   0.002558   0.511017   0.005005
  32   1   9.724650   9.243414  -2.745767   0.002370   0.511017   0.004637
  33   1   8.541535   8.771003  -2.253385   0.003267   0.371649   0.008790
  34   1  13.754743   6.055826   1.635709   0.000641   0.232280   0.002759
  35   1  10.105691  11.246577  -1.426667   0.000221   0.278737   0.000792
  36   1  12.535176  11.558104   1.071311  -0.000160   0.325193  -0.000492
  37   1  11.126493  10.424244   3.786040   0.000771   0.325193   0.002372
  38   1  13.978035   8.470850   2.750685   0.001084   0.325193   0.003333
  39   1   9.588104   7.951949  -2.839483   0.003530   0.418105   0.008443
  40   1  12.117406   8.841472   4.217680   0.002411   0.464561   0.005190
  41   1  13.740845  10.583947   0.826123  -0.000172   0.232280  -0.000742
  42   1  11.192952   9.822668  -2.667170   0.001101   0.511017   0.002155
  43   2   7.646934   7.360796  -1.952309   0.001305   0.185824   0.007025
  44   2   7.880960   4.513274  -1.877134   0.000220   0.139368   0.001578
  45   2  10.587654   5.081906  -2.294143   0.001720   0.278737   0.006172
  46   2  11.262282   4.536231   4.037123   0.001367   0.418105   0.003268
  47   2  11.322147   3.691289   3.311083   0.000676   0.325193   0.002078
  48   2  12.887220   4.619396   1.437101   0.000170   0.092912   0.001835
  49   2  11.303601   4.675026  -1.794684   0.000400   0.278737   0.001434
  50   2   8.649896   3.735734  -1.646166   0.000196   0.232280   0.000843
  51   2   8.599118   4.492081  -2.140762   0.000560   0.232280   0.002409
  52   2   9.689117   4.967438  -2.434350   0.001105   0.232280   0.004755
  53   2  12.749990   4.618672   2.149355   0.000554   0.185824   0.002981
  54   2  12.239789   4.837857   3.323378   0.002206   0.418105   0.005275
  55   2  10.355461   3.771098   3.932591   0.000288   0.232280   0.001241
  56   2   7.816968   5.327324  -2.162685   0.000919   0.325193   0.002827
  57   2   7.676525   6.445536  -2.181621   0.001254   0.232280   0.005399
  58   2   8.420860   6.519015  -2.474325   0.002214   0.232280   0.009531
  59   2   9.500575   5.900278  -2.625288   0.001585   0.278737   0.005686
  60   2  11.492010   5.735956   4.295386   0.004029   0.511017   0.007883
  61   2  10.402299   4.957634   4.599766   0.000948   0.371649   0.002551
  62   2  12.273663   4.215707   2.734798   0.000620   0.232280   0.002669
  63   2   9.596151   4.196337  -2.083079   0.000871   0.325193   0.002679
  64   2  10.446142   3.134899   3.184122  -0.000129   0.092912  -0.001393
  65   2  10.402194   6.513444   4.784273   0.002940   0.418105   0.007031
  66   2   8.730776   5.469151  -2.501789   0.001308   0.278737   0.004694
  67   3   8.697449   6.882970   5.376017   0.000598   0.139368   0.004291
  68   3   8.607851   5.329996   5.386048   0.001066   0.232280   0.004589
  69   3   8.612440   6.169071   5.496301   0.000868   0.185824   0.004672
  70   3   7.965631   6.403413   5.760522   0.000539   0.139368   0.003870
  71   3   4.835845   6.361012  -1.041719   0.002544   0.371649   0.006846
  72   3   5.964760   5.569099  -1.464767   0.001091   0.232280   0.004698
  73   3   5.856887   6.841857  -1.431750   0.001777   0.418105   0.004249
  74   3   7.617658   5.790440   5.836037   0.001510   0.232280   0.006500
  75   4   3.734358   5.046695  -0.598763   0.001149   0.139368   0.008244
  76   4   7.495353   2.497864   5.418655   0.001432   0.325193   0.004403
  77   4   7.389681   1.547873   4.771535   0.000807   0.278737   0.002895
  78   4   6.567791   2.302076  -0.663770   0.000143   0.139368   0.001030
  79   4   4.816188   1.554754  -0.268264   0.000551   0.232280   0.002372
  80   4   4.643349   2.276907  -0.709727   0.001067   0.278737   0.003828
  81   4   5.923649   2.936061  -1.052864   0.001221   0.325193   0.003753
  82   4   8.242600   2.658842   4.815566   0.001202   0.325193   0.003696
  83   4   6.819587   1.825944   5.384931   0.000681   0.185824   0.003662
  84   4   3.920432   2.958393  -0.719933   0.001901   0.325193   0.005844
  85   4   3.735326   4.230285  -0.768730   0.001365   0.232280   0.005875
  86   4   4.498817   4.449582  -1.050733   0.001588   0.185824   0.008548
  87   4   5.354122   3.705178  -1.207738   0.001201   0.232280   0.005170
  88   4   7.607628   3.554566   5.674037   0.002891   0.464561   0.006223
  89   4   6.450545   2.695523   5.991865   0.002443   0.418105   0.005844
  90   4   8.260456   1.934659   4.164120   0.000450   0.232280   0.001938
  91   4   5.645618   2.043197  -0.691491   0.000860   0.278737   0.003086
  92   4   6.574667   4.233716   6.174991   0.003456   0.464561   0.007439
  93   4   4.594309   3.443229  -1.070777   0.001795   0.325193   0.005521
  94   5   3.782640   7.868792  -0.480932   0.000571   0.092912   0.006146
  95   5   4.461979  11.210605   0.421143   0.001133   0.278737   0.004065
  96   5   7.817828   9.716264   5.588462   0.001645   0.418105   0.003935
  97   5   7.726076  10.621673   5.072495   0.000752   0.325193   0.002313
  98   5   5.635157  11.962102   4.204558  -0.000192   0.092912  -0.002063
  99   5   4.778054  11.781214   1.129728   0.000308   0.278737   0.001104
 100   5   5.584919  10.066002  -0.690184   0.001078   0.278737   0.003867
 101   5   4.801741  10.657542  -0.226014   0.000932   0.232280   0.004012
 102   5   6.155582  11.468347   4.998347   0.000311   0.232280   0.001341
 103   5   6.708600  10.465914   5.779694   0.001603   0.371649   0.004314
 104   5   5.455800   9.028393  -0.994564   0.001521   0.325193   0.004678
 105   5   4.446660   8.247810  -0.831226   0.001881   0.232280   0.008099
 106   5   3.889152   8.827473  -0.578819   0.001722   0.185824   0.009264
 107   5   4.107638  10.074950  -0.312183   0.001542   0.325193   0.004741
 108   5   6.847505   9.147320   6.265874   0.003414   0.511017   0.006681
 109   5   7.961479   8.557493   5.740004   0.001917   0.371649   0.005157
 110   5   6.903663  11.117955   5.144073   0.000380   0.185824   0.002047
 111   5   5.622402  10.882814  -0.177045   0.000787   0.325193   0.002421
 112   5   6.806301   7.786014   6.274826   0.003369   0.464561   0.007253
 113   5   4.624457   9.331163  -0.792960   0.001592   0.278737   0.005711
 114   6   0.814926   4.281125   0.480043   0.000596   0.092912   0.006412
 115   6   1.982080   3.622572  -0.094000   0.000663   0.139368   0.004757
 116   6   1.498505   4.047346   0.067708   0.000447   0.092912   0.004808
 117   6   1.514816   4.608875   0.117192   0.000437   0.139368   0.003134
 118   6   4.761567   4.371903   6.860358   0.002633   0.371649   0.007084
 119   6   4.617616   3.060167   6.826595   0.001485   0.325193   0.004565
 120   6   3.600968   3.781552   7.247492   0.001572   0.371649   0.004230
 121   6   2.183281   4.576948  -0.116601   0.001727   0.232280   0.007435
 122   7   4.911699   7.503791   6.921046   0.001024   0.139368   0.007348
 123   7   2.220466   9.213432   7.257210   0.000981   0.325193   0.003017
 124   7   4.641607  10.958756   6.219199   0.001006   0.278737   0.003610
 125   7   1.242894  10.105774   0.897834   0.001322   0.371649   0.003556
 126   7   1.047997  10.857694   1.682934   0.000777   0.371649   0.002092
 127   7   3.332717  11.971131   2.134348   0.000037   0.092912   0.000396
 128   7   4.370610  11.608210   5.561657   0.000280   0.278737   0.001004
 129   7   2.108081  10.053219   6.949458   0.000478   0.278737   0.001716
 130   7  -0.243520   9.885723   4.185807  -0.000216   0.092912  -0.002327
 131   7   1.171156   9.674918   6.627254   0.000037   0.185824   0.000200
 132   7   3.173628   9.756652   7.258088   0.001072   0.325193   0.003297
 133   7   4.260033  10.380177   6.819012   0.000808   0.232280   0.003481
 134   7   2.914772  11.674169   1.621245   0.000216   0.185824   0.001163
 135   7   2.277584  10.838645   0.857984   0.001558   0.418105   0.003726
 136   7   0.241363   9.749102   1.748137   0.001300   0.371649   0.003499
 137   7  -0.235713   9.895164   3.157250   0.000190   0.185824   0.001020
 138   7   3.485371   8.745224   7.451004   0.001925   0.325193   0.005920
 139   7   4.352467   8.117745   7.276557   0.001211   0.232280   0.005215
 140   7   4.942170   8.511378   7.063440   0.001931   0.232280   0.008312
 141   7   4.988540   9.738745   6.812780   0.001181   0.278737   0.004237
 142   7   2.128590   9.571546   0.230113   0.003104   0.511017   0.006075
 143   7   0.909850   9.021684   0.757047   0.001940   0.418105   0.004640
 144   7   2.117696  11.390422   1.494084   0.000401   0.232280   0.001728
 145   7   3.458352  10.668590   6.791534   0.000815   0.325193   0.002506
 146   7   0.591903   9.725005   6.092951   0.000013   0.092912   0.000139
 147   7   0.121795  10.231292   2.417459   0.000447   0.232280   0.001926
 148   7   2.069426   8.216407   0.107515   0.003359   0.464561   0.007230
 149   7   4.285072   9.373311   7.219357   0.001234   0.278737   0.004426
 150   8   1.617801  -1.872252   2.214003   0.001565   0.418105   0.003742
 151   8   3.059841   1.529221   7.385003   0.000542   0.325193   0.001665
 152   8  -1.708047  -0.168596   3.466596   0.001159   0.418105   0.002773
 153   8   1.080210  -1.632298   5.884914   0.000792   0.371649   0.002132
 154   8   3.047479  -0.541755   1.038088   0.000474   0.185824   0.002549
 155   8   2.846666  -1.123280   1.459023   0.000619   0.185824   0.003331
 156   8   0.511989  -0.938489   6.515213   0.000852   0.371649   0.002291
 157   8  -1.898092   0.281685   4.300001   0.000638   0.278737   0.002290
 158   8  -2.007133   2.480214   3.950674   0.000258   0.139368   0.001852
 159   8   2.016115   1.430662   7.639664   0.000710   0.325193   0.002182
 160   8   2.135197  -1.218868   1.321365   0.000651   0.232280   0.002803
 161   8   2.611055  -1.622066   2.013529   0.000596   0.185824   0.003208
 162   8   2.572452   2.299357   7.460116   0.000131   0.139368   0.000938
 163   8  -1.921160   2.397862   2.997552   0.000992   0.325193   0.003049
 164   8  -2.056446   1.070485   3.278475   0.001235   0.325193   0.003799
 165   8  -1.166687  -0.940822   4.432142   0.000682   0.464561   0.001469
 166   8   0.000635  -1.586374   5.264634   0.000572   0.464561   0.001231
 167   8   1.651963  -0.780320   6.877753   0.001347   0.371649   0.003625
 168   8   2.577008   0.580974   7.420202   0.000677   0.232280   0.002914
 169   8   3.789024   0.927398   6.936632   0.000557   0.371649   0.001500
 170   8  -1.422982   2.876272   2.142414   0.000195   0.232280   0.000841
 171   8  -0.838832  -1.244055   3.201786   0.000532   0.418105   0.001273
 172   8   0.399622  -1.875845   2.787540   0.000734   0.418105   0.001755
 173   8   1.322460  -2.214437   3.400413   0.000836   0.464561   0.001799
 174   8   1.044248  -2.101949   4.772883   0.000327   0.325193   0.001004
 175   8   2.723135   0.108608   0.542436   0.000226   0.185824   0.001215
 176   8   3.503137  -0.896357   1.643015   0.000244   0.139368   0.001748
 177   8  -0.735242  -0.957642   5.449300   0.000233   0.278737   0.000836
 178   8  -2.116647   1.784348   3.669194   0.000741   0.232280   0.003190
 179   8   1.866554   2.374109   7.554546   0.000122   0.139368   0.000876
 180   8   1.574060   0.187724   7.415204   0.001017   0.325193   0.003127
 181   8  -0.054559  -1.850942   4.022198   0.000406   0.464561   0.000875
 182   8   2.674764  -0.078672   7.146136   0.000720   0.232280   0.003098
 183   9   1.512764   6.333678   0.321453   0.000719   0.092912   0.007735
 184   9  -0.771228   8.074398   2.133568   0.000949   0.278737   0.003405
 185   9   1.556484   6.336740   7.837577   0.001655   0.371649   0.004452
 186   9   0.556250   6.701977   7.572569   0.000746   0.278737   0.002675
 187   9  -1.463877   5.469241   2.635059   0.000198   0.139368   0.001423
 188   9  -1.278169   7.708822   2.679785   0.000604   0.278737   0.002165
 189   9  -0.030150   8.554750   6.376773  -0.000162   0.092912  -0.001748
 190   9  -0.998806   8.535890   3.282006   0.000119   0.185824   0.000642
 191   9  -0.966010   7.066430   1.780628   0.001356   0.325193   0.004170
 192   9  -0.988239   5.589926   1.782150   0.001252   0.325193   0.003849
 193   9   1.505945   5.254533   7.687866   0.001210   0.278737   0.004342
 194   9   1.292330   7.468747   7.609521   0.001327   0.325193   0.004080
 195   9   0.907059   8.176814   7.185292   0.000477   0.139368   0.003426
 196   9  -0.165408   7.319945   1.108204   0.002227   0.325193   0.006847
 197   9   0.849286   6.820158   0.495862   0.001449   0.232280   0.006237
 198   9   0.626306   6.008542   0.541625   0.001603   0.185824   0.008625
 199   9  -0.301860   5.636970   1.099100   0.001283   0.232280   0.005521
 200   9   2.635522   5.535990   7.714053   0.003297   0.511017   0.006451
 201   9   2.552125   6.970416   7.742332   0.002291   0.418105   0.005480
 202   9   0.543712   5.629191   7.530168   0.000663   0.278737   0.002378
 203   9  -1.393304   6.357837   2.283482   0.000920   0.278737   0.003300
 204   9  -0.885245   8.804706   4.015739  -0.000068   0.092912  -0.000731
 205   9   0.378492   7.819108   7.162801   0.000285   0.185824   0.001534
 206   9   3.804977   6.135724   7.356808   0.003768   0.464561   0.008111
 207   9  -0.193115   6.432129   0.955617   0.001809   0.325193   0.005561
 208  10   9.740313  12.494008   1.353726  -0.003709   0.353299  -0.010498
 209  10   9.103179  11.890255  -0.229846  -0.002189   0.333671  -0.006562
 210  10  10.716906  12.340385   0.489529  -0.001687   0.294415  -0.005728
 211  10  11.004479  11.910389   2.428552  -0.001040   0.235532  -0.004414
 212  10   9.829188  12.296153   0.114856  -0.002459   0.372926  -0.006593
 213  10  10.818332  12.356913   1.548253  -0.002624   0.412182  -0.006365
 214  10  10.227869  11.831376   2.822530  -0.002808   0.353299  -0.007949
 215  11  14.984254   8.030349  -0.845741  -0.005484   0.608459  -0.009013
 216  11  13.774872   7.087322  -1.924214  -0.002253   0.412182  -0.005467
 217  11  14.400102   6.405813  -0.046415  -0.001885   0.353299  -0.005335
 218  11  14.909718   8.133974   1.026793  -0.001755   0.353299  -0.004967
 219  11  14.473816   9.825713  -0.203254  -0.002006   0.333671  -0.006013
 220  11  13.743653   9.282404  -1.912364  -0.001646   0.314043  -0.005242
 221  11  14.326541   6.669386  -1.054821  -0.003258   0.490692  -0.006640
 222  11  14.925450   7.263663   0.432797  -0.003231   0.490692  -0.006584
 223  11  14.952640   9.018091   0.359528  -0.003513   0.510320  -0.006884
 224  11  14.459403   9.401620  -1.155015  -0.003548   0.490692  -0.007232
 225  11  14.004004   8.174638  -2.073197  -0.003802   0.549575  -0.006917
 226  12  11.729657   2.386335   0.471964  -0.004008   0.471065  -0.008509
 227  12   9.871967   2.594287  -0.964766  -0.002549   0.392554  -0.006494
 228  12  11.664074   2.748971   1.976044  -0.001810   0.372926  -0.004855
 229  12  12.471439   3.499588   0.105064  -0.002307   0.333671  -0.006913
 230  12  10.983036   3.240102  -1.339797  -0.001859   0.392554  -0.004734
 231  12  10.584265   1.933692   0.294346  -0.003574   0.372926  -0.009583
 232  12  10.948672   2.173041   1.687740  -0.003540   0.412182  -0.008588
 233  12  12.375907   3.177565   1.159614  -0.002309   0.392554  -0.005882
 234  12  11.921234   3.315620  -0.748915  -0.002669   0.412182  -0.006475
 235  12  10.953441   2.386502  -0.594262  -0.003008   0.372926  -0.008066
 236  13   7.795118   0.212746   1.712509  -0.003119   0.353299  -0.008829
 237  13   5.926895   0.417283   0.475100  -0.001826   0.294415  -0.006201
 238  13   7.636488   0.540716   3.461941  -0.001900   0.353299  -0.005379
 239  13   6.890284   1.079066  -0.008930  -0.001515   0.294415  -0.005145
 240  13   6.604335  -0.196654   1.536362  -0.003375   0.372926  -0.009050
 241  13   7.268458  -0.067646   2.583278  -0.002970   0.333671  -0.008902
 242  13   8.278403   0.731626   2.711947  -0.002746   0.353299  -0.007773
 243  13   7.656147   0.596505   0.747439  -0.002909   0.314043  -0.009265
 244  13   6.760055   0.277764   0.617449  -0.001939   0.274788  -0.007057
 245  14   7.298848  12.594443   2.486276  -0.003869   0.392554  -0.009856
 246  14   6.931494  12.262217   3.798439  -0.001510   0.274788  -0.005495
 247  14   5.959324  12.566980   2.167155  -0.002674   0.372926  -0.007170
 248  14   6.424575  11.991064   0.759522  -0.001425   0.294415  -0.004839
 249  14   6.415441  12.569711   3.152796  -0.002197   0.294415  -0.007463
 250  14   6.608101  12.455299   1.422198  -0.002660   0.333671  -0.007972
 251  14   7.788212  11.912744   3.827786  -0.002606   0.333671  -0.007810
 252  15   1.298493  12.462386   4.607659  -0.005513   0.608459  -0.009061
 253  15   1.239724  11.281981   6.063063  -0.002280   0.412182  -0.005531
 254  15   0.057374  11.043334   4.352334  -0.002114   0.353299  -0.005983
 255  15   1.131631  11.965787   2.805376  -0.001742   0.353299  -0.004932
 256  15   2.991305  12.644876   3.608781  -0.002482   0.333671  -0.007437
 257  15   3.165495  12.202638   5.493037  -0.001598   0.333671  -0.004790
 258  15   0.477279  11.352649   5.257745  -0.003611   0.490692  -0.007360
 259  15   0.467211  11.749680   3.594276  -0.003335   0.490692  -0.006796
 260  15   1.976352  12.560286   3.207577  -0.003513   0.510320  -0.006884
 261  15   2.781558  12.689513   4.628549  -0.003785   0.490692  -0.007713
 262  15   2.088486  11.993769   5.890105  -0.003776   0.549575  -0.006870
 263  16  -1.168377   1.313960   7.349102  -0.003069   0.471065  -0.006514
 264  16   0.460834   1.720932   7.837805  -0.001285   0.372926  -0.003447
 265  16  -0.743732   0.108605   6.997893  -0.001631   0.412182  -0.003956
 266  16  -2.118528   1.121754   5.568168  -0.001133   0.333671  -0.003395
 267  16  -2.100986   2.271779   5.586536  -0.001715   0.353299  -0.004854
 268  16  -0.246558   2.441922   7.661029  -0.002639   0.431809  -0.006111
 269  16  -0.024212   0.737446   7.645393  -0.001605   0.412182  -0.003895
 270  16  -1.624414   0.366549   6.261370  -0.001891   0.431809  -0.004379
 271  16  -1.939574   1.744801   6.457853  -0.002147   0.353299  -0.006078
 272  16  -1.358582   2.498305   7.027094  -0.002737   0.372926  -0.007339
 273  17  -0.569643   0.356961   0.127372  -0.004288   0.628086  -0.006827
 274  17   1.046121  -0.753903   0.484094  -0.001119   0.372926  -0.003000
 275  17   1.149198   1.090671  -0.240438  -0.001471   0.314043  -0.004683
 276  17  -0.643537   2.211260   0.464040  -0.001561   0.353299  -0.004418
 277  17  -1.730554   0.854154   1.568206  -0.001243   0.372926  -0.003333
 278  17  -0.740477  -0.935750   1.549257  -0.001413   0.412182  -0.003429
 279  17   0.932008   0.151156  -0.126856  -0.002324   0.471065  -0.004933
 280  17   0.112359   1.583523  -0.161200  -0.002583   0.471065  -0.005482
 281  17  -1.315771   1.524266   0.786114  -0.002218   0.471065  -0.004709
 282  17  -1.378521  -0.095995   1.305965  -0.002316   0.471065  -0.004917
 283  17   0.026499  -0.910554   0.742939  -0.002438   0.490692  -0.004969
 284  18   4.167373  -2.017234   5.013931  -0.003139   0.471065  -0.006664
 285  18   4.045543  -1.731960   2.981687  -0.001322   0.294415  -0.004491
 286  18   2.982143  -2.431350   4.015437  -0.001537   0.392554  -0.003916
 287  18   3.020230  -1.710498   6.088227  -0.001162   0.333671  -0.003483
 288  18   4.392480  -0.420432   6.274035  -0.001233   0.353299  -0.003489
 289  18   4.779518  -1.618914   4.097551  -0.002848   0.392554  -0.007256
 290  18   3.733787  -2.210548   3.613674  -0.001536   0.333671  -0.004605
 291  18   2.846909  -2.313019   5.138523  -0.001882   0.431809  -0.004359
 292  18   3.860666  -1.325244   6.185163  -0.002022   0.431809  -0.004682
 293  18   4.978537  -0.916161   5.367793  -0.003023   0.471065  -0.006417
 294  19  -2.230186   6.776309   5.656458  -0.003600   0.431809  -0.008336
 295  19  -1.977885   7.614920   4.208366  -0.002057   0.372926  -0.005517
 296  19  -1.189906   8.030495   6.136966  -0.002030   0.333671  -0.006082
 297  19  -0.886690   6.136847   7.085839  -0.001972   0.372926  -0.005287
 298  19  -2.164728   5.677790   3.989638  -0.001829   0.314043  -0.005823
 299  19  -1.784094   7.938301   5.278703  -0.003372   0.451437  -0.007469
 300  19  -1.259239   7.168968   6.742808  -0.003092   0.471065  -0.006563
 301  19  -1.767512   5.905691   6.419820  -0.003681   0.431809  -0.008525
 302  19  -2.282925   5.649562   5.168253  -0.003802   0.412182  -0.009225
 303  19  -2.316075   6.678513   4.215883  -0.002924   0.451437  -0.006477
 304   1   9.964941   8.095026   4.529764   0.000953   0.101891   0.009355
 305   2   9.735461   7.739211   4.624337   0.000710   0.101891   0.006969
 306   5   9.046699   8.137274   4.838864   0.000412   0.101891   0.004043
 307   1   7.619448   8.418248  -1.505919   0.000973   0.101891   0.009552
 308   2   7.373499   8.064703  -1.453726   0.000652   0.101891   0.006401
 309   5   6.734880   8.455856  -1.110164   0.000409   0.101891   0.004014
 310   1  12.633445   5.177711  -0.795841  -0.000063   0.008191  -0.007666
 311   2  12.429077   4.802528  -0.744268  -0.000076   0.008191  -0.009261
 312  12  12.355780   4.522131  -0.671673  -0.000076   0.008191  -0.009246
 313   1  13.071557   5.117400   0.331875  -0.000049   0.008191  -0.005987
 314   2  12.872413   4.741498   0.396895  -0.000087   0.008191  -0.010615
 315  12  12.759307   4.466581   0.367019  -0.000117   0.008191  -0.014299
 316   2   7.966588   7.632656  -1.990418   0.001777   0.191880   0.009259
 317   2   9.578725   6.485360  -2.478210   0.004476   0.393543   0.011375
 318   2  11.608006   5.326086  -1.664500   0.000378   0.393543   0.000961
 319   1   8.900789   7.703163  -2.334432   0.004668   0.393543   0.011863
 320   1  10.969676   6.346169  -2.382329   0.003011   0.393543   0.007651
 321   1  12.509889   5.557927  -1.305468  -0.000135   0.191880  -0.000705
 322   2  13.004642   4.933372   0.925927  -0.000287   0.191855  -0.001496
 323   2  12.621107   5.562271   2.825831   0.002885   0.393488   0.007332
 324   2  11.110465   6.842252   4.309847   0.004561   0.393488   0.011590
 325   1  13.237346   5.658164   1.571236   0.000582   0.393488   0.001480
 326   1  12.328964   6.662973   3.641958   0.004590   0.393488   0.011666
 327   1  10.851745   7.791575   4.476423   0.001978   0.191855   0.010308
 328   1   8.180426  10.746603  -0.571295  -0.000294   0.080659  -0.003647
 329   5   7.299916  10.741423  -0.167613  -0.000494   0.080659  -0.006124
 330  10   8.186583  10.961020  -0.361428  -0.000575   0.080659  -0.007123
 331   1   9.438122  10.492502   3.773578  -0.000456   0.080060  -0.005695
 332   5   8.563351  10.581846   4.179853  -0.000360   0.080060  -0.004496
 333  14   8.585709  10.805241   3.983207  -0.000591   0.080060  -0.007385
 334   5   8.814210   8.817510   5.070789   0.001054   0.376199   0.002801
 335   5   8.698857  10.145942   4.605903   0.000225   0.376199   0.000598
 336   1  10.026783   9.402703   4.297344   0.002103   0.753329   0.002791
 337   5   6.707337  10.420047  -0.518852   0.000190   0.376115   0.000506
 338   5   6.431545   9.145754  -1.060537   0.001087   0.376115   0.002890
 339   1   7.868748   9.699884  -1.255928   0.002116   0.753159   0.002810
 340   1   9.847477  10.641785   3.596957  -0.000326   0.065038  -0.005019
 341  10   9.719789  10.881342   3.471648  -0.000566   0.065038  -0.008698
 342  14   8.953439  10.883378   3.702773  -0.000681   0.065038  -0.010470
 343  10  10.327303  11.042941   3.356497  -0.000335   0.070665  -0.004735
 344  10  11.137631  11.517394   2.681227  -0.000911   0.158955  -0.005731
 345  10  11.505645  11.938981   1.403403  -0.001046   0.158955  -0.006583
 346  10  11.000953  12.008357   0.104758  -0.001115   0.158955  -0.007012
 347  10   9.853362  11.693933  -0.623375  -0.000868   0.158955  -0.005461
 348  10   8.783227  11.255193  -0.616625  -0.000454   0.070665  -0.006423
 349   1  10.917363  10.941906   3.276332  -0.000613   0.152867  -0.004012
 350   1  11.776941  11.540391   2.111484  -0.000806   0.152867  -0.005271
 351   1  11.695420  11.833224   0.574756  -0.000887   0.152867  -0.005803
 352   1  10.709920  11.687065  -0.634110  -0.000773   0.152867  -0.005057
 353   1   9.269184  11.168468  -0.964663  -0.000668   0.152867  -0.004370
 354  11  13.052825   8.460517  -2.414555  -0.000227   0.064333  -0.003522
 355  11  13.253069   9.409478  -1.982147  -0.000815   0.141962  -0.005739
 356  11  13.662475  10.123736  -0.993932  -0.000864   0.141962  -0.006087
 357  11  14.128338  10.073284   0.203889  -0.000952   0.141962  -0.006705
 358  11  14.472713   9.277391   1.153788  -0.000738   0.141962  -0.005196
 359  11  14.564063   8.040063   1.492936  -0.000649   0.141962  -0.004570
 360  11  14.367493   6.833916   1.091790  -0.000575   0.141962  -0.004048
 361  11  13.958087   6.119658   0.103575  -0.000800   0.141962  -0.005636
 362  11  13.492225   6.170110  -1.094246  -0.000810   0.141962  -0.005707
 363  11  13.147849   6.966003  -2.044145  -0.000623   0.141962  -0.004391
 364  11  13.030813   7.949325  -2.427526  -0.000179   0.064333  -0.002789
 365   1  12.733151   8.940739  -2.380022  -0.000527   0.141761  -0.003720
 366   1  13.091142  10.075254  -1.559232  -0.000710   0.141761  -0.005009
 367   1  13.608223  10.467409  -0.267791  -0.000788   0.141761  -0.005557
 368   1  14.086886   9.967415   1.001015  -0.000656   0.141761  -0.004626
 369   1  14.344299   8.766253   1.762543  -0.000503   0.141761  -0.003551
 370   1  14.282138   7.322725   1.725917  -0.000263   0.141761  -0.001855
 371   1  13.924147   6.188210   0.905126  -0.000494   0.141761  -0.003482
 372   1  13.407066   5.796055  -0.386315  -0.000774   0.141761  -0.005460
 373   1  12.928403   6.296049  -1.655120  -0.000504   0.141761  -0.003554
 374   1  12.670990   7.497211  -2.416649  -0.000347   0.141761  -0.002447
 375  12  12.501426   4.317734  -0.264864  -0.001429   0.220767  -0.006471
 376   1  13.070249   5.254310  -0.197156  -0.000498   0.311676  -0.001596
 377   2   6.914503   4.792369  -1.478628   0.000106   0.050550   0.002088
 378   3   6.450701   4.786734  -1.342490   0.000203   0.050550   0.004013
 379   4   6.225603   4.409175  -1.234097   0.000262   0.050550   0.005185
 380   2   9.293743   4.470774   4.651080   0.000111   0.050550   0.002194
 381   3   8.859279   4.461173   4.862804   0.000229   0.050550   0.004533
 382   4   8.606701   4.087329   4.900398   0.000268   0.050550   0.005312
 383   2   9.389293   7.529977   4.786594   0.000320   0.051357   0.006221
 384   3   8.955424   7.546924   4.999158   0.000308   0.051357   0.006003
 385   5   8.730112   7.936087   5.067094   0.000254   0.051357   0.004952
 386   2   7.004160   7.863870  -1.358686   0.000303   0.051357   0.005907
 387   3   6.541190   7.884891  -1.221102   0.000305   0.051357   0.005941
 388   5   6.343235   8.270225  -1.082677   0.000258   0.051357   0.005025
 389   3   9.067657   5.160906   5.022524   0.000529   0.229157   0.002310
 390   3   9.118459   6.821738   5.097025   0.000842   0.229157   0.003672
 391   2   9.718740   5.985702   4.758418   0.001096   0.470326   0.002330
 392   3   6.569203   7.176035  -1.471027   0.000880   0.230191   0.003822
 393   3   6.521923   5.507577  -1.536214   0.000469   0.230191   0.002038
 394   2   7.210591   6.330774  -1.703606   0.001267   0.472665   0.002681
 395   2   8.456517   3.016799  -0.792404  -0.000323   0.066373  -0.004861
 396   4   7.766249   2.686318  -0.485542  -0.000320   0.066373  -0.004819
 397  12   8.696171   2.861134  -0.698353  -0.000484   0.066373  -0.007286
 398   2   9.908041   2.817359   2.942180  -0.000295   0.066373  -0.004446
 399   4   9.179897   2.492081   3.151593  -0.000311   0.066373  -0.004680
 400  12  10.015989   2.679790   2.697366  -0.000468   0.066373  -0.007054
 401   4   6.348509   3.827342  -1.234130   0.000936   0.312621   0.002996
 402   4   7.093049   2.777591  -0.785849   0.000102   0.312621   0.000326
 403   2   7.705156   3.864916  -1.327818  -0.000435   0.626936  -0.000694
 404   4   8.888337   2.531871   3.834671   0.000094   0.313544   0.000300
 405   4   8.677189   3.511626   4.763838   0.000910   0.313544   0.002901
 406   2   9.743627   3.587503   3.921049  -0.000448   0.628816  -0.000712
 407   5   8.709832   8.151051   5.200851   0.000076   0.011465   0.006596
 408   2   9.654579   7.579908   4.800998   0.000070   0.011465   0.006115
 409   5   6.248777   8.500016  -1.146515   0.000071   0.009869   0.007186
 410   2   7.186372   7.915610  -1.544009   0.000055   0.009869   0.005567
 411  12   9.302467   2.982251  -1.080582  -0.000435   0.076780  -0.005664
 412  12  10.333918   3.527699  -1.505449  -0.000948   0.175836  -0.005391
 413  12  11.686757   4.036626  -1.137643  -0.001176   0.175836  -0.006690
 414   2   9.433388   3.485411  -1.435911  -0.000785   0.163414  -0.004801
 415   2  10.941106   4.186657  -1.626593  -0.000637   0.163414  -0.003899
 416   2  12.105180   4.556726  -1.006147  -0.000445   0.093803  -0.004744
 417  12  12.680765   4.067804   0.668234  -0.000523   0.076766  -0.006813
 418  12  12.283599   3.648947   1.767426  -0.001029   0.175796  -0.005851
 419  12  11.154958   2.994635   2.489796  -0.001114   0.175796  -0.006337
 420   2  12.658001   4.293391   1.255674  -0.000944   0.163392  -0.005777
 421   2  11.794725   3.632313   2.527756  -0.000675   0.163392  -0.004132
 422   2  10.623858   3.034803   2.912993  -0.000350   0.093786  -0.003727
 423   3   6.477708   6.058377   5.933589   0.000639   0.049129   0.013009
 424   4   6.244108   5.671853   5.965711   0.000523   0.049129   0.010641
 425   5   6.271913   6.458980   5.996780   0.000514   0.049129   0.010458
 426   3   4.019769   6.395490  -0.371723   0.000545   0.049129   0.011084
[...]
 467   6   2.665485   3.443657  -0.204698   0.001121   0.196169   0.005716
 468   4   3.311022   4.194546  -0.355880   0.002986   0.400277   0.007461
 469   4   3.167382   6.003077   0.080838   0.000704   0.102680   0.006853
 470   7   2.759331   6.806312   0.240904   0.000833   0.102680   0.008110
 471   9   2.527900   6.416662   0.289965   0.000904   0.102680   0.008800
 472   4   5.529643   5.676851   6.142550   0.000733   0.102680   0.007136
 473   7   5.150062   6.476155   6.375670   0.000847   0.102680   0.008254
 474   9   4.932237   6.084625   6.459645   0.000858   0.102680   0.008359
 475   4   4.681737   0.835386   0.529158  -0.000219   0.067324  -0.003258
 476   8   4.002508   0.458335   0.820982  -0.000180   0.067324  -0.002677
 477  13   4.923997   0.685609   0.625016  -0.000411   0.067324  -0.006097
 478   4   3.308396   1.636099   0.093191   0.000007   0.032469   0.000223
 479   8   2.633852   1.173597   0.224785  -0.000043   0.032469  -0.001322
 480  17   2.342209   1.110763   0.173762  -0.000108   0.032469  -0.003326
 481   4   5.433039   1.481763   5.694490   0.000059   0.069230   0.000859
 482   8   4.799693   1.031702   5.986350  -0.000151   0.069230  -0.002186
 483  18   4.849284   0.747852   5.889795  -0.000283   0.069230  -0.004093
 484   8   3.111641   0.787906   0.370550   0.000036   0.379643   0.000094
 485   4   4.233322   1.206927   0.159283   0.000157   0.379643   0.000414
 486   8   4.790476   1.294737   6.218389   0.000157   0.130152   0.001210
 487   4   5.720022   1.979380   5.937473   0.000427   0.130152   0.003282
 488   9   4.890096   5.870618   6.613113   0.000080   0.011603   0.006862
 489   4   5.782520   5.300794   6.232668   0.000169   0.011603   0.014535
 490   9   2.395120   6.230771   0.186986   0.000052   0.006218   0.008334
 491   4   3.281248   5.649457  -0.190711   0.000109   0.006218   0.017542
 492   4   8.827620   2.130155   3.187256  -0.000357   0.084762  -0.004209
 493  12   9.585266   2.416536   2.654609  -0.000547   0.084762  -0.006448
 494  13   8.774001   1.891574   3.010475  -0.000530   0.084762  -0.006256
 495   4   7.472229   2.309234  -0.301406  -0.000370   0.084762  -0.004367
 496  12   8.400286   2.573100  -0.395431  -0.000551   0.084762  -0.006498
 497  13   7.543469   2.054157  -0.156812  -0.000528   0.084762  -0.006234
 498  12  10.144956   2.532252   2.616329  -0.000010   0.005962  -0.001719
 499   4   8.977959   2.155871   3.354212   0.000047   0.008445   0.005623
 500  12   8.843574   2.703498  -0.733458  -0.000029   0.008504  -0.003460
 501   4   7.468653   2.363134  -0.529061   0.000057   0.012046   0.004703
 502   4   6.446711   0.696480   4.349959  -0.000218   0.083431  -0.002615
 503  13   6.532947   0.543746   4.104553  -0.000462   0.083431  -0.005540
 504  18   5.720854   0.105448   4.550956  -0.000380   0.083431  -0.004560
 505  13   5.523177   0.839265   0.261098  -0.000354   0.073896  -0.004786
 506  13   6.502349   1.411943  -0.130982  -0.000945   0.167657  -0.005636
 507   4   5.625144   1.344976  -0.078332  -0.000601   0.158614  -0.003789
 508   4   6.748106   1.970281  -0.397434  -0.000287   0.090280  -0.003181
 509  13   8.255199   1.400334   3.468127  -0.000495   0.095413  -0.005186
 510  13   7.308948   0.827802   3.926290  -0.000514   0.095413  -0.005384
 511   4   7.730057   1.401942   3.949512  -0.001085   0.191238  -0.005674
 512  17   1.894966   1.492083  -0.066784  -0.000303   0.279648  -0.001082
 513   4   3.383804   2.123269  -0.307569   0.001120   0.401951   0.002788
 514  18   5.251719   0.060555   5.306127  -0.001713   0.389672  -0.004395
 515   4   6.113512   1.212748   5.261566   0.000697   0.550321   0.001267
 516   5   4.812649  12.047202   3.992301  -0.000110   0.009503  -0.011597
 517   7   4.402283  12.094583   4.164192  -0.000096   0.009503  -0.010082
 518  15   4.122856  12.183676   4.212699  -0.000122   0.009503  -0.012801
 519   5   4.326789  12.117443   2.747518  -0.000109   0.009503  -0.011442
 520   7   3.910313  12.165707   2.903755  -0.000087   0.009503  -0.009123
 521  15   3.675193  12.248395   3.065777  -0.000134   0.009503  -0.014104
 522   7   5.418692   7.506925   6.601363   0.001756   0.192800   0.009107
 523   7   5.408137   9.478937   6.476252   0.002634   0.393555   0.006693
 524   7   4.926618  11.424650   5.149221  -0.000561   0.393555  -0.001426
 525   5   6.032295   8.253845   6.369546   0.003416   0.393555   0.008680
 526   5   5.829797  10.564218   5.737213   0.001357   0.393555   0.003447
 527   5   5.312851  11.874413   4.351301  -0.000478   0.192800  -0.002477
 528   7   3.847495  12.010621   2.363088  -0.000567   0.193406  -0.002931
 529   7   3.240763  10.856996   0.870405   0.001270   0.394893   0.003215
 530   7   2.876250   8.619861   0.050477   0.003329   0.394893   0.008430
 531   5   4.202259  11.601217   1.527529  -0.000521   0.394893  -0.001319
 532   5   3.585853   9.805840   0.042071   0.002750   0.394893   0.006963
 533   5   3.436304   7.850430  -0.242682   0.001714   0.193406   0.008860
 534   5   6.911285  10.936148   0.025353  -0.000385   0.064439  -0.005978
 535  10   7.830292  11.073233  -0.069791  -0.000676   0.064439  -0.010492
 536  14   7.068192  11.147727   0.163292  -0.000618   0.064439  -0.009590
 537   5   4.687899  12.144172   2.688238  -0.000188   0.021453  -0.008772
 538  14   4.973897  12.201872   2.644827  -0.000196   0.021453  -0.009148
 539  15   4.033347  12.179351   3.021791  -0.000193   0.021453  -0.009015
 540   5   5.119186  12.082134   3.792787  -0.000181   0.021453  -0.008424
 541  14   5.361245  12.146153   3.636848  -0.000230   0.021453  -0.010722
 542  15   4.413277  12.124700   3.994812  -0.000178   0.021453  -0.008285
 543  14   5.987825  12.214827   3.724951  -0.000549   0.073586  -0.007464
 544  14   6.965562  11.753082   4.260630  -0.001098   0.167637  -0.006548
 545  14   8.017440  11.161752   4.257201  -0.000447   0.073586  -0.006075
 546   5   6.090695  11.862833   4.220398  -0.000957   0.157264  -0.006084
 547   5   7.499329  11.131958   4.589800  -0.000738   0.157264  -0.004692
 548  14   6.476064  11.381826   0.299567  -0.000504   0.073697  -0.006837
 549  14   5.719738  11.931486   1.065085  -0.001066   0.167956  -0.006346
 550  14   5.378294  12.302401   2.163271  -0.000491   0.073697  -0.006656
 551   5   5.868220  11.365109   0.403394  -0.000704   0.157444  -0.004472
 552   5   5.106335  12.004015   1.696860  -0.001027   0.157444  -0.006525
 553  15   3.970822  12.288847   4.240284  -0.000073   0.008523  -0.008536
 554   5   5.010119  12.147979   3.913793  -0.000013   0.012036  -0.001065
 555  15   3.552280  12.351118   3.165624  -0.000091   0.008235  -0.011040
 556   5   4.525088  12.216192   2.673675  -0.000019   0.011630  -0.001628
 557   6   2.487013   3.760129   7.258516   0.000214   0.051377   0.004165
 558   8   2.242798   3.332128   7.277426   0.000051   0.051377   0.000988
 559   9   2.292819   4.164838   7.315592   0.000278   0.051377   0.005411
 560   8   4.085517   1.804588   6.742274   0.000091   0.240109   0.000378
 561   8   2.723926   2.663559   7.307887   0.000102   0.240109   0.000426
 562   6   3.731177   2.846270   6.881236   0.000120   0.493683   0.000242
 563   6   0.223197   4.062149   0.977857   0.000252   0.066777   0.003772
 564   9   0.067841   4.460885   1.124189   0.000260   0.066777   0.003896
 565  17  -0.040062   3.361035   0.957588  -0.000013   0.066777  -0.000193
 566   9   2.833734   4.786157   7.408973   0.001279   0.217892   0.005870
 567   9   4.250869   5.582780   6.957232   0.001660   0.217892   0.007620
 568   6   3.799524   4.618295   6.991604   0.003310   0.449600   0.007362
 569   9   1.713234   5.974701   0.324856   0.001825   0.203720   0.008957
 570   9   0.402403   5.224413   0.797639   0.001387   0.203720   0.006806
 571   6   1.351518   5.027216   0.467271   0.003084   0.417336   0.007389
 572  17   0.104261   2.712316   0.471292  -0.000860   0.240454  -0.003578
 573  17   1.175713   2.065218  -0.001416  -0.000862   0.240454  -0.003585
 574   6   1.229513   3.300643   0.322892   0.000691   0.652568   0.001059
 575   7  -0.033056   9.232552   5.632319  -0.000092   0.008277  -0.011083
 576   9  -0.287907   8.869385   5.720184  -0.000111   0.008277  -0.013443
 577  19  -0.509756   8.672298   5.739637  -0.000084   0.008277  -0.010157
 578   7  -0.453798   9.292004   4.560369  -0.000084   0.008277  -0.010173
 579   9  -0.714060   8.929601   4.634447  -0.000111   0.008277  -0.013446
 580  19  -0.897450   8.727079   4.751888  -0.000108   0.008277  -0.013003
 581   9  -0.701485   8.990762   4.069373  -0.000516   0.198290  -0.002604
 582   9  -0.323905   8.437933   2.176736   0.001030   0.405161   0.002541
 583   9   1.184919   7.284184   0.645398   0.003525   0.405161   0.008701
 584   7  -0.278951   9.357210   3.230417  -0.000703   0.405161  -0.001735
 585   7   0.623147   8.463111   1.147273   0.002393   0.405161   0.005906
 586   7   2.102209   7.438900   0.256413   0.001644   0.198290   0.008289
 587   9   4.354617   6.528711   6.963080   0.001570   0.197655   0.007943
 588   9   2.706174   7.574069   7.406471   0.002438   0.403754   0.006038
 589   9   0.671536   8.624648   6.583892  -0.000677   0.403754  -0.001676
 590   7   4.062654   7.483565   7.089627   0.003352   0.403754   0.008303
 591   7   1.965227   8.716771   7.100124   0.000888   0.403754   0.002199
 592   7   0.430768   9.430598   6.031190  -0.000485   0.197655  -0.002456
 593  15   0.299021  10.380371   5.396037  -0.000505   0.071695  -0.007042
 594  15   1.163150  10.608877   6.152372  -0.001024   0.161734  -0.006332
 595  15   2.442310  11.169215   6.356082  -0.000787   0.161734  -0.004864
 596  15   3.461396  11.829390   5.636805  -0.000965   0.161734  -0.005966
 597  15   3.821884  12.251233   4.605749  -0.000457   0.071695  -0.006372
 598   7   0.597143  10.051056   5.811623  -0.001076   0.154687  -0.006956
 599   7   1.924091  10.504638   6.549540  -0.000644   0.154687  -0.004163
 600   7   3.296926  11.233699   6.241570  -0.000624   0.154687  -0.004032
 601   7   4.074964  11.897996   5.031439  -0.001019   0.154687  -0.006589
 602  15   3.190285  12.342391   2.988208  -0.000498   0.071802  -0.006932
 603  15   2.210581  12.009057   2.436989  -0.000931   0.162033  -0.005744
 604  15   0.947833  11.382746   2.537619  -0.000904   0.162033  -0.005580
 605  15   0.123731  10.756621   3.499775  -0.001025   0.162033  -0.006326
 606  15  -0.006790  10.423646   4.616406  -0.000457   0.071802  -0.006370
 607   7   3.074804  12.041990   2.471481  -0.000956   0.154865  -0.006176
 608   7   1.656988  11.468639   2.048867  -0.000664   0.154865  -0.004284
 609   7   0.410206  10.720375   2.683825  -0.000671   0.154865  -0.004331
 610   7  -0.082000  10.147415   4.079170  -0.001026   0.154865  -0.006628
 611  19  -0.734312   8.615007   5.647105  -0.000525   0.079949  -0.006569
 612   7  -0.110216   9.504877   5.421841  -0.000372   0.112824  -0.003298
 613  19  -0.977091   8.657599   5.044336  -0.000503   0.079885  -0.006302
 614   7  -0.379797   9.535408   4.720622  -0.000329   0.112734  -0.002916
 615   8   1.410522   3.122305   7.341558  -0.000099   0.069039  -0.001432
 616   9   1.460221   3.953957   7.297067   0.000122   0.069039   0.001761
 617  16   1.117487   3.051727   7.378318  -0.000179   0.069039  -0.002587
 618   8  -0.550258   3.397380   1.412670  -0.000007   0.024861  -0.000268
 619   9  -0.426240   4.213158   1.523923   0.000077   0.024861   0.003081
 620  17  -0.560291   3.136170   1.260670  -0.000081   0.024861  -0.003268
 621   8  -1.454087   3.974138   3.216004  -0.000124   0.065556  -0.001890
 622   9  -1.483210   4.807707   3.223932  -0.000147   0.065556  -0.002250
 623  19  -1.608708   4.917956   3.472393  -0.000255   0.065556  -0.003888
 624   9  -0.949343   4.742276   2.098466   0.000736   0.522353   0.001410
 625   8  -1.214766   3.553128   2.369064   0.000022   0.522353   0.000043
 626   9   1.857252   4.350727   7.487355   0.000608   0.160179   0.003798
 627   8   1.902137   3.156453   7.434770   0.000230   0.160179   0.001435
 628   8   4.244639  -0.696388   2.106718  -0.000197   0.085666  -0.002302
 629  13   5.099497  -0.285790   1.909047  -0.000524   0.085666  -0.006121
 630  18   4.356868  -0.834383   2.354511  -0.000372   0.085666  -0.004343
 631  13   5.356987   0.083949   1.174709  -0.002238   0.364450  -0.006142
 632   8   3.942228  -0.237954   1.229873   0.000014   0.515351   0.000027
 633   8  -1.740193   3.216986   4.553252  -0.000186   0.087710  -0.002116
 634  16  -1.760790   3.145805   4.849025  -0.000343   0.087710  -0.003915
 635  19  -1.725678   4.191207   4.727114  -0.000490   0.087710  -0.005591
 636  16  -2.000356   2.428899   4.857189  -0.000241   0.070449  -0.003420
 637  16  -2.052140   1.293961   4.917489  -0.000508   0.157307  -0.003231
 638  16  -1.571939   0.129287   5.465681  -0.000629   0.157307  -0.003998
 639  16  -0.637965  -0.332808   6.361078  -0.000667   0.157307  -0.004240
 640  16   0.344007   0.108440   7.214662  -0.000492   0.157307  -0.003125
 641  16   0.947347   1.261324   7.655584  -0.000550   0.157307  -0.003495
 642  16   1.016159   2.396076   7.610829  -0.000254   0.070449  -0.003604
 643   8  -2.008888   1.994581   4.438456  -0.000253   0.153570  -0.001647
 644   8  -1.831634   0.492128   4.742414  -0.000306   0.153570  -0.001991
 645   8  -0.990464  -0.475497   5.601081  -0.000455   0.153570  -0.002962
 646   8   0.149168  -0.487897   6.641399  -0.000337   0.153570  -0.002196
 647   8   1.092133   0.460314   7.411389  -0.000226   0.153570  -0.001473
 648   8   1.428751   1.957176   7.576521  -0.000446   0.153570  -0.002902
 649  17   1.950382   0.575913   0.120795  -0.000246   0.067731  -0.003636
 650  17   1.742292  -0.408947   0.543276  -0.000471   0.149685  -0.003149
 651  17   0.957309  -1.207444   1.244434  -0.000441   0.149685  -0.002944
 652  17  -0.178059  -1.251294   1.918552  -0.000540   0.149685  -0.003609
 653  17  -1.213031  -0.523086   2.297981  -0.000551   0.149685  -0.003683
 654  17  -1.736685   0.688055   2.232074  -0.000470   0.149685  -0.003141
 655  17  -1.541111   1.901262   1.746997  -0.000481   0.149685  -0.003215
 656  17  -0.928010   2.601156   1.176036  -0.000256   0.067731  -0.003773
 657   8   2.284782   0.205911   0.441038  -0.000400   0.149141  -0.002680
 658   8   1.747369  -0.998418   1.122323  -0.000221   0.149141  -0.001480
 659   8   0.610673  -1.497022   1.936378  -0.000310   0.149141  -0.002080
 660   8  -0.673997  -1.091935   2.559994  -0.000412   0.149141  -0.002762
 661   8  -1.596581   0.056006   2.745574  -0.000289   0.149141  -0.001941
 662   8  -1.790778   1.491029   2.419435  -0.000240   0.149141  -0.001607
 663   8  -1.179487   2.643377   1.711067  -0.000382   0.149141  -0.002564
 664  18   4.473241   0.277403   6.238609  -0.000286   0.069451  -0.004118
 665  18   3.618378  -0.346611   6.610873  -0.000505   0.154551  -0.003266
 666  18   2.648479  -1.257789   6.351310  -0.000484   0.154551  -0.003133
 667  18   2.124385  -2.006735   5.349949  -0.000605   0.154551  -0.003915
 668  18   2.267137  -2.277575   4.029120  -0.000637   0.154551  -0.004124
 669  18   3.016529  -1.956080   2.945896  -0.000440   0.154551  -0.002845
 670  18   3.860042  -1.362417   2.504518  -0.000228   0.069451  -0.003285
 671   8   3.987682   0.408137   6.564739  -0.000406   0.151890  -0.002672
 672   8   2.813960  -0.542158   6.761978  -0.000192   0.151890  -0.001263
 673   8   1.926786  -1.527984   6.013207  -0.000304   0.151890  -0.002001
 674   8   1.700336  -2.133561   4.634228  -0.000438   0.151890  -0.002883
 675   8   2.230115  -2.103481   3.206636  -0.000335   0.151890  -0.002208
 676   8   3.292685  -1.450431   2.332532  -0.000256   0.151890  -0.001682
 677  19  -1.859150   4.886635   3.997303  -0.001429   0.322277  -0.004434
 678   8  -1.815699   3.414926   3.882250   0.000149   0.456809   0.000327
 679   9  -0.051992   4.842274   7.033297  -0.000197   0.083683  -0.002360
 680  16  -0.241473   3.894019   6.991448  -0.000369   0.083683  -0.004408
 681  19  -0.320300   4.942991   6.942413  -0.000415   0.083683  -0.004963
 682  16   0.466822   3.146886   7.409441  -0.001334   0.370581  -0.003601
 683   9   0.618648   4.589780   7.355646   0.000624   0.523961   0.001190
 684  17  -0.527898   3.017808   0.951919   0.000019   0.145801   0.000128
 685   9  -0.327913   4.642596   1.151748   0.000809   0.210098   0.003851
 686  19  -0.367220   5.677923   7.142507  -0.000388   0.072228  -0.005369
 687  19  -0.324405   6.855573   7.134241  -0.000758   0.163194  -0.004646
 688  19  -0.565859   8.049193   6.404121  -0.001054   0.163194  -0.006456
 689   9   0.058267   6.090854   7.288153  -0.000605   0.155610  -0.003889
 690   9  -0.017010   7.645491   6.943296  -0.000658   0.155610  -0.004232
 691   9  -0.323366   8.564697   6.075936  -0.000449   0.088242  -0.005094
 692  19  -1.254174   8.438262   4.621531  -0.000420   0.065203  -0.006438
 693  19  -1.594730   7.814105   3.820523  -0.000826   0.144021  -0.005738
 694  19  -1.831884   6.634464   3.336582  -0.000586   0.144021  -0.004067
 695  19  -1.831038   5.568844   3.444367  -0.000258   0.065203  -0.003960
 696   9  -1.126456   8.433823   4.054080  -0.000814   0.143563  -0.005673
 697   9  -1.524885   7.361875   3.150830  -0.000432   0.143563  -0.003009
 698   9  -1.632947   5.914456   3.020524  -0.000441   0.143563  -0.003069
 699  14   8.565932  11.339490   3.781763  -0.001146   0.189156  -0.006061
 700  14   8.290652  12.073736   2.991281  -0.003802   0.378701  -0.010041
 701  14   7.815948  12.356216   1.746360  -0.003953   0.378701  -0.010438
 702  14   7.339498  11.800800   0.597676  -0.003317   0.378701  -0.008758
 703  10   9.530950  11.589830   3.080331  -0.003123   0.378701  -0.008247
 704  10   9.128354  12.270546   1.971499  -0.004070   0.378701  -0.010748
 705  10   8.628198  12.127025   0.712843  -0.003780   0.378701  -0.009981
 706  10   8.270571  11.482994  -0.122073  -0.001119   0.189156  -0.005916
 707  13   7.782531   1.645960  -0.069545  -0.000808   0.268048  -0.003013
 708  13   8.403206   1.143336   0.878454  -0.003170   0.536282  -0.005912
 709  13   8.820677   1.320418   2.311639  -0.002703   0.536282  -0.005041
 710  12   9.255205   2.106753  -0.167760  -0.002890   0.536282  -0.005389
 711  12   9.906225   1.788498   1.149261  -0.003158   0.536282  -0.005889
 712  12  10.103909   2.182997   2.307649  -0.000854   0.268048  -0.003185
 713  18   4.653382  -1.088127   2.597313  -0.000334   0.244243  -0.001369
 714  18   5.233081  -1.007512   3.579334  -0.001849   0.488500  -0.003786
 715  18   5.553256  -0.517354   4.561243  -0.000601   0.244243  -0.002460
 716  13   5.975046  -0.395119   2.268544  -0.002489   0.488500  -0.005095
 717  13   6.536352  -0.039094   3.493567  -0.002139   0.488500  -0.004378
 718  15   3.964566  12.393213   3.737260  -0.001171   0.356874  -0.003280
 719  14   5.234988  12.375292   3.011438  -0.001267   0.356874  -0.003551
 720  19  -0.842355   8.847431   5.336143  -0.000062   0.087751  -0.000710
 721  15  -0.115783  10.105504   5.064895  -0.000166   0.087751  -0.001892
 722  19  -2.006849   4.664739   5.096606  -0.000878   0.250026  -0.003512
 723  19  -1.595764   4.812005   6.152845  -0.002261   0.499998  -0.004523
 724  19  -0.777634   4.946527   6.939537  -0.000459   0.250026  -0.001838
 725  16  -1.805606   3.228548   5.690956  -0.001388   0.499998  -0.002776
 726  16  -1.038823   3.404327   6.840574  -0.001743   0.499998  -0.003486
 =====================================================

              4596150  WORDS OF DYNAMIC MEMORY USED
 EXECUTION OF GAMESS TERMINATED NORMALLY Thu Nov 24 16:36:25 2016
 DDI: 263640 bytes (0.3 MB / 0 MWords) used by master data server.

 ----------------------------------------
 CPU timing information for all processes
 ========================================
 0: 900.704 + 0.324 = 901.28
 ----------------------------------------
 ddikick.x: exited gracefully.
