----- GAMESS execution script -----

          ******************************************************
          *         GAMESS VERSION =  5 DEC 2014 (R1)          *
          *             FROM IOWA STATE UNIVERSITY             *
          * M.W.SCHMIDT, K.K.BALDRIDGE, J.A.BOATZ, S.T.ELBERT, *
          *   M.S.GORDON, J.H.JENSEN, S.KOSEKI, N.MATSUNAGA,   *
          *          K.A.NGUYEN, S.J.SU, T.L.WINDUS,           *
          *       TOGETHER WITH M.DUPUIS, J.A.MONTGOMERY       *
          *         J.COMPUT.CHEM.  14, 1347-1363(1993)        *
          **************** 64 BIT LINUX VERSION ****************

 EXECUTION OF GAMESS BEGUN Thu Nov 24 16:34:41 2016

            ECHO OF THE FIRST FEW INPUT CARDS -
 INPUT CARD>! SELECT RESTRICTED HARTREE-FOCK AS DEFAULT                                     
 INPUT CARD>$contrl scftyp=rhf $end                                                         
 INPUT CARD>                                                                                
 INPUT CARD>! THEORY: HF OR DFT                                                             
 INPUT CARD> $contrl mplevl=0 $end                                                          
 INPUT CARD>                                                                                
 INPUT CARD> $system timlim=10000 mwords=20 $end                                            
 INPUT CARD> $SCF DIRSCF=.TRUE. $end                                                        
 INPUT CARD>                                                                                
 INPUT CARD>                                                                                
 INPUT CARD>! BASIS SETS                                                                    
 INPUT CARD>! 6-311G(d,p)                                                                   
 INPUT CARD> $BASIS GBASIS=N311 NGAUSS=6 NDFUNC=1 NPFUNC=1 $END                             
 INPUT CARD>                                                                                
 INPUT CARD>! One of the following                                                          
 INPUT CARD> $guess guess=HUCKEL $end                                                       
 INPUT CARD>                                                                                
 INPUT CARD> $statpt projct=.FALSE. $end                                                    
 INPUT CARD> $STATPT IFREEZ(1)=1,2,3 $END                                                   
 INPUT CARD>                                                                                
 INPUT CARD>! Optimize the geometry with COSMO effects                                      
 INPUT CARD> $statpt opttol=0.0005 nstep=50 $end                                            
 INPUT CARD> $contrl nzvar=1 $end                                                           
 INPUT CARD> $zmat dlc=.t. auto=.t. $end                                                    
 INPUT CARD> $contrl runtyp=OPTIMIZE maxit=200 $end                                         
 INPUT CARD>                                                                                
 INPUT CARD>! Run COSMO on perfect conductor                                                
 INPUT CARD> $COSGMS PRFCND=.TRUE. $end                                                     
 INPUT CARD>                                                                                
 INPUT CARD>! Specifying RSOLV                                                              
 INPUT CARD> $COSGMS COSRAD = 1.4 $end                                                      
 INPUT CARD>                                                                                
 INPUT CARD>! available memory                                                              
 INPUT CARD> $SYSTEM MWORDS=40 $END                                                         
 INPUT CARD>                                                                                
 INPUT CARD> $DATA                                                                          
 INPUT CARD>Benzene, 1,3-dimethyl-, ID: C108383                                             
 INPUT CARD>C1                                                                              
 INPUT CARD>C      6.0      0.8755000000    3.7502000000    2.6142000000                    
 INPUT CARD>C      6.0      1.7886000000    2.7378000000    2.0235000000                    
 INPUT CARD>C      6.0      3.1595000000    2.7837000000    2.2764000000                    
 INPUT CARD>C      6.0      1.2709000000    1.7339000000    1.2035000000                    
 INPUT CARD>C      6.0      4.0113000000    1.8335000000    1.7127000000                    
 INPUT CARD>C      6.0      2.1182000000    0.7862000000    0.6422000000                    
 INPUT CARD>C      6.0      5.4737000000    1.8868000000    1.9703000000                    
 INPUT CARD>C      6.0      3.4842000000    0.8329000000    0.8941000000                    
 INPUT CARD>H      1.0      1.3689000000    4.3556000000    3.3861000000                    
 INPUT CARD>H      1.0      0.0000000000    3.2739000000    3.0750000000                    
 INPUT CARD>H      1.0      0.5083000000    4.4370000000    1.8396000000                    
 INPUT CARD>H      1.0      3.5699000000    3.5694000000    2.9223000000                    
   40000000 WORDS OF MEMORY AVAILABLE

     BASIS OPTIONS
     -------------
     GBASIS=N311         IGAUSS=       6      POLAR=POPN311 
     NDFUNC=       1     NFFUNC=       0     DIFFSP=       F
     NPFUNC=       1      DIFFS=       F     BASNAM=        


     RUN TITLE
     ---------
 Benzene, 1,3-dimethyl-, ID: C108383                                             

 THE POINT GROUP OF THE MOLECULE IS C1      
 THE ORDER OF THE PRINCIPAL AXIS IS     0

 ATOM      ATOMIC                      COORDINATES (BOHR)
           CHARGE         X                   Y                   Z
 C           6.0     1.6544551023        7.0868503992        4.9401216771
 C           6.0     3.3799639016        5.1736918092        3.8238605362
 C           6.0     5.9705892582        5.2604302320        4.3017722385
 C           6.0     2.4016527578        3.2765958901        2.2742852262
 C           6.0     7.5802578545        3.4648125985        3.2365336992
 C           6.0     4.0028175872        1.4857025715        1.2135820293
 C           6.0    10.3437931390        3.5655349936        3.7233271136
 C           6.0     6.5841832864        1.5739527752        1.6896040056
 H           1.0     2.5868459046        8.2308905121        6.3988011670
 H           1.0     0.0000000000        6.1867739112        5.8109074122
 H           1.0     0.9605477196        8.3847142075        3.4763399270
 H           1.0     6.7461328036        6.7451879406        5.5223462539
 H           1.0     0.3669847868        3.2038414396        1.9008753710
 H           1.0     3.2282189048        0.0000000000        0.0000000000
 H           1.0    10.8046973074        4.7288503117        5.3789160515
 H           1.0    11.3387338715        4.3777392232        2.0923046136
 H           1.0    11.1244389445        1.6708957183        4.0511945725
 H           1.0     7.8436856572        0.1585480104        0.8558568998

          INTERNUCLEAR DISTANCES (ANGS.)




     $CONTRL OPTIONS
     ---------------
 SCFTYP=RHF          RUNTYP=OPTIMIZE     EXETYP=RUN     
 MPLEVL=       0     CITYP =NONE         CCTYP =NONE         VBTYP =NONE    
 DFTTYP=NONE         TDDFT =NONE    
 MULT  =       1     ICHARG=       0     NZVAR =       1     COORD =UNIQUE  
 PP    =NONE         RELWFN=NONE         LOCAL =NONE         NUMGRD=       F
 ISPHER=      -1     NOSYM =       0     MAXIT =     200     UNITS =ANGS    
 PLTORB=       F     MOLPLT=       F     AIMPAC=       F     FRIEND=        
 NPRINT=       7     IREST =       0     GEOM  =INPUT   
 NORMF =       0     NORMP =       0     ITOL  =      20     ICUT  =       9
 INTTYP=BEST         GRDTYP=BEST         QMTTOL= 1.0E-06

     $SYSTEM OPTIONS
     ---------------
  REPLICATED MEMORY=    40000000 WORDS (ON EVERY NODE).
 DISTRIBUTED MEMDDI=           0 MILLION WORDS IN AGGREGATE,
 MEMDDI DISTRIBUTED OVER   1 PROCESSORS IS           0 WORDS/PROCESSOR.
 TOTAL MEMORY REQUESTED ON EACH PROCESSOR=    40000000 WORDS.
 TIMLIM=       10000.00 MINUTES, OR       6.9 DAYS.
 PARALL= F  BALTYP=  DLB     KDIAG=    0  COREFL= F
 MXSEQ2=     300 MXSEQ3=     150  mem10=         0

     $COSGMS OPTIONS
     ---------------
     EPSI  =   INFTY     NSPA  =      92     COSRAD=    1.40
     DISEX =   10.00     OUTCHG=DBLCAV       COSBUG=       F
     COSWRT=       F     DCOSMO=       F

     SYMMETRY COORDINATES WILL NOT BE USED FOR 
     THE COSMO CALCULATION, EVEN IF SPECIFIED:
         -- SWITCHING TO C1 POINT GROUP --


     DEFINITION OF CAVITY
     ---------------------------
     ATOM         COORDINATES           RADIUS 
     1    1.6545    7.0869    4.9401    2.0000
     2    3.3800    5.1737    3.8239    2.0000
     3    5.9706    5.2604    4.3018    2.0000
     4    2.4017    3.2766    2.2743    2.0000
     5    7.5803    3.4648    3.2365    2.0000
     6    4.0028    1.4857    1.2136    2.0000
     7   10.3438    3.5655    3.7233    2.0000
     8    6.5842    1.5740    1.6896    2.0000
     9    2.5868    8.2309    6.3988    1.3000
    10    0.0000    6.1868    5.8109    1.3000
    11    0.9605    8.3847    3.4763    1.3000
    12    6.7461    6.7452    5.5223    1.3000
    13    0.3670    3.2038    1.9009    1.3000
    14    3.2282    0.0000    0.0000    1.3000
    15   10.8047    4.7289    5.3789    1.3000
    16   11.3387    4.3777    2.0923    1.3000
    17   11.1244    1.6709    4.0512    1.3000
    18    7.8437    0.1585    0.8559    1.3000

          ----------------
          PROPERTIES INPUT
          ----------------

     MOMENTS            FIELD           POTENTIAL          DENSITY
 IEMOM =       1   IEFLD =       0   IEPOT =       0   IEDEN =       0
 WHERE =COMASS     WHERE =NUCLEI     WHERE =NUCLEI     WHERE =NUCLEI  
 OUTPUT=BOTH       OUTPUT=BOTH       OUTPUT=BOTH       OUTPUT=BOTH    
 IEMINT=       0   IEFINT=       0                     IEDINT=       0
                                                       MORB  =       0
          EXTRAPOLATION IN EFFECT
          SOSCF IN EFFECT
 ORBITAL PRINTING OPTION: NPREO=     1   212     2     1

     -------------------------------
     INTEGRAL TRANSFORMATION OPTIONS
     -------------------------------
     NWORD  =            0
     CUTOFF = 1.0E-09     MPTRAN =       0
     DIRTRF =       T     AOINTS =DUP     

          ----------------------
          INTEGRAL INPUT OPTIONS
          ----------------------
 NOPK  =       1 NORDER=       0 SCHWRZ=       T


 -----------------------------------------------
  STATISTICS ON AUTOMATIC COORDINATE GENERATION 
 -----------------------------------------------
  NUMBER OF USER SPECIFIED BONDS                             0
  NUMBER OF BONDS                                           18
  NUMBER OF ANGLES                                          30
  NUMBER OF TORSIONS                                        36
  NUMBER OF EXTRA COORD.                                     0
  NUMBER OF EXTRA COORD. FOR CONSTRAINTS                     0
  NUMBER OF CONSTRAINED COORD.                               0

  TOTAL NUMBER OF PRIMITIVES                                84
 -----------------------------------------------

   --- ENCODED Z MATRIX ---
 COORD  TYPE   I   J   K   L   M   N
    1      1    1  11
    2      1    1  10
    3      1    1   9
    4      1    1   2
    5      1    2   4
    6      1    2   3
    7      1    3  12
    8      1    3   5
    9      1    4  13
   10      1    4   6
   11      1    5   8
   12      1    5   7
   13      1    6  14
   14      1    6   8
   15      1    7  15
   16      1    7  17
   17      1    7  16
   18      1    8  18
   19      2    1   2   3
   20      2    1   2   4
   21      2    2   1  10
   22      2    2   4  13
   23      2    2   3  12
   24      2    2   1   9
   25      2    2   1  11
   26      2    2   3   5
   27      2    2   4   6
   28      2    3   5   8
   29      2    3   2   4
   30      2    3   5   7
   31      2    4   6   8
   32      2    4   6  14
   33      2    5   3  12
   34      2    5   7  17
   35      2    5   7  16
   36      2    5   8  18
   37      2    5   8   6
   38      2    5   7  15
   39      2    6   8  18
   40      2    6   4  13
   41      2    7   5   8
   42      2    8   6  14
   43      2    9   1  10
   44      2    9   1  11
   45      2   10   1  11
   46      2   15   7  16
   47      2   15   7  17
   48      2   16   7  17
   49      3    1   2   3   5
   50      3    1   2   4   6
   51      3    1   2   4  13
   52      3    1   2   3  12
   53      3    2   4   6   8
   54      3    2   4   6  14
   55      3    2   3   5   7
   56      3    2   3   5   8
   57      3    3   5   8   6
   58      3    3   2   1   9
   59      3    3   2   4  13
   60      3    3   2   1  11
   61      3    3   2   4   6
   62      3    3   5   7  16
   63      3    3   5   7  17
   64      3    3   2   1  10
   65      3    3   5   7  15
   66      3    3   5   8  18
   67      3    4   2   1  10
   68      3    4   2   1  11
   69      3    4   6   8  18
   70      3    4   6   8   5
   71      3    4   2   3   5
   72      3    4   2   3  12
   73      3    4   2   1   9
   74      3    5   8   6  14
   75      3    6   8   5   7
   76      3    7   5   8  18
   77      3    7   5   3  12
   78      3    8   5   7  15
   79      3    8   5   3  12
   80      3    8   5   7  16
   81      3    8   5   7  17
   82      3    8   6   4  13
   83      3   13   4   6  14
   84      3   14   6   8  18

          INDEP./SYM. INTERNAL COORDINATES
          --------------------------------
 CRD  1=   0.2531 (  6)  0.2531 (  8) -0.1036 ( 10) -0.1033 ( 14)  0.4307 ( 19)
          -0.4059 ( 20)  0.1509 ( 24) -0.1174 ( 26)  0.4312 ( 30)  0.1470 ( 38)
          -0.4058 ( 41)
 CRD  2=  -0.1335 (  4) -0.2390 (  5) -0.1214 ( 10)  0.2383 ( 11)  0.1310 ( 12)
           0.1204 ( 14)  0.3510 ( 19) -0.4282 ( 20) -0.1369 ( 21) -0.1239 ( 22)
           0.1250 ( 24) -0.3511 ( 30) -0.1123 ( 32)  0.1489 ( 34)  0.1237 ( 36)
          -0.1206 ( 38)  0.4272 ( 41)  0.1128 ( 42)
 CRD  3=   0.4350 (  4)  0.1511 (  5)  0.2600 (  6)  0.2592 (  8)  0.1452 ( 10)
           0.1538 ( 11)  0.4375 ( 12)  0.1469 ( 14)  0.1510 ( 20)  0.1517 ( 21)
          -0.1085 ( 23)  0.1402 ( 25)  0.2174 ( 26) -0.1723 ( 28) -0.1705 ( 29)
           0.1150 ( 31) -0.1090 ( 33)  0.1581 ( 34)  0.1342 ( 35)  0.1534 ( 41)
          -0.1085 ( 43) -0.1026 ( 44) -0.1313 ( 45) -0.1014 ( 46) -0.1112 ( 47)
          -0.1318 ( 48)
 CRD  4=   0.3742 (  4)  0.1256 (  5)  0.1572 ( 10) -0.1258 ( 11) -0.3712 ( 12)
          -0.1562 ( 14)  0.2643 ( 19)  0.1667 ( 23)  0.2123 ( 24)  0.1786 ( 27)
           0.2759 ( 28) -0.2771 ( 29) -0.2637 ( 30) -0.1673 ( 33) -0.1787 ( 37)
          -0.2032 ( 38) -0.1106 ( 43) -0.1180 ( 44)  0.1214 ( 46)  0.1040 ( 47)
 CRD  5=  -0.2448 ( 21)  0.3034 ( 25) -0.2193 ( 34)  0.3089 ( 35) -0.1079 ( 38)
          -0.3423 ( 49)  0.2001 ( 50)  0.1376 ( 51) -0.1354 ( 52)  0.3421 ( 55)
           0.2033 ( 56)  0.1534 ( 60) -0.1422 ( 62) -0.1927 ( 63)  0.1836 ( 64)
          -0.1409 ( 69) -0.2034 ( 71) -0.1084 ( 73) -0.2004 ( 75) -0.1377 ( 76)
           0.1353 ( 77)  0.1048 ( 78)  0.1407 ( 82)
 CRD  6=  -0.2515 ( 21)  0.3182 ( 25)  0.2258 ( 34) -0.3282 ( 35)  0.1053 ( 38)
          -0.1702 ( 49)  0.2752 ( 50)  0.1805 ( 51) -0.1699 ( 52) -0.1057 ( 53)
          -0.1057 ( 54) -0.1697 ( 55) -0.1049 ( 56)  0.2106 ( 57) -0.1186 ( 58)
           0.1158 ( 59)  0.2105 ( 61) -0.1161 ( 65)  0.1157 ( 66) -0.1059 ( 70)
          -0.1049 ( 71) -0.1046 ( 72) -0.1839 ( 73) -0.1059 ( 74)  0.2751 ( 75)
           0.1802 ( 76) -0.1700 ( 77) -0.1811 ( 78) -0.1051 ( 79)
 CRD  7=   0.2874 (  5)  0.1641 (  7) -0.3196 ( 10)  0.2827 ( 11) -0.3196 ( 14)
           0.2877 ( 22)  0.1167 ( 24) -0.1788 ( 26)  0.2835 ( 36)  0.1144 ( 38)
          -0.3747 ( 39) -0.3749 ( 40)
 CRD  8=   0.2080 (  5)  0.3698 (  6) -0.3714 (  8)  0.1900 (  9) -0.2136 ( 11)
          -0.1884 ( 18)  0.2202 ( 22)  0.4022 ( 23) -0.2121 ( 27) -0.4039 ( 33)
          -0.2261 ( 36)  0.2104 ( 37)
 CRD  9=   0.2768 (  5)  0.2940 ( 10)  0.2768 ( 11)  0.3283 ( 13)  0.2930 ( 14)
          -0.1774 ( 21) -0.1522 ( 22)  0.2950 ( 24)  0.1073 ( 28)  0.1065 ( 29)
          -0.2665 ( 31)  0.1337 ( 32) -0.2000 ( 34) -0.1514 ( 36)  0.2865 ( 38)
           0.1328 ( 42)
 CRD 10=   0.1281 (  9)  0.2835 ( 10) -0.2832 ( 14) -0.1278 ( 18) -0.1429 ( 21)
          -0.1209 ( 22)  0.1620 ( 24) -0.1495 ( 27)  0.4555 ( 32)  0.1574 ( 34)
           0.1208 ( 36)  0.1492 ( 37) -0.1577 ( 38) -0.2700 ( 39)  0.2704 ( 40)
          -0.4558 ( 42)
 CRD 11=  -0.1278 (  3) -0.1891 (  5)  0.1253 ( 10)  0.1882 ( 11) -0.1264 ( 14)
           0.1244 ( 15)  0.2724 ( 21) -0.2334 ( 22) -0.3792 ( 24)  0.1444 ( 25)
           0.1563 ( 32) -0.3047 ( 34) -0.1003 ( 35)  0.2332 ( 36)  0.3692 ( 38)
          -0.1758 ( 39)  0.1758 ( 40) -0.1561 ( 42) -0.1720 ( 45) -0.1064 ( 46)
           0.1673 ( 48)
 CRD 12=  -0.1408 (  1)  0.1125 (  2) -0.1021 ( 16)  0.1451 ( 17)  0.2819 ( 21)
          -0.3565 ( 25) -0.2553 ( 34)  0.3674 ( 35) -0.1061 ( 38) -0.1621 ( 43)
           0.1307 ( 44) -0.1193 ( 46)  0.1664 ( 47)  0.1527 ( 50)  0.1894 ( 57)
          -0.1118 ( 58)  0.1199 ( 59) -0.1443 ( 60)  0.1892 ( 61) -0.1420 ( 62)
          -0.1525 ( 63) -0.1515 ( 64) -0.1124 ( 65)  0.1204 ( 66) -0.1146 ( 67)
          -0.1075 ( 68)  0.1522 ( 75) -0.1046 ( 80) -0.1151 ( 81)
 CRD 13=   0.1271 (  1)  0.1296 ( 17) -0.2149 ( 21) -0.1149 ( 24)  0.3302 ( 25)
          -0.1851 ( 34)  0.3354 ( 35) -0.1488 ( 38)  0.1531 ( 43) -0.1032 ( 44)
           0.1549 ( 47)  0.1714 ( 49) -0.1585 ( 53) -0.1279 ( 54) -0.1721 ( 55)
          -0.1993 ( 56) -0.1453 ( 58) -0.1256 ( 60)  0.1286 ( 62)  0.1099 ( 63)
          -0.1107 ( 64)  0.1451 ( 65) -0.1387 ( 67) -0.1535 ( 68)  0.1583 ( 70)
           0.1992 ( 71) -0.1732 ( 73)  0.1278 ( 74)  0.1725 ( 78)  0.1560 ( 80)
           0.1373 ( 81)
 CRD 14=   0.1312 (  5)  0.1873 (  6)  0.3604 (  7)  0.1866 (  8)  0.1315 ( 11)
           0.2073 ( 13)  0.2523 ( 21)  0.1368 ( 23) -0.3328 ( 24) -0.2734 ( 26)
           0.1089 ( 27)  0.1193 ( 28)  0.1199 ( 29) -0.1842 ( 31)  0.1366 ( 33)
           0.2706 ( 34)  0.1095 ( 37) -0.3195 ( 38)  0.1191 ( 44) -0.1190 ( 45)
           0.1267 ( 46) -0.1126 ( 48)
 CRD 15=   0.1537 (  4) -0.1247 (  5) -0.2125 (  6) -0.2243 (  7) -0.2123 (  8)
          -0.3853 (  9) -0.1632 ( 10) -0.1250 ( 11)  0.1535 ( 12)  0.2206 ( 13)
          -0.1631 ( 14) -0.3854 ( 18) -0.1760 ( 22)  0.2243 ( 27) -0.3091 ( 31)
           0.1545 ( 32) -0.1761 ( 36)  0.2244 ( 37)  0.1546 ( 42)
 CRD 16=  -0.1007 ( 50) -0.1564 ( 51) -0.1097 ( 57) -0.2270 ( 58) -0.1645 ( 59)
          -0.2505 ( 60) -0.1088 ( 61) -0.2471 ( 62) -0.2524 ( 63) -0.2538 ( 64)
          -0.2257 ( 65) -0.1627 ( 66) -0.2620 ( 67) -0.2587 ( 68)  0.1090 ( 69)
          -0.2352 ( 73) -0.1035 ( 75) -0.1565 ( 76) -0.2320 ( 78) -0.2534 ( 80)
          -0.2587 ( 81)  0.1099 ( 82)  0.1090 ( 83)  0.1099 ( 84)
 CRD 17=   0.1134 (  1)  0.1153 ( 17) -0.1304 ( 21)  0.1682 ( 25) -0.1139 ( 34)
           0.1739 ( 35)  0.1166 ( 43)  0.1186 ( 47)  0.1495 ( 49) -0.1273 ( 50)
           0.2063 ( 52)  0.1486 ( 54) -0.1485 ( 55)  0.1939 ( 58)  0.1692 ( 60)
          -0.1760 ( 62) -0.1617 ( 63)  0.1599 ( 64) -0.1975 ( 65)  0.2177 ( 67)
           0.2270 ( 68)  0.1485 ( 72)  0.2517 ( 73) -0.1482 ( 74)  0.1261 ( 75)
          -0.2052 ( 77) -0.2548 ( 78) -0.1481 ( 79) -0.2332 ( 80) -0.2189 ( 81)
 CRD 18=  -0.2565 (  1) -0.2554 (  2) -0.2668 (  3)  0.1042 (  4)  0.1054 (  9)
          -0.1041 ( 12)  0.2667 ( 15)  0.2554 ( 16)  0.2578 ( 17) -0.1053 ( 18)
           0.1828 ( 21) -0.1220 ( 23)  0.1766 ( 24)  0.1793 ( 25) -0.1008 ( 27)
          -0.1227 ( 28)  0.1226 ( 29)  0.1219 ( 33) -0.1846 ( 34) -0.1782 ( 35)
           0.1008 ( 37) -0.1764 ( 38) -0.1943 ( 43) -0.1887 ( 44) -0.1914 ( 45)
           0.1867 ( 46)  0.1962 ( 47)  0.1922 ( 48)
 CRD 19=  -0.3293 (  1) -0.3317 (  2) -0.3338 (  3) -0.3330 ( 15) -0.3323 ( 16)
          -0.3285 ( 17)  0.1482 ( 21)  0.1529 ( 24)  0.1480 ( 25)  0.1482 ( 34)
           0.1478 ( 35)  0.1525 ( 38) -0.1638 ( 43) -0.1616 ( 44) -0.1535 ( 45)
          -0.1605 ( 46) -0.1640 ( 47) -0.1538 ( 48)
 CRD 20=  -0.1374 ( 43)  0.1123 ( 44)  0.1009 ( 46) -0.1405 ( 47)  0.1977 ( 50)
           0.1169 ( 51) -0.2766 ( 53) -0.3199 ( 54)  0.1484 ( 60) -0.1412 ( 62)
          -0.1705 ( 63)  0.1671 ( 64)  0.1948 ( 69)  0.2764 ( 70)  0.1969 ( 72)
           0.3198 ( 74) -0.1977 ( 75) -0.1164 ( 76) -0.1969 ( 79) -0.1954 ( 82)
          -0.2387 ( 83)  0.2382 ( 84)
 CRD 21=  -0.2122 (  2)  0.3786 (  3) -0.4539 ( 15)  0.3039 ( 16)  0.1696 ( 44)
          -0.2575 ( 45) -0.2350 ( 46)  0.3110 ( 48)  0.1555 ( 60)  0.1978 ( 62)
          -0.1423 ( 63) -0.1251 ( 64) -0.1254 ( 67)  0.1552 ( 68)  0.1980 ( 80)
          -0.1422 ( 81)
 CRD 22=  -0.1616 (  1) -0.2956 (  2)  0.4422 (  3)  0.3439 ( 15) -0.2704 ( 16)
           0.1105 ( 43)  0.2060 ( 44) -0.3181 ( 45)  0.1856 ( 46) -0.2491 ( 48)
           0.1911 ( 60) -0.1580 ( 62)  0.1185 ( 63) -0.1609 ( 64) -0.1600 ( 67)
           0.1920 ( 68) -0.1589 ( 80)  0.1176 ( 81)
 CRD 23=   0.3893 (  1) -0.3011 (  2)  0.1252 ( 15)  0.2875 ( 16) -0.4292 ( 17)
          -0.2631 ( 43)  0.2089 ( 44) -0.1994 ( 46)  0.2873 ( 47) -0.1740 ( 58)
           0.1471 ( 63)  0.1251 ( 64) -0.1802 ( 65)  0.1134 ( 67) -0.1856 ( 73)
          -0.1916 ( 78)  0.1357 ( 81)
 CRD 24=   0.4203 (  1) -0.3402 (  2) -0.1113 ( 15) -0.2847 ( 16)  0.4123 ( 17)
          -0.2475 ( 43)  0.2038 ( 44)  0.1720 ( 46) -0.2387 ( 47) -0.1992 ( 58)
           0.1832 ( 65)  0.1025 ( 67) -0.1894 ( 73)  0.1726 ( 78) -0.1094 ( 81)
 CRD 25=  -0.2673 (  1) -0.2969 (  2) -0.1837 (  3) -0.3272 (  4) -0.1965 (  9)
           0.1101 ( 10)  0.3270 ( 12) -0.1102 ( 14)  0.1837 ( 15)  0.3088 ( 16)
           0.2544 ( 17)  0.1967 ( 18)  0.1119 ( 20)  0.2273 ( 23)  0.1306 ( 27)
           0.1402 ( 28) -0.1402 ( 29) -0.2272 ( 33) -0.1305 ( 37)  0.1472 ( 39)
          -0.1472 ( 40) -0.1125 ( 41)
 CRD 26=  -0.2029 (  3) -0.1828 (  4) -0.4425 (  7)  0.1509 ( 10) -0.1833 ( 12)
           0.4978 ( 13)  0.1509 ( 14) -0.2004 ( 15)  0.1429 ( 19)  0.1836 ( 22)
          -0.1240 ( 24)  0.1698 ( 26)  0.1425 ( 30)  0.1838 ( 36) -0.1220 ( 38)
          -0.2075 ( 39) -0.2074 ( 40)
 CRD 27=  -0.2213 ( 51)  0.2086 ( 52) -0.1298 ( 54) -0.3258 ( 59)  0.3263 ( 66)
          -0.3463 ( 69)  0.3141 ( 72)  0.1298 ( 74)  0.2214 ( 76) -0.2086 ( 77)
          -0.3140 ( 79)  0.3461 ( 82)  0.1286 ( 83) -0.1288 ( 84)
 CRD 28=   0.1965 (  3) -0.1321 (  5)  0.1524 (  6) -0.1520 (  8) -0.2748 (  9)
          -0.1444 ( 10)  0.1321 ( 11)  0.1445 ( 14) -0.1927 ( 15)  0.2745 ( 18)
          -0.2382 ( 19)  0.1542 ( 20) -0.2137 ( 22)  0.2754 ( 23)  0.1448 ( 24)
           0.2380 ( 30) -0.2754 ( 33)  0.2136 ( 36) -0.1418 ( 38) -0.2416 ( 39)
           0.2418 ( 40) -0.1539 ( 41)
 CRD 29=   0.1266 (  1)  0.1703 (  2)  0.1091 (  4)  0.1827 (  5) -0.2969 (  6)
          -0.3849 (  7) -0.2974 (  8)  0.3302 (  9) -0.1252 ( 10)  0.1829 ( 11)
           0.1084 ( 12) -0.1499 ( 13) -0.1248 ( 14)  0.1797 ( 16)  0.1126 ( 17)
           0.3309 ( 18) -0.1567 ( 20)  0.1342 ( 21) -0.1255 ( 26)  0.1273 ( 28)
           0.1276 ( 29)  0.1420 ( 34) -0.1570 ( 41) -0.1328 ( 45) -0.1306 ( 48)
 CRD 30=  -0.1104 (  6)  0.1101 (  8)  0.4393 (  9)  0.1875 ( 10) -0.1877 ( 14)
          -0.4389 ( 18)  0.1212 ( 20) -0.2235 ( 22)  0.1463 ( 23)  0.1029 ( 28)
          -0.1027 ( 29) -0.3510 ( 32) -0.1462 ( 33)  0.2235 ( 36) -0.1487 ( 39)
           0.1487 ( 40) -0.1214 ( 41)  0.3511 ( 42)
 CRD 31=  -0.1179 (  3)  0.3315 (  5)  0.1362 (  6) -0.3585 (  7)  0.1363 (  8)
          -0.1651 (  9)  0.3315 ( 11) -0.5540 ( 13) -0.1170 ( 15) -0.1655 ( 18)
          -0.1553 ( 22) -0.1047 ( 24) -0.1555 ( 36) -0.1040 ( 38)
 CRD 32=   0.1620 (  1)  0.1301 (  2)  0.1771 (  3) -0.2379 (  4) -0.2159 (  5)
          -0.2133 (  6)  0.2120 (  8)  0.1252 (  9)  0.2160 ( 11)  0.2387 ( 12)
          -0.1750 ( 15) -0.1307 ( 16) -0.1648 ( 17) -0.1255 ( 18)  0.1538 ( 21)
           0.1082 ( 22)  0.2119 ( 23)  0.1542 ( 24)  0.1534 ( 25) -0.2125 ( 33)
          -0.1544 ( 34) -0.1538 ( 35) -0.1079 ( 36) -0.1544 ( 38)  0.1569 ( 39)
          -0.1570 ( 40) -0.1597 ( 43) -0.1820 ( 44) -0.1502 ( 45)  0.1825 ( 46)
           0.1585 ( 47)  0.1524 ( 48)
 CRD 33=  -0.2375 (  1)  0.2203 (  2) -0.1726 ( 16)  0.2677 ( 17) -0.1969 ( 43)
           0.1207 ( 44) -0.1252 ( 46)  0.1803 ( 47) -0.1318 ( 49) -0.1310 ( 52)
          -0.1309 ( 55) -0.1021 ( 57) -0.2548 ( 59)  0.1716 ( 60) -0.1018 ( 61)
           0.1528 ( 62)  0.2333 ( 63)  0.2195 ( 64) -0.2552 ( 66)  0.2048 ( 69)
          -0.1944 ( 73) -0.1316 ( 77) -0.1892 ( 78)  0.2049 ( 82)  0.2049 ( 83)
           0.2049 ( 84)
 CRD 34=  -0.1547 (  1) -0.1299 (  2)  0.2262 (  4)  0.1319 (  7)  0.3574 (  9)
          -0.2652 ( 10)  0.2276 ( 12)  0.1328 ( 13) -0.2678 ( 14) -0.1671 ( 16)
          -0.1050 ( 17)  0.3547 ( 18)  0.1107 ( 20) -0.1186 ( 21) -0.1794 ( 22)
          -0.1211 ( 24) -0.1173 ( 25)  0.1365 ( 27) -0.1291 ( 28) -0.1285 ( 29)
          -0.1181 ( 34) -0.1199 ( 35) -0.1817 ( 36)  0.1354 ( 37) -0.1216 ( 38)
           0.1105 ( 41)  0.1025 ( 43)  0.1199 ( 44)  0.1591 ( 45)  0.1381 ( 47)
           0.1501 ( 48)
 CRD 35=   0.1183 (  2)  0.4018 (  5) -0.3580 (  6)  0.3607 (  8) -0.2695 ( 10)
          -0.4025 ( 11)  0.2660 ( 14) -0.1298 ( 16) -0.1221 ( 22)  0.1340 ( 23)
          -0.1335 ( 33)  0.1192 ( 36) -0.1699 ( 39)  0.1710 ( 40) -0.1181 ( 45)
           0.1165 ( 48)
 CRD 36=   0.2104 (  3) -0.1365 (  4)  0.3148 (  6) -0.4748 (  7)  0.3135 (  8)
          -0.1610 ( 10) -0.1370 ( 12)  0.2057 ( 13) -0.1627 ( 14)  0.2052 ( 15)
          -0.1367 ( 19) -0.1200 ( 22)  0.1278 ( 23) -0.2547 ( 26) -0.1356 ( 30)
           0.1269 ( 33) -0.1215 ( 36) -0.1297 ( 44) -0.1371 ( 46)
 CRD 37=  -0.1926 (  1)  0.1560 (  2)  0.1344 ( 16) -0.2047 ( 17) -0.1369 ( 43)
           0.1057 ( 44) -0.1381 ( 47)  0.1689 ( 51)  0.1641 ( 52)  0.3411 ( 54)
          -0.1403 ( 58)  0.1372 ( 65)  0.1415 ( 69)  0.2502 ( 72) -0.2265 ( 73)
          -0.3410 ( 74) -0.1687 ( 76) -0.1645 ( 77)  0.2230 ( 78) -0.2500 ( 79)
          -0.1416 ( 82)  0.2190 ( 83) -0.2191 ( 84)
 CRD 38=  -0.1079 (  2)  0.2656 (  4) -0.1605 (  5) -0.1666 (  6)  0.1654 (  8)
           0.2496 (  9) -0.3352 ( 10)  0.1605 ( 11) -0.2648 ( 12)  0.3365 ( 14)
           0.1207 ( 16) -0.2502 ( 18)  0.1548 ( 23)  0.1367 ( 27)  0.2754 ( 32)
          -0.1549 ( 33) -0.1370 ( 37)  0.1113 ( 39) -0.1121 ( 40) -0.2751 ( 42)
           0.1211 ( 45) -0.1177 ( 48)
 CRD 39=  -0.1213 (  3)  0.3096 (  4) -0.1375 (  7) -0.2248 (  9)  0.3107 ( 12)
           0.2965 ( 13) -0.1201 ( 15) -0.2250 ( 18) -0.1650 ( 26) -0.2448 ( 27)
           0.1875 ( 28)  0.1867 ( 29)  0.2806 ( 31) -0.1401 ( 32) -0.2450 ( 37)
           0.1714 ( 39)  0.1720 ( 40) -0.1405 ( 42)  0.1029 ( 44)  0.1064 ( 46)
 CRD 40=   0.1530 (  2) -0.1151 (  3) -0.2384 (  4)  0.2599 (  5)  0.1176 (  7)
          -0.2377 ( 10)  0.2609 ( 11) -0.2391 ( 12)  0.2389 ( 13) -0.2368 ( 14)
          -0.1107 ( 15)  0.1658 ( 16)  0.1082 ( 20) -0.1754 ( 22)  0.1097 ( 24)
           0.1662 ( 26) -0.1526 ( 28) -0.1529 ( 29)  0.2016 ( 31) -0.1004 ( 32)
          -0.1750 ( 36)  0.1080 ( 38)  0.2065 ( 39)  0.2062 ( 40)  0.1077 ( 41)
          -0.1012 ( 42) -0.1627 ( 45) -0.1596 ( 48)  0.1005 ( 60) -0.1033 ( 62)
           0.1004 ( 68) -0.1034 ( 80)
 CRD 41=  -0.2023 (  3)  0.2711 (  4) -0.1363 (  5) -0.2189 (  6)  0.2176 (  8)
          -0.1211 (  9)  0.2592 ( 10)  0.1376 ( 11) -0.2698 ( 12) -0.2596 ( 14)
           0.1969 ( 15)  0.1199 ( 18) -0.1384 ( 19) -0.1009 ( 21)  0.1662 ( 22)
           0.1831 ( 23) -0.1437 ( 27) -0.1931 ( 28)  0.1936 ( 29)  0.1387 ( 30)
          -0.1166 ( 32) -0.1832 ( 33)  0.1073 ( 34) -0.1658 ( 36)  0.1425 ( 37)
           0.1160 ( 42)  0.1266 ( 44) -0.1362 ( 46)  0.1030 ( 60)  0.1070 ( 62)
           0.1029 ( 68)  0.1068 ( 80)
 CRD 42=  -0.1821 (  2)  0.2408 (  3)  0.1073 (  5) -0.2145 (  6)  0.2144 (  8)
          -0.1146 (  9)  0.1296 ( 10) -0.1064 ( 11) -0.1300 ( 14) -0.2354 ( 15)
           0.1999 ( 16)  0.1144 ( 18)  0.1121 ( 19) -0.2026 ( 20) -0.1790 ( 24)
          -0.1196 ( 27) -0.1117 ( 30) -0.1087 ( 34)  0.1195 ( 37)  0.1752 ( 38)
           0.2027 ( 41) -0.1019 ( 44)  0.1932 ( 45)  0.1147 ( 46) -0.1891 ( 48)
          -0.1861 ( 60) -0.1909 ( 62)  0.1342 ( 63)  0.1463 ( 64)  0.1470 ( 67)
          -0.1854 ( 68) -0.1894 ( 80)  0.1356 ( 81)
 CRD 43=   0.2412 (  1) -0.1991 (  2) -0.1824 ( 16)  0.2491 ( 17)  0.1023 ( 21)
          -0.1212 ( 25) -0.1258 ( 35)  0.1662 ( 43) -0.1396 ( 44) -0.1275 ( 46)
           0.1721 ( 47) -0.1862 ( 49)  0.1326 ( 50)  0.1762 ( 51)  0.1345 ( 52)
           0.1111 ( 54)  0.1860 ( 55)  0.1310 ( 56)  0.1495 ( 58)  0.1209 ( 59)
           0.1632 ( 63) -0.1489 ( 64) -0.1450 ( 65) -0.1203 ( 66) -0.2047 ( 67)
          -0.1551 ( 68) -0.1304 ( 71)  0.1903 ( 72) -0.1106 ( 74) -0.1333 ( 75)
          -0.1751 ( 76) -0.1346 ( 77) -0.1896 ( 79)  0.1379 ( 80)  0.2184 ( 81)
 CRD 44=  -0.1455 (  2)  0.2501 (  3)  0.2246 (  5) -0.1654 (  6)  0.1501 (  7)
          -0.1663 (  8)  0.2243 ( 11)  0.2430 ( 15) -0.1701 ( 16)  0.2069 ( 19)
          -0.1505 ( 20)  0.1147 ( 21) -0.1599 ( 24)  0.1590 ( 26)  0.2066 ( 30)
           0.1059 ( 31)  0.1308 ( 34) -0.1550 ( 38) -0.1509 ( 41) -0.1127 ( 44)
           0.1634 ( 45) -0.1303 ( 46)  0.1580 ( 48) -0.1750 ( 60)  0.1809 ( 62)
          -0.1339 ( 63)  0.1494 ( 64)  0.1532 ( 67) -0.1712 ( 68)  0.1784 ( 80)
          -0.1364 ( 81)
 CRD 45=  -0.2059 (  1)  0.1706 (  2) -0.1492 ( 16)  0.2142 ( 17)  0.1120 ( 25)
          -0.1175 ( 35) -0.1433 ( 43)  0.1189 ( 44) -0.1038 ( 46)  0.1492 ( 47)
           0.1206 ( 49) -0.1874 ( 50)  0.1276 ( 51)  0.1197 ( 52)  0.1198 ( 55)
          -0.1348 ( 57) -0.2366 ( 58)  0.1798 ( 59) -0.1352 ( 61) -0.2309 ( 65)
           0.1807 ( 66) -0.2485 ( 69) -0.1839 ( 73) -0.1878 ( 75)  0.1277 ( 76)
           0.1207 ( 77) -0.1775 ( 78) -0.2489 ( 82) -0.2480 ( 83) -0.2493 ( 84)
 CRD 46=  -0.1845 ( 50)  0.2351 ( 52)  0.3254 ( 53) -0.1118 ( 54)  0.1407 ( 56)
          -0.1508 ( 58)  0.1801 ( 59)  0.1031 ( 62)  0.1503 ( 65) -0.1795 ( 66)
          -0.3243 ( 70) -0.1396 ( 71)  0.1430 ( 72)  0.1129 ( 74)  0.1843 ( 75)
          -0.2355 ( 77) -0.1418 ( 79) -0.3863 ( 83)  0.3845 ( 84)
 CRD 47=   0.1028 ( 35) -0.1733 ( 49)  0.3033 ( 51) -0.1746 ( 52)  0.1202 ( 53)
           0.1214 ( 54) -0.1735 ( 55)  0.1198 ( 56) -0.2417 ( 57)  0.2095 ( 58)
          -0.2412 ( 61)  0.1028 ( 62)  0.2054 ( 65) -0.2303 ( 67) -0.1996 ( 68)
          -0.1339 ( 69)  0.1224 ( 70)  0.1207 ( 71)  0.1195 ( 72)  0.1212 ( 74)
           0.3054 ( 76) -0.1722 ( 77)  0.1210 ( 79) -0.1913 ( 80) -0.2388 ( 81)
          -0.1340 ( 82) -0.1328 ( 83) -0.1350 ( 84)
 CRD 48=   0.2152 ( 51) -0.2622 ( 52)  0.2247 ( 53) -0.3137 ( 56)  0.2681 ( 57)
           0.1951 ( 58)  0.1323 ( 60) -0.2683 ( 61) -0.1368 ( 62) -0.1110 ( 63)
           0.1156 ( 64) -0.1928 ( 65) -0.1581 ( 67) -0.1414 ( 68) -0.2246 ( 70)
           0.3138 ( 71) -0.2158 ( 76)  0.2612 ( 77)  0.1367 ( 80)  0.1625 ( 81)
          -0.1604 ( 83)  0.1605 ( 84)

 THE DETERMINANT OF THE G MATRIX IS 10**(   -19)


                     --------------------
                     INTERNAL COORDINATES
                     --------------------

                 - - ATOMS - -         COORDINATE      COORDINATE
 NO.   TYPE    I  J  K  L  M  N        (BOHR,RAD)       (ANG,DEG)
 ----------------------------------------------------------------
   1 STRETCH   1 11                     2.0757203       1.0984240
   2 STRETCH   1 10                     2.0750005       1.0980431
   3 STRETCH   1  9                     2.0750726       1.0980812
   4 STRETCH   1  2                     2.8077741       1.4858102
   5 STRETCH   2  4                     2.6376598       1.3957896
   6 STRETCH   2  3                     2.6357661       1.3947874
   7 STRETCH   3 12                     2.0726249       1.0967860
   8 STRETCH   3  5                     2.6362869       1.3950631
   9 STRETCH   4 13                     2.0699280       1.0953588
  10 STRETCH   4  6                     2.6260463       1.3896439
  11 STRETCH   5  8                     2.6382773       1.3961163
  12 STRETCH   5  7                     2.8078889       1.4858709
  13 STRETCH   6 14                     2.0688394       1.0947828
  14 STRETCH   6  8                     2.6263728       1.3898167
  15 STRETCH   7 15                     2.0752614       1.0981811
  16 STRETCH   7 17                     2.0752260       1.0981624
  17 STRETCH   7 16                     2.0760099       1.0985772
  18 STRETCH   8 18                     2.0699882       1.0953907
  19 BEND      1  2  3                  2.1054163     120.6314693
  20 BEND      1  2  4                  2.0894309     119.7155699
  21 BEND      2  1 10                  1.9404268     111.1782652
  22 BEND      2  4 13                  2.0896017     119.7253605
  23 BEND      2  3 12                  2.0922358     119.8762785
  24 BEND      2  1  9                  1.9595058     112.2714128
  25 BEND      2  1 11                  1.9295667     110.5560293
  26 BEND      2  3  5                  2.0995362     120.2945623
  27 BEND      2  4  6                  2.0962949     120.1088527
  28 BEND      3  5  8                  2.0881197     119.6404473
  29 BEND      3  2  4                  2.0883304     119.6525185
  30 BEND      3  5  7                  2.1018622     120.4278339
  31 BEND      4  6  8                  2.0980385     120.2087526
  32 BEND      4  6 14                  2.0925451     119.8940010
  33 BEND      5  3 12                  2.0914126     119.8291126
  34 BEND      5  7 17                  1.9442922     111.3997343
  35 BEND      5  7 16                  1.9278489     110.4576040
  36 BEND      5  8 18                  2.0903657     119.7691302
  37 BEND      5  8  6                  2.0960497     120.0948027
  38 BEND      5  7 15                  1.9573531     112.1480706
  39 BEND      6  8 18                  2.0967680     120.1359546
  40 BEND      6  4 13                  2.0972872     120.1657035
  41 BEND      7  5  8                  2.0931765     119.9301820
  42 BEND      8  6 14                  2.0926016     119.8972377
  43 BEND      9  1 10                  1.8780200     107.6026218
  44 BEND      9  1 11                  1.8767528     107.5300156
  45 BEND     10  1 11                  1.8761321     107.4944509
  46 BEND     15  7 16                  1.8765602     107.5189809
  47 BEND     15  7 17                  1.8777914     107.5895192
  48 BEND     16  7 17                  1.8765695     107.5195136
  49 TORSION   1  2  3  5              -3.1359620    -179.6773860
  50 TORSION   1  2  4  6               3.1368519     179.7283755
  51 TORSION   1  2  4 13              -0.0065702      -0.3764431
  52 TORSION   1  2  3 12               0.0070029       0.4012349
  53 TORSION   2  4  6  8               0.0000134       0.0007689
  54 TORSION   2  4  6 14               3.1410109     179.9666696
  55 TORSION   2  3  5  7               3.1320100     179.4509558
  56 TORSION   2  3  5  8              -0.0017064      -0.0977716
  57 TORSION   3  5  8  6               0.0011681       0.0669293
  58 TORSION   3  2  1  9              -0.2003808     -11.4809757
  59 TORSION   3  2  4 13               3.1392176     179.8639174
  60 TORSION   3  2  1 11               1.8954009     108.5984707
  61 TORSION   3  2  4  6              -0.0005457      -0.0312640
  62 TORSION   3  5  7 16              -1.7784967    -101.9003530
  63 TORSION   3  5  7 17               2.4203374     138.6751167
  64 TORSION   3  2  1 10              -2.3053586    -132.0873161
  65 TORSION   3  5  7 15               0.3144226      18.0150882
  66 TORSION   3  5  8 18              -3.1382978    -179.8112182
  67 TORSION   4  2  1 10               0.8404710      48.1554409
  68 TORSION   4  2  1 11              -1.2419549     -71.1587722
  69 TORSION   4  6  8 18               3.1391318     179.8590007
  70 TORSION   4  6  8  5              -0.0003263      -0.0186964
  71 TORSION   4  2  3  5               0.0013964       0.0800091
  72 TORSION   4  2  3 12              -3.1388240    -179.8413700
  73 TORSION   4  2  1  9               2.9454487     168.7617814
  74 TORSION   5  8  6 14              -3.1413238    -179.9845961
  75 TORSION   6  8  5  7              -3.1325880    -179.4840718
  76 TORSION   7  5  8 18               0.0111314       0.6377807
  77 TORSION   7  5  3 12              -0.0109542      -0.6276279
  78 TORSION   8  5  7 15              -2.8350691    -162.4374925
  79 TORSION   8  5  3 12               3.1385147     179.8236446
  80 TORSION   8  5  7 16               1.3551970      77.6470664
  81 TORSION   8  5  7 17              -0.7291543     -41.7774639
  82 TORSION   8  6  4 13              -3.1397417    -179.8939474
  83 TORSION  13  4  6 14               0.0012558       0.0719533
  84 TORSION  14  6  8 18              -0.0018657      -0.1068989

     ------------------------------------------
     THE POINT GROUP IS C1 , NAXIS= 1, ORDER= 1
     ------------------------------------------

     DIMENSIONS OF THE SYMMETRY SUBSPACES ARE
 A   =  212

 ..... DONE SETTING UP THE RUN .....
 STEP CPU TIME =     0.01 TOTAL CPU TIME =        0.0 (    0.0 MIN)
 TOTAL WALL CLOCK TIME=        0.0 SECONDS, CPU UTILIZATION IS  50.00%


          -----------------------------
          STATIONARY POINT LOCATION RUN
          -----------------------------

 OBTAINING INITIAL HESSIAN, HESS=GUESS   
 DIAGONAL GUESS HESSIAN IN INTERNAL COORDS IS
     1  0.3407     2  0.3410     3  0.3410     4  0.4001     5  0.4766
     6  0.4776     7  0.3418     8  0.4773     9  0.3428    10  0.4824
    11  0.4763    12  0.4001    13  0.3432    14  0.4822    15  0.3409
    16  0.3409    17  0.3406    18  0.3428    19  0.2616    20  0.2615
    21  0.2262    22  0.2320    23  0.2319    24  0.2262    25  0.2262
    26  0.2686    27  0.2690    28  0.2685    29  0.2686    30  0.2616
    31  0.2694    32  0.2324    33  0.2319    34  0.2262    35  0.2262
    36  0.2319    37  0.2689    38  0.2262    39  0.2323    40  0.2323
    41  0.2615    42  0.2324    43  0.2026    44  0.2026    45  0.2026
    46  0.2026    47  0.2026    48  0.2026    49  0.2500    50  0.2500
    51  0.2500    52  0.2500    53  0.2500    54  0.2500    55  0.2500
    56  0.2500    57  0.2500    58  0.2500    59  0.2500    60  0.2500
    61  0.2500    62  0.2500    63  0.2500    64  0.2500    65  0.2500
    66  0.2500    67  0.2500    68  0.2500    69  0.2500    70  0.2500
    71  0.2500    72  0.2500    73  0.2500    74  0.2500    75  0.2500
    76  0.2500    77  0.2500    78  0.2500    79  0.2500    80  0.2500
    81  0.2500    82  0.2500    83  0.2500    84  0.2500
 TRANSFORMING HESSIAN TO SYMMETRY COORDINATES

          PARAMETERS CONTROLLING GEOMETRY SEARCH ARE
          METHOD =QA                  UPHESS =BFGS    
          NNEG   =         0          NFRZ   =         3
          NSTEP  =        50          IFOLOW =         1
          HESS   =GUESS               RESTAR =         F
          IHREP  =         0          HSSEND =         F
          NPRT   =         0          NPUN   =         0
          OPTTOL = 5.000E-04          RMIN   = 1.500E-03
          RMAX   = 1.000E-01          RLIM   = 7.000E-02
          DXMAX  = 3.000E-01          PURIFY =         F
          MOVIE  =         F          TRUPD  =         T
          TRMAX  = 5.000E-01          TRMIN  = 5.000E-02
          ITBMAT =         5          STPT   =         F
          STSTEP = 1.000E-02          PROJCT=          F
          FROZEN COORD(S)=   1   2   3


      ***** EQUILIBRIUM GEOMETRY LOCATED *****
            (SUBJECT TO   3 CONSTRAINT(S))
 COORDINATES OF ALL ATOMS ARE (ANGS)
   ATOM   CHARGE       X              Y              Z
 ------------------------------------------------------------
 C           6.0   0.8644209386   3.7623474724   2.6182448107
 C           6.0   1.7877551754   2.7340636955   2.0225454060
 C           6.0   3.1522689218   2.7691541817   2.2689566296
 C           6.0   1.2772568527   1.7338389839   1.2043715009
 C           6.0   4.0090578507   1.8293364620   1.7117387590
 C           6.0   2.1198139546   0.7903137108   0.6446053227
 C           6.0   5.4906349725   1.8880100352   1.9700627845
 C           6.0   3.4805013709   0.8370394664   0.8972776886
 H           1.0   1.3692264597   4.3479093062   3.3768396613
 H           1.0   0.0029016693   3.2798839062   3.0663975015
 H           1.0   0.5083126857   4.4369159776   1.8452775285
 H           1.0   3.5554825556   3.5398743606   2.9051000387
 H           1.0   0.2195806976   1.6973870582   1.0108701706
 H           1.0   1.7169742464   0.0180650441   0.0136761377
 H           1.0   5.7105837375   2.4992158722   2.8370415124
 H           1.0   6.0030551782   2.3157895864   1.1130555551
 H           1.0   5.8852378036   0.8921501023   2.1358462865
 H           1.0   4.1358068208   0.1018772097   0.4643449068


                     --------------------
                     INTERNAL COORDINATES
                     --------------------

                 - - ATOMS - -         COORDINATE      COORDINATE
 NO.   TYPE    I  J  K  L  M  N        (BOHR,RAD)       (ANG,DEG)
 ----------------------------------------------------------------
   1 STRETCH   1 11                     2.0521886       1.0859715
   2 STRETCH   1 10                     2.0491352       1.0843557
   3 STRETCH   1  9                     2.0468249       1.0831332
   4 STRETCH   1  2                     2.8438784       1.5049158
   5 STRETCH   2  4                     2.6256085       1.3894123
   6 STRETCH   2  3                     2.6211035       1.3870283
   7 STRETCH   3 12                     2.0364104       1.0776220
   8 STRETCH   3  5                     2.6238193       1.3884655
   9 STRETCH   4 13                     2.0330592       1.0758487
  10 STRETCH   4  6                     2.6140318       1.3832862
  11 STRETCH   5  8                     2.6235033       1.3882983
  12 STRETCH   5  7                     2.8441755       1.5050730
  13 STRETCH   6 14                     2.0324172       1.0755089
  14 STRETCH   6  8                     2.6167737       1.3847371
  15 STRETCH   7 15                     2.0471953       1.0833292
  16 STRETCH   7 17                     2.0483554       1.0839431
  17 STRETCH   7 16                     2.0527950       1.0862924
  18 STRETCH   8 18                     2.0329443       1.0757879
  19 BEND      1  2  3                  2.1129453     121.0628489
  20 BEND      1  2  4                  2.0938792     119.9704437
  21 BEND      2  1 10                  1.9252114     110.3064861
  22 BEND      2  4 13                  2.0846283     119.4404017
  23 BEND      2  3 12                  2.0841061     119.4104858
  24 BEND      2  1  9                  1.9397912     111.1418465
  25 BEND      2  1 11                  1.9218402     110.1133316
  26 BEND      2  3  5                  2.1160551     121.2410251
  27 BEND      2  4  6                  2.1007886     120.3663193
  28 BEND      3  5  8                  2.0763655     118.9669770
  29 BEND      3  2  4                  2.0763395     118.9654919
  30 BEND      3  5  7                  2.1085116     120.8088178
  31 BEND      4  6  8                  2.0963184     120.1101942
  32 BEND      4  6 14                  2.0932508     119.9344368
  33 BEND      5  3 12                  2.0830240     119.3484841
  34 BEND      5  7 17                  1.9270820     110.4136628
  35 BEND      5  7 16                  1.9222834     110.1387272
  36 BEND      5  8 18                  2.0858981     119.5131598
  37 BEND      5  8  6                  2.1004987     120.3497093
  38 BEND      5  7 15                  1.9382215     111.0519129
  39 BEND      6  8 18                  2.0967865     120.1370168
  40 BEND      6  4 13                  2.0977662     120.1931471
  41 BEND      7  5  8                  2.0982504     120.2208914
  42 BEND      8  6 14                  2.0936142     119.9552592
  43 BEND      9  1 10                  1.8979686     108.7455916
  44 BEND      9  1 11                  1.8918026     108.3923052
  45 BEND     10  1 11                  1.8860057     108.0601689
  46 BEND     15  7 16                  1.8895914     108.2656098
  47 BEND     15  7 17                  1.8986719     108.7858884
  48 BEND     16  7 17                  1.8867623     108.1035170
  49 TORSION   1  2  3  5              -3.1315456    -179.4243484
  50 TORSION   1  2  4  6               3.1332997     179.5248478
  51 TORSION   1  2  4 13              -0.0105949      -0.6070433
  52 TORSION   1  2  3 12               0.0105002       0.6016157
  53 TORSION   2  4  6  8               0.0002572       0.0147379
  54 TORSION   2  4  6 14               3.1397459     179.8941883
  55 TORSION   2  3  5  7               3.1265131     179.1360057
  56 TORSION   2  3  5  8              -0.0035465      -0.2031967
  57 TORSION   3  5  8  6               0.0023784       0.1362733
  58 TORSION   3  2  1  9              -0.2020093     -11.5742821
  59 TORSION   3  2  4 13               3.1379227     179.7897290
  60 TORSION   3  2  1 11               1.8945575     108.5501484
  61 TORSION   3  2  4  6              -0.0013680      -0.0783800
  62 TORSION   3  5  7 16              -1.7766257    -101.7931531
  63 TORSION   3  5  7 17               2.4241011     138.8907602
  64 TORSION   3  2  1 10              -2.3085595    -132.2707164
  65 TORSION   3  5  7 15               0.3164506      18.1312854
  66 TORSION   3  5  8 18              -3.1370736    -179.7410782
  67 TORSION   4  2  1 10               0.8401062      48.1345369
  68 TORSION   4  2  1 11              -1.2399622     -71.0445983
  69 TORSION   4  6  8 18               3.1386676     179.8324074
  70 TORSION   4  6  8  5              -0.0007710      -0.0441761
  71 TORSION   4  2  3  5               0.0030438       0.1743949
  72 TORSION   4  2  3 12              -3.1380957    -179.7996410
  73 TORSION   4  2  1  9               2.9466563     168.8309712
  74 TORSION   5  8  6 14              -3.1402592    -179.9236012
  75 TORSION   6  8  5  7              -3.1277507    -179.2069137
  76 TORSION   7  5  8 18               0.0159826       0.9157348
  77 TORSION   7  5  3 12              -0.0155324      -0.8899425
  78 TORSION   8  5  7 15              -2.8368194    -162.5377775
  79 TORSION   8  5  3 12               3.1375933     179.7708551
  80 TORSION   8  5  7 16               1.3532896      77.5377839
  81 TORSION   8  5  7 17              -0.7291689     -41.7783027
  82 TORSION   8  6  4 13              -3.1390161    -179.8523742
  83 TORSION  13  4  6 14               0.0004726       0.0270761
  84 TORSION  14  6  8 18              -0.0008206      -0.0470177

          INTERNUCLEAR DISTANCES (ANGS.)


 =====================================================
   GAMESS/COSab RESULTS
 =====================================================

   Dielectric Constant                  = INFTY
   Basic Grid Size                      =                 1082
   Number of Segments                   =                   92
   Number of Segments located on spheres=                  279
   Number of Segments of the cavity     =                  679
   Solvent Radius (rsolv)               = 1.40
   Outlying Charge Error Method         = double cavity

 =====================================================

  Total solvated Energy (a.u.)          =  -308.8517312301
  Total Energy corrected (a.u.)         =  -308.8517673581

  Outlying charge effect (a.u.)         =    -0.0000361281
  Outlying charge effect (kcal/mol)     =    -0.0226707159

  Dielectric Energy (a.u.)              =    -0.0065641300
  Dielectric energy corr. (a.u.)        =    -0.0066002581

  Sum of polarization charges           =     0.0259532663
  Sum of polarization charges(cor.)     =    -0.0259532663

  Total surface area of cavity (A**2)   =  158.05
  Total volume of cavity (A**3)         =  151.42

 =====================================================
 NPS=                   679
NR.  ATOM  (X, Y, Z)(a.u.)                  CHARGE(e)  AREA(A**2) SIGMA(e/A**2)
   1   1   2.216635  10.802950   4.395594   0.000795   0.232280   0.003424
   2   1  -0.641046   9.384498   6.931775   0.000400   0.371649   0.001076
   3   1   0.962218   5.965838   8.486817   0.000952   0.325193   0.002928
   4   1  -1.190322   7.046550   2.436552   0.000116   0.092912   0.001251
   5   1  -1.571272   7.024299   2.946202   0.000572   0.185824   0.003076
   6   1   1.362103   7.016308   8.716290   0.001100   0.325193   0.003381
   7   1   0.337468   9.623294   7.455114   0.000547   0.418105   0.001309
   8   1   2.683197  10.738292   5.076166   0.001117   0.325193   0.003436
   9   1  -1.908113   8.068157   4.040777   0.001223   0.325193   0.003760
  10   1  -2.087221   7.377197   4.340462   0.000747   0.232280   0.003217
  11   1   3.997522   9.872863   3.917583   0.000358   0.232280   0.001542
  12   1   3.188620  10.381574   3.870059   0.001011   0.325193   0.003110
  13   1   1.255327  10.859029   5.238456   0.001736   0.511017   0.003396
  14   1   0.072965  10.298998   6.243102   0.000636   0.418105   0.001522
  15   1  -0.433722   8.624098   7.725822   0.000919   0.371649   0.002473
  16   1   0.445441   7.153405   8.535347   0.001437   0.371649   0.003865
  17   1   1.969034   5.850822   8.495525   0.000786   0.325193   0.002416
  18   1   2.736545   5.451832   8.160037   0.000162   0.185824   0.000872
  19   1   3.236244   9.112487   2.172005   0.000028   0.092912   0.000300
  20   1  -1.487710   9.236081   4.802584   0.000846   0.371649   0.002277
  21   1  -1.067617   9.597869   5.840843   0.000606   0.464561   0.001304
  22   1  -1.373311   8.616412   6.672086   0.000461   0.325193   0.001418
  23   1   1.173552   4.995640   8.046629   0.000345   0.232280   0.001484
  24   1   1.239935   4.264225   7.403779   0.000101   0.092912   0.001082
  25   1  -1.888672   6.824143   3.607313   0.000996   0.278737   0.003574
  26   1   2.610940   6.454939   8.539424   0.000392   0.232280   0.001689
  27   1   0.396733   8.333367   8.302974   0.000789   0.278737   0.002830
  28   1   0.989664  10.598102   6.252152   0.000526   0.278737   0.001887
  29   1   3.797890  10.201087   4.738659   0.000519   0.278737   0.001862
  30   1  -1.871149   8.432314   5.450222   0.001044   0.418105   0.002496
  31   1   3.493634   9.707200   2.928409   0.000430   0.278737   0.001543
  32   1  -0.244083  10.382943   5.160781   0.000560   0.371649   0.001506
  33   1  -0.347453   7.739681   8.104215   0.000563   0.232280   0.002422
  34   1   1.902866   4.908931   8.008457   0.000326   0.185824   0.001756
  35   2   1.882933   3.020154   6.549799   0.000690   0.139368   0.004952
  36   2   3.124971   3.626089   7.263971   0.001004   0.232280   0.004324
  37   2   2.490335   3.186961   6.916659   0.000765   0.185824   0.004118
  38   2   2.746713   2.611470   6.534333   0.000498   0.139368   0.003573
  39   2   4.307948   6.882014   0.585145   0.002579   0.371649   0.006940
  40   2   4.200061   7.965853   1.419265   0.000874   0.185824   0.004703
  41   2   3.335635   7.357389   0.742609   0.001374   0.325193   0.004226
  42   2   3.443191   2.665536   6.654829   0.001620   0.232280   0.006974
  43   3   5.964310   6.718852   0.812621   0.000836   0.092912   0.008996
  44   3   7.959504   7.809410   2.380966   0.000687   0.139368   0.004930
  45   3   6.316544   4.431108   7.963578   0.001867   0.371649   0.005022
  46   3   7.046494   5.207085   7.906608   0.000722   0.232280   0.003109
  47   3   6.298878   8.980109   3.932747   0.000245   0.139368   0.001759
  48   3   8.027720   8.266938   3.398410   0.000731   0.232280   0.003145
  49   3   7.466601   8.307065   2.689326   0.001053   0.232280   0.004535
  50   3   6.205642   8.768812   2.976238   0.001447   0.325193   0.004449
  51   3   5.290559   4.954739   7.997540   0.001453   0.325193   0.004467
  52   3   7.324716   4.402485   7.711706   0.000816   0.232280   0.003514
  53   3   7.382985   7.649845   1.756085   0.002329   0.325193   0.007163
  54   3   6.658506   7.109222   1.082781   0.001533   0.232280   0.006598
  55   3   5.977790   7.553955   1.304980   0.001745   0.185824   0.009391
  56   3   5.978593   8.340478   2.136675   0.001355   0.232280   0.005835
  57   3   5.186349   3.751396   7.678216   0.003543   0.511017   0.006933
  58   3   6.560279   3.362409   7.515922   0.002740   0.418105   0.006553
  59   3   5.990024   5.659083   8.042915   0.000867   0.278737   0.003111
  60   3   7.089714   8.739512   3.448103   0.001099   0.278737   0.003942
  61   3   5.325316   2.615413   6.939864   0.003744   0.464561   0.008059
  62   3   6.643318   8.097102   1.919239   0.001654   0.278737   0.005933
  63   4   2.910678   1.244091   5.423419   0.000847   0.092912   0.009115
  64   4   0.488160   0.210624   3.360949   0.001372   0.325193   0.004219
  65   4   1.290441   5.010209  -0.888996   0.001391   0.278737   0.004990
  66   4   0.337446   4.612795  -0.585505   0.000941   0.278737   0.003376
  67   4  -0.227037   0.721182   3.159934   0.000837   0.278737   0.003002
  68   4   0.117922   1.747153  -0.307664  -0.000193   0.092912  -0.002075
  69   4  -0.026125   0.391879   2.172033   0.000253   0.185824   0.001362
  70   4   0.231666   0.865882   4.202646   0.001576   0.325193   0.004847
  71   4   0.029438   1.899834   4.865267   0.001085   0.278737   0.003892
  72   4   0.921968   5.645729  -0.262914   0.001235   0.278737   0.004432
  73   4   1.069597   3.864010  -1.207242   0.001823   0.371649   0.004905
  74   4   0.407006   2.572937  -0.848580   0.000398   0.185824   0.002140
  75   4   1.189482   0.475654   4.498783   0.002497   0.325193   0.007679
  76   4   2.271632   0.790086   5.118814   0.001504   0.232280   0.006475
  77   4   1.971584   1.447051   5.553443   0.001735   0.185824   0.009336
  78   4   0.907256   1.851661   5.435832   0.001444   0.232280   0.006217
  79   4   2.162553   5.850338  -0.480227   0.003280   0.464561   0.007061
  80   4   2.197547   4.692136  -1.221697   0.002566   0.418105   0.006137
  81   4   0.111875   5.276484   0.042995   0.000627   0.232280   0.002700
  82   4  -0.448183   1.740792   4.208763   0.000927   0.278737   0.003324
  83   4  -0.067547   0.562722   1.402215   0.000061   0.092912   0.000657
  84   4   0.401503   3.457927  -0.918205   0.000678   0.232280   0.002918
  85   4   3.425312   5.450660  -0.645317   0.004096   0.464561   0.008817
  86   4   1.118762   1.135521   5.108572   0.002006   0.325193   0.006169
  87   5   8.565164   4.890826  -0.119363   0.000590   0.092912   0.006347
  88   5   8.433329   6.346081   0.953880   0.000389   0.092912   0.004192
  89   5   8.275859   5.818530   0.368110   0.000953   0.185824   0.005129
  90   5   7.841123   5.335179  -0.034264   0.000429   0.139368   0.003078
  91   5   6.414594   1.270543   6.090407   0.002680   0.371649   0.007211
  92   5   7.508083   1.783639   6.622883   0.001516   0.325193   0.004661
  93   5   7.636134   0.727689   5.848481   0.001625   0.371649   0.004372
  94   5   7.421411   5.810977   0.281936   0.001754   0.232280   0.007552
  95   6   3.937101  -0.029942   4.676255   0.001099   0.139368   0.007885
  96   6   4.391447  -2.128710   2.225759   0.000950   0.278737   0.003408
  97   6   1.454294  -1.044572   2.372232   0.001043   0.278737   0.003743
  98   6   3.909319   2.279477  -2.477439   0.001385   0.371649   0.003725
  99   6   3.529166   1.243536  -2.522809   0.000848   0.371649   0.002281
 100   6   1.233567   1.313885  -1.344362  -0.000001   0.092912  -0.000011
 101   6   1.091214  -0.896858   1.492491   0.000398   0.278737   0.001429
 102   6   3.845369  -2.261655   1.614931   0.000522   0.278737   0.001874
 103   6   5.196778  -0.550299  -1.729590  -0.000152   0.092912  -0.001631
 104   6   4.717267  -2.212754   1.013137   0.000109   0.185824   0.000589
 105   6   3.397487  -1.959854   2.628298   0.001177   0.325193   0.003620
 106   6   2.185189  -1.436296   2.762712   0.000819   0.232280   0.003528
 107   6   1.691069   1.690109  -1.763033   0.000256   0.185824   0.001378
 108   6   2.678688   2.411819  -2.199407   0.001682   0.418105   0.004023
 109   6   4.896320   1.342211  -2.451826   0.001436   0.371649   0.003863
 110   6   5.206788   0.194337  -2.121687   0.000553   0.185824   0.002975
 111   6   3.971595  -1.559744   3.445428   0.002100   0.325193   0.006459
 112   6   3.865934  -0.803931   4.215880   0.001208   0.232280   0.005199
 113   6   3.168200  -0.563772   4.275939   0.002023   0.232280   0.008709
 114   6   2.193257  -0.866312   3.548364   0.001175   0.278737   0.004217
 115   6   3.683645   3.403017  -2.027508   0.003118   0.511017   0.006101
 116   6   4.933399   2.723878  -2.232980   0.002067   0.418105   0.004944
 117   6   2.415290   1.596234  -2.208795   0.000428   0.232280   0.001841
 118   6   2.488512  -1.857326   2.086428   0.000853   0.325193   0.002624
 119   6   5.016648  -2.032015   0.305163   0.000027   0.092912   0.000286
 120   6   4.538958   0.528235  -2.396904   0.000199   0.185824   0.001071
 121   6   4.734872   4.057823  -1.460868   0.003537   0.464561   0.007613
 122   6   2.958660  -1.320876   3.513112   0.001289   0.278737   0.004624
 123   7  12.098337   2.114913   6.757048   0.000791   0.232280   0.003403
 124   7  14.048964   4.307415   4.217954   0.000424   0.371649   0.001141
 125   7  11.767547   7.036423   3.160707   0.001086   0.325193   0.003338
 126   7  12.097276   1.028692   1.515243   0.000333   0.139368   0.002388
 127   7  11.577783   2.137528   0.437487   0.000160   0.092912   0.001717
 128   7  11.736351   7.065506   4.169297   0.000802   0.278737   0.002877
 129   7  13.637224   4.890529   5.100477   0.000570   0.418105   0.001363
 130   7  11.750677   2.727194   7.141549   0.001080   0.325193   0.003321
 131   7  13.256230   1.804358   2.026526   0.001225   0.325193   0.003767
 132   7  13.087402   2.270486   1.431935   0.000739   0.232280   0.003182
 133   7   9.442999   2.499346   7.226092   0.000439   0.325193   0.001351
 134   7  10.535763   2.109469   7.205964   0.001089   0.371649   0.002930
 135   7  12.978686   2.618007   6.293304   0.001596   0.464561   0.003435
 136   7  13.821060   3.500867   5.275277   0.000610   0.418105   0.001459
 137   7  13.680410   5.401848   3.712161   0.001001   0.418105   0.002393
 138   7  12.745154   6.508248   3.567154   0.001310   0.325193   0.004027
 139   7  10.871428   7.313938   3.651092   0.000784   0.325193   0.002411
 140   7   9.554723   0.682743   6.022108   0.000072   0.139368   0.000514
 141   7  11.146516   1.611068   6.863163   0.000771   0.232280   0.003319
 142   7  13.878492   2.220376   3.275868   0.000811   0.371649   0.002182
 143   7  14.124578   3.148185   3.957015   0.000595   0.464561   0.001281
 144   7  14.058424   4.179792   3.132952   0.000449   0.325193   0.001381
 145   7  10.554519   7.121851   2.449643   0.000557   0.371649   0.001500
 146   7   9.842793   6.565877   1.484178  -0.000026   0.046456  -0.000567
 147   7  12.252911   1.717971   1.013854   0.001310   0.371649   0.003525
 148   7  13.186900   6.022863   4.318436   0.000881   0.325193   0.002708
 149   7  13.318255   3.574380   6.094829   0.000502   0.278737   0.001801
 150   7  10.192295   2.990877   7.453523   0.000387   0.232280   0.001664
 151   7  13.911936   3.011195   2.510370   0.001046   0.418105   0.002502
 152   7   9.716957   1.326831   6.694103   0.000796   0.418105   0.001905
 153   7  13.743062   2.409463   4.989377   0.000563   0.371649   0.001516
 154   8   6.530634   4.439403  -0.777445   0.000836   0.092912   0.008993
 155   8   6.805160   1.366574  -2.070808   0.001381   0.325193   0.004246
 156   8   6.906749  -1.637363   3.648260   0.001403   0.278737   0.005035
 157   8   7.514506  -1.908313   2.802411   0.001072   0.278737   0.003846
 158   8   9.305698   1.748548  -0.914296   0.000231   0.139368   0.001659
 159   8   7.398618   0.782334  -1.905826   0.000639   0.232280   0.002752
 160   8   6.264176  -1.874993   0.199940  -0.000229   0.092912  -0.002469
 161   8   6.744176   0.093999  -1.774669   0.000216   0.185824   0.001162
 162   8   7.713473   1.954582  -1.889645   0.001541   0.325193   0.004737
 163   8   8.725457   2.355027  -1.316234   0.001326   0.325193   0.004078
 164   8   7.838170  -1.250693   3.856940   0.001420   0.325193   0.004366
 165   8   6.311731  -2.057025   2.681998   0.001826   0.371649   0.004913
 166   8   6.257487  -2.150179   1.191054   0.000461   0.185824   0.002480
 167   8   6.947462   2.709967  -1.892463   0.002482   0.325193   0.007633
 168   8   6.612407   3.825027  -1.345898   0.001547   0.232280   0.006660
 169   8   7.372263   4.047201  -1.056430   0.001664   0.185824   0.008952
 170   8   8.301816   3.384828  -1.143200   0.001462   0.232280   0.006293
 171   8   6.958676  -0.764795   4.633703   0.003623   0.511017   0.007089
 172   8   5.936636  -1.436181   3.878715   0.002578   0.418105   0.006166
 173   8   8.249528  -1.548832   2.994401   0.000425   0.185824   0.002289
 174   8   8.415856   1.434741  -1.603157   0.000844   0.232280   0.003635
 175   8   6.523557  -0.570938  -1.410378   0.000062   0.092912   0.000663
 176   8   6.703525  -2.186461   1.957748   0.000643   0.232280   0.002767
 177   8   5.714818  -0.266495   4.877519   0.004048   0.464561   0.008714
 178   8   7.621679   3.203431  -1.554537   0.001982   0.325193   0.006096
 179   9   3.066275   9.754196   8.236273  -0.002750   0.431809  -0.006369
 180   9   3.759683  10.374607   6.326543  -0.001455   0.412182  -0.003530
 181   9   2.524558   8.470301   8.823976  -0.001503   0.392554  -0.003828
 182   9   1.884794  10.138461   7.740313  -0.001216   0.353299  -0.003443
 183   9   4.031194   9.958289   7.338613  -0.002777   0.412182  -0.006737
 184   9   3.944751   9.048355   8.252307  -0.002759   0.392554  -0.007029
 185   9   3.451057   7.912513   8.660989  -0.002322   0.451437  -0.005143
 186   9   1.954543   9.275199   8.505775  -0.001520   0.392554  -0.003872
 187   9   2.766415  10.554573   7.113332  -0.001972   0.471065  -0.004187
 188  10  -1.984334   5.329427   6.944044  -0.003483   0.529948  -0.006572
 189  10  -2.264653   5.646062   5.035160  -0.001530   0.314043  -0.004873
 190  10  -2.319944   6.887221   6.185183  -0.001165   0.353299  -0.003299
 191  10  -1.126132   6.434244   7.962301  -0.001194   0.372926  -0.003200
 192  10  -0.189037   4.617213   7.664967  -0.001226   0.372926  -0.003288
 193  10  -1.842429   4.587326   5.955128  -0.003120   0.451437  -0.006912
 194  10  -2.445000   6.032764   5.741237  -0.001822   0.392554  -0.004641
 195  10  -1.954155   6.681734   7.194983  -0.002175   0.471065  -0.004618
 196  10  -0.938278   5.405467   7.919767  -0.002196   0.471065  -0.004662
 197  10  -0.923705   4.216860   6.911089  -0.002979   0.490692  -0.006071
 198  11   0.123753   9.951251   1.789936  -0.003938   0.588831  -0.006688
 199  11  -1.281874   8.754601   2.554543  -0.000898   0.314043  -0.002859
 200  11   0.144682   8.632779   1.183206  -0.002098   0.353299  -0.005938
 201  11   1.970976   9.469806   1.528406  -0.001234   0.353299  -0.003492
 202  11   1.351300  10.762088   3.007777  -0.001176   0.372926  -0.003154
 203  11  -0.578440  10.299297   3.504054  -0.001387   0.412182  -0.003365
 204  11  -0.731867   8.456191   1.707852  -0.002053   0.431809  -0.004754
 205  11   1.065319   9.103342   1.140277  -0.002427   0.412182  -0.005889
 206  11   1.626111  10.265315   2.053596  -0.002229   0.471065  -0.004733
 207  11   0.306338  10.708709   3.033917  -0.002243   0.471065  -0.004762
 208  11  -0.979341   9.662252   2.687495  -0.002246   0.471065  -0.004769
 209  12   7.547554   8.419065   7.024990  -0.003222   0.392554  -0.008207
 210  12   8.231526   8.578127   5.065915  -0.001487   0.255160  -0.005828
 211  12   7.137724   6.790781   7.908399  -0.001709   0.372926  -0.004582
 212  12   6.896936   9.120023   5.180865  -0.001403   0.274788  -0.005105
 213  12   8.330862   8.392770   6.221387  -0.002987   0.353299  -0.008455
 214  12   7.913607   7.430898   7.504274  -0.002811   0.333671  -0.008425
 215  12   6.863560   7.800931   7.675864  -0.002634   0.314043  -0.008387
 216  12   7.040191   8.982141   6.311556  -0.002722   0.314043  -0.008667
 217  12   7.692933   8.944493   5.519581  -0.001459   0.255160  -0.005719
 218  13  -1.879770   2.943702   1.073787  -0.003766   0.471065  -0.007994
 219  13  -1.281491   1.443848   2.125551  -0.001778   0.392554  -0.004529
 220  13  -0.921537   2.195898   0.114333  -0.002091   0.353299  -0.005919
 221  13  -1.116240   4.464415   0.457349  -0.002090   0.392554  -0.005325
 222  13  -1.547299   2.374686   3.131285  -0.002120   0.372926  -0.005685
 223  13  -1.276037   1.702472   0.956194  -0.002775   0.412182  -0.006733
 224  13  -1.132948   3.354728   0.008301  -0.002660   0.471065  -0.005647
 225  13  -1.755757   4.189821   1.311647  -0.003473   0.431809  -0.008042
 226  13  -1.979765   3.495959   2.376359  -0.003583   0.412182  -0.008694
 227  13  -1.874095   2.330406   2.071115  -0.002558   0.353299  -0.007240
 228  14   2.378196  -1.714733  -1.466100  -0.005402   0.608459  -0.008879
 229  14   3.417539  -2.414489  -0.071424  -0.002323   0.412182  -0.005636
 230  14   4.238484  -1.396885  -1.706059  -0.002141   0.353299  -0.006060
 231  14   2.724323  -0.107188  -2.370905  -0.001771   0.353299  -0.005013
 232  14   1.060334  -0.306510  -1.045604  -0.002339   0.333671  -0.007010
 233  14   1.423688  -1.576511   0.379671  -0.001578   0.333671  -0.004730
 234  14   3.800257  -2.095843  -1.064825  -0.003614   0.490692  -0.007366
 235  14   3.380751  -0.920097  -2.233800  -0.003275   0.490692  -0.006673
 236  14   1.755613  -0.350167  -1.889956  -0.003440   0.510320  -0.006740
 237  14   1.241128  -1.236558  -0.611742  -0.003561   0.490692  -0.007257
 238  14   2.313948  -2.239401   0.020155  -0.003735   0.549575  -0.006796
 239  15  11.454177   6.259653   7.159590  -0.003048   0.451437  -0.006751
 240  15  11.588239   4.145823   7.612289  -0.000980   0.353299  -0.002775
 241  15  10.347453   4.500422   7.767167  -0.001338   0.314043  -0.004261
 242  15  11.927153   6.885167   5.625032  -0.001033   0.333671  -0.003097
 243  15  12.863895   5.288703   6.552788  -0.001326   0.372926  -0.003557
 244  15  11.298222   5.109987   7.733656  -0.002004   0.353299  -0.005673
 245  15  10.528440   5.765071   7.570237  -0.002396   0.333671  -0.007181
 246  15  11.199329   6.979081   6.243338  -0.002591   0.412182  -0.006286
 247  15  12.546721   6.210357   6.222258  -0.001908   0.431809  -0.004420
 248  15  12.350959   4.924328   7.248662  -0.001885   0.392554  -0.004802
 249  16  12.600427   5.368660   0.240064  -0.004067   0.608459  -0.006684
 250  16  10.882992   5.078440  -0.205169  -0.001385   0.274788  -0.005039
 251  16  12.084831   3.417046  -0.033573  -0.001405   0.372926  -0.003768
 252  16  13.604842   4.129497   1.174138  -0.001211   0.353299  -0.003428
 253  16  13.043883   6.132316   1.854263  -0.001211   0.372926  -0.003247
 254  16  11.194174   6.604670   1.080347  -0.001185   0.353299  -0.003355
 255  16  11.659427   4.424223  -0.332494  -0.002741   0.471065  -0.005819
 256  16  12.994307   3.872511   0.354551  -0.002225   0.490692  -0.004533
 257  16  13.537566   5.205205   1.370736  -0.002287   0.490692  -0.004661
 258  16  12.294606   6.452453   1.197319  -0.002202   0.471065  -0.004674
 259  16  11.184090   5.945656   0.220196  -0.002650   0.490692  -0.005401
 260  17  12.331699  -0.390289   4.545930  -0.003081   0.471065  -0.006542
 261  17  12.469657   0.149329   2.673665  -0.001414   0.392554  -0.003601
 262  17  10.482594  -0.295262   5.340730  -0.001714   0.353299  -0.004851
 263  17  12.054544   0.543329   6.000605  -0.001214   0.372926  -0.003254
 264  17  13.380346   0.822113   4.467995  -0.001357   0.412182  -0.003293
 265  17  11.886031  -0.536872   3.322179  -0.002757   0.431809  -0.006385
 266  17  11.143591  -0.753659   4.324440  -0.003035   0.431809  -0.007029
 267  17  11.302394  -0.116607   5.695477  -0.001885   0.412182  -0.004572
 268  17  12.803109   0.450926   5.333103  -0.001992   0.431809  -0.004613
 269  17  13.114849   0.335706   3.547789  -0.001721   0.392554  -0.004385
 270  18   9.054656  -1.567117  -0.307141  -0.003470   0.431809  -0.008036
 271  18   8.148475  -0.652237  -1.405197  -0.001822   0.372926  -0.004885
 272  18   7.438901  -2.068784  -0.005525  -0.001893   0.353299  -0.005357
 273  18   8.732802  -1.936758   1.689802  -0.001690   0.353299  -0.004783
 274  18   9.586798   0.263643  -0.823309  -0.001895   0.333671  -0.005680
 275  18   7.859938  -1.581520  -0.821304  -0.003164   0.451437  -0.007008
 276  18   8.206460  -2.229492   0.750638  -0.002874   0.471065  -0.006100
 277  18   9.464678  -1.628286   0.868828  -0.003619   0.431809  -0.008381
 278  18   9.883547  -0.741542  -0.063773  -0.003509   0.392554  -0.008940
 279  18   9.049805  -0.474180  -1.139245  -0.002469   0.392554  -0.006290
 280   1   4.131398   8.738285   2.440993   0.000077   0.051389   0.001504
 281   2   4.447726   8.434337   2.220256   0.000197   0.051389   0.003828
 282   3   4.887569   8.412958   2.323600   0.000284   0.051389   0.005533
 283   1   3.277203   4.915766   7.715379   0.000064   0.051389   0.001246
 284   2   3.582741   4.563530   7.561270   0.000226   0.051389   0.004406
 285   3   4.032522   4.586627   7.603246   0.000365   0.051389   0.007107
 286   1   0.938828   3.950477   6.916273  -0.000040   0.026419  -0.001522
 287   2   1.251504   3.644378   6.694450   0.000003   0.026419   0.000122
 288  10   0.642545   4.008070   6.924718  -0.000098   0.026419  -0.003715
 289   1   3.051915   8.777422   1.857922  -0.000020   0.026781  -0.000748
 290   2   3.340452   8.416180   1.693824   0.000048   0.026781   0.001792
 291  11   2.785377   8.904033   1.790295  -0.000064   0.026781  -0.002371
 292   2   3.881002   8.357617   1.796733   0.000343   0.144070   0.002378
 293   1   3.574935   8.885345   2.188161   0.000105   0.144070   0.000732
 294   2   2.991001   4.263974   7.483630   0.000368   0.198621   0.001855
 295   2   1.868640   3.583655   6.918326   0.000306   0.198621   0.001542
 296   1   2.001550   4.426322   7.446525  -0.000098   0.402575  -0.000243
 297   1   3.753640   6.502251   8.072930  -0.000123   0.070253  -0.001749
 298   3   4.496456   6.181068   7.884571  -0.000034   0.070253  -0.000479
 299   9   3.820456   6.794611   8.119052  -0.000242   0.070253  -0.003448
 300   1   4.984842   9.289351   4.689412  -0.000146   0.066504  -0.002190
 301   3   5.767090   9.037657   4.568231  -0.000153   0.066504  -0.002297
 302  12   5.922086   9.043443   4.825524  -0.000300   0.066504  -0.004518
 303   3   5.257148   8.711617   2.696132   0.001089   0.321188   0.003390
 304   3   5.619851   9.095131   3.981351   0.000389   0.321188   0.001211
 305   1   4.348421   9.335751   3.517351  -0.000002   0.644260  -0.000003
 306   3   4.591560   5.347957   7.901136   0.001022   0.403658   0.002531
 307   1   3.393695   5.554324   8.016399   0.000289   0.403658   0.000716
 308   1   4.588714   9.558766   5.295851  -0.000269   0.085911  -0.003131
 309   9   4.595437   9.589612   5.598719  -0.000380   0.085911  -0.004419
 310  12   5.481048   9.174512   5.410398  -0.000423   0.085911  -0.004923
 311   9   4.045994  10.064576   5.682928  -0.000271   0.069383  -0.003905
 312   9   3.067450  10.533367   5.972225  -0.000487   0.154496  -0.003152
 313   9   1.948879  10.503267   6.739801  -0.000552   0.154496  -0.003571
 314   9   1.335264   9.777525   7.708332  -0.000603   0.154496  -0.003905
 315   9   1.486304   8.663295   8.467908  -0.000454   0.154496  -0.002938
 316   9   2.338075   7.632151   8.697056  -0.000481   0.154496  -0.003112
 317   9   3.303973   7.113058   8.455003  -0.000245   0.069383  -0.003535
 318   1   3.581513  10.265136   5.362230  -0.000306   0.151642  -0.002021
 319   1   2.234047  10.650118   5.961715  -0.000214   0.151642  -0.001411
 320   1   1.205231  10.201192   6.992860  -0.000396   0.151642  -0.002613
 321   1   0.930488   9.108356   8.019254  -0.000348   0.151642  -0.002297
 322   1   1.526099   7.834131   8.606498  -0.000188   0.151642  -0.001243
 323   1   2.739983   6.917805   8.506053  -0.000333   0.151642  -0.002199
 324   1  -1.653961   5.535617   3.751100  -0.000101   0.082248  -0.001226
 325  10  -1.726419   5.430310   4.027485  -0.000299   0.082248  -0.003635
 326  13  -1.553689   4.762018   3.175739  -0.000400   0.082248  -0.004868
 327  10   0.361870   4.289326   7.296820  -0.000231   0.070785  -0.003264
 328  10   0.200427   5.200015   7.966875  -0.000563   0.158180  -0.003558
 329  10  -0.394529   6.430713   8.148063  -0.000477   0.158180  -0.003013
 330  10  -1.227175   7.328413   7.513829  -0.000571   0.158180  -0.003608
 331  10  -1.933042   7.500169   6.341792  -0.000613   0.158180  -0.003877
 332  10  -2.203154   6.870798   5.144983  -0.000411   0.158180  -0.002600
 333  10  -2.047173   5.963906   4.468516  -0.000199   0.070785  -0.002810
 334   1   0.739435   4.649134   7.602909  -0.000429   0.154193  -0.002780
 335   1   0.327771   5.991421   8.256584  -0.000268   0.154193  -0.001735
 336   1  -0.521749   7.257963   7.986991  -0.000309   0.154193  -0.002001
 337   1  -1.437270   7.894362   6.912136  -0.000372   0.154193  -0.002411
 338   1  -2.018044   7.622050   5.502511  -0.000267   0.154193  -0.001729
 339   1  -2.009851   6.560225   4.375145  -0.000252   0.154193  -0.001633
 340   1  -0.694725   6.722650   1.950468  -0.000062   0.050165  -0.001241
 341  11  -0.619211   7.008500   1.886016  -0.000179   0.050165  -0.003572
 342  13  -0.680167   5.826234   1.586464  -0.000179   0.050165  -0.003577
 343  11  -0.907819   7.669662   2.061707  -0.000226   0.069230  -0.003262
 344  11  -1.353498   8.329992   2.843313  -0.000482   0.153796  -0.003131
 345  11  -1.220520   9.371289   3.690795  -0.000462   0.153796  -0.003007
 346  11  -0.341089  10.307762   4.102896  -0.000545   0.153796  -0.003543
 347  11   0.918695  10.749567   3.908060  -0.000419   0.153796  -0.002722
 348  11   2.034394  10.512783   3.187397  -0.000500   0.153796  -0.003250
 349  11   2.541554   9.695982   2.240913  -0.000614   0.153796  -0.003990
 350   1  -1.206639   7.551681   2.566744  -0.000254   0.151673  -0.001674
 351   1  -1.524617   8.592471   3.621548  -0.000122   0.151673  -0.000805
 352   1  -0.923850   9.766088   4.368989  -0.000327   0.151673  -0.002154
 353   1   0.345568  10.583964   4.497915  -0.000296   0.151673  -0.001952
 354   1   1.755190  10.705624   3.954655  -0.000140   0.151673  -0.000925
 355   1   2.718201  10.080422   2.965363  -0.000260   0.151673  -0.001717
 356   1   2.959907   9.227766   2.109886  -0.000137   0.084580  -0.001623
 357  12   6.045646   9.164743   5.085271  -0.000240   0.099565  -0.002409
 358   1   4.696881   9.670822   4.969273   0.000170   0.141135   0.001205
 359  13  -1.647679   4.633964   2.406247  -0.001514   0.265501  -0.005704
 360  13  -1.159020   5.181203   1.507184  -0.001338   0.265501  -0.005040
 361   1  -1.352527   6.102508   2.711662  -0.000013   0.737899  -0.000018
 362   2   3.978531   2.007193   5.833198   0.000739   0.048642   0.015183
 363   3   4.425270   2.048277   5.890927   0.000609   0.048642   0.012517
 364   4   3.807322   1.707120   5.540030   0.000600   0.048642   0.012338
 365   2   4.852967   5.985045   0.424607   0.000623   0.048642   0.012812
 366   3   5.290480   5.984158   0.539403   0.000578   0.048642   0.011887
 367   4   4.672515   5.642925   0.188607   0.000548   0.048642   0.011267
 368   3   5.540550   6.680365   0.834214   0.002046   0.210759   0.009710
 369   3   5.333525   7.987903   1.794402   0.001492   0.210759   0.007078
 370   2   4.792892   7.286461   1.240342   0.003240   0.433262   0.007479
 371   3   4.418485   3.878954   7.446497   0.001376   0.214668   0.006408
 372   3   4.620910   2.511123   6.520377   0.002017   0.214668   0.009397
 373   2   3.889312   3.209401   6.824440   0.003374   0.442201   0.007629
 374   2   1.123504   3.183846   6.178407   0.000250   0.091937   0.002723
 375   4   0.969913   2.875663   5.881213   0.000495   0.091937   0.005382
 376  10   0.552059   3.621504   6.375407  -0.000109   0.091937  -0.001187
 377   2   2.252440   7.128620   0.758952   0.000307   0.083678   0.003673
 378   4   2.088739   6.772205   0.530110   0.000553   0.083678   0.006614
 379  11   1.786518   7.656339   1.003206  -0.000066   0.083678  -0.000793
 380   4   3.036947   1.610337   5.602112   0.002026   0.203687   0.009948
 381   4   1.581848   2.196793   5.793086   0.001486   0.203687   0.007293
 382   2   2.554300   2.399366   6.041052   0.003380   0.417184   0.008101
 383   4   2.674313   6.329271   0.059421   0.001380   0.185574   0.007439
 384   4   3.999379   5.770055  -0.083720   0.001494   0.185574   0.008050
 385   2   3.569040   6.493709   0.402504   0.002808   0.377310   0.007443
 386  10   0.354467   3.921821   6.831389  -0.000180   0.069085  -0.002600
 387   2   1.270286   3.349610   6.563889   0.000252   0.097481   0.002584
 388  11   2.252345   8.685938   1.458590  -0.001395   0.316627  -0.004407
 389   2   2.811724   7.760999   1.078496   0.000782   0.445459   0.001755
 390   3   5.339838   5.603568   0.382580   0.000826   0.102115   0.008093
 391   4   4.735143   5.291982  -0.017331   0.000948   0.102115   0.009279
 392   6   5.005446   4.969690  -0.187599   0.000933   0.102115   0.009141
 393   3   4.503394   1.771763   5.582226   0.000855   0.102115   0.008378
 394   4   3.883725   1.391586   5.275393   0.001028   0.102115   0.010069
 395   6   4.158900   1.091612   5.074840   0.000955   0.102115   0.009349
 396   4   4.642705   5.529930  -0.026814   0.000050   0.006870   0.007290
 397   3   5.526945   6.012347   0.472345   0.000128   0.006870   0.018635
 398   4   3.757611   1.468853   5.481487   0.000071   0.009048   0.007893
 399   3   4.634555   1.959218   5.985765   0.000152   0.009048   0.016843
 400   3   8.397282   6.973967   1.812515   0.000377   0.051620   0.007299
 401   5   8.690061   6.696718   1.606485   0.000173   0.051620   0.003360
 402   7   9.168602   6.680467   1.715890   0.000049   0.051620   0.000943
 403   3   7.626929   3.135142   7.102582   0.000272   0.051620   0.005270
 404   5   7.910775   2.813377   6.957896   0.000172   0.051620   0.003329
 405   7   8.399009   2.845427   7.000740   0.000065   0.051620   0.001262
 406   3   5.202841   1.732517   5.783561   0.000590   0.048653   0.012136
 407   5   5.468435   1.401276   5.626200   0.000591   0.048653   0.012145
 408   8   5.311015   1.095748   5.331500   0.000565   0.048653   0.011621
 409   3   6.046929   5.674237   0.433328   0.000589   0.048653   0.012110
 410   5   6.321535   5.385081   0.218843   0.000627   0.048653   0.012895
 411   8   6.155104   5.037473  -0.018739   0.000564   0.048653   0.011582
 412   5   7.237653   2.463606   6.850574   0.001225   0.215590   0.005680
 413   5   5.936312   1.701960   6.134200   0.001755   0.215590   0.008142
 414   3   6.192517   2.553299   6.708708   0.003781   0.444239   0.008510
 415   5   6.819016   5.878291   0.447648   0.001885   0.209150   0.009012
 416   5   8.076175   6.583696   1.190942   0.001225   0.209150   0.005858
 417   3   7.040340   6.639658   1.120268   0.003707   0.429537   0.008631
 418   3   5.717730   5.449718   0.329940   0.000826   0.102240   0.008082
 419   6   5.377801   4.818075  -0.239450   0.000941   0.102240   0.009206
 420   8   5.825612   4.848060  -0.169265   0.001012   0.102240   0.009896
 421   3   4.883826   1.616938   5.529161   0.000847   0.102240   0.008288
 422   6   4.533833   0.939037   5.022520   0.000958   0.102240   0.009365
 423   8   4.976791   0.946712   5.122968   0.000968   0.102240   0.009467
 424   3   8.757560   7.826584   4.142602  -0.000131   0.066597  -0.001966
 425   7   9.497525   7.461943   4.050671  -0.000149   0.066597  -0.002238
 426  12   8.717119   7.911792   4.427853  -0.000312   0.066597  -0.004687
 427   3   8.350364   4.265838   7.339116   0.000026   0.069992   0.000376
 428   7   9.123768   3.964804   7.314701  -0.000129   0.069992  -0.001845
 429  15   9.293647   4.208710   7.375997  -0.000274   0.069992  -0.003909
 430   7   9.537458   6.996255   2.091771   0.000311   0.323389   0.000963
 431   7   9.858248   7.406987   3.390584   0.000094   0.323389   0.000290
 432   3   8.585303   7.580190   2.896246   0.001118   0.648761   0.001723
 433   7   8.859933   3.429869   7.304915   0.000243   0.308369   0.000788
 434   3   7.676679   3.642537   7.395917   0.000924   0.308369   0.002996
 435   8   5.173292   0.895116   5.288256   0.000070   0.009749   0.007198
 436   3   5.012045   1.803875   5.930337   0.000167   0.009749   0.017154
 437   8   6.044065   4.955773  -0.223124   0.000049   0.005967   0.008259
 438   3   5.894315   5.864603   0.421609   0.000126   0.005967   0.021065
 439   3   5.420942   6.676141   7.810141  -0.000221   0.082041  -0.002691
 440   9   4.680698   7.250405   7.909699  -0.000368   0.082041  -0.004489
 441  12   5.609083   6.910761   7.787419  -0.000405   0.082041  -0.004939
 442   9   4.010411   7.134928   8.232225  -0.000433   0.168897  -0.002567
 443   3   5.142978   6.349215   8.006582   0.000290   0.238632   0.001214
 444   3   8.081997   5.554671   7.474636  -0.000187   0.082340  -0.002276
 445  12   8.114340   5.854511   7.470833  -0.000402   0.082340  -0.004887
 446  15   9.010796   5.416646   7.365575  -0.000358   0.082340  -0.004346
 447  12   8.190028   8.396473   4.526817  -0.000277   0.074991  -0.003699
 448  12   7.081971   8.887086   4.634740  -0.000772   0.170787  -0.004518
 449   3   7.715463   8.505143   4.139429  -0.000433   0.160404  -0.002701
 450   3   6.476345   8.972865   4.358157  -0.000178   0.091618  -0.001945
 451  12   6.349207   6.579167   7.895389  -0.000422   0.091351  -0.004619
 452  12   7.401513   6.138203   7.762651  -0.000415   0.091351  -0.004540
 453   3   6.722299   6.001465   7.802305  -0.000778   0.185387  -0.004197
 454  15   9.455954   4.858876   7.534309  -0.000851   0.242280  -0.003511
 455   3   8.052354   4.802959   7.609597   0.000465   0.342250   0.001360
 456   6   3.575511   0.421776   4.808058   0.002022   0.203573   0.009933
 457   6   2.010041  -0.303690   3.674536   0.002868   0.417190   0.006875
 458   6   0.762874  -0.132928   1.509491  -0.000771   0.417190  -0.001848
 459   4   2.567208   0.546160   4.677803   0.004104   0.417190   0.009838
 460   4   0.849987   0.054055   2.922528   0.001225   0.417190   0.002935
 461   4   0.138366   0.532682   1.044662  -0.000538   0.203573  -0.002642
 462   6   0.763960   1.166958  -0.679878  -0.000571   0.204142  -0.002797
 463   6   1.908052   2.679881  -1.507897   0.001262   0.418470   0.003016
 464   6   3.857981   4.226382  -1.179579   0.003773   0.418470   0.009017
 465   4   0.775656   2.187390  -0.785171  -0.000654   0.418470  -0.001564
 466   4   2.452127   3.985592  -1.292708   0.002953   0.418470   0.007057
 467   4   4.092978   5.041278  -0.602321   0.001737   0.204142   0.008510
 468   4  -0.839948   2.988727   4.295653  -0.000097   0.083942  -0.001154
 469  10  -1.044209   3.747402   4.890781  -0.000262   0.083942  -0.003126
 470  13  -1.017953   3.035076   4.057876  -0.000372   0.083942  -0.004426
 471  10  -1.018709   3.854488   5.673913  -0.001063   0.272548  -0.003899
 472  10  -0.115075   3.715109   6.408079  -0.000722   0.272548  -0.002648
 473   4  -0.051253   2.733421   5.206730   0.001410   0.758818   0.001858
 474   4  -0.246436   5.746506   1.037765  -0.000074   0.079944  -0.000931
 475  11  -0.268814   6.673788   1.518287  -0.000127   0.079944  -0.001587
 476  13  -0.458735   5.543289   1.097111  -0.000360   0.079944  -0.004509
 477  11   1.132055   7.907075   0.970091  -0.000806   0.321839  -0.002505
 478  11  -0.056656   7.489233   1.306188  -0.000870   0.321839  -0.002704
 479   4   0.843108   6.337791   0.527085   0.001923   0.901058   0.002134
 480   4   0.170496   1.184616   0.044738  -0.000103   0.010040  -0.010288
 481  13  -0.054227   1.341161   0.159433  -0.000121   0.010040  -0.012066
 482  14   0.607498   0.653764  -0.235016  -0.000136   0.010040  -0.013510
 483   4   0.101685   0.864080   0.481215  -0.000102   0.010040  -0.010207
 484  13  -0.115951   1.053641   0.550952  -0.000128   0.010040  -0.012777
 485  14   0.546991   0.371910   0.148788  -0.000134   0.010040  -0.013334
 486  13  -0.568001   1.177313   0.954087  -0.000472   0.075442  -0.006259
 487  13  -0.788306   1.164636   2.160582  -0.000984   0.172341  -0.005710
 488  13  -1.035705   1.988893   3.357508  -0.000810   0.172341  -0.004698
 489   4  -0.316165   0.894089   1.450006  -0.000951   0.160892  -0.005908
 490   4  -0.618706   1.266301   3.033467  -0.000435   0.160892  -0.002706
 491   4  -0.818261   2.252530   3.938386  -0.000181   0.092169  -0.001960
 492  13  -0.628871   4.981640   0.570156  -0.000335   0.067305  -0.004981
 493  13  -0.473257   4.136111  -0.121100  -0.000593   0.149622  -0.003964
 494  13  -0.391383   2.819749  -0.320631  -0.000800   0.149622  -0.005348
 495  13  -0.430701   1.795497   0.087207  -0.000391   0.067305  -0.005803
 496   4  -0.217508   4.871526   0.161548  -0.000458   0.147265  -0.003108
 497   4  -0.047480   3.546943  -0.518251  -0.000438   0.147265  -0.002976
 498   4  -0.043280   2.070321  -0.263053  -0.000763   0.147265  -0.005184
 499  14   0.720103  -0.087448  -0.082934  -0.000148   0.015917  -0.009294
 500   4   0.127262   0.693223   0.434457  -0.000056   0.022466  -0.002482
 501  14   0.792670   0.258668  -0.554883  -0.000151   0.016319  -0.009236
 502   4   0.215027   1.093522  -0.109958  -0.000059   0.023033  -0.002543
 503   5   9.252299   6.271541   1.146880   0.000042   0.026777   0.001585
 504   7   9.736541   6.323953   1.205965  -0.000038   0.026777  -0.001421
 505  16   9.992219   6.261592   1.056028  -0.000072   0.026777  -0.002691
 506   5   8.758170   0.399265   5.319278   0.000033   0.026253   0.001270
 507   7   9.236672   0.383734   5.426567  -0.000038   0.026253  -0.001455
 508  17   9.486088   0.236608   5.341746  -0.000118   0.026253  -0.004506
 509   7   9.580299   6.495696   1.383983   0.000059   0.071931   0.000820
 510   5   8.873665   6.519060   1.333307   0.000179   0.071931   0.002484
 511   7   8.799711   2.154856   6.846754   0.000076   0.233757   0.000324
 512   7   9.018910   0.798572   5.897566   0.000126   0.233757   0.000539
 513   5   8.223314   1.481137   6.207421   0.000221   0.479584   0.000461
 514   5   8.979369   4.410403  -0.170796   0.000310   0.079528   0.003901
 515   8   8.792077   4.062137  -0.392608   0.000516   0.079528   0.006494
 516  16   9.713055   4.498567  -0.074973  -0.000024   0.079528  -0.000302
 517   5   8.435060   0.237497   5.099886   0.000249   0.092999   0.002672
 518   8   8.258023  -0.062774   4.808061   0.000474   0.092999   0.005101
 519  17   9.174919   0.139438   5.072494  -0.000106   0.092999  -0.001144
 520   8   7.331836  -0.124178   4.967497   0.001337   0.213428   0.006265
 521   8   5.813118   0.481192   5.215545   0.001758   0.213428   0.008238
 522   5   6.825165   0.673910   5.429598   0.003376   0.439288   0.007685
 523   8   6.643105   4.692055  -0.453451   0.001788   0.186248   0.009600
 524   8   7.977444   4.167955  -0.680857   0.001437   0.186248   0.007713
 525   5   7.553158   4.869223  -0.154261   0.003020   0.378800   0.007974
 526  16  10.154697   5.109584   0.043517  -0.000701   0.196903  -0.003560
 527  16  10.125561   6.020255   0.686413  -0.000581   0.196903  -0.002952
 528   5   9.052108   5.501228   0.405875   0.000811   0.539344   0.001503
 529   5   8.526061   0.290741   5.325612   0.000040   0.007628   0.005255
 530   8   6.197634  -0.776723  -1.221785  -0.000540   0.204821  -0.002635
 531   8   6.257471   1.180238  -1.905860   0.001161   0.419933   0.002765
 532   8   6.057987   3.608244  -1.280611   0.004125   0.419933   0.009823
 533   6   5.595847  -0.066903  -1.657869  -0.000870   0.419933  -0.002071
 534   6   5.561195   2.432852  -1.933495   0.002742   0.419933   0.006530
 535   6   5.321586   4.259469  -0.980977   0.001859   0.204821   0.009077
 536   8   5.047575   0.102143   4.808690   0.001759   0.204251   0.008613
 537   8   5.358777  -1.388596   3.408540   0.002904   0.418651   0.006936
 538   8   5.824216  -1.909468   0.998496  -0.000718   0.418651  -0.001715
 539   6   4.524855  -0.533147   4.195558   0.003876   0.418651   0.009258
 540   6   4.954503  -1.898039   2.134315   0.001097   0.418651   0.002619
 541   6   5.330722  -1.855555   0.100545  -0.000584   0.204251  -0.002857
 542  14   4.611787  -1.943295  -0.485806  -0.000417   0.064754  -0.006444
 543  14   3.963914  -2.248590   0.301550  -0.000824   0.142846  -0.005772
 544  14   2.835806  -2.165342   0.919956  -0.000627   0.142846  -0.004391
 545  14   1.691007  -1.572561   0.925346  -0.000711   0.142846  -0.004981
 546  14   0.967391  -0.696980   0.315656  -0.000952   0.142846  -0.006668
 547   6   4.700888  -2.000231   0.084315  -0.000833   0.142749  -0.005835
 548   6   3.632687  -2.221713   1.037464  -0.000500   0.142749  -0.003504
 549   6   2.289834  -1.822309   1.406008  -0.000465   0.142749  -0.003255
 550   6   1.185959  -0.954788   1.048982  -0.000668   0.142749  -0.004678
 551   6   0.703474  -0.137422   0.356586  -0.000490   0.079111  -0.006195
 552  14   0.976209   0.281339  -0.887447  -0.000447   0.064850  -0.006896
 553  14   1.628692   0.583696  -1.674150  -0.000779   0.143101  -0.005443
 554  14   2.760569   0.495190  -2.288526  -0.000745   0.143101  -0.005206
 555  14   3.904567  -0.102893  -2.286916  -0.000654   0.143101  -0.004573
 556  14   4.621843  -0.981123  -1.669937  -0.000906   0.143101  -0.006333
 557   6   1.134552   0.807154  -1.074832  -0.000811   0.142920  -0.005672
 558   6   2.208465   1.023725  -2.025616  -0.000523   0.142920  -0.003657
 559   6   3.553265   0.618024  -2.387695  -0.000493   0.142920  -0.003448
 560   6   4.653080  -0.254320  -2.022174  -0.000646   0.142920  -0.004519
 561   6   5.128461  -1.072992  -1.323643  -0.000468   0.079229  -0.005906
 562   7  10.763321   2.624425   0.055803  -0.000086   0.048537  -0.001767
 563   8  10.055085   2.293769  -0.212986  -0.000029   0.048537  -0.000596
 564  16  10.913471   2.884544   0.014684  -0.000125   0.048537  -0.002568
 565   7  10.433098   1.888908   0.088686  -0.000122   0.066287  -0.001845
 566   8   9.814946   1.532792  -0.330601  -0.000160   0.066287  -0.002406
 567  18   9.839408   1.234532  -0.317474  -0.000247   0.066287  -0.003725
 568   8   9.825418   1.854632  -0.494013   0.000129   0.093437   0.001386
 569   7  10.791386   2.288054   0.033774   0.000097   0.093437   0.001040
 570   7  10.194066   7.250033   4.840074  -0.000235   0.086007  -0.002728
 571  12   9.332163   7.576670   5.161987  -0.000450   0.086007  -0.005230
 572  15  10.267987   7.216426   5.133651  -0.000385   0.086007  -0.004474
 573  12   8.863710   8.018833   4.946000  -0.000689   0.184574  -0.003734
 574   7  10.040732   7.491568   4.291146   0.000150   0.261510   0.000574
 575  15   9.937283   4.025399   7.555771  -0.000267   0.069122  -0.003857
 576  15  11.004482   3.691854   7.520181  -0.000489   0.153770  -0.003180
 577  15  12.262823   3.884923   7.064841  -0.000513   0.153770  -0.003334
 578  15  13.004876   4.711408   6.293925  -0.000560   0.153770  -0.003642
 579  15  12.919148   5.824373   5.531042  -0.000536   0.153770  -0.003486
 580  15  12.041623   6.756626   5.096429  -0.000515   0.153770  -0.003349
 581  15  10.996110   7.154252   5.081342  -0.000259   0.069122  -0.003746
 582   7  10.191630   3.494758   7.449492  -0.000350   0.151210  -0.002315
 583   7  11.678635   3.299840   7.209670  -0.000181   0.151210  -0.001195
 584   7  12.866215   3.905122   6.481675  -0.000294   0.151210  -0.001946
 585   7  13.255857   5.056522   5.571099  -0.000395   0.151210  -0.002611
 586   7  12.684000   6.270714   4.860178  -0.000203   0.151210  -0.001344
 587   7  11.390693   7.038012   4.647337  -0.000296   0.151210  -0.001955
 588  16  10.477640   6.459006   1.126191  -0.000192   0.066323  -0.002888
 589  16  11.287068   6.760058   1.760437  -0.000507   0.146033  -0.003474
 590  16  12.431077   6.514970   2.322125  -0.000366   0.146033  -0.002508
 591  16  13.372768   5.630216   2.443549  -0.000509   0.146033  -0.003482
 592  16  13.752120   4.444049   2.078286  -0.000524   0.146033  -0.003588
 593  16  13.424101   3.409958   1.365982  -0.000438   0.146033  -0.003001
 594  16  12.514117   2.923291   0.578961  -0.000351   0.146033  -0.002406
 595  16  11.577794   3.019017   0.066898  -0.000221   0.066323  -0.003326
 596   7  10.480386   6.687988   1.666776  -0.000412   0.146558  -0.002811
 597   7  11.693267   6.831665   2.463699  -0.000224   0.146558  -0.001525
 598   7  12.925488   6.164159   2.867278  -0.000253   0.146558  -0.001725
 599   7  13.705954   4.940669   2.723219  -0.000293   0.146558  -0.001997
 600   7  13.736281   3.628952   2.086599  -0.000277   0.146558  -0.001890
 601   7  13.004875   2.730496   1.200805  -0.000129   0.146558  -0.000883
 602   7  11.791363   2.588794   0.404490  -0.000301   0.146558  -0.002052
 603   7  11.331332   0.493612   1.627700  -0.000119   0.084620  -0.001412
 604  17  11.383334   0.311971   1.866624  -0.000285   0.084620  -0.003372
 605  18  10.592270   0.025235   1.204936  -0.000415   0.084620  -0.004909
 606  17  12.077198   0.455754   2.138932  -0.000214   0.070884  -0.003013
 607  17  12.961132   0.901535   2.712769  -0.000445   0.158496  -0.002809
 608  17  13.487447   1.311456   3.922382  -0.000560   0.158496  -0.003536
 609  17  13.163596   1.406139   5.261920  -0.000562   0.158496  -0.003546
 610  17  12.131976   1.143951   6.142388  -0.000481   0.158496  -0.003032
 611  17  10.846191   0.640176   6.176644  -0.000519   0.158496  -0.003276
 612  17   9.961816   0.194341   5.603528  -0.000248   0.070884  -0.003497
 613   7  12.426242   0.941830   2.049085  -0.000204   0.154316  -0.001324
 614   7  13.421082   1.510172   3.095149  -0.000236   0.154316  -0.001527
 615   7  13.541593   1.810524   4.612460  -0.000394   0.154316  -0.002556
 616   7  12.734786   1.710821   5.933857  -0.000212   0.154316  -0.001374
 617   7  11.355415   1.254902   6.478321  -0.000279   0.154316  -0.001805
 618   7  10.009989   0.643236   6.006451  -0.000442   0.154316  -0.002864
 619  18  10.050252   0.785845  -0.223108  -0.001005   0.254756  -0.003945
 620  18  10.336211  -0.026396   0.483090  -0.001510   0.254756  -0.005926
 621   7  11.154204   1.236534   0.726334   0.000034   0.709072   0.000048
 622   8   6.154159  -1.245665  -0.796987  -0.000105   0.010423  -0.010041
 623  14   5.422446  -1.301429  -0.912872  -0.000134   0.010423  -0.012856
 624  18   6.442896  -1.299300  -0.753355  -0.000129   0.010423  -0.012393
 625   8   6.081263  -1.577388  -0.344039  -0.000100   0.010423  -0.009579
 626  14   5.358351  -1.593106  -0.514605  -0.000136   0.010423  -0.013049
 627  18   6.377509  -1.596854  -0.347063  -0.000110   0.010423  -0.010551
 628  14   4.948424  -1.425538  -1.143646  -0.000113   0.011628  -0.009748
 629   8   6.023037  -1.282637  -0.908696  -0.000042   0.016411  -0.002548
 630  14   4.873792  -1.770223  -0.675218  -0.000114   0.010910  -0.010466
 631   8   5.935416  -1.678214  -0.367174  -0.000037   0.015398  -0.002407
 632  16  10.889049   3.322684  -0.215535  -0.000473   0.285015  -0.001658
 633  16  10.313631   4.312082  -0.269029  -0.000489   0.285015  -0.001716
 634   8   9.318056   3.047854  -0.671213   0.001971   0.803023   0.002454
 635   8   9.089890  -1.068617   2.885857  -0.000100   0.083714  -0.001192
 636  17   9.906111  -0.726359   3.291851  -0.000285   0.083714  -0.003406
 637  18   9.189756  -1.136814   2.610591  -0.000350   0.083714  -0.004179
 638  17   9.692098  -0.245283   4.922208  -0.000692   0.256946  -0.002693
 639  17  10.170851  -0.691786   4.012553  -0.001064   0.256946  -0.004142
 640   8   8.647392  -0.793414   3.951032   0.001321   0.715215   0.001848
 641  18   8.682280  -1.624266   2.274587  -0.000336   0.075082  -0.004473
 642  18   7.750589  -2.071701   1.624122  -0.000702   0.171308  -0.004097
 643  18   7.006680  -1.990888   0.360892  -0.001092   0.171308  -0.006373
 644   8   8.081914  -1.746168   2.385764  -0.000565   0.160303  -0.003524
 645   8   6.943140  -2.089594   1.245237  -0.000652   0.160303  -0.004068
 646   8   6.458530  -1.800925   0.021540  -0.000415   0.091729  -0.004522
 647  18   6.999392  -1.221335  -0.956883  -0.000429   0.068052  -0.006299
 648  18   7.593094  -0.409275  -1.437162  -0.000822   0.151649  -0.005418
 649  18   8.616755   0.463971  -1.370541  -0.000557   0.151649  -0.003672
 650  18   9.472496   0.888377  -0.795930  -0.000241   0.068052  -0.003539
 651   8   6.845772  -0.718141  -1.230948  -0.000828   0.148555  -0.005576
 652   8   7.822008   0.374639  -1.608890  -0.000391   0.148555  -0.002631
 653   8   9.021178   1.137616  -1.089369  -0.000392   0.148555  -0.002642
 654  12   6.045798   9.242419   5.740419  -0.000772   0.245727  -0.003143
 655  12   6.127260   8.822739   6.836820  -0.002620   0.491595  -0.005330
 656  12   5.911731   7.720400   7.726146  -0.002066   0.491595  -0.004202
 657   9   4.782042   9.592732   6.451446  -0.001694   0.491595  -0.003445
 658   9   4.758365   8.823281   7.659705  -0.002120   0.491595  -0.004312
 659   9   4.492655   7.801213   8.178971  -0.000663   0.245727  -0.002696
 660  13  -1.408341   3.137737   3.893525  -0.000249   0.232855  -0.001067
 661  13  -1.749107   3.895742   3.274036  -0.001537   0.465491  -0.003302
 662  10  -1.691970   4.371978   4.899890  -0.001070   0.465491  -0.002298
 663  10  -1.956220   5.152531   4.271108  -0.000093   0.232855  -0.000398
 664  13  -0.844425   5.520871   1.102262   0.000162   0.113474   0.001426
 665  11  -0.627337   7.200742   1.572054   0.000196   0.113474   0.001726
 666  15  10.341669   7.335297   5.560357  -0.000314   0.229504  -0.001370
 667  15  10.186378   6.947253   6.576469  -0.001769   0.459012  -0.003855
 668  15   9.743266   5.976322   7.391265  -0.001698   0.459012  -0.003699
 669  12   9.004606   7.832723   5.998933  -0.002014   0.459012  -0.004388
 670  12   8.706978   7.143556   7.112223  -0.002205   0.459012  -0.004805
 671  12   8.288766   6.246304   7.588893  -0.000424   0.229504  -0.001850
 672  14   0.580562   0.148602  -0.248952  -0.000229   0.165443  -0.001386
 673  13  -0.304766   1.212716   0.270684  -0.000169   0.165443  -0.001024
 674  18   6.538838  -1.638453  -0.605577  -0.000190   0.171673  -0.001107
 675  14   5.101813  -1.629305  -0.956854  -0.000247   0.171673  -0.001439
 676  18  10.369664  -0.587879   1.070417  -0.000878   0.269708  -0.003257
 677  18   9.777118  -1.154685   1.958563  -0.001869   0.539413  -0.003465
 678  17  11.212803  -0.358154   2.409840  -0.001336   0.539413  -0.002477
 679  17  10.563462  -0.831139   3.313072  -0.000523   0.269708  -0.001938
 =====================================================

              3924812  WORDS OF DYNAMIC MEMORY USED
 EXECUTION OF GAMESS TERMINATED NORMALLY Thu Nov 24 16:43:56 2016
 DDI: 263640 bytes (0.3 MB / 0 MWords) used by master data server.

 ----------------------------------------
 CPU timing information for all processes
 ========================================
 0: 554.392 + 0.160 = 554.552
 ----------------------------------------
 ddikick.x: exited gracefully.
