----- GAMESS execution script -----

          ******************************************************
          *         GAMESS VERSION =  5 DEC 2014 (R1)          *
          *             FROM IOWA STATE UNIVERSITY             *
          * M.W.SCHMIDT, K.K.BALDRIDGE, J.A.BOATZ, S.T.ELBERT, *
          *   M.S.GORDON, J.H.JENSEN, S.KOSEKI, N.MATSUNAGA,   *
          *          K.A.NGUYEN, S.J.SU, T.L.WINDUS,           *
          *       TOGETHER WITH M.DUPUIS, J.A.MONTGOMERY       *
          *         J.COMPUT.CHEM.  14, 1347-1363(1993)        *
          **************** 64 BIT LINUX VERSION ****************

 EXECUTION OF GAMESS BEGUN Thu Nov 24 16:36:28 2016

            ECHO OF THE FIRST FEW INPUT CARDS -
 INPUT CARD>! SELECT RESTRICTED HARTREE-FOCK AS DEFAULT                                     
 INPUT CARD>$contrl scftyp=rhf $end                                                         
 INPUT CARD>                                                                                
 INPUT CARD>! THEORY: HF OR DFT                                                             
 INPUT CARD> $contrl mplevl=0 $end                                                          
 INPUT CARD>                                                                                
 INPUT CARD> $system timlim=10000 mwords=20 $end                                            
 INPUT CARD> $SCF DIRSCF=.TRUE. $end                                                        
 INPUT CARD>                                                                                
 INPUT CARD>                                                                                
 INPUT CARD>! BASIS SETS                                                                    
 INPUT CARD>! 6-311G(d,p)                                                                   
 INPUT CARD> $BASIS GBASIS=N311 NGAUSS=6 NDFUNC=1 NPFUNC=1 $END                             
 INPUT CARD>                                                                                
 INPUT CARD>! One of the following                                                          
 INPUT CARD> $guess guess=HUCKEL $end                                                       
 INPUT CARD>                                                                                
 INPUT CARD> $statpt projct=.FALSE. $end                                                    
 INPUT CARD> $STATPT IFREEZ(1)=1,2,3 $END                                                   
 INPUT CARD>                                                                                
 INPUT CARD>! Optimize the geometry with COSMO effects                                      
 INPUT CARD> $statpt opttol=0.0005 nstep=50 $end                                            
 INPUT CARD> $contrl nzvar=1 $end                                                           
 INPUT CARD> $zmat dlc=.t. auto=.t. $end                                                    
 INPUT CARD> $contrl runtyp=OPTIMIZE maxit=200 $end                                         
 INPUT CARD>                                                                                
 INPUT CARD>! Run COSMO on perfect conductor                                                
 INPUT CARD> $COSGMS PRFCND=.TRUE. $end                                                     
 INPUT CARD>                                                                                
 INPUT CARD>! Specifying RSOLV                                                              
 INPUT CARD> $COSGMS COSRAD = 1.4 $end                                                      
 INPUT CARD>                                                                                
 INPUT CARD>! available memory                                                              
 INPUT CARD> $SYSTEM MWORDS=40 $END                                                         
 INPUT CARD>                                                                                
 INPUT CARD> $DATA                                                                          
 INPUT CARD>Methane, ID: C74828                                                             
 INPUT CARD>C1                                                                              
 INPUT CARD>C      6.0      1.0582000000    0.9353000000    0.8103000000                    
 INPUT CARD>H      1.0      1.4145000000    1.5662000000    0.0000000000                    
 INPUT CARD>H      1.0      1.2065000000    1.4452000000    1.7588000000                    
 INPUT CARD>H      1.0      0.0000000000    0.7294000000    0.6710000000                    
 INPUT CARD>H      1.0      1.6121000000    0.0000000000    0.8114000000                    
 INPUT CARD> $END                                                                           
 INPUT CARD>                                                                                
 INPUT CARD>                                                                                
   40000000 WORDS OF MEMORY AVAILABLE

     BASIS OPTIONS
     -------------
     GBASIS=N311         IGAUSS=       6      POLAR=POPN311 
     NDFUNC=       1     NFFUNC=       0     DIFFSP=       F
     NPFUNC=       1      DIFFS=       F     BASNAM=        


     RUN TITLE
     ---------
 Methane, ID: C74828                                                             

 THE POINT GROUP OF THE MOLECULE IS C1      
 THE ORDER OF THE PRINCIPAL AXIS IS     0

 ATOM      ATOMIC                      COORDINATES (BOHR)
           CHARGE         X                   Y                   Z
 C           6.0     1.9997080402        1.7674607163        1.5312449679
 H           1.0     2.6730174096        2.9596888420        0.0000000000
 H           1.0     2.2799544042        2.7310319975        3.3236500672
 H           1.0     0.0000000000        1.3783661354        1.2680061378
 H           1.0     3.0464272648        0.0000000000        1.5333236664

          INTERNUCLEAR DISTANCES (ANGS.)




     $CONTRL OPTIONS
     ---------------
 SCFTYP=RHF          RUNTYP=OPTIMIZE     EXETYP=RUN     
 MPLEVL=       0     CITYP =NONE         CCTYP =NONE         VBTYP =NONE    
 DFTTYP=NONE         TDDFT =NONE    
 MULT  =       1     ICHARG=       0     NZVAR =       1     COORD =UNIQUE  
 PP    =NONE         RELWFN=NONE         LOCAL =NONE         NUMGRD=       F
 ISPHER=      -1     NOSYM =       0     MAXIT =     200     UNITS =ANGS    
 PLTORB=       F     MOLPLT=       F     AIMPAC=       F     FRIEND=        
 NPRINT=       7     IREST =       0     GEOM  =INPUT   
 NORMF =       0     NORMP =       0     ITOL  =      20     ICUT  =       9
 INTTYP=BEST         GRDTYP=BEST         QMTTOL= 1.0E-06

     $SYSTEM OPTIONS
     ---------------
  REPLICATED MEMORY=    40000000 WORDS (ON EVERY NODE).
 DISTRIBUTED MEMDDI=           0 MILLION WORDS IN AGGREGATE,
 MEMDDI DISTRIBUTED OVER   1 PROCESSORS IS           0 WORDS/PROCESSOR.
 TOTAL MEMORY REQUESTED ON EACH PROCESSOR=    40000000 WORDS.
 TIMLIM=       10000.00 MINUTES, OR       6.9 DAYS.
 PARALL= F  BALTYP=  DLB     KDIAG=    0  COREFL= F
 MXSEQ2=     300 MXSEQ3=     150  mem10=         0

     $COSGMS OPTIONS
     ---------------
     EPSI  =   INFTY     NSPA  =      92     COSRAD=    1.40
     DISEX =   10.00     OUTCHG=DBLCAV       COSBUG=       F
     COSWRT=       F     DCOSMO=       F

     SYMMETRY COORDINATES WILL NOT BE USED FOR 
     THE COSMO CALCULATION, EVEN IF SPECIFIED:
         -- SWITCHING TO C1 POINT GROUP --


     DEFINITION OF CAVITY
     ---------------------------
     ATOM         COORDINATES           RADIUS 
     1    1.9997    1.7675    1.5312    2.0000
     2    2.6730    2.9597    0.0000    1.3000
     3    2.2800    2.7310    3.3237    1.3000
     4    0.0000    1.3784    1.2680    1.3000
     5    3.0464    0.0000    1.5333    1.3000

          ----------------
          PROPERTIES INPUT
          ----------------

     MOMENTS            FIELD           POTENTIAL          DENSITY
 IEMOM =       1   IEFLD =       0   IEPOT =       0   IEDEN =       0
 WHERE =COMASS     WHERE =NUCLEI     WHERE =NUCLEI     WHERE =NUCLEI  
 OUTPUT=BOTH       OUTPUT=BOTH       OUTPUT=BOTH       OUTPUT=BOTH    
 IEMINT=       0   IEFINT=       0                     IEDINT=       0
                                                       MORB  =       0
          EXTRAPOLATION IN EFFECT
          SOSCF IN EFFECT
 ORBITAL PRINTING OPTION: NPREO=     1    43     2     1

     -------------------------------
     INTEGRAL TRANSFORMATION OPTIONS
     -------------------------------
     NWORD  =            0
     CUTOFF = 1.0E-09     MPTRAN =       0
     DIRTRF =       T     AOINTS =DUP     

          ----------------------
          INTEGRAL INPUT OPTIONS
          ----------------------
 NOPK  =       1 NORDER=       0 SCHWRZ=       T


 -----------------------------------------------
  STATISTICS ON AUTOMATIC COORDINATE GENERATION 
 -----------------------------------------------
  NUMBER OF USER SPECIFIED BONDS                             0
  NUMBER OF BONDS                                            4
  NUMBER OF ANGLES                                           6
  NUMBER OF TORSIONS                                         0
  NUMBER OF EXTRA COORD.                                     0
  NUMBER OF EXTRA COORD. FOR CONSTRAINTS                     0
  NUMBER OF CONSTRAINED COORD.                               0

  TOTAL NUMBER OF PRIMITIVES                                10
 -----------------------------------------------

   --- ENCODED Z MATRIX ---
 COORD  TYPE   I   J   K   L   M   N
    1      1    1   3
    2      1    1   4
    3      1    1   5
    4      1    1   2
    5      2    2   1   4
    6      2    2   1   3
    7      2    2   1   5
    8      2    3   1   5
    9      2    3   1   4
   10      2    4   1   5

          INDEP./SYM. INTERNAL COORDINATES
          --------------------------------
 CRD  1=  -0.1818 (  1) -0.1715 (  2)  0.5396 (  3) -0.1860 (  4) -0.3168 (  5)
          -0.3272 (  6)  0.3138 (  7)  0.3181 (  8) -0.3137 (  9)  0.3261 ( 10)
 CRD  2=  -0.2412 (  1) -0.2718 (  2)  0.5061 (  4)  0.2052 (  5)  0.2330 (  6)
           0.4603 (  7) -0.2108 (  8) -0.4503 (  9) -0.2373 ( 10)
 CRD  3=   0.4471 (  1) -0.4335 (  2) -0.3976 (  5)  0.3754 (  6)  0.4069 (  8)
          -0.3833 ( 10)
 CRD  4=  -0.5433 (  5)  0.4511 (  6) -0.5347 (  8)  0.4462 ( 10)
 CRD  5=  -0.2085 (  5) -0.3653 (  6)  0.5664 (  7) -0.2052 (  8)  0.5741 (  9)
          -0.3614 ( 10)
 CRD  6=   0.5001 (  1)  0.5001 (  2)  0.4998 (  3)  0.5000 (  4)
 CRD  7=  -0.2009 (  1) -0.2041 (  2)  0.6758 (  3) -0.2705 (  4)  0.2674 (  5)
           0.2655 (  6) -0.2282 (  7) -0.2674 (  8)  0.2281 (  9) -0.2656 ( 10)
 CRD  8=   0.4501 (  1)  0.2022 (  2) -0.6050 (  4)  0.2270 (  5)  0.3674 (  7)
          -0.2268 (  8) -0.3675 (  9)
 CRD  9=   0.4645 (  1) -0.6134 (  2)  0.1400 (  4)  0.2668 (  5) -0.3406 (  6)
          -0.2667 (  8)  0.3405 ( 10)

 THE DETERMINANT OF THE G MATRIX IS 10**(    -1)


                     --------------------
                     INTERNAL COORDINATES
                     --------------------

                 - - ATOMS - -         COORDINATE      COORDINATE
 NO.   TYPE    I  J  K  L  M  N        (BOHR,RAD)       (ANG,DEG)
 ----------------------------------------------------------------
   1 STRETCH   1  3                     2.0541966       1.0870341
   2 STRETCH   1  4                     2.0541474       1.0870081
   3 STRETCH   1  5                     2.0541526       1.0870108
   4 STRETCH   1  2                     2.0541335       1.0870007
   5 BEND      2  1  4                  1.9108170     109.4817470
   6 BEND      2  1  3                  1.9107817     109.4797272
   7 BEND      2  1  5                  1.9104151     109.4587238
   8 BEND      3  1  5                  1.9104987     109.4635134
   9 BEND      3  1  4                  1.9107893     109.4801650
  10 BEND      4  1  5                  1.9104975     109.4634425

     ------------------------------------------
     THE POINT GROUP IS C1 , NAXIS= 1, ORDER= 1
     ------------------------------------------

     DIMENSIONS OF THE SYMMETRY SUBSPACES ARE
 A   =   43

 ..... DONE SETTING UP THE RUN .....
 STEP CPU TIME =     0.00 TOTAL CPU TIME =        0.0 (    0.0 MIN)
 TOTAL WALL CLOCK TIME=        0.0 SECONDS, CPU UTILIZATION IS   0.00%


          -----------------------------
          STATIONARY POINT LOCATION RUN
          -----------------------------

 OBTAINING INITIAL HESSIAN, HESS=GUESS   
 DIAGONAL GUESS HESSIAN IN INTERNAL COORDS IS
     1  0.3484     2  0.3484     3  0.3484     4  0.3484     5  0.2037
     6  0.2037     7  0.2037     8  0.2037     9  0.2037    10  0.2037
 TRANSFORMING HESSIAN TO SYMMETRY COORDINATES

          PARAMETERS CONTROLLING GEOMETRY SEARCH ARE
          METHOD =QA                  UPHESS =BFGS    
          NNEG   =         0          NFRZ   =         3
          NSTEP  =        50          IFOLOW =         1
          HESS   =GUESS               RESTAR =         F
          IHREP  =         0          HSSEND =         F
          NPRT   =         0          NPUN   =         0
          OPTTOL = 5.000E-04          RMIN   = 1.500E-03
          RMAX   = 1.000E-01          RLIM   = 7.000E-02
          DXMAX  = 3.000E-01          PURIFY =         F
          MOVIE  =         F          TRUPD  =         T
          TRMAX  = 5.000E-01          TRMIN  = 5.000E-02
          ITBMAT =         5          STPT   =         F
          STSTEP = 1.000E-02          PROJCT=          F
          FROZEN COORD(S)=   1   2   3


      ***** EQUILIBRIUM GEOMETRY LOCATED *****
            (SUBJECT TO   3 CONSTRAINT(S))
 COORDINATES OF ALL ATOMS ARE (ANGS)
   ATOM   CHARGE       X              Y              Z
 ------------------------------------------------------------
 C           6.0   1.0582050129   0.9352942371   0.8103028074
 H           1.0   1.4137284173   1.5649169274   0.0016870232
 H           1.0   1.2061999584   1.4441519757   1.7568090491
 H           1.0   0.0021959534   0.7298349230   0.6712619149
 H           1.0   1.6109159828   0.0019647917   0.8114085853


                     --------------------
                     INTERNAL COORDINATES
                     --------------------

                 - - ATOMS - -         COORDINATE      COORDINATE
 NO.   TYPE    I  J  K  L  M  N        (BOHR,RAD)       (ANG,DEG)
 ----------------------------------------------------------------
   1 STRETCH   1  3                     2.0499066       1.0847639
   2 STRETCH   1  4                     2.0498964       1.0847585
   3 STRETCH   1  5                     2.0498036       1.0847094
   4 STRETCH   1  2                     2.0498790       1.0847493
   5 BEND      2  1  4                  1.9107565     109.4782841
   6 BEND      2  1  3                  1.9107446     109.4776005
   7 BEND      2  1  5                  1.9104757     109.4621959
   8 BEND      3  1  5                  1.9105151     109.4644539
   9 BEND      3  1  4                  1.9108144     109.4816019
  10 BEND      4  1  5                  1.9104930     109.4631840

          INTERNUCLEAR DISTANCES (ANGS.)


 =====================================================
   GAMESS/COSab RESULTS
 =====================================================

   Dielectric Constant                  = INFTY
   Basic Grid Size                      =                 1082
   Number of Segments                   =                   92
   Number of Segments located on spheres=                  108
   Number of Segments of the cavity     =                  192
   Solvent Radius (rsolv)               = 1.40
   Outlying Charge Error Method         = double cavity

 =====================================================

  Total solvated Energy (a.u.)          =   -40.2096221813
  Total Energy corrected (a.u.)         =   -40.2095792881

  Outlying charge effect (a.u.)         =     0.0000428933
  Outlying charge effect (kcal/mol)     =     0.0269159471

  Dielectric Energy (a.u.)              =    -0.0006363287
  Dielectric energy corr. (a.u.)        =    -0.0005934355

  Sum of polarization charges           =     0.0165880604
  Sum of polarization charges(cor.)     =    -0.0165880604

  Total surface area of cavity (A**2)   =   55.60
  Total volume of cavity (A**3)         =   37.76

 =====================================================
 NPS=                   192
NR.  ATOM  (X, Y, Z)(a.u.)                  CHARGE(e)  AREA(A**2) SIGMA(e/A**2)
   1   1   0.647161  -0.515866   4.222213   0.000944   0.418105   0.002258
   2   1   0.312365  -1.420609   0.402793   0.001382   0.325193   0.004250
   3   1   4.653843   1.237370   4.169220   0.001364   0.325193   0.004194
   4   1   2.538585   0.027900  -1.780537   0.000911   0.325193   0.002803
   5   1  -0.331049   2.694620  -1.295789   0.001017   0.232280   0.004377
   6   1   0.714788   5.320075   1.640837   0.000952   0.371649   0.002563
   7   1   4.564433   4.336386   2.583411   0.001144   0.325193   0.003518
   8   1   5.613258   1.460373   0.467128   0.001155   0.325193   0.003552
   9   1   1.593080  -1.223264   3.806009   0.001497   0.511017   0.002930
  10   1   0.183354  -1.153041   3.098350   0.001626   0.464561   0.003500
  11   1   0.112643  -1.488238   1.882973   0.001190   0.278737   0.004271
  12   1  -0.373499   0.452556   4.162428   0.001164   0.371649   0.003133
  13   1  -0.961156   1.583474   3.872951   0.000893   0.278737   0.003202
  14   1   0.980112   0.474573   4.933172   0.001286   0.418105   0.003077
  15   1   0.340214   1.172218   4.874292   0.001019   0.325193   0.003133
  16   1   1.879877  -0.322114   4.678246   0.001105   0.371649   0.002973
  17   1   3.474092   0.095544   4.583330   0.001475   0.325193   0.004535
  18   1   5.262527   1.920409  -0.370068   0.001165   0.325193   0.003582
  19   1   4.322909   4.748500   1.512020   0.001464   0.371649   0.003938
  20   1   1.369225   5.403938   0.717215   0.001215   0.418105   0.002906
  21   1   0.382927   2.915215  -1.686343   0.001443   0.371649   0.003884
  22   1   2.775785   1.011687  -2.089645   0.001343   0.464561   0.002892
  23   1   0.777548  -1.772798   1.024060   0.001404   0.325193   0.004317
  24   1  -0.945185   2.878054   3.623683   0.001998   0.464561   0.004302
  25   1  -0.357639   3.046943   4.193943   0.000837   0.232280   0.003604
  26   1   3.684699   0.858574   4.789933   0.000818   0.232280   0.003520
  27   1   4.511104   0.309810   3.950442   0.001286   0.325193   0.003955
  28   1   1.432364   0.683645  -2.044754   0.001083   0.418105   0.002589
  29   1   0.130604   1.601545  -1.749479   0.001429   0.371649   0.003846
  30   1  -0.460464   3.721354  -0.569704   0.002017   0.464561   0.004341
  31   1   0.074586   4.866176   0.543335   0.001206   0.418105   0.002885
  32   1   1.775234   5.518313   1.937249   0.001441   0.371649   0.003879
  33   1   3.610762   5.121883   2.191960   0.001697   0.371649   0.004566
  34   1   5.216129   3.749426   1.634876   0.001467   0.464561   0.003158
  35   1   5.701608   2.367794   1.062317   0.001329   0.464561   0.002861
  36   1   4.943414   0.771464  -0.619797   0.001916   0.418105   0.004582
  37   1   3.791790   0.154736  -1.379417   0.001708   0.418105   0.004084
  38   1   2.761803  -0.780241  -1.154423   0.000981   0.371649   0.002639
  39   1   1.374976  -0.597147  -1.350192   0.001842   0.650385   0.002832
  40   1   0.328956  -0.838779  -0.636798   0.001100   0.325193   0.003384
  41   1  -1.094367   3.734963   2.447607   0.001639   0.511017   0.003207
  42   1  -0.295201   4.733192   2.002318   0.001490   0.557473   0.002673
  43   1   0.819739   5.133548   2.780735   0.000887   0.325193   0.002728
  44   1   5.133610   3.378704   2.897572   0.001236   0.418105   0.002956
  45   1   5.182050   2.184001   3.527121   0.001351   0.418105   0.003231
  46   1   5.395711   1.142287   3.067701   0.001543   0.464561   0.003321
  47   1   5.713359   1.159462   1.882709   0.001096   0.371649   0.002950
  48   1   5.575692   0.805058   0.775910   0.000644   0.232280   0.002772
  49   1   0.970406  -1.743197   2.480012   0.001346   0.371649   0.003621
  50   1  -0.370822  -0.327432   3.599154   0.000819   0.278737   0.002938
  51   1  -0.332667   1.846456   4.504113   0.001523   0.371649   0.004097
  52   1   2.304028   0.544571   5.094419   0.000796   0.278737   0.002854
  53   1   2.915547  -0.491590   4.419544   0.001217   0.325193   0.003741
  54   1   5.384072   3.218763   0.680292   0.000719   0.278737   0.002580
  55   1   2.716701   5.477744   1.468979   0.001106   0.278737   0.003966
  56   1   0.277988   4.480148  -0.459016   0.001233   0.371649   0.003317
  57   1   1.189850   1.751010  -2.160383   0.001184   0.371649   0.003187
  58   1   4.204394   1.092112  -1.463356   0.001229   0.325193   0.003778
  59   1   1.370249  -1.461013  -0.330233   0.001305   0.371649   0.003512
  60   1  -0.215683   4.283593   3.276299   0.001474   0.418105   0.003526
  61   1   0.261295   0.335605  -1.503880   0.001393   0.464561   0.002998
  62   1  -0.878383   4.117824   0.840971   0.001341   0.464561   0.002886
  63   1   2.595930   5.389754   2.429944   0.000806   0.232280   0.003470
  64   1   5.641922   2.431248   2.291511   0.000968   0.418105   0.002315
  65   2   3.514344   4.323992  -1.856075  -0.003945   0.608459  -0.006483
  66   2   1.686167   3.675113  -2.129603  -0.001161   0.392554  -0.002958
  67   2   3.431996   2.453987  -2.277948  -0.001014   0.372926  -0.002720
  68   2   4.864609   3.299765  -1.049588  -0.001026   0.353299  -0.002905
  69   2   3.971158   5.040708  -0.070103  -0.001038   0.372926  -0.002784
  70   2   2.057081   5.205754  -0.772552  -0.001148   0.412182  -0.002785
  71   2   2.656971   3.205306  -2.440862  -0.002175   0.490692  -0.004432
  72   2   4.259611   3.031584  -1.869694  -0.002089   0.490692  -0.004258
  73   2   4.582709   4.320283  -0.721223  -0.002217   0.510320  -0.004344
  74   2   3.168759   5.261583  -0.688167  -0.002350   0.510320  -0.004604
  75   2   2.026815   4.596442  -1.709261  -0.002241   0.490692  -0.004567
  76   3   2.543334   3.864723   5.482219  -0.003951   0.608459  -0.006494
  77   3   3.282132   2.050431   5.457431  -0.001113   0.392554  -0.002835
  78   3   1.195015   2.499877   5.512318  -0.001031   0.372926  -0.002764
  79   3   0.952342   4.344647   4.609811  -0.001049   0.353299  -0.002969
  80   3   2.916079   5.023706   3.923413  -0.001116   0.372926  -0.002993
  81   3   4.269910   3.591898   4.472445  -0.001180   0.412182  -0.002862
  82   3   2.254212   2.391095   5.753050  -0.002134   0.490692  -0.004349
  83   3   1.093191   3.563350   5.302815  -0.002087   0.490692  -0.004253
  84   3   1.918041   4.870252   4.468698  -0.002196   0.510320  -0.004304
  85   3   3.565837   4.457695   4.499678  -0.002383   0.510320  -0.004671
  86   3   3.762160   2.984714   5.261824  -0.002227   0.490692  -0.004538
  87   4  -2.373566   0.840680   0.965822  -0.003953   0.608459  -0.006497
  88   4  -1.949370   1.528108   2.750645  -0.001147   0.392554  -0.002922
  89   4  -1.451048  -0.432421   2.065754  -0.001063   0.372926  -0.002850
  90   4  -1.248557  -0.319066   0.010824  -0.001044   0.353299  -0.002954
  91   4  -1.562488   1.763158  -0.584417  -0.001074   0.372926  -0.002881
  92   4  -1.983299   2.815398   1.118544  -0.001202   0.412182  -0.002915
  93   4  -1.980329   0.465014   2.391571  -0.002179   0.490692  -0.004440
  94   4  -1.617325  -0.445183   0.989917  -0.002058   0.490692  -0.004194
  95   4  -1.642668   0.634116  -0.395216  -0.002200   0.510320  -0.004311
  96   4  -2.079903   2.154519   0.224132  -0.002315   0.510320  -0.004537
  97   4  -2.278544   2.051218   1.879110  -0.002215   0.490692  -0.004514
  98   5   4.307091  -2.102051   1.610105  -0.003959   0.608459  -0.006507
  99   5   2.364466  -2.355339   1.622246  -0.001132   0.392554  -0.002883
 100   5   3.497420  -1.652195   3.290503  -0.001048   0.372926  -0.002811
 101   5   5.173790  -0.712411   2.526844  -0.001139   0.353299  -0.003223
 102   5   5.046994  -0.775603   0.343165  -0.001076   0.372926  -0.002885
 103   5   3.330383  -1.783551  -0.127635  -0.001193   0.412182  -0.002895
 104   5   3.070175  -2.258911   2.489852  -0.002108   0.490692  -0.004296
 105   5   4.493329  -1.414050   2.920790  -0.002069   0.490692  -0.004217
 106   5   5.316671  -0.925644   1.448482  -0.002195   0.510320  -0.004300
 107   5   4.378608  -1.550432   0.177234  -0.002322   0.510320  -0.004551
 108   5   3.044888  -2.340476   0.798609  -0.002214   0.490692  -0.004511
 109   2   1.437981   2.966233  -2.123239  -0.000072   0.066064  -0.001083
 110   2   1.098358   3.833774  -1.597057  -0.000276   0.145489  -0.001897
 111   2   1.311153   4.795439  -0.754705  -0.000325   0.145489  -0.002237
 112   2   2.192055   5.317929   0.039433  -0.000352   0.145489  -0.002423
 113   2   3.404589   5.201672   0.482021  -0.000259   0.145489  -0.001778
 114   2   4.485607   4.491073   0.404007  -0.000352   0.145489  -0.002422
 115   2   5.022199   3.457558  -0.164810  -0.000357   0.145489  -0.002452
 116   2   4.809403   2.495893  -1.007162  -0.000306   0.145489  -0.002104
 117   2   3.928501   1.973403  -1.801299  -0.000282   0.145489  -0.001937
 118   2   2.715968   2.089660  -2.243888  -0.000368   0.145489  -0.002532
 119   2   1.776397   2.601353  -2.258561  -0.000070   0.066064  -0.001064
 120   1   0.949779   3.063574  -1.814230  -0.000043   0.145952  -0.000292
 121   1   0.758490   4.242264  -0.980556  -0.000004   0.145952  -0.000025
 122   1   1.404612   5.119056  -0.013769  -0.000136   0.145952  -0.000935
 123   1   2.641347   5.359046   0.716849  -0.000025   0.145952  -0.000174
 124   1   3.996306   4.870565   0.932228  -0.000065   0.145952  -0.000448
 125   1   4.951939   3.840198   0.550101  -0.000129   0.145952  -0.000883
 126   1   5.143227   2.661508  -0.283574  -0.000148   0.145952  -0.001011
 127   1   4.497106   1.784716  -1.250360  -0.000061   0.145952  -0.000419
 128   1   3.260370   1.544726  -1.980978  -0.000170   0.145952  -0.001167
 129   1   1.905412   2.033207  -2.196358  -0.000122   0.145952  -0.000839
 130   3   3.503107   4.861062   3.341576  -0.000059   0.066068  -0.000897
 131   3   2.467742   5.130510   3.358597  -0.000361   0.145496  -0.002479
 132   3   1.241697   4.871622   3.689472  -0.000339   0.145496  -0.002330
 133   3   0.473813   4.006842   4.274447  -0.000338   0.145496  -0.002322
 134   3   0.457395   2.866487   4.890082  -0.000256   0.145496  -0.001760
 135   3   1.198714   1.886133   5.301226  -0.000367   0.145496  -0.002524
 136   3   2.414612   1.440242   5.350835  -0.000300   0.145496  -0.002061
 137   3   3.640656   1.699131   5.019960  -0.000320   0.145496  -0.002199
 138   3   4.408541   2.563911   4.434985  -0.000319   0.145496  -0.002190
 139   3   4.424959   3.704266   3.819350  -0.000348   0.145496  -0.002389
 140   3   3.912570   4.562682   3.437968  -0.000038   0.066068  -0.000580
 141   1   3.145330   5.045435   2.915753  -0.000070   0.145960  -0.000477
 142   1   1.702708   5.155910   3.081916  -0.000069   0.145960  -0.000473
 143   1   0.524757   4.492083   3.622971  -0.000095   0.145960  -0.000653
 144   1   0.061416   3.307512   4.332254  -0.000008   0.145960  -0.000057
 145   1   0.489665   2.054664   4.938842  -0.000083   0.145960  -0.000569
 146   1   1.645927   1.212084   5.211040  -0.000134   0.145960  -0.000916
 147   1   3.088550   1.101609   5.044877  -0.000117   0.145960  -0.000803
 148   1   4.266500   1.765437   4.503822  -0.000090   0.145960  -0.000620
 149   1   4.729841   2.950007   3.794540  -0.000100   0.145960  -0.000686
 150   1   4.301592   4.202855   3.187951  -0.000172   0.145960  -0.001178
 151   4  -1.325956   0.645876   3.201533  -0.000064   0.066067  -0.000968
 152   4  -1.517814   1.694465   3.109239  -0.000353   0.145495  -0.002428
 153   4  -1.628820   2.759288   2.378823  -0.000296   0.145495  -0.002032
 154   4  -1.557092   3.211161   1.166245  -0.000349   0.145495  -0.002399
 155   4  -1.330028   2.877482  -0.065331  -0.000239   0.145495  -0.001643
 156   4  -1.034360   1.885707  -0.845485  -0.000324   0.145495  -0.002228
 157   4  -0.783022   0.614659  -0.876225  -0.000318   0.145495  -0.002187
 158   4  -0.672017  -0.450164  -0.145809  -0.000369   0.145495  -0.002537
 159   4  -0.743744  -0.902036   1.066769  -0.000236   0.145495  -0.001624
 160   4  -0.970808  -0.568358   2.298345  -0.000342   0.145495  -0.002350
 161   4  -1.211518   0.172478   3.031889  -0.000076   0.066067  -0.001146
 162   1  -1.111007   1.104817   3.495624  -0.000093   0.145959  -0.000636
 163   1  -1.325068   2.484776   3.082277  -0.000131   0.145959  -0.000900
 164   1  -1.348272   3.380792   1.934418  -0.000212   0.145959  -0.001454
 165   1  -1.171755   3.450618   0.490489  -0.000142   0.145959  -0.000976
 166   1  -0.862942   2.667582  -0.697978   0.000060   0.145959   0.000409
 167   1  -0.539787   1.330777  -1.177028  -0.000020   0.145959  -0.000138
 168   1  -0.325726  -0.049182  -0.763682  -0.000117   0.145959  -0.000800
 169   1  -0.302522  -0.945198   0.384178   0.000011   0.145959   0.000078
 170   1  -0.479039  -1.015023   1.828107   0.000025   0.145959   0.000171
 171   1  -0.787853  -0.231987   3.016573  -0.000134   0.145959  -0.000918
 172   5   4.965820  -0.235019   3.047870  -0.000092   0.066058  -0.001386
 173   5   4.151686  -0.716549   3.547959  -0.000251   0.145475  -0.001723
 174   5   3.037134  -1.376628   3.507831  -0.000342   0.145475  -0.002353
 175   5   2.156134  -1.899296   2.713979  -0.000302   0.145475  -0.002078
 176   5   1.845200  -2.084912   1.469629  -0.000311   0.145475  -0.002135
 177   5   2.223097  -1.862576   0.250078  -0.000306   0.145475  -0.002103
 178   5   3.145482  -1.317213  -0.478844  -0.000349   0.145475  -0.002402
 179   5   4.260034  -0.657134  -0.438716  -0.000227   0.145475  -0.001562
 180   5   5.141034  -0.134466   0.355135  -0.000358   0.145475  -0.002460
 181   5   5.451968   0.051149   1.599486  -0.000340   0.145475  -0.002338
 182   5   5.237848  -0.074412   2.640236  -0.000100   0.066058  -0.001508
 183   1   4.617836  -0.052612   3.482499  -0.000054   0.145936  -0.000367
 184   1   3.414478  -0.764748   3.889417  -0.000126   0.145936  -0.000866
 185   1   2.235569  -1.463478   3.396728  -0.000140   0.145936  -0.000958
 186   1   1.531412  -1.881910   2.192623  -0.000066   0.145936  -0.000452
 187   1   1.570971  -1.860216   0.737028   0.000009   0.145936   0.000064
 188   1   2.339137  -1.406684  -0.414069  -0.000110   0.145936  -0.000754
 189   1   3.542495  -0.694548  -0.820987  -0.000080   0.145936  -0.000546
 190   1   4.721404   0.004182  -0.328298  -0.000017   0.145936  -0.000114
 191   1   5.425561   0.422614   0.875808  -0.000109   0.145936  -0.000748
 192   1   5.386001   0.400920   2.331403  -0.000173   0.145936  -0.001183
 =====================================================

              1055100  WORDS OF DYNAMIC MEMORY USED
 EXECUTION OF GAMESS TERMINATED NORMALLY Thu Nov 24 16:36:33 2016
 DDI: 263640 bytes (0.3 MB / 0 MWords) used by master data server.

 ----------------------------------------
 CPU timing information for all processes
 ========================================
 0: 4.712 + 0.32 = 4.744
 ----------------------------------------
 ddikick.x: exited gracefully.
