----- GAMESS execution script -----

          ******************************************************
          *         GAMESS VERSION =  5 DEC 2014 (R1)          *
          *             FROM IOWA STATE UNIVERSITY             *
          * M.W.SCHMIDT, K.K.BALDRIDGE, J.A.BOATZ, S.T.ELBERT, *
          *   M.S.GORDON, J.H.JENSEN, S.KOSEKI, N.MATSUNAGA,   *
          *          K.A.NGUYEN, S.J.SU, T.L.WINDUS,           *
          *       TOGETHER WITH M.DUPUIS, J.A.MONTGOMERY       *
          *         J.COMPUT.CHEM.  14, 1347-1363(1993)        *
          **************** 64 BIT LINUX VERSION ****************

 EXECUTION OF GAMESS BEGUN Thu Nov 24 21:20:09 2016

            ECHO OF THE FIRST FEW INPUT CARDS -
 INPUT CARD>! SELECT RESTRICTED HARTREE-FOCK AS DEFAULT                                     
 INPUT CARD>$contrl scftyp=rhf $end                                                         
 INPUT CARD>                                                                                
 INPUT CARD>! THEORY: HF OR DFT                                                             
 INPUT CARD> $contrl mplevl=0 $end                                                          
 INPUT CARD>                                                                                
 INPUT CARD> $system timlim=10000 mwords=20 $end                                            
 INPUT CARD> $SCF DIRSCF=.TRUE. $end                                                        
 INPUT CARD>                                                                                
 INPUT CARD>                                                                                
 INPUT CARD>! BASIS SETS                                                                    
 INPUT CARD>! 6-311G(d,p)                                                                   
 INPUT CARD> $BASIS GBASIS=N311 NGAUSS=6 NDFUNC=1 NPFUNC=1 $END                             
 INPUT CARD>                                                                                
 INPUT CARD>! One of the following                                                          
 INPUT CARD> $guess guess=HUCKEL $end                                                       
 INPUT CARD>                                                                                
 INPUT CARD> $statpt projct=.FALSE. $end                                                    
 INPUT CARD> $STATPT IFREEZ(1)=1,2,3 $END                                                   
 INPUT CARD>                                                                                
 INPUT CARD>! Optimize the geometry with COSMO effects                                      
 INPUT CARD> $statpt opttol=0.0005 nstep=50 $end                                            
 INPUT CARD> $contrl nzvar=1 $end                                                           
 INPUT CARD> $zmat dlc=.t. auto=.t. $end                                                    
 INPUT CARD> $contrl runtyp=OPTIMIZE maxit=200 $end                                         
 INPUT CARD>                                                                                
 INPUT CARD>! Run COSMO on perfect conductor                                                
 INPUT CARD> $COSGMS PRFCND=.TRUE. $end                                                     
 INPUT CARD>                                                                                
 INPUT CARD>! Specifying RSOLV                                                              
 INPUT CARD> $COSGMS COSRAD = 1.4 $end                                                      
 INPUT CARD>                                                                                
 INPUT CARD>! available memory                                                              
 INPUT CARD> $SYSTEM MWORDS=40 $END                                                         
 INPUT CARD>                                                                                
 INPUT CARD> $DATA                                                                          
 INPUT CARD>Propane, 2-methoxy-2-methyl-, ID: C1634044                                      
 INPUT CARD>C1                                                                              
 INPUT CARD>O      8.0      1.8656000000    0.4782000000    1.0283000000                    
 INPUT CARD>C      6.0      2.7549000000    1.3973000000    1.6953000000                    
 INPUT CARD>C      6.0      2.7902000000    1.1523000000    3.2080000000                    
 INPUT CARD>C      6.0      4.1314000000    1.0997000000    1.0919000000                    
 INPUT CARD>C      6.0      2.3601000000    2.8509000000    1.4095000000                    
 INPUT CARD>C      6.0      0.5198000000    0.5561000000    1.4133000000                    
 INPUT CARD>H      1.0      1.8512000000    1.4537000000    3.6912000000                    
 INPUT CARD>H      1.0      2.9581000000    0.0927000000    3.4407000000                    
 INPUT CARD>H      1.0      3.6000000000    1.7276000000    3.6750000000                    
 INPUT CARD>H      1.0      4.4569000000    0.0751000000    1.3148000000                    
 INPUT CARD>H      1.0      4.1308000000    1.2160000000    0.0000000000                    
 INPUT CARD>H      1.0      4.8851000000    1.7860000000    1.4989000000                    
   40000000 WORDS OF MEMORY AVAILABLE

     BASIS OPTIONS
     -------------
     GBASIS=N311         IGAUSS=       6      POLAR=POPN311 
     NDFUNC=       1     NFFUNC=       0     DIFFSP=       F
     NPFUNC=       1      DIFFS=       F     BASNAM=        


     RUN TITLE
     ---------
 Propane, 2-methoxy-2-methyl-, ID: C1634044                                      

 THE POINT GROUP OF THE MOLECULE IS C1      
 THE ORDER OF THE PRINCIPAL AXIS IS     0

 ATOM      ATOMIC                      COORDINATES (BOHR)
           CHARGE         X                   Y                   Z
 O           8.0     3.5254728027        0.9036669673        1.9432052332
 C           6.0     5.2060061236        2.6405141226        3.2036524670
 C           6.0     5.2727134509        2.1775312557        6.0622409686
 C           6.0     7.8072139457        2.0781316687        2.0633918060
 C           6.0     4.4599423036        5.3874198184        2.6635687797
 C           6.0     0.9822795684        1.0508766218        2.6707497384
 H           1.0     3.4982607485        2.7470946684        6.9753565659
 H           1.0     5.5899984443        0.1751775991        6.5019802060
 H           1.0     6.8030135558        3.2646906164        6.9447430049
 H           1.0     8.4223197547        0.1419184217        2.4846117287
 H           1.0     7.8060801101        2.2979068011        0.0000000000
 H           1.0     9.2315004226        3.3750506141        2.8325102830
 H           1.0     2.4468172089        5.7071614555        3.0955601405
 H           1.0     4.7500152427        5.8791265204        0.6697188900
 H           1.0     5.5797939239        6.7024801333        3.8087427283
 H           1.0     0.2932854733        3.0129791148        2.7469056958
 H           1.0     0.0000000000        0.0000000000        1.1895825093
 H           1.0     0.6699078626        0.1460758189        4.5081303163

          INTERNUCLEAR DISTANCES (ANGS.)




     $CONTRL OPTIONS
     ---------------
 SCFTYP=RHF          RUNTYP=OPTIMIZE     EXETYP=RUN     
 MPLEVL=       0     CITYP =NONE         CCTYP =NONE         VBTYP =NONE    
 DFTTYP=NONE         TDDFT =NONE    
 MULT  =       1     ICHARG=       0     NZVAR =       1     COORD =UNIQUE  
 PP    =NONE         RELWFN=NONE         LOCAL =NONE         NUMGRD=       F
 ISPHER=      -1     NOSYM =       0     MAXIT =     200     UNITS =ANGS    
 PLTORB=       F     MOLPLT=       F     AIMPAC=       F     FRIEND=        
 NPRINT=       7     IREST =       0     GEOM  =INPUT   
 NORMF =       0     NORMP =       0     ITOL  =      20     ICUT  =       9
 INTTYP=BEST         GRDTYP=BEST         QMTTOL= 1.0E-06

     $SYSTEM OPTIONS
     ---------------
  REPLICATED MEMORY=    40000000 WORDS (ON EVERY NODE).
 DISTRIBUTED MEMDDI=           0 MILLION WORDS IN AGGREGATE,
 MEMDDI DISTRIBUTED OVER   1 PROCESSORS IS           0 WORDS/PROCESSOR.
 TOTAL MEMORY REQUESTED ON EACH PROCESSOR=    40000000 WORDS.
 TIMLIM=       10000.00 MINUTES, OR       6.9 DAYS.
 PARALL= F  BALTYP=  DLB     KDIAG=    0  COREFL= F
 MXSEQ2=     300 MXSEQ3=     150  mem10=         0

     $COSGMS OPTIONS
     ---------------
     EPSI  =   INFTY     NSPA  =      92     COSRAD=    1.40
     DISEX =   10.00     OUTCHG=DBLCAV       COSBUG=       F
     COSWRT=       F     DCOSMO=       F

     SYMMETRY COORDINATES WILL NOT BE USED FOR 
     THE COSMO CALCULATION, EVEN IF SPECIFIED:
         -- SWITCHING TO C1 POINT GROUP --


     DEFINITION OF CAVITY
     ---------------------------
     ATOM         COORDINATES           RADIUS 
     1    3.5255    0.9037    1.9432    1.7200
     2    5.2060    2.6405    3.2037    2.0000
     3    5.2727    2.1775    6.0622    2.0000
     4    7.8072    2.0781    2.0634    2.0000
     5    4.4599    5.3874    2.6636    2.0000
     6    0.9823    1.0509    2.6707    2.0000
     7    3.4983    2.7471    6.9754    1.3000
     8    5.5900    0.1752    6.5020    1.3000
     9    6.8030    3.2647    6.9447    1.3000
    10    8.4223    0.1419    2.4846    1.3000
    11    7.8061    2.2979    0.0000    1.3000
    12    9.2315    3.3751    2.8325    1.3000
    13    2.4468    5.7072    3.0956    1.3000
    14    4.7500    5.8791    0.6697    1.3000
    15    5.5798    6.7025    3.8087    1.3000
    16    0.2933    3.0130    2.7469    1.3000
    17    0.0000    0.0000    1.1896    1.3000
    18    0.6699    0.1461    4.5081    1.3000

          ----------------
          PROPERTIES INPUT
          ----------------

     MOMENTS            FIELD           POTENTIAL          DENSITY
 IEMOM =       1   IEFLD =       0   IEPOT =       0   IEDEN =       0
 WHERE =COMASS     WHERE =NUCLEI     WHERE =NUCLEI     WHERE =NUCLEI  
 OUTPUT=BOTH       OUTPUT=BOTH       OUTPUT=BOTH       OUTPUT=BOTH    
 IEMINT=       0   IEFINT=       0                     IEDINT=       0
                                                       MORB  =       0
          EXTRAPOLATION IN EFFECT
          SOSCF IN EFFECT
 ORBITAL PRINTING OPTION: NPREO=     1   186     2     1

     -------------------------------
     INTEGRAL TRANSFORMATION OPTIONS
     -------------------------------
     NWORD  =            0
     CUTOFF = 1.0E-09     MPTRAN =       0
     DIRTRF =       T     AOINTS =DUP     

          ----------------------
          INTEGRAL INPUT OPTIONS
          ----------------------
 NOPK  =       1 NORDER=       0 SCHWRZ=       T


 -----------------------------------------------
  STATISTICS ON AUTOMATIC COORDINATE GENERATION 
 -----------------------------------------------
  NUMBER OF USER SPECIFIED BONDS                             0
  NUMBER OF BONDS                                           17
  NUMBER OF ANGLES                                          31
  NUMBER OF TORSIONS                                        33
  NUMBER OF EXTRA COORD.                                     0
  NUMBER OF EXTRA COORD. FOR CONSTRAINTS                     0
  NUMBER OF CONSTRAINED COORD.                               0

  TOTAL NUMBER OF PRIMITIVES                                81
 -----------------------------------------------

   --- ENCODED Z MATRIX ---
 COORD  TYPE   I   J   K   L   M   N
    1      1    1   6
    2      1    1   2
    3      1    2   4
    4      1    2   3
    5      1    2   5
    6      1    3   7
    7      1    3   8
    8      1    3   9
    9      1    4  12
   10      1    4  11
   11      1    4  10
   12      1    5  15
   13      1    5  14
   14      1    5  13
   15      1    6  16
   16      1    6  18
   17      1    6  17
   18      2    1   6  17
   19      2    1   6  16
   20      2    1   6  18
   21      2    1   2   3
   22      2    1   2   4
   23      2    1   2   5
   24      2    2   3   8
   25      2    2   3   7
   26      2    2   4  10
   27      2    2   4  11
   28      2    2   4  12
   29      2    2   5  14
   30      2    2   5  15
   31      2    2   1   6
   32      2    2   3   9
   33      2    2   5  13
   34      2    3   2   5
   35      2    3   2   4
   36      2    4   2   5
   37      2    7   3   9
   38      2    7   3   8
   39      2    8   3   9
   40      2   10   4  11
   41      2   10   4  12
   42      2   11   4  12
   43      2   13   5  14
   44      2   13   5  15
   45      2   14   5  15
   46      2   16   6  17
   47      2   16   6  18
   48      2   17   6  18
   49      3    1   2   5  13
   50      3    1   2   3   9
   51      3    1   2   5  14
   52      3    1   2   5  15
   53      3    1   2   3   8
   54      3    1   2   4  10
   55      3    1   2   4  11
   56      3    1   2   3   7
   57      3    1   2   4  12
   58      3    2   1   6  18
   59      3    2   1   6  17
   60      3    2   1   6  16
   61      3    3   2   4  12
   62      3    3   2   4  11
   63      3    3   2   5  13
   64      3    3   2   4  10
   65      3    3   2   5  15
   66      3    3   2   1   6
   67      3    3   2   5  14
   68      3    4   2   5  13
   69      3    4   2   3   9
   70      3    4   2   3   7
   71      3    4   2   5  15
   72      3    4   2   3   8
   73      3    4   2   5  14
   74      3    4   2   1   6
   75      3    5   2   4  12
   76      3    5   2   4  11
   77      3    5   2   4  10
   78      3    5   2   1   6
   79      3    5   2   3   9
   80      3    5   2   3   7
   81      3    5   2   3   8

          INDEP./SYM. INTERNAL COORDINATES
          --------------------------------
 CRD  1=   0.2089 (  2) -0.1210 ( 18)  0.1198 ( 19)  0.1274 ( 21) -0.1980 ( 22)
           0.1289 ( 23)  0.8226 ( 31) -0.1573 ( 34)  0.1181 ( 49)  0.1018 ( 52)
          -0.1210 ( 56)
 CRD  2=  -0.1049 ( 19)  0.1407 ( 20)  0.3096 ( 21) -0.3090 ( 23)  0.1278 ( 25)
          -0.1102 ( 32) -0.1448 ( 33) -0.3222 ( 35)  0.3231 ( 36)  0.1054 ( 51)
           0.1070 ( 53) -0.1491 ( 54) -0.1509 ( 55) -0.1163 ( 57) -0.1289 ( 63)
          -0.1541 ( 65)  0.3339 ( 66)  0.1216 ( 72)  0.1186 ( 73)  0.1078 ( 74)
           0.3357 ( 78) -0.1428 ( 79) -0.1435 ( 80)
 CRD  3=   0.2700 (  1)  0.1720 (  2)  0.1094 ( 19) -0.1298 ( 21)  0.2955 ( 22)
          -0.1322 ( 23) -0.1273 ( 24)  0.1411 ( 25) -0.1316 ( 28) -0.1412 ( 29)
           0.2389 ( 31)  0.1078 ( 33)  0.4235 ( 34) -0.2435 ( 35) -0.2387 ( 36)
          -0.1063 ( 61) -0.1101 ( 63) -0.1470 ( 64)  0.1777 ( 66) -0.1573 ( 69)
           0.1561 ( 71)  0.1021 ( 73)  0.1109 ( 75)  0.1446 ( 76) -0.1812 ( 78)
 CRD  4=   0.2568 (  4) -0.2551 (  5) -0.1586 ( 19)  0.2140 ( 20)  0.1000 ( 24)
           0.2174 ( 26) -0.2066 ( 27) -0.1117 ( 29)  0.2622 ( 35) -0.2653 ( 36)
          -0.1421 ( 57)  0.1194 ( 58)  0.1642 ( 60)  0.1951 ( 66) -0.1058 ( 72)
          -0.1012 ( 73)  0.4937 ( 74)  0.1930 ( 78)
 CRD  5=   0.3858 (  1)  0.2365 (  2)  0.3971 (  3) -0.2063 (  4) -0.2084 (  5)
           0.1544 ( 18)  0.1471 ( 22) -0.1666 ( 25)  0.1590 ( 26)  0.1701 ( 27)
          -0.1220 ( 30) -0.1323 ( 33) -0.1798 ( 34) -0.1282 ( 40) -0.1055 ( 46)
          -0.1096 ( 48)  0.1531 ( 50) -0.1156 ( 51) -0.1482 ( 52)  0.1045 ( 53)
           0.1212 ( 62) -0.1225 ( 66)  0.1132 ( 68) -0.1060 ( 70) -0.1231 ( 77)
           0.1210 ( 78)
 CRD  6=  -0.2042 (  4)  0.2043 (  5)  0.1318 ( 20) -0.1780 ( 21)  0.1794 ( 23)
          -0.1886 ( 24)  0.1827 ( 29) -0.1067 ( 50)  0.1448 ( 54)  0.1443 ( 55)
           0.1741 ( 57)  0.3508 ( 58)  0.3329 ( 59)  0.3689 ( 60)  0.2642 ( 66)
           0.1087 ( 74)  0.2631 ( 78)
 CRD  7=  -0.4840 (  3) -0.3652 (  4) -0.3676 (  5) -0.2614 ( 28) -0.2476 ( 30)
          -0.2559 ( 32)  0.1151 ( 37)  0.1141 ( 39)  0.1032 ( 40)  0.1451 ( 41)
           0.1435 ( 42)  0.1058 ( 44)  0.1238 ( 45)  0.1034 ( 62) -0.1287 ( 67)
          -0.1025 ( 70) -0.1037 ( 77)  0.1242 ( 81)
 CRD  8=   0.2500 (  2)  0.2989 (  4)  0.3022 (  5)  0.3436 ( 18) -0.2626 ( 19)
           0.2440 ( 24)  0.1776 ( 25)  0.1040 ( 27) -0.1845 ( 28)  0.1712 ( 29)
          -0.1846 ( 30) -0.1513 ( 31) -0.1837 ( 32)  0.2596 ( 33) -0.1663 ( 38)
          -0.1678 ( 43) -0.1279 ( 67)  0.1219 ( 81)
 CRD  9=  -0.3142 (  4)  0.2996 (  5)  0.1168 ( 16) -0.1374 ( 18) -0.3578 ( 19)
           0.4882 ( 20) -0.1704 ( 25)  0.1943 ( 26) -0.1802 ( 27)  0.1318 ( 30)
          -0.1038 ( 32)  0.1560 ( 33)  0.1345 ( 37) -0.1380 ( 44)  0.1089 ( 46)
          -0.2122 ( 58) -0.2836 ( 59) -0.1516 ( 60)
 CRD 10=  -0.1553 (  1) -0.3372 (  2)  0.2669 (  3) -0.1246 ( 17) -0.4541 ( 18)
           0.2450 ( 19)  0.2013 ( 25)  0.1963 ( 26)  0.2156 ( 27) -0.1855 ( 28)
          -0.2234 ( 30) -0.2544 ( 32)  0.2540 ( 33) -0.1152 ( 38) -0.1852 ( 40)
           0.1027 ( 45)  0.1417 ( 48)
 CRD 11=   0.2377 (  3) -0.1400 (  4) -0.1483 (  5)  0.1677 ( 18) -0.1096 ( 19)
          -0.2639 ( 24)  0.3274 ( 25) -0.1219 ( 27)  0.4283 ( 28) -0.3478 ( 29)
          -0.1860 ( 32)  0.2959 ( 33)  0.1915 ( 39) -0.1487 ( 41) -0.1397 ( 42)
           0.1811 ( 45)
 CRD 12=   0.1489 (  4) -0.1547 (  5) -0.2358 ( 19)  0.3183 ( 20) -0.2392 ( 24)
          -0.3411 ( 26)  0.3273 ( 27)  0.1796 ( 29) -0.3427 ( 30)  0.2985 ( 32)
          -0.1627 ( 37)  0.1328 ( 41) -0.1428 ( 42)  0.1403 ( 44) -0.1539 ( 58)
          -0.1949 ( 59) -0.1179 ( 60)
 CRD 13=  -0.1005 (  7) -0.1041 ( 10)  0.1046 ( 11)  0.1196 ( 13) -0.3534 ( 24)
           0.3426 ( 25)  0.3530 ( 26) -0.3523 ( 27)  0.4159 ( 29) -0.1513 ( 30)
          -0.2577 ( 33) -0.1459 ( 37)  0.1470 ( 39) -0.1487 ( 41)  0.1497 ( 42)
           0.1738 ( 44) -0.1137 ( 45)
 CRD 14=   0.1325 (  1)  0.1216 (  7)  0.1258 (  9)  0.1051 ( 13) -0.1085 ( 18)
           0.1559 ( 19)  0.3440 ( 24) -0.1200 ( 25) -0.2334 ( 26) -0.2645 ( 27)
           0.4276 ( 28)  0.2855 ( 29) -0.2907 ( 30) -0.1886 ( 32)  0.1390 ( 37)
          -0.1004 ( 38)  0.2212 ( 40) -0.1488 ( 43)  0.1112 ( 44)
 CRD 15=  -0.1132 (  6)  0.1362 (  8) -0.1034 ( 12)  0.1353 ( 14)  0.1174 ( 19)
          -0.1740 ( 20) -0.1234 ( 24) -0.3332 ( 25)  0.2109 ( 26) -0.1777 ( 27)
          -0.3186 ( 30)  0.4155 ( 32)  0.4052 ( 33)  0.2085 ( 38) -0.1313 ( 39)
          -0.1610 ( 43)  0.1639 ( 45)
 CRD 16=   0.3278 (  1) -0.1307 (  3) -0.1359 (  9)  0.1035 ( 10) -0.1300 ( 17)
           0.2854 ( 19)  0.2116 ( 20) -0.1203 ( 22)  0.1083 ( 25) -0.1327 ( 28)
          -0.1963 ( 31)  0.1081 ( 41)  0.1022 ( 42) -0.1237 ( 46) -0.2645 ( 47)
          -0.1164 ( 51)  0.1137 ( 53) -0.1443 ( 63) -0.1418 ( 65) -0.1648 ( 67)
          -0.1769 ( 68)  0.1778 ( 69)  0.1683 ( 70) -0.1744 ( 71)  0.1956 ( 72)
          -0.1974 ( 73)  0.1446 ( 79)  0.1351 ( 80)  0.1624 ( 81)
 CRD 17=   0.1377 (  7) -0.1220 ( 14)  0.1336 ( 19) -0.1758 ( 20) -0.1048 ( 45)
          -0.1826 ( 46)  0.1261 ( 48)  0.1351 ( 49)  0.1040 ( 50)  0.1124 ( 52)
          -0.2165 ( 54) -0.2163 ( 55)  0.1355 ( 56) -0.2192 ( 57) -0.1901 ( 59)
          -0.2134 ( 61) -0.2106 ( 62)  0.1489 ( 63) -0.2107 ( 64)  0.1262 ( 65)
           0.1018 ( 67)  0.1050 ( 68)  0.1093 ( 70)  0.1693 ( 74) -0.2115 ( 75)
          -0.2086 ( 76) -0.2088 ( 77)  0.1182 ( 79)  0.1497 ( 80)  0.1056 ( 81)
 CRD 18=  -0.1812 ( 49) -0.2047 ( 50) -0.1807 ( 51) -0.2036 ( 52) -0.1769 ( 53)
          -0.1792 ( 54) -0.1772 ( 55) -0.1810 ( 56) -0.2034 ( 57) -0.1987 ( 61)
          -0.1725 ( 62) -0.1822 ( 63) -0.1745 ( 64) -0.2047 ( 65) -0.1818 ( 67)
          -0.1825 ( 68) -0.2087 ( 69) -0.1850 ( 70) -0.2049 ( 71) -0.1808 ( 72)
          -0.1820 ( 73) -0.1996 ( 75) -0.1734 ( 76) -0.1754 ( 77) -0.2072 ( 79)
          -0.1835 ( 80) -0.1793 ( 81)
 CRD 19=  -0.1441 (  2)  0.1602 (  9)  0.1116 ( 10)  0.1094 ( 11) -0.4117 ( 15)
          -0.4339 ( 16) -0.4208 ( 17)  0.2687 ( 18)  0.1259 ( 19)  0.1675 ( 20)
          -0.1884 ( 46) -0.1217 ( 47) -0.2477 ( 48) -0.1053 ( 81)
 CRD 20=  -0.1574 (  7) -0.1185 (  8)  0.3723 (  9)  0.3162 ( 10)  0.2975 ( 11)
          -0.3335 ( 12) -0.3339 ( 13) -0.2837 ( 14) -0.1574 ( 26) -0.1405 ( 27)
          -0.1093 ( 28)  0.1080 ( 29)  0.1328 ( 30)  0.1508 ( 33)  0.1715 ( 40)
           0.1367 ( 41)  0.1248 ( 42) -0.1401 ( 43) -0.1540 ( 44) -0.1213 ( 45)
 CRD 21=  -0.3768 (  6) -0.3460 (  7) -0.4314 (  8)  0.1191 (  9)  0.1369 ( 11)
           0.3023 ( 12)  0.2144 ( 13)  0.2510 ( 14)  0.1742 ( 24)  0.1571 ( 25)
          -0.1357 ( 29)  0.1409 ( 32) -0.1500 ( 37) -0.1891 ( 38) -0.1640 ( 39)
           0.1319 ( 43)  0.1176 ( 45)
 CRD 22=   0.1087 (  3)  0.2570 (  6)  0.2622 (  7)  0.2502 (  8)  0.2875 (  9)
           0.3324 ( 10)  0.3297 ( 11)  0.2480 ( 12)  0.2578 ( 13)  0.2543 ( 14)
           0.1386 ( 15)  0.1408 ( 16)  0.1178 ( 17) -0.1123 ( 26) -0.1116 ( 27)
          -0.1290 ( 28) -0.1036 ( 30) -0.1039 ( 32)  0.1048 ( 37)  0.1027 ( 39)
           0.1165 ( 40)  0.1296 ( 41)  0.1294 ( 42)  0.1010 ( 44)  0.1051 ( 45)
 CRD 23=   0.4666 ( 15) -0.4298 ( 16)  0.4539 ( 46) -0.4368 ( 48) -0.1697 ( 58)
           0.3329 ( 59) -0.1792 ( 60)
 CRD 24=  -0.2839 ( 15) -0.2839 ( 16)  0.4681 ( 17)  0.2469 ( 46) -0.5279 ( 47)
           0.2627 ( 48)  0.2906 ( 58) -0.2858 ( 60)
 CRD 25=  -0.2180 (  9)  0.2858 ( 10)  0.2410 ( 12) -0.5475 ( 13)  0.2986 ( 14)
           0.1018 ( 40) -0.1371 ( 41) -0.1387 ( 43)  0.3050 ( 44) -0.1635 ( 45)
          -0.1494 ( 49)  0.1718 ( 52) -0.1536 ( 63)  0.1677 ( 65) -0.1544 ( 68)
           0.1668 ( 71)
 CRD 26=  -0.4249 (  6)  0.4166 (  7)  0.2443 (  9)  0.1232 ( 10) -0.3849 ( 11)
           0.1409 ( 14) -0.2310 ( 37)  0.2343 ( 39) -0.1177 ( 40)  0.1922 ( 42)
           0.1730 ( 50)  0.1095 ( 57)  0.1184 ( 61)  0.1725 ( 69) -0.1104 ( 76)
           0.1708 ( 79)
 CRD 27=   0.3047 (  6) -0.3061 (  8)  0.3994 ( 10) -0.3798 ( 11)  0.1688 ( 12)
          -0.2777 ( 14)  0.1574 ( 38) -0.1641 ( 39) -0.2189 ( 41)  0.2103 ( 42)
           0.1451 ( 45)  0.1114 ( 53)  0.1567 ( 57)  0.1510 ( 61)  0.1259 ( 72)
           0.1507 ( 75)  0.1078 ( 81)
 CRD 28=   0.1327 (  6) -0.1276 (  7)  0.5185 (  9) -0.3499 ( 10) -0.1743 ( 11)
           0.3376 ( 12) -0.2346 ( 13) -0.2551 ( 40)  0.1743 ( 41) -0.1628 ( 43)
           0.1163 ( 44) -0.1049 ( 49)  0.1638 ( 54) -0.1220 ( 55) -0.1156 ( 62)
          -0.1160 ( 63)  0.1702 ( 64) -0.1184 ( 68) -0.1168 ( 76)  0.1690 ( 77)
 CRD 29=  -0.2457 (  6) -0.2816 (  7)  0.5272 (  8)  0.1662 ( 10) -0.1254 ( 11)
           0.1496 ( 12)  0.1597 ( 13) -0.3018 ( 14)  0.1545 ( 37) -0.2829 ( 38)
           0.1315 ( 39)  0.1567 ( 45) -0.1496 ( 53)  0.1605 ( 56)  0.1159 ( 67)
           0.1594 ( 70) -0.1507 ( 72)  0.1042 ( 73)  0.1438 ( 80) -0.1663 ( 81)
 CRD 30=  -0.2223 (  6)  0.3507 (  7) -0.1222 (  8) -0.1670 (  9)  0.2700 ( 11)
           0.3989 ( 12) -0.3603 ( 14) -0.1865 ( 37)  0.1163 ( 39) -0.1404 ( 42)
          -0.2294 ( 43)  0.1942 ( 45) -0.1038 ( 49)  0.1053 ( 50)  0.1471 ( 51)
           0.1141 ( 62)  0.1563 ( 67) -0.1018 ( 68) -0.1175 ( 70)  0.1491 ( 73)
           0.1177 ( 76) -0.1244 ( 80)
 CRD 31=  -0.1419 (  1)  0.5149 (  2)  0.1076 (  8)  0.1255 ( 12) -0.3630 ( 17)
          -0.3379 ( 18)  0.1710 ( 19)  0.1020 ( 28) -0.2530 ( 31) -0.1004 ( 34)
           0.1699 ( 40)  0.1474 ( 62)  0.1446 ( 68) -0.1060 ( 69) -0.1470 ( 70)
           0.1194 ( 71) -0.1528 ( 77)
 CRD 32=  -0.3406 (  1)  0.1107 (  2)  0.1918 (  3) -0.1597 (  6)  0.1054 (  9)
           0.1267 ( 10)  0.1298 ( 11) -0.1598 ( 14) -0.2862 ( 15) -0.2565 ( 16)
          -0.1729 ( 17) -0.1505 ( 19) -0.1314 ( 20) -0.1191 ( 25)  0.1152 ( 31)
          -0.1169 ( 33) -0.1078 ( 40)  0.1174 ( 46)  0.1464 ( 47)  0.1033 ( 48)
          -0.1161 ( 49)  0.1149 ( 50) -0.1632 ( 51) -0.1070 ( 52)  0.1628 ( 53)
           0.1102 ( 56) -0.1519 ( 63) -0.1428 ( 65) -0.1990 ( 67)  0.1235 ( 72)
          -0.1199 ( 73)  0.1518 ( 79)  0.1471 ( 80)  0.1997 ( 81)
 CRD 33=  -0.1974 (  4)  0.1946 (  5) -0.2276 (  7)  0.1464 ( 10) -0.1506 ( 11)
           0.2276 ( 13)  0.1080 ( 14)  0.1892 ( 15) -0.2618 ( 16)  0.1090 ( 19)
          -0.1532 ( 20) -0.1547 ( 24) -0.1175 ( 26)  0.1133 ( 27)  0.1540 ( 29)
           0.1295 ( 35) -0.1336 ( 36)  0.1436 ( 38)  0.1164 ( 41) -0.1249 ( 42)
          -0.1496 ( 43) -0.1288 ( 46) -0.1081 ( 58) -0.1703 ( 59)  0.1654 ( 62)
           0.1623 ( 64)  0.1145 ( 66) -0.1316 ( 68) -0.1344 ( 70) -0.1060 ( 71)
           0.2747 ( 74)  0.1640 ( 76)  0.1609 ( 77)  0.1132 ( 78)
 CRD 34=   0.1444 (  1)  0.1384 (  3)  0.1880 (  6) -0.2000 (  9) -0.2129 ( 10)
          -0.2130 ( 11)  0.1901 ( 14) -0.1938 ( 15) -0.1494 ( 16) -0.1182 ( 18)
          -0.1477 ( 19) -0.1431 ( 20)  0.1276 ( 22)  0.1015 ( 25) -0.1974 ( 26)
          -0.1965 ( 27) -0.1972 ( 28)  0.1502 ( 31)  0.1084 ( 33) -0.1062 ( 37)
          -0.1231 ( 38)  0.2143 ( 40)  0.2077 ( 41)  0.2067 ( 42) -0.1056 ( 43)
          -0.1365 ( 44)  0.1226 ( 46)  0.1828 ( 47) -0.1359 ( 49)  0.1924 ( 50)
          -0.1061 ( 51) -0.1946 ( 52)  0.1013 ( 53)  0.1549 ( 56)
 CRD 35=  -0.3841 (  2) -0.1671 (  4) -0.1734 (  5)  0.1146 (  6)  0.2803 (  8)
           0.2214 (  9)  0.2879 ( 12)  0.1290 ( 17)  0.1194 ( 24)  0.1338 ( 25)
           0.1137 ( 28)  0.1305 ( 29)  0.1845 ( 30)  0.1817 ( 32)  0.1239 ( 33)
          -0.2270 ( 37) -0.1832 ( 39) -0.1400 ( 41) -0.1300 ( 42) -0.2020 ( 44)
          -0.2153 ( 45)  0.1172 ( 62) -0.1115 ( 67)  0.1115 ( 68) -0.1183 ( 70)
          -0.1220 ( 77)  0.1014 ( 81)
 CRD 36=  -0.2164 (  4)  0.2190 (  5)  0.1382 (  6)  0.2072 (  7)  0.1483 (  8)
          -0.1329 ( 12) -0.2112 ( 13) -0.1401 ( 14)  0.2119 ( 15) -0.2869 ( 16)
          -0.1070 ( 21)  0.1039 ( 23)  0.1640 ( 24)  0.1600 ( 25) -0.1627 ( 29)
          -0.1546 ( 30)  0.1578 ( 32) -0.1575 ( 33) -0.1371 ( 37) -0.1829 ( 38)
          -0.1935 ( 39)  0.1882 ( 43)  0.1297 ( 44)  0.1855 ( 45) -0.1842 ( 46)
           0.1326 ( 48)  0.1243 ( 54)  0.1248 ( 55)  0.1574 ( 57) -0.1051 ( 58)
          -0.2732 ( 59)
 CRD 37=  -0.4727 (  1)  0.3596 (  3)  0.1198 (  4)  0.1096 (  5) -0.1900 ( 10)
          -0.1829 ( 11) -0.1115 ( 14)  0.1332 ( 16)  0.2369 ( 17)  0.1331 ( 18)
           0.1931 ( 19)  0.1751 ( 20) -0.1537 ( 26) -0.1541 ( 27) -0.1381 ( 28)
           0.1199 ( 38)  0.2186 ( 40)  0.1249 ( 41)  0.1298 ( 42)  0.1101 ( 43)
          -0.1800 ( 46) -0.1079 ( 47) -0.2146 ( 48)
 CRD 38=  -0.3897 (  1)  0.3646 (  2) -0.2725 (  4) -0.2861 (  5)  0.1137 (  6)
           0.2012 (  7) -0.1581 (  9)  0.1694 ( 13)  0.1595 ( 14)  0.1500 ( 15)
           0.1115 ( 16)  0.1250 ( 19)  0.1254 ( 20)  0.1051 ( 24)  0.1046 ( 29)
          -0.2017 ( 38) -0.1285 ( 40) -0.2094 ( 43) -0.1082 ( 46) -0.1511 ( 47)
          -0.1134 ( 62) -0.1082 ( 68)  0.1181 ( 70)  0.1139 ( 77)
 CRD 39=   0.3037 (  4) -0.3471 (  5) -0.1545 (  6) -0.1721 ( 10)  0.1356 ( 11)
           0.1644 ( 12)  0.3284 ( 15) -0.2893 ( 16) -0.1641 ( 19)  0.1209 ( 20)
           0.1584 ( 37)  0.1405 ( 42) -0.1425 ( 44) -0.1088 ( 45) -0.1778 ( 46)
           0.2292 ( 48) -0.1184 ( 50)  0.1838 ( 57)  0.1043 ( 58) -0.2386 ( 59)
          -0.1103 ( 74)
 CRD 40=   0.1208 (  2) -0.2795 (  3)  0.1984 (  4) -0.1309 (  8)  0.1179 ( 11)
          -0.1034 ( 13)  0.1218 ( 14) -0.2093 ( 15) -0.1952 ( 16)  0.4622 ( 17)
          -0.1913 ( 18)  0.1243 ( 19)  0.1014 ( 20)  0.1331 ( 39) -0.1152 ( 41)
          -0.1643 ( 46)  0.2658 ( 47) -0.1735 ( 48) -0.1522 ( 52) -0.2725 ( 58)
           0.2406 ( 60)
 CRD 41=  -0.2421 (  1) -0.2798 (  3)  0.1357 (  4)  0.1482 (  5)  0.1660 (  6)
          -0.1633 (  7)  0.1283 (  9) -0.1919 ( 13)  0.1348 ( 14)  0.2244 ( 15)
           0.1141 ( 16) -0.2316 ( 17)  0.1964 ( 18)  0.1253 ( 22)  0.2461 ( 31)
           0.1745 ( 39)  0.1548 ( 45) -0.2163 ( 47)  0.2436 ( 50) -0.2404 ( 52)
           0.1013 ( 56)  0.1800 ( 58) -0.1354 ( 60) -0.1255 ( 65)  0.1247 ( 69)
          -0.1238 ( 71)  0.1259 ( 79)
 CRD 42=  -0.2319 (  6)  0.2242 (  7)  0.1047 ( 12) -0.2573 ( 13)  0.1794 ( 14)
          -0.1360 ( 15)  0.1886 ( 16)  0.1079 ( 19) -0.1423 ( 20) -0.1052 ( 24)
           0.1192 ( 29)  0.1864 ( 37) -0.1572 ( 39) -0.2124 ( 44)  0.1189 ( 45)
           0.1268 ( 46)  0.1367 ( 49) -0.1927 ( 50) -0.1902 ( 52)  0.1092 ( 54)
           0.1068 ( 55) -0.1726 ( 58) -0.2442 ( 60)  0.1680 ( 63) -0.1589 ( 65)
           0.1494 ( 68) -0.1842 ( 69)  0.1009 ( 70) -0.1774 ( 71)  0.1098 ( 74)
          -0.1664 ( 79)  0.1187 ( 80)  0.1086 ( 81)
 CRD 43=   0.1306 (  8) -0.2995 ( 10)  0.2158 ( 11) -0.2321 ( 12)  0.1073 ( 13)
           0.1222 ( 14)  0.1046 ( 16) -0.1029 ( 26)  0.1428 ( 27)  0.1044 ( 30)
           0.1241 ( 35) -0.2258 ( 41)  0.1593 ( 42) -0.1703 ( 43) -0.1595 ( 49)
           0.1287 ( 51) -0.1642 ( 54)  0.2131 ( 57) -0.1199 ( 60)  0.1894 ( 61)
          -0.1203 ( 63) -0.1879 ( 64)  0.1679 ( 67) -0.1938 ( 68)  0.1716 ( 74)
           0.1669 ( 75) -0.1028 ( 76) -0.2104 ( 77)  0.1336 ( 81)
 CRD 44=   0.2076 (  7) -0.1837 (  8)  0.3121 (  9) -0.2335 ( 11) -0.1286 ( 12)
           0.1245 ( 13) -0.1015 ( 24)  0.1114 ( 26) -0.1380 ( 28) -0.1095 ( 34)
           0.1589 ( 37) -0.1329 ( 38)  0.2271 ( 40) -0.1798 ( 42) -0.1248 ( 49)
          -0.1604 ( 54)  0.2303 ( 55)  0.1972 ( 56)  0.2717 ( 62) -0.1506 ( 63)
          -0.1190 ( 64) -0.1613 ( 68)  0.2496 ( 70)  0.2044 ( 76) -0.1863 ( 77)
           0.1981 ( 80)
 CRD 45=   0.1744 (  6) -0.2386 (  8) -0.1570 ( 10)  0.1449 ( 11)  0.1827 ( 12)
          -0.2190 ( 14) -0.1035 ( 15)  0.1417 ( 16) -0.1108 ( 20)  0.1093 ( 32)
           0.1016 ( 33) -0.1757 ( 38)  0.1322 ( 39) -0.1169 ( 41)  0.1074 ( 42)
           0.1359 ( 43) -0.1634 ( 45) -0.2116 ( 51) -0.2142 ( 53)  0.1594 ( 57)
          -0.1168 ( 58) -0.1706 ( 60)  0.1890 ( 61)  0.1606 ( 66) -0.2299 ( 67)
          -0.2192 ( 72) -0.2238 ( 73)  0.1611 ( 74)  0.1846 ( 75)  0.1656 ( 78)
          -0.2300 ( 81)
 CRD 46=   0.2589 (  3) -0.1376 (  4) -0.1325 (  5)  0.1686 (  6) -0.1341 ( 13)
           0.1511 ( 14) -0.1713 ( 22)  0.1164 ( 24) -0.1379 ( 25)  0.1462 ( 29)
          -0.1323 ( 31) -0.1193 ( 33)  0.1918 ( 34)  0.1065 ( 39) -0.1176 ( 44)
           0.2292 ( 49)  0.2256 ( 51) -0.2612 ( 53) -0.1850 ( 56) -0.1332 ( 64)
          -0.2605 ( 65)  0.1687 ( 66)  0.2083 ( 69) -0.2210 ( 71)  0.1312 ( 76)
          -0.1723 ( 78)  0.2506 ( 79)
 CRD 47=   0.2233 (  4) -0.2242 (  5) -0.1191 (  7)  0.1018 ( 10) -0.1058 ( 11)
           0.1161 ( 13) -0.1609 ( 21)  0.1661 ( 23)  0.1254 ( 26) -0.1217 ( 27)
          -0.1483 ( 35)  0.1426 ( 36) -0.1819 ( 49) -0.1108 ( 53)  0.2260 ( 54)
           0.2326 ( 55) -0.1746 ( 56) -0.2093 ( 58) -0.1351 ( 59) -0.2431 ( 60)
          -0.2118 ( 61)  0.2499 ( 66)  0.1730 ( 69)  0.1582 ( 71)  0.1104 ( 73)
          -0.2149 ( 75)  0.2440 ( 78)
 CRD 48=  -0.2459 (  2) -0.1441 (  8) -0.1409 (  9) -0.1378 ( 12)  0.1268 ( 21)
           0.1015 ( 22)  0.1215 ( 23)  0.1333 ( 28)  0.1333 ( 30)  0.1393 ( 32)
          -0.1065 ( 33) -0.1064 ( 34) -0.1182 ( 35) -0.1220 ( 36)  0.1469 ( 51)
          -0.1275 ( 53)  0.1101 ( 54) -0.1119 ( 55)  0.1017 ( 56)  0.1394 ( 61)
          -0.2406 ( 63)  0.2565 ( 64) -0.1849 ( 65) -0.1524 ( 69)  0.1086 ( 71)
          -0.2538 ( 72)  0.2688 ( 73) -0.1460 ( 75) -0.2509 ( 76)  0.1424 ( 79)
           0.2702 ( 80)

 THE DETERMINANT OF THE G MATRIX IS 10**(   -18)


                     --------------------
                     INTERNAL COORDINATES
                     --------------------

                 - - ATOMS - -         COORDINATE      COORDINATE
 NO.   TYPE    I  J  K  L  M  N        (BOHR,RAD)       (ANG,DEG)
 ----------------------------------------------------------------
   1 STRETCH   1  6                     2.6493062       1.4019526
   2 STRETCH   1  2                     2.7257215       1.4423898
   3 STRETCH   2  4                     2.8952980       1.5321258
   4 STRETCH   2  3                     2.8966068       1.5328184
   5 STRETCH   2  5                     2.8972043       1.5331346
   6 STRETCH   3  7                     2.0752988       1.0982009
   7 STRETCH   3  8                     2.0744784       1.0977668
   8 STRETCH   3  9                     2.0742574       1.0976498
   9 STRETCH   4 12                     2.0741586       1.0975975
  10 STRETCH   4 11                     2.0750634       1.0980763
  11 STRETCH   4 10                     2.0747778       1.0979252
  12 STRETCH   5 15                     2.0724079       1.0966711
  13 STRETCH   5 14                     2.0739709       1.0974982
  14 STRETCH   5 13                     2.0836324       1.1026109
  15 STRETCH   6 16                     2.0809514       1.1011921
  16 STRETCH   6 18                     2.0717645       1.0963306
  17 STRETCH   6 17                     2.0647206       1.0926032
  18 BEND      1  6 17                  1.8043197     103.3799040
  19 BEND      1  6 16                  1.9608913     112.3507946
  20 BEND      1  6 18                  1.9433751     111.3471919
  21 BEND      1  2  3                  1.9484146     111.6359356
  22 BEND      1  2  4                  1.8214436     104.3610318
  23 BEND      1  2  5                  1.9381839     111.0497593
  24 BEND      2  3  8                  1.9465729     111.5304124
  25 BEND      2  3  7                  1.9505153     111.7562968
  26 BEND      2  4 10                  1.9472949     111.5717802
  27 BEND      2  4 11                  1.9504010     111.7497482
  28 BEND      2  4 12                  1.9277716     110.4531742
  29 BEND      2  5 14                  1.9476350     111.5912673
  30 BEND      2  5 15                  1.9385052     111.0681645
  31 BEND      2  1  6                  2.0146852     115.4329601
  32 BEND      2  3  9                  1.9316650     110.6762540
  33 BEND      2  5 13                  1.9343974     110.8328095
  34 BEND      3  2  5                  1.9192486     109.9648465
  35 BEND      3  2  4                  1.9144464     109.6896965
  36 BEND      4  2  5                  1.9199491     110.0049808
  37 BEND      7  3  9                  1.8752458     107.4436711
  38 BEND      7  3  8                  1.8780207     107.6026577
  39 BEND      8  3  9                  1.8785027     107.6302768
  40 BEND     10  4 11                  1.8764100     107.5103729
  41 BEND     10  4 12                  1.8803722     107.7373925
  42 BEND     11  4 12                  1.8785042     107.6303632
  43 BEND     13  5 14                  1.8734622     107.3414747
  44 BEND     13  5 15                  1.8861341     108.0675257
  45 BEND     14  5 15                  1.8809589     107.7710091
  46 BEND     16  6 17                  1.9269115     110.4038941
  47 BEND     16  6 18                  1.9064740     109.2329156
  48 BEND     17  6 18                  1.9200530     110.0109350
  49 TORSION   1  2  5 13               0.9180701      52.6015432
  50 TORSION   1  2  3  9               2.9601027     169.6013890
  51 TORSION   1  2  5 14              -1.1689200     -66.9741840
  52 TORSION   1  2  5 15               3.0149964     172.7465682
  53 TORSION   1  2  3  8               0.8692849      49.8063565
  54 TORSION   1  2  4 10              -1.0993384     -62.9874515
  55 TORSION   1  2  4 11               1.0020773      57.4148014
  56 TORSION   1  2  3  7              -1.2337703     -70.6898286
  57 TORSION   1  2  4 12               3.0928052     177.2046848
  58 TORSION   2  1  6 18              -1.3365995     -76.5815129
  59 TORSION   2  1  6 17               2.8857938     165.3438073
  60 TORSION   2  1  6 16               0.8083215      46.3134102
  61 TORSION   3  2  4 12              -1.1007630     -63.0690750
  62 TORSION   3  2  4 11               3.0916944     177.1410416
  63 TORSION   3  2  5 13              -1.2472843     -71.4641247
  64 TORSION   3  2  4 10               0.9902787      56.7387887
  65 TORSION   3  2  5 15               0.8496420      48.6809002
  66 TORSION   3  2  1  6               1.0763424      61.6698780
  67 TORSION   3  2  5 14               2.9489109     168.9601480
  68 TORSION   4  2  5 13               2.9255614     167.6223227
  69 TORSION   4  2  3  9               0.9499658      54.4290299
  70 TORSION   4  2  3  7               3.0392782     174.1378123
  71 TORSION   4  2  5 15              -1.2606976     -72.2326524
  72 TORSION   4  2  3  8              -1.1408520     -65.3660026
  73 TORSION   4  2  5 14               0.8385713      48.0465954
  74 TORSION   4  2  1  6              -3.1402749    -179.9244982
  75 TORSION   5  2  4 12               1.0124587      58.0096130
  76 TORSION   5  2  4 11              -1.0782691     -61.7802704
  77 TORSION   5  2  4 10               3.1035004     177.8174767
  78 TORSION   5  2  1  6              -1.0723276     -61.4398479
  79 TORSION   5  2  3  9              -1.1636784     -66.6738626
  80 TORSION   5  2  3  7               0.9256340      53.0349198
  81 TORSION   5  2  3  8               3.0286891     173.5311049

     ------------------------------------------
     THE POINT GROUP IS C1 , NAXIS= 1, ORDER= 1
     ------------------------------------------

     DIMENSIONS OF THE SYMMETRY SUBSPACES ARE
 A   =  186

 ..... DONE SETTING UP THE RUN .....
 STEP CPU TIME =     0.01 TOTAL CPU TIME =        0.0 (    0.0 MIN)
 TOTAL WALL CLOCK TIME=        0.0 SECONDS, CPU UTILIZATION IS  50.00%


          -----------------------------
          STATIONARY POINT LOCATION RUN
          -----------------------------

 OBTAINING INITIAL HESSIAN, HESS=GUESS   
 DIAGONAL GUESS HESSIAN IN INTERNAL COORDS IS
     1  0.3803     2  0.3515     3  0.3657     4  0.3652     5  0.3649
     6  0.3409     7  0.3412     8  0.3413     9  0.3413    10  0.3410
    11  0.3411    12  0.3419    13  0.3414    14  0.3380    15  0.3389
    16  0.3421    17  0.3446    18  0.2208    19  0.2203    20  0.2206
    21  0.2419    22  0.2419    23  0.2419    24  0.2234    25  0.2234
    26  0.2235    27  0.2235    28  0.2235    29  0.2234    30  0.2235
    31  0.2386    32  0.2235    33  0.2231    34  0.2481    35  0.2481
    36  0.2481    37  0.2026    38  0.2026    39  0.2026    40  0.2026
    41  0.2026    42  0.2026    43  0.2024    44  0.2024    45  0.2027
    46  0.2027    47  0.2025    48  0.2030    49  0.2500    50  0.2500
    51  0.2500    52  0.2500    53  0.2500    54  0.2500    55  0.2500
    56  0.2500    57  0.2500    58  0.2500    59  0.2500    60  0.2500
    61  0.2500    62  0.2500    63  0.2500    64  0.2500    65  0.2500
    66  0.2500    67  0.2500    68  0.2500    69  0.2500    70  0.2500
    71  0.2500    72  0.2500    73  0.2500    74  0.2500    75  0.2500
    76  0.2500    77  0.2500    78  0.2500    79  0.2500    80  0.2500
    81  0.2500
 TRANSFORMING HESSIAN TO SYMMETRY COORDINATES

          PARAMETERS CONTROLLING GEOMETRY SEARCH ARE
          METHOD =QA                  UPHESS =BFGS    
          NNEG   =         0          NFRZ   =         3
          NSTEP  =        50          IFOLOW =         1
          HESS   =GUESS               RESTAR =         F
          IHREP  =         0          HSSEND =         F
          NPRT   =         0          NPUN   =         0
          OPTTOL = 5.000E-04          RMIN   = 1.500E-03
          RMAX   = 1.000E-01          RLIM   = 7.000E-02
          DXMAX  = 3.000E-01          PURIFY =         F
          MOVIE  =         F          TRUPD  =         T
          TRMAX  = 5.000E-01          TRMIN  = 5.000E-02
          ITBMAT =         5          STPT   =         F
          STSTEP = 1.000E-02          PROJCT=          F
          FROZEN COORD(S)=   1   2   3


      ***** EQUILIBRIUM GEOMETRY LOCATED *****
            (SUBJECT TO   3 CONSTRAINT(S))
 COORDINATES OF ALL ATOMS ARE (ANGS)
   ATOM   CHARGE       X              Y              Z
 ------------------------------------------------------------
 O           8.0   1.8776395987   0.4997550467   1.0407129983
 C           6.0   2.7632991651   1.4004419489   1.6957119490
 C           6.0   2.7765985059   1.1316177333   3.2026867814
 C           6.0   4.1314463246   1.0994259359   1.0909532824
 C           6.0   2.3553789238   2.8481974212   1.4134296772
 C           6.0   0.5254268440   0.5573481215   1.4024688594
 H           1.0   1.8229965231   1.3716120903   3.6595136598
 H           1.0   2.9958488430   0.0857943293   3.3973918059
 H           1.0   3.5333452031   1.7405535470   3.6852296192
 H           1.0   4.4242667025   0.0764019374   1.3079899885
 H           1.0   4.1030985350   1.2238506463   0.0127386267
 H           1.0   4.8867124742   1.7658079092   1.4954625382
 H           1.0   1.3732432886   3.0677870561   1.8160346663
 H           1.0   2.3374601006   3.0405980886   0.3448578556
 H           1.0   3.0557589360   3.5317654870   1.8807472794
 H           1.0   0.1028170588   1.5358003634   1.2034524243
 H           1.0   0.0007280562  -0.1702035762   0.7994617342
 H           1.0   0.3761540004   0.3183687505   2.4492220894


                     --------------------
                     INTERNAL COORDINATES
                     --------------------

                 - - ATOMS - -         COORDINATE      COORDINATE
 NO.   TYPE    I  J  K  L  M  N        (BOHR,RAD)       (ANG,DEG)
 ----------------------------------------------------------------
   1 STRETCH   1  6                     2.6474134       1.4009510
   2 STRETCH   1  2                     2.6888971       1.4229032
   3 STRETCH   2  4                     2.8834087       1.5258343
   4 STRETCH   2  3                     2.8928344       1.5308222
   5 STRETCH   2  5                     2.8920082       1.5303850
   6 STRETCH   3  7                     2.0489762       1.0842716
   7 STRETCH   3  8                     2.0525307       1.0861525
   8 STRETCH   3  9                     2.0495609       1.0845810
   9 STRETCH   4 12                     2.0511316       1.0854122
  10 STRETCH   4 11                     2.0517516       1.0857403
  11 STRETCH   4 10                     2.0522692       1.0860142
  12 STRETCH   5 15                     2.0494453       1.0845198
  13 STRETCH   5 14                     2.0520587       1.0859028
  14 STRETCH   5 13                     2.0483277       1.0839284
  15 STRETCH   6 16                     2.0489156       1.0842395
  16 STRETCH   6 18                     2.0484890       1.0840138
  17 STRETCH   6 17                     2.0425288       1.0808598
  18 BEND      1  6 17                  1.8721619     107.2669773
  19 BEND      1  6 16                  1.9454139     111.4640038
  20 BEND      1  6 18                  1.9532479     111.9128604
  21 BEND      1  2  3                  1.9255974     110.3286063
  22 BEND      1  2  4                  1.8242837     104.5237569
  23 BEND      1  2  5                  1.9262333     110.3650394
  24 BEND      2  3  8                  1.9254971     110.3228545
  25 BEND      2  3  7                  1.9479203     111.6076106
  26 BEND      2  4 10                  1.9266517     110.3890137
  27 BEND      2  4 11                  1.9257853     110.3393712
  28 BEND      2  4 12                  1.9338115     110.7992401
  29 BEND      2  5 14                  1.9321281     110.7027841
  30 BEND      2  5 15                  1.9226609     110.1603526
  31 BEND      2  1  6                  2.0441671     117.1221484
  32 BEND      2  3  9                  1.9235124     110.2091425
  33 BEND      2  5 13                  1.9440567     111.3862420
  34 BEND      3  2  5                  1.9283891     110.4885568
  35 BEND      3  2  4                  1.9259540     110.3490349
  36 BEND      4  2  5                  1.9310615     110.6416717
  37 BEND      7  3  9                  1.8775054     107.5731364
  38 BEND      7  3  8                  1.8913892     108.3686170
  39 BEND      8  3  9                  1.8965279     108.6630432
  40 BEND     10  4 11                  1.8896242     108.2674892
  41 BEND     10  4 12                  1.8925588     108.4356308
  42 BEND     11  4 12                  1.8943156     108.5362867
  43 BEND     13  5 14                  1.8908919     108.3401234
  44 BEND     13  5 15                  1.8727763     107.3021802
  45 BEND     14  5 15                  1.8996957     108.8445434
  46 BEND     16  6 17                  1.8921265     108.4108654
  47 BEND     16  6 18                  1.8991862     108.8153520
  48 BEND     17  6 18                  1.9001974     108.8732906
  49 TORSION   1  2  5 13               1.1055205      63.3416576
  50 TORSION   1  2  3  9               3.0296182     173.5843364
  51 TORSION   1  2  5 14              -0.9995948     -57.2725629
  52 TORSION   1  2  5 15              -3.1016131    -177.7093420
  53 TORSION   1  2  3  8               0.9352636      53.5866598
  54 TORSION   1  2  4 10              -1.0848077     -62.1549011
  55 TORSION   1  2  4 11               1.0031554      57.4765724
  56 TORSION   1  2  3  7              -1.1685595     -66.9535288
  57 TORSION   1  2  4 12               3.1015823     177.7075748
  58 TORSION   2  1  6 18              -1.0797419     -61.8646522
  59 TORSION   2  1  6 17               3.1203771     178.7844385
  60 TORSION   2  1  6 16               1.0516644      60.2559329
  61 TORSION   3  2  4 12              -1.1114729     -63.6827058
  62 TORSION   3  2  4 11               3.0732856     176.0862918
  63 TORSION   3  2  5 13              -1.0289468     -58.9543103
  64 TORSION   3  2  4 10               0.9853225      56.4548183
  65 TORSION   3  2  5 15               1.0471049      59.9946901
  66 TORSION   3  2  1  6               1.0751019      61.5987996
  67 TORSION   3  2  5 14              -3.1340621    -179.5685308
  68 TORSION   4  2  5 13               3.1160372     178.5357796
  69 TORSION   4  2  3  9               1.0224602      58.5826523
  70 TORSION   4  2  3  7               3.1074678     178.0447872
  71 TORSION   4  2  5 15              -1.0910964     -62.5152200
  72 TORSION   4  2  3  8              -1.0718944     -61.4150242
  73 TORSION   4  2  5 14               1.0109219      57.9215590
  74 TORSION   4  2  1  6              -3.1377111    -179.7776017
  75 TORSION   5  2  4 12               1.0281486      58.9085749
  76 TORSION   5  2  4 11              -1.0702783     -61.3224275
  77 TORSION   5  2  4 10               3.1249439     179.0460991
  78 TORSION   5  2  1  6              -1.0610057     -60.7911514
  79 TORSION   5  2  3  9              -1.1187269     -64.0983292
  80 TORSION   5  2  3  7               0.9662807      55.3638057
  81 TORSION   5  2  3  8               3.0701039     175.9039943

          INTERNUCLEAR DISTANCES (ANGS.)


 =====================================================
   GAMESS/COSab RESULTS
 =====================================================

   Dielectric Constant                  = INFTY
   Basic Grid Size                      =                 1082
   Number of Segments                   =                   92
   Number of Segments located on spheres=                  227
   Number of Segments of the cavity     =                  545
   Solvent Radius (rsolv)               = 1.40
   Outlying Charge Error Method         = double cavity

 =====================================================

  Total solvated Energy (a.u.)          =  -271.2524543882
  Total Energy corrected (a.u.)         =  -271.2523017359

  Outlying charge effect (a.u.)         =     0.0001526523
  Outlying charge effect (kcal/mol)     =     0.0957908247

  Dielectric Energy (a.u.)              =    -0.0069303488
  Dielectric energy corr. (a.u.)        =    -0.0067776965

  Sum of polarization charges           =     0.0241968570
  Sum of polarization charges(cor.)     =    -0.0241968570

  Total surface area of cavity (A**2)   =  138.23
  Total volume of cavity (A**3)         =  134.64

 =====================================================
 NPS=                   545
NR.  ATOM  (X, Y, Z)(a.u.)                  CHARGE(e)  AREA(A**2) SIGMA(e/A**2)
   1   1   3.696112   0.962341  -1.280260   0.004597   0.206154   0.022299
   2   1   4.632037  -1.840909   0.689121   0.007560   0.343589   0.022003
   3   1   4.262129  -0.191499  -0.993876   0.006265   0.274871   0.022793
   4   1   4.478728  -1.200298  -0.291467   0.005948   0.343589   0.017310
   5   1   4.521886  -2.139036   1.636367   0.005237   0.274871   0.019054
   6   1   3.377470   0.264644  -1.207212   0.004629   0.240512   0.019245
   7   1   2.879706  -0.209721  -0.997420   0.002241   0.137436   0.016304
   8   1   3.232788  -1.341962  -0.321951   0.002778   0.171795   0.016172
   9   1   3.575503  -1.766537   0.173683   0.005518   0.309230   0.017844
  10   1   3.635097  -2.171857   1.046831   0.003411   0.240512   0.014181
  11   1   3.676658  -2.299054   2.134554   0.004281   0.240512   0.017799
  12   1   3.371110   1.787965  -1.167298   0.005825   0.240512   0.024218
  13   1   3.504951  -0.764321  -0.797955   0.005015   0.274871   0.018245
  14   1   4.388887  -2.110889   2.689966   0.006648   0.309230   0.021499
  15   1   2.909117   1.110861  -1.215871   0.001291   0.137436   0.009394
  16   3   7.684615   0.707493   8.561129   0.001762   0.371649   0.004741
  17   3   3.978849  -0.038840   8.869206   0.001250   0.325193   0.003844
  18   3   5.409785   3.461290   9.588845   0.001120   0.371649   0.003015
  19   3   8.554468   0.535614   6.933053   0.001039   0.278737   0.003726
  20   3   4.348181   3.654188   9.395688   0.001256   0.371649   0.003381
  21   3   3.123878   0.459297   8.689832   0.000891   0.278737   0.003197
  22   3   8.189702   0.378962   7.642495   0.000726   0.185824   0.003906
  23   3   8.329216   1.219646   8.037160   0.001129   0.278737   0.004050
  24   3   3.339232  -0.487104   7.989004   0.001295   0.325193   0.003983
  25   3   4.185638   0.985565   9.491484   0.001237   0.464561   0.002663
  26   3   4.924931   2.335624   9.812743   0.001072   0.464561   0.002307
  27   3   4.902812   4.602727   8.897038   0.001560   0.371649   0.004199
  28   3   4.842975   5.443699   7.840017   0.001084   0.325193   0.003333
  29   3   5.179953   0.162755   9.273452   0.001081   0.418105   0.002585
  30   3   6.581554   0.529925   9.201160   0.001273   0.418105   0.003045
  31   3   7.103350   1.560049   9.293147   0.001347   0.464561   0.002900
  32   3   6.168461   2.527897   9.696858   0.000667   0.325193   0.002052
  33   3   8.790437   1.484400   7.192631   0.000632   0.185824   0.003403
  34   3   3.997074   2.066956   9.618270   0.000586   0.278737   0.002103
  35   3   4.100981   4.999342   8.239926   0.001202   0.325193   0.003696
  36   3   5.632952   1.284169   9.713560   0.000915   0.464561   0.001970
  37   4  10.335985   3.824776  -0.137795   0.001720   0.371649   0.004627
  38   4   9.536033   0.056523  -0.623699   0.001613   0.418105   0.003859
  39   4  11.514717   1.492226   2.504979   0.001160   0.371649   0.003121
  40   4   8.950998   5.139909   0.164628   0.001028   0.278737   0.003689
  41   4  11.157920   0.510513   2.837332   0.001312   0.371649   0.003531
  42   4   9.443388  -0.653538   0.024887   0.000951   0.278737   0.003412
  43   4   7.106109  -1.262647   0.438267   0.000533   0.139368   0.003825
  44   4   9.356608   4.567897  -0.322160   0.000918   0.232280   0.003952
  45   4  10.101743   4.591581   0.418528   0.001112   0.278737   0.003989
  46   4   7.083779  -0.476015  -0.629067   0.001123   0.278737   0.004028
  47   4   8.321380  -0.529142  -0.626283   0.001854   0.371649   0.004987
  48   4  10.553938   0.220621   0.247291   0.001221   0.464561   0.002628
  49   4  11.346564   0.923342   1.409337   0.001029   0.464561   0.002214
  50   4  11.036866   1.202032   3.818730   0.001690   0.371649   0.004547
  51   4  10.291193   1.494763   4.849941   0.000996   0.278737   0.003572
  52   4  10.351718   1.203685  -0.592892   0.001024   0.418105   0.002450
  53   4  10.667071   2.599344  -0.353697   0.001195   0.418105   0.002859
  54   4  11.118140   3.128934   0.572563   0.001268   0.464561   0.002730
  55   4  11.544349   2.167776   1.504362   0.000648   0.325193   0.001992
  56   4   9.464666   5.242062   0.827252   0.000632   0.185824   0.003402
  57   4  10.902201   0.053068   1.282510   0.000604   0.278737   0.002168
  58   4   7.726399  -1.011396  -0.114560   0.001056   0.232280   0.004545
  59   4  10.345842   0.586299   4.431422   0.001349   0.325193   0.004148
  60   4  11.140362   1.591492   0.347383   0.000811   0.464561   0.001746
  61   5   4.086793   7.873759   5.489567   0.000839   0.232280   0.003611
  62   5   3.059779   8.742468   1.642341   0.000756   0.371649   0.002034
  63   5   1.716453   6.018768   0.140909   0.000169   0.046456   0.003641
  64   5   7.480269   7.273107   1.432916   0.000571   0.185824   0.003074
  65   5   2.182819   8.377968   2.264017   0.001011   0.418105   0.002417
  66   5   3.289045   7.753214   5.375242   0.000889   0.232280   0.003827
  67   5   6.428837   8.234736   1.175593   0.001682   0.371649   0.004524
  68   5   6.312288   7.816928   0.459066   0.000940   0.232280   0.004045
  69   5   4.033562   7.191488   5.962943   0.000709   0.185824   0.003815
  70   5   3.655868   8.583632   4.515884   0.002052   0.511017   0.004016
  71   5   3.267033   8.960066   2.957670   0.001004   0.418105   0.002401
  72   5   2.393593   8.090851   1.023232   0.001300   0.371649   0.003499
  73   5   1.598980   6.737575   0.594119   0.001203   0.278737   0.004317
  74   5   5.340987   8.950840   1.800423   0.001104   0.371649   0.002969
  75   5   4.174485   9.071983   1.900160   0.001010   0.464561   0.002173
  76   5   3.700243   8.564601   0.775292   0.000819   0.325193   0.002518
  77   5   7.072412   7.156635   0.605960   0.001418   0.325193   0.004362
  78   5   1.615489   7.406314   1.205568   0.000991   0.278737   0.003557
  79   5   2.872067   8.633941   3.774693   0.000782   0.278737   0.002806
  80   5   3.233664   6.900012   5.911201   0.000376   0.139368   0.002695
  81   5   5.031297   8.613857   0.798906   0.001478   0.418105   0.003535
  82   5   4.357046   9.121656   3.212120   0.000797   0.371649   0.002144
  83   5   2.261529   7.434333   0.373250   0.000538   0.185824   0.002897
  84   6   2.129319  -2.471430   3.404974   0.000601   0.418105   0.001437
  85   6  -1.604167  -1.431148   3.819549   0.000690   0.418105   0.001650
  86   6   0.426376   1.910649  -0.986777   0.000205   0.185824   0.001103
  87   6  -2.440835   1.283990   1.088119   0.000304   0.418105   0.000726
  88   6  -1.834675   2.111377   4.923880  -0.000140   0.371649  -0.000377
  89   6   1.726578  -2.168614   4.484850   0.000214   0.278737   0.000769
  90   6   1.691236  -2.643046   2.284079   0.000164   0.278737   0.000587
  91   6   1.839075  -2.474661   1.590928   0.000313   0.139368   0.002249
  92   6   1.030720  -2.595219   3.635965   0.000441   0.325193   0.001357
  93   6  -0.017279  -2.368834   3.896536   0.000966   0.371649   0.002601
  94   6  -1.750659   3.003973   4.368310   0.000081   0.325193   0.000248
  95   6  -2.232003   2.227062   1.067158   0.000190   0.278737   0.000682
  96   6   0.079133   2.772663  -0.588991   0.000418   0.325193   0.001284
  97   6  -0.753608  -2.209575   3.417042   0.000315   0.232280   0.001354
  98   6  -0.740280  -1.807233   4.410377   0.000510   0.278737   0.001829
  99   6   1.121117   2.326550  -0.905920   0.000298   0.232280   0.001282
 100   6  -0.402005   1.745910  -0.793365   0.000785   0.371649   0.002113
 101   6  -1.746209   1.668506   0.119885   0.000622   0.278737   0.002231
 102   6  -2.708413   1.746257   2.327633  -0.000536   0.464561  -0.001153
 103   6  -2.476323   1.921433   3.872906  -0.000796   0.464561  -0.001714
 104   6  -0.925810   2.911540   5.324116   0.000475   0.325193   0.001459
 105   6   1.146794   1.352384  -1.114179   0.000473   0.232280   0.002035
 106   6   0.508206   0.807672  -1.089915   0.000184   0.278737   0.000661
 107   6  -2.708337   0.444973   2.186648  -0.000621   0.418105  -0.001485
 108   6  -2.395805  -0.518449   3.225237  -0.000433   0.418105  -0.001037
 109   6  -2.079272  -0.370022   4.329621  -0.000300   0.464561  -0.000646
 110   6  -2.166958   0.944947   4.720945  -0.000552   0.371649  -0.001484
 111   6   0.844907  -2.721485   2.767803   0.000327   0.278737   0.001174
 112   6   0.785539  -2.194840   4.571531   0.000430   0.232280   0.001849
 113   6  -2.465886   2.513292   3.085179  -0.000411   0.278737  -0.001476
 114   6  -1.140990   2.243304  -0.233201   0.000640   0.278737   0.002295
 115   6  -0.741719   3.565961   4.877715   0.000190   0.185824   0.001022
 116   6   1.286887   0.053545  -0.982696   0.000146   0.185824   0.000787
 117   6  -1.109451   1.220564  -0.486013   0.000255   0.185824   0.001372
 118   6  -2.690779   0.746095   3.437843  -0.001044   0.464561  -0.002248
 119   7   1.572749   3.234423   8.370515  -0.002306   0.372926  -0.006184
 120   7   2.599861   4.594543   8.060273  -0.000991   0.294415  -0.003364
 121   7   2.709226   3.195194   9.180402  -0.000927   0.314043  -0.002951
 122   7   2.072952   1.471181   8.617393  -0.000867   0.255160  -0.003399
 123   7   1.556159   3.952084   7.701332  -0.002515   0.353299  -0.007119
 124   7   2.563113   4.005991   8.720455  -0.001124   0.353299  -0.003182
 125   7   2.387947   2.273678   9.110128  -0.001076   0.333671  -0.003224
 126   7   1.534157   2.318509   8.435056  -0.001772   0.274788  -0.006450
 127   8   6.116228  -2.114298   7.223926  -0.002550   0.451437  -0.005648
 128   8   7.669268  -0.966542   7.274182  -0.000951   0.372926  -0.002550
 129   8   5.292064  -2.199496   5.853148  -0.001709   0.314043  -0.005443
 130   8   4.361248  -1.654058   7.443076  -0.000939   0.314043  -0.002990
 131   8   5.824617  -1.079635   8.533550  -0.000677   0.314043  -0.002157
 132   8   7.178638  -1.738478   6.767370  -0.002037   0.372926  -0.005463
 133   8   6.252293  -2.178427   5.964442  -0.002187   0.353299  -0.006191
 134   8   4.810828  -2.123502   6.716226  -0.001898   0.392554  -0.004835
 135   8   5.155974  -1.640532   8.010792  -0.001456   0.392554  -0.003710
 136   8   6.787929  -1.260483   8.076061  -0.001730   0.490692  -0.003526
 137   9   8.272167   4.428553   8.444797  -0.002206   0.372926  -0.005916
 138   9   9.009376   2.856732   7.603103  -0.001129   0.294415  -0.003835
 139   9   8.040919   3.056321   8.994036  -0.001188   0.372926  -0.003187
 140   9   6.664382   4.794942   8.905109  -0.000985   0.333671  -0.002951
 141   9   6.739391   5.506160   8.020582  -0.001363   0.333671  -0.004085
 142   9   8.907600   4.135413   7.550291  -0.002383   0.372926  -0.006391
 143   9   8.688970   3.171709   8.368884  -0.001431   0.353299  -0.004051
 144   9   7.322818   3.931509   9.245631  -0.001647   0.431809  -0.003815
 145   9   7.533946   5.133098   8.342768  -0.001685   0.314043  -0.005366
 146   9   8.207733   5.172963   7.342858  -0.002935   0.412182  -0.007121
 147  10   9.292621  -2.122669   2.636222  -0.002667   0.471065  -0.005662
 148  10   9.731035  -0.886549   4.230815  -0.001127   0.314043  -0.003589
 149  10  10.475939  -1.097992   2.602962  -0.000952   0.333671  -0.002852
 150  10   9.205803  -1.697278   1.082797  -0.000855   0.333671  -0.002562
 151  10   7.709483  -2.077280   1.649961  -0.000993   0.294415  -0.003371
 152  10   9.040103  -1.873848   3.696572  -0.002395   0.392554  -0.006100
 153  10  10.212840  -1.125805   3.467311  -0.001275   0.392554  -0.003247
 154  10  10.072674  -1.464339   1.753300  -0.001373   0.412182  -0.003331
 155  10   8.554370  -2.112637   1.521225  -0.001443   0.372926  -0.003869
 156  10   7.890137  -2.234163   2.867023  -0.002968   0.490692  -0.006049
 157  11   7.998054   2.407669  -2.418541  -0.002787   0.490692  -0.005681
 158  11   8.638877   4.016475  -1.508526  -0.001042   0.392554  -0.002655
 159  11   7.887431   0.744409  -1.862076  -0.000996   0.372926  -0.002670
 160  11   9.443215   2.067125  -1.742388  -0.001051   0.412182  -0.002550
 161  11   7.761050   3.601128  -2.067592  -0.002384   0.431809  -0.005520
 162  11   6.695337   2.607294  -2.173225  -0.002857   0.471065  -0.006065
 163  11   6.955318   1.321756  -2.077255  -0.002048   0.451437  -0.004536
 164  11   8.643746   1.377540  -2.065988  -0.001603   0.431809  -0.003712
 165  11   9.186777   3.119545  -1.800894  -0.001394   0.412182  -0.003383
 166  12  11.268408   4.500910   3.563291  -0.003031   0.510320  -0.005939
 167  12  10.192806   5.453484   2.027956  -0.001095   0.294415  -0.003719
 168  12  11.373224   4.221260   2.001976  -0.001176   0.372926  -0.003155
 169  12  11.444260   3.056458   3.862163  -0.001132   0.372926  -0.003036
 170  12  10.410412   5.442284   3.294836  -0.002405   0.392554  -0.006126
 171  12  10.934238   4.993056   2.190975  -0.001402   0.353299  -0.003967
 172  12  11.686436   3.488999   2.839371  -0.001471   0.412182  -0.003568
 173  12  10.893632   3.481849   4.631983  -0.001972   0.451437  -0.004369
 174  12  10.371994   4.819161   4.421076  -0.002984   0.431809  -0.006910
 175  13   0.494020   6.617481   4.405442  -0.002181   0.333671  -0.006536
 176  13   1.792757   7.051202   5.386044  -0.001321   0.412182  -0.003206
 177  13   0.745646   7.133187   2.520699  -0.000797   0.294415  -0.002708
 178  13   1.294672   7.878776   3.538784  -0.000827   0.333671  -0.002479
 179  13   0.968782   6.280328   5.208585  -0.002599   0.372926  -0.006970
 180  13   0.502039   7.083395   3.447579  -0.002135   0.372926  -0.005725
 181  13   1.363819   7.619421   4.526755  -0.001437   0.392554  -0.003660
 182  14   4.138238   6.518986  -1.663394  -0.002701   0.471065  -0.005734
 183  14   6.066229   6.639944  -0.934598  -0.001051   0.314043  -0.003345
 184  14   4.735071   7.717167  -0.779422  -0.001101   0.392554  -0.002806
 185  14   2.778604   6.802173  -0.843135  -0.000873   0.333671  -0.002615
 186  14   3.194520   5.132046  -1.388763  -0.001351   0.294415  -0.004590
 187  14   5.160092   5.944278  -1.681500  -0.002274   0.372926  -0.006098
 188  14   5.366347   7.150121  -1.126584  -0.001406   0.372926  -0.003771
 189  14   3.650178   7.505135  -0.881896  -0.001383   0.412182  -0.003356
 190  14   2.902815   6.004996  -1.265267  -0.001654   0.412182  -0.004013
 191  14   4.169047   5.075090  -1.698535  -0.002615   0.431809  -0.006056
 192  15   7.048205   8.549871   4.499764  -0.002675   0.451437  -0.005927
 193  15   7.565921   8.116601   2.690860  -0.001204   0.392554  -0.003066
 194  15   5.596103   8.257782   5.423630  -0.001146   0.372926  -0.003074
 195  15   6.003349   9.120024   3.563782  -0.001143   0.372926  -0.003065
 196  15   7.903238   7.895211   3.666270  -0.002237   0.392554  -0.005699
 197  15   7.705584   7.558615   4.788509  -0.002784   0.392554  -0.007091
 198  15   6.589295   7.879313   5.533667  -0.002599   0.431809  -0.006019
 199  15   5.763899   8.916017   4.558439  -0.001458   0.392554  -0.003713
 200  15   6.865682   8.836735   3.144925  -0.001551   0.392554  -0.003950
 201  16  -1.336383   4.797774   1.959476  -0.003085   0.451437  -0.006833
 202  16  -1.822426   4.103123   2.999285  -0.000972   0.255160  -0.003809
 203  16  -1.824804   3.832298   1.228582  -0.001297   0.333671  -0.003886
 204  16  -0.251648   4.064726   0.156439  -0.000992   0.235532  -0.004212
 205  16  -1.259011   4.492301   3.455149  -0.001671   0.314043  -0.005322
 206  16  -2.086538   3.808424   2.166110  -0.001244   0.314043  -0.003961
 207  16  -1.221141   3.795320   0.475848  -0.000952   0.314043  -0.003032
 208  16  -0.773332   4.687664   0.891783  -0.002126   0.333671  -0.006373
 209  17  -1.201369  -1.948153   0.116860  -0.004381   0.608459  -0.007199
 210  17  -1.100312  -2.468185   1.973113  -0.001551   0.392554  -0.003950
 211  17   0.589446  -2.571085   0.717500  -0.001417   0.353299  -0.004010
 212  17   0.276817  -1.144484  -0.787523  -0.001516   0.353299  -0.004292
 213  17  -1.613375  -0.140506  -0.331750  -0.001441   0.372926  -0.003864
 214  17  -2.354489  -1.003381   1.368416  -0.001759   0.412182  -0.004268
 215  17  -0.326233  -2.735541   1.193157  -0.002542   0.490692  -0.005180
 216  17   0.237525  -2.061210  -0.207728  -0.003062   0.510320  -0.006000
 217  17  -0.769293  -0.778031  -0.776779  -0.002659   0.510320  -0.005210
 218  17  -2.111152  -0.770307   0.339852  -0.002649   0.471065  -0.005623
 219  17  -1.831913  -1.956546   1.475090  -0.002695   0.471065  -0.005721
 220  18  -0.086453  -0.254487   6.788562  -0.002552   0.372926  -0.006844
 221  18   0.724105  -1.570705   5.775457  -0.000889   0.274788  -0.003234
 222  18  -1.099402  -0.377483   5.969805  -0.001494   0.372926  -0.004005
 223  18  -0.731193   1.574452   6.363093  -0.001264   0.274788  -0.004602
 224  18   0.614141  -0.996527   6.491583  -0.001904   0.333671  -0.005705
 225  18  -0.396676  -1.213607   5.858565  -0.001275   0.372926  -0.003418
 226  18  -1.163157   0.636730   6.216453  -0.001415   0.333671  -0.004240
 227  18  -0.314932   0.713284   6.857807  -0.001826   0.274788  -0.006647
 228   1   5.903843  -1.443064   1.010806   0.001410   0.056694   0.024863
 229   4   6.696821  -1.396631   0.961801   0.000297   0.056694   0.005233
 230  10   6.887167  -1.524994   1.160593   0.000072   0.056694   0.001268
 231   1   5.523400   0.096952  -0.773730   0.001505   0.059695   0.025217
 232   4   6.299309   0.217501  -0.904342   0.000364   0.059695   0.006106
 233  11   6.386284   0.435700  -1.097004   0.000099   0.059695   0.001658
 234   4   6.538875  -1.203598   0.414031   0.002008   0.314760   0.006379
 235   4   6.325526  -0.315480  -0.615556   0.001995   0.314760   0.006340
 236   1   5.299754  -0.921685  -0.005966   0.011043   0.577935   0.019107
 237   1   3.756143  -1.767710   3.886316   0.002381   0.140689   0.016920
 238   6   3.310745  -1.799386   4.039171   0.001351   0.140689   0.009600
 239   8   4.218384  -1.671413   4.788080   0.000976   0.140689   0.006935
 240   1   2.718570   2.712674  -0.730518   0.002117   0.142756   0.014827
 241   6   2.254417   2.761454  -0.659722   0.001451   0.142756   0.010163
 242  14   2.986207   3.708734  -0.753851   0.000951   0.142756   0.006665
 243   1   2.173980  -0.920376  -0.469066   0.000237   0.011455   0.020717
 244   6   1.710825  -0.976207  -0.459554   0.000084   0.011455   0.007361
 245  17   1.441250  -1.106415  -0.441802  -0.000005   0.011455  -0.000457
 246   1   2.372719  -1.794778   0.413022   0.000181   0.011455   0.015778
 247   6   1.918316  -1.889116   0.461380   0.000038   0.011455   0.003312
 248  17   1.629663  -1.935388   0.394459  -0.000037   0.011455  -0.003221
 249   6   1.853307   1.918265  -0.938664   0.001355   0.183019   0.007402
 250   6   1.805234   0.147248  -0.836382   0.002284   0.359246   0.006357
 251   1   2.493805   1.204057  -0.985858   0.005830   0.347534   0.016774
 252   1   2.485605  -0.490218  -0.746749   0.002158   0.167269   0.012900
 253   6   2.172593  -2.089174   0.892852   0.000841   0.187039   0.004498
 254   6   2.632289  -2.248966   2.636596   0.002694   0.367100   0.007340
 255   1   2.994229  -2.095203   1.409985   0.005057   0.355962   0.014205
 256   1   3.445290  -2.097034   3.096300   0.002766   0.170945   0.016182
 257   1   5.477725  -1.574891   3.373024   0.003829   0.280986   0.013628
 258   8   5.878555  -1.583009   4.319103   0.000230   0.280986   0.000818
 259  10   6.484415  -1.590756   3.432110   0.000294   0.280986   0.001047
 260   8   5.025697  -1.916320   4.995393  -0.000092   0.322968  -0.000285
 261   1   4.604478  -1.906417   3.570669   0.005006   0.401745   0.012461
 262  10   6.794000  -1.925404   2.664861   0.000076   0.283751   0.000268
 263  10   6.927788  -1.823977   1.550769   0.000383   0.283751   0.001349
 264   1   5.436749  -1.822687   1.941528   0.010585   0.698012   0.015165
 265   1   4.454716   2.584098  -0.952327   0.003860   0.282212   0.013678
 266  11   5.380060   2.831383  -1.211953   0.000387   0.282212   0.001372
 267  14   4.633440   3.604111  -1.061751   0.000306   0.282212   0.001083
 268  11   6.290422   0.700338  -1.421363   0.000480   0.219581   0.002187
 269  11   5.859672   1.767201  -1.602403   0.000241   0.441513   0.000545
 270   1   4.834089   0.616206  -1.154843   0.008425   0.540654   0.015583
 271   1   4.398082   1.803621  -1.262348   0.003794   0.272229   0.013935
 272  14   3.837035   4.031865  -1.226200  -0.000002   0.311807  -0.000006
 273   1   3.337624   2.625689  -1.035254   0.004636   0.388438   0.011936
 274  17   1.391993  -1.532926  -0.181906  -0.000510   0.273406  -0.001865
 275   1   2.504507  -1.490830  -0.047968   0.002910   0.333200   0.008734
 276   3   9.041606   2.071440   6.468966   0.000064   0.065741   0.000967
 277   4   9.417256   2.069647   5.731765   0.000090   0.065741   0.001368
 278   9   9.046161   2.342581   6.605605  -0.000140   0.065741  -0.002127
 279   3   8.729438   0.192911   5.683408   0.000132   0.066684   0.001984
 280   4   9.233304   0.142349   5.029010   0.000103   0.066684   0.001551
 281  10   9.207985  -0.126066   4.887643  -0.000107   0.066684  -0.001602
 282   4   9.600442   1.231813   5.340370   0.000920   0.489398   0.001879
 283   3   8.869195   0.909979   6.279443   0.000913   0.489398   0.001866
 284   3   3.371421   5.288095   7.120682   0.000049   0.066026   0.000741
 285   5   3.264742   5.800170   6.477012   0.000058   0.066026   0.000884
 286   7   3.120584   5.132684   7.191781  -0.000147   0.066026  -0.002224
 287   3   5.261455   6.093679   6.712745   0.000045   0.065309   0.000693
 288   5   5.125182   6.717385   6.183356   0.000029   0.065309   0.000449
 289  15   5.375810   6.863584   6.094082  -0.000165   0.065309  -0.002525
 290   5   3.952735   6.443602   6.314777   0.000755   0.501600   0.001504
 291   3   4.501435   5.725487   7.160786   0.000614   0.501600   0.001225
 292   3   2.224574   0.464690   7.772134  -0.000081   0.078718  -0.001029
 293   7   2.028898   0.694952   7.810412  -0.000297   0.078718  -0.003778
 294  18   1.452705   0.294590   7.245827  -0.000478   0.078718  -0.006066
 295   7   2.370207   0.926475   8.364657  -0.000192   0.070148  -0.002736
 296   7   2.886056   1.660883   9.055645  -0.000462   0.156454  -0.002954
 297   7   3.318300   2.938156   9.286914  -0.000475   0.156454  -0.003038
 298   7   3.355810   4.179535   8.713051  -0.000338   0.156454  -0.002158
 299   7   3.100836   4.843849   7.831804  -0.000144   0.070148  -0.002053
 300   3   2.889983   0.907506   8.668081  -0.000158   0.153087  -0.001029
 301   3   3.528012   2.120782   9.362539  -0.000224   0.153087  -0.001460
 302   3   3.807275   3.618088   9.158871  -0.000128   0.153087  -0.000834
 303   3   3.607614   4.755191   8.144708  -0.000135   0.153087  -0.000881
 304   3   8.302108  -0.195430   6.072889  -0.000020   0.086655  -0.000232
 305   8   8.145475  -0.454648   6.115426  -0.000106   0.086655  -0.001221
 306  10   8.681382  -0.422204   5.196787   0.000031   0.086655   0.000357
 307   3   3.139837  -0.941784   6.850281   0.000168   0.057172   0.002944
 308   8   3.396828  -1.101699   6.832311  -0.000045   0.057172  -0.000779
 309  18   2.311020  -0.937640   6.391424   0.000007   0.057172   0.000116
 310   8   7.988400  -0.498704   6.847996  -0.000123   0.068858  -0.001782
 311   8   7.508858  -0.413508   7.845583  -0.000258   0.152777  -0.001687
 312   8   6.406443  -0.503004   8.606242  -0.000348   0.152777  -0.002279
 313   8   5.095598  -0.787474   8.554351  -0.000394   0.152777  -0.002581
 314   8   4.115882  -1.149827   7.711269  -0.000326   0.152777  -0.002134
 315   3   8.001696  -0.070640   7.264044  -0.000070   0.151039  -0.000466
 316   3   7.086848  -0.039316   8.462447  -0.000082   0.151039  -0.000544
 317   3   5.655682  -0.261094   8.882777  -0.000172   0.151039  -0.001141
 318   3   4.297282  -0.644687   8.352020  -0.000103   0.151039  -0.000679
 319   3   3.578713  -0.969898   7.414375   0.000006   0.084125   0.000075
 320   3   5.717675   5.807332   7.097906  -0.000089   0.087093  -0.001020
 321   9   6.009791   5.776277   7.180157  -0.000176   0.087093  -0.002017
 322  15   5.814081   6.466798   6.361044  -0.000073   0.087093  -0.000837
 323   9   6.034256   5.475961   7.879160  -0.000169   0.069221  -0.002439
 324   9   6.048126   4.771036   8.746994  -0.000410   0.153910  -0.002661
 325   9   6.562299   3.667317   9.333482  -0.000464   0.153910  -0.003015
 326   9   7.471089   2.684165   9.148958  -0.000486   0.153910  -0.003156
 327   9   8.394012   2.233198   8.270676  -0.000309   0.153910  -0.002008
 328   9   8.922984   2.350862   7.292621  -0.000143   0.069221  -0.002065
 329   3   5.599420   5.188772   8.173391  -0.000162   0.151513  -0.001068
 330   3   5.847812   4.081192   9.181566  -0.000176   0.151513  -0.001161
 331   3   6.692466   2.842450   9.420167  -0.000253   0.151513  -0.001667
 332   3   7.779749   1.991174   8.789297  -0.000159   0.151513  -0.001051
 333   3   8.654446   1.883768   7.553085  -0.000147   0.151513  -0.000970
 334  10   9.234287  -0.404605   4.859396   0.000008   0.070698   0.000108
 335   3   8.586967  -0.056431   6.108440   0.000306   0.100254   0.003051
 336  15   5.585942   7.028528   6.128865  -0.000023   0.059313  -0.000396
 337   3   5.475070   5.981072   7.150089   0.000233   0.084211   0.002772
 338  18   1.450421  -0.672970   6.632993  -0.002246   0.404426  -0.005555
 339   3   2.529105  -0.258489   7.475613   0.001101   0.570661   0.001930
 340   4   8.883808   5.705409   1.558584   0.000069   0.065311   0.001061
 341   5   8.247560   6.220090   1.689413   0.000098   0.065311   0.001500
 342  12   9.084064   5.691605   1.786891  -0.000141   0.065311  -0.002161
 343   4   7.549559   5.418061  -0.139953   0.000140   0.065806   0.002125
 344   5   7.004018   6.040007  -0.090543   0.000108   0.065806   0.001645
 345  14   6.791504   6.033945  -0.308224  -0.000112   0.065806  -0.001709
 346   5   7.675761   6.419017   0.911802   0.001007   0.526833   0.001911
 347   4   8.346836   5.488233   0.435255   0.000937   0.526833   0.001779
 348   4   9.813910   2.473944   5.315243  -0.000054   0.086523  -0.000620
 349   9   9.300020   2.745422   6.113131  -0.000034   0.086523  -0.000392
 350  12   9.939765   2.741522   5.238796  -0.000144   0.086523  -0.001666
 351   9   9.166353   2.565017   6.732655  -0.000021   0.072500  -0.000284
 352   4   9.852499   2.211103   5.495829   0.000287   0.102867   0.002792
 353  10   7.554066  -1.652834   1.008350  -0.000087   0.072486  -0.001206
 354  10   8.643430  -1.412068   0.673414  -0.000264   0.162670  -0.001625
 355  10   9.925085  -0.967631   1.039096  -0.000403   0.162670  -0.002475
 356  10  10.639890  -0.524293   2.164439  -0.000445   0.162670  -0.002738
 357  10  10.462504  -0.283838   3.537248  -0.000279   0.162670  -0.001713
 358  10   9.741430  -0.296182   4.451995  -0.000099   0.072486  -0.001364
 359   4   7.791582  -1.327017   0.548332   0.000018   0.157287   0.000114
 360   4   9.310587  -0.916857   0.432187  -0.000044   0.157287  -0.000278
 361   4  10.501339  -0.387360   1.321481  -0.000196   0.157287  -0.001243
 362   4  10.821872   0.020476   2.811457  -0.000098   0.157287  -0.000624
 363   4  10.126299   0.121025   4.223961  -0.000070   0.157287  -0.000447
 364   4   7.777015   4.952814  -0.491693  -0.000006   0.087486  -0.000071
 365  11   7.728911   4.777405  -0.737376  -0.000102   0.087486  -0.001160
 366  14   6.944472   5.486665  -0.545795   0.000051   0.087486   0.000578
 367  11   8.405347   4.475880  -0.935388  -0.000111   0.071783  -0.001544
 368  11   9.321427   3.780574  -1.039705  -0.000272   0.160763  -0.001692
 369  11   9.805830   2.484129  -1.202041  -0.000382   0.160763  -0.002379
 370  11   9.358862   1.171699  -1.341737  -0.000388   0.160763  -0.002416
 371  11   8.180375   0.430108  -1.396331  -0.000311   0.160763  -0.001936
 372  11   7.025982   0.425654  -1.366497  -0.000067   0.071783  -0.000926
 373   4   8.921986   4.415016  -0.619059  -0.000075   0.156058  -0.000479
 374   4   9.925072   3.225062  -0.782743  -0.000108   0.156058  -0.000693
 375   4   9.947376   1.670687  -0.962695  -0.000204   0.156058  -0.001306
 376   4   8.978925   0.446895  -1.078453  -0.000058   0.156058  -0.000372
 377   4   7.452742   0.100879  -1.078260   0.000024   0.156058   0.000153
 378  12  10.531294   2.609773   4.780946  -0.000141   0.069563  -0.002031
 379  12  11.181570   2.415014   3.887639  -0.000352   0.154748  -0.002273
 380  12  11.556118   2.754263   2.629427  -0.000455   0.154748  -0.002942
 381  12  11.299972   3.645207   1.639941  -0.000486   0.154748  -0.003142
 382  12  10.521019   4.712584   1.335949  -0.000309   0.154748  -0.002000
 383  12   9.719204   5.434434   1.643867  -0.000144   0.069563  -0.002068
 384   4  10.656301   2.111418   4.471357  -0.000067   0.152194  -0.000442
 385   4  11.381924   2.101866   3.132258  -0.000120   0.152194  -0.000787
 386   4  11.452229   2.832334   1.797612  -0.000242   0.152194  -0.001589
 387   4  10.837604   3.995153   1.029566  -0.000150   0.152194  -0.000985
 388   4   9.796927   5.100548   1.151617  -0.000178   0.152194  -0.001173
 389  14   6.706888   6.071688  -0.548456   0.000012   0.047607   0.000252
 390   4   7.883042   5.211404  -0.426718   0.000243   0.067572   0.003591
 391   5   2.841591   6.076569   6.093613  -0.000081   0.087028  -0.000929
 392   7   2.767162   5.307296   6.708995  -0.000034   0.087028  -0.000391
 393  13   2.553202   6.075373   5.994964  -0.000211   0.087028  -0.002429
 394   7   2.884134   5.106846   7.296424   0.000009   0.050560   0.000170
 395   5   3.000818   6.178640   6.313985   0.000218   0.071745   0.003042
 396   5   8.016209   6.686316   2.060629  -0.000050   0.087412  -0.000573
 397  12   8.754860   6.035752   2.196189  -0.000015   0.087412  -0.000175
 398  15   8.038915   6.837752   2.324489  -0.000149   0.087412  -0.001701
 399  12   9.280998   5.784953   1.932719  -0.000003   0.052110  -0.000057
 400   5   8.132373   6.686399   1.791457   0.000235   0.073986   0.003171
 401   5   0.845507   6.228945   1.580875  -0.000092   0.075202  -0.001223
 402  13   0.686453   6.231289   1.840149  -0.000326   0.075202  -0.004340
 403  16   0.203045   5.546582   1.619727  -0.000467   0.075202  -0.006215
 404  13   2.422323   6.754413   5.686767  -0.000162   0.069577  -0.002326
 405  13   2.322936   7.618013   4.973291  -0.000318   0.154940  -0.002051
 406  13   1.928265   8.080746   3.758119  -0.000438   0.154940  -0.002825
 407  13   1.359877   7.677135   2.591687  -0.000491   0.154940  -0.003166
 408  13   0.920784   6.846591   1.973524  -0.000168   0.069577  -0.002416
 409   5   2.807923   7.174671   5.501034  -0.000115   0.152061  -0.000758
 410   5   2.541662   8.122451   4.334559  -0.000083   0.152061  -0.000547
 411   5   1.969597   8.157570   2.919866  -0.000229   0.152061  -0.001503
 412   5   1.334339   7.265133   1.856922  -0.000158   0.152061  -0.001042
 413   5   1.733005   5.275200   0.002029   0.000132   0.043600   0.003026
 414  14   1.956584   5.336625  -0.191961  -0.000008   0.043600  -0.000183
 415  16   1.051252   4.678477   0.234653  -0.000027   0.043600  -0.000609
 416  14   2.247780   5.944850  -0.478614  -0.000097   0.072098  -0.001352
 417  14   2.623700   7.025170  -0.290411  -0.000434   0.161611  -0.002685
 418  14   3.713908   7.890331  -0.152926  -0.000430   0.161611  -0.002662
 419  14   5.112230   7.883589  -0.177590  -0.000356   0.161611  -0.002203
 420  14   6.188520   7.007983  -0.353288  -0.000299   0.161611  -0.001850
 421   5   2.115014   6.368378  -0.059989  -0.000049   0.156613  -0.000312
 422   5   2.938201   7.687108   0.163637  -0.000132   0.156613  -0.000844
 423   5   4.421560   8.198793   0.230887  -0.000160   0.156613  -0.001020
 424   5   5.896622   7.672845   0.111456   0.000020   0.156613   0.000128
 425   5   6.690810   6.688183  -0.079146   0.000060   0.088083   0.000684
 426  15   7.678945   7.502009   2.242589  -0.000149   0.069293  -0.002154
 427  15   6.907768   8.312738   2.212475  -0.000344   0.154109  -0.002235
 428  15   5.879770   8.956111   2.812061  -0.000424   0.154109  -0.002753
 429  15   5.129174   8.955702   3.937590  -0.000468   0.154109  -0.003038
 430  15   4.970956   8.311683   5.116750  -0.000403   0.154109  -0.002618
 431  15   5.295423   7.500710   5.816712  -0.000220   0.069293  -0.003171
 432   5   7.279883   7.665425   1.827242  -0.000085   0.151630  -0.000557
 433   5   6.150730   8.651229   2.077544  -0.000085   0.151630  -0.000560
 434   5   5.094845   9.032932   3.101680  -0.000261   0.151630  -0.001722
 435   5   4.555316   8.650359   4.469888  -0.000176   0.151630  -0.001158
 436   5   4.758548   7.664051   5.608018  -0.000156   0.151630  -0.001028
 437  16  -0.071806   5.183950   1.148278  -0.001080   0.219516  -0.004921
 438  16   0.312486   4.643499   0.403694  -0.000865   0.219516  -0.003942
 439   5   1.153419   5.808650   0.659600   0.001092   0.610495   0.001789
 440   6   0.570320   3.856637   5.425462  -0.000429   0.267308  -0.001606
 441   7   1.220183   3.995944   6.163348  -0.001159   0.267308  -0.004336
 442  13   1.026616   4.716707   5.383218  -0.001248   0.267308  -0.004670
 443   6   0.015249   2.650338   6.035075  -0.000282   0.078242  -0.003607
 444   7   0.714726   2.829241   6.702977  -0.000570   0.078242  -0.007286
 445  18   0.053027   2.429653   6.241244  -0.000401   0.078242  -0.005124
 446   7   1.045900   3.526556   6.841560  -0.001222   0.217384  -0.005621
 447   6   0.015410   3.157150   5.877736   0.000164   0.308145   0.000532
 448   6   2.210436  -1.489479   5.320292  -0.000030   0.107739  -0.000280
 449   8   3.212082  -1.348784   5.930372   0.000333   0.107739   0.003093
 450  18   2.084567  -1.370748   5.572974  -0.000358   0.107739  -0.003318
 451   8   4.032642  -1.776542   5.869626  -0.000132   0.405471  -0.000325
 452   6   2.783769  -1.940498   4.642248   0.001750   0.589301   0.002969
 453   6  -0.369590   4.216767   4.409347  -0.000284   0.074410  -0.003822
 454  13   0.156045   5.025754   4.392607  -0.000572   0.074410  -0.007685
 455  16  -0.425971   4.417387   4.187727  -0.000403   0.074410  -0.005418
 456  13   0.492079   5.331891   4.837847  -0.001144   0.205112  -0.005577
 457   6  -0.129808   4.052652   4.994980   0.000129   0.290272   0.000443
 458   6   0.994580   3.789442  -0.108688  -0.000114   0.109635  -0.001040
 459  14   1.851123   4.620986  -0.211615   0.000328   0.109635   0.002991
 460  16   0.847391   4.016350   0.035433  -0.000382   0.109635  -0.003480
 461  14   2.725307   4.556418  -0.917132  -0.000005   0.410343  -0.000011
 462   6   1.414932   3.387909  -0.599964   0.001503   0.598012   0.002513
 463  16   0.103795   3.706815  -0.045986  -0.000243   0.067363  -0.003604
 464  16  -0.892962   3.319969   0.168717  -0.000510   0.148967  -0.003426
 465  16  -1.859934   3.078257   1.033716  -0.000631   0.148967  -0.004236
 466  16  -2.194079   3.192577   2.305314  -0.000824   0.148967  -0.005528
 467  16  -1.762531   3.617470   3.477882  -0.000796   0.148967  -0.005346
 468  16  -0.981360   4.078074   4.083594  -0.000245   0.067363  -0.003633
 469   6  -0.158434   3.195748  -0.185006  -0.000381   0.148215  -0.002570
 470   6  -1.450266   2.755715   0.394795  -0.000288   0.148215  -0.001944
 471   6  -2.220484   2.680303   1.659590  -0.000584   0.148215  -0.003940
 472   6  -2.162825   2.999499   3.106455  -0.000696   0.148215  -0.004698
 473   6  -1.300215   3.586380   4.160069  -0.000521   0.148215  -0.003515
 474  17   1.253245  -2.208725   0.555943  -0.000248   0.066268  -0.003744
 475  17   0.777138  -2.599722   1.441998  -0.000600   0.146371  -0.004100
 476  17  -0.215044  -2.588605   2.291949  -0.000581   0.146371  -0.003972
 477  17  -1.349407  -2.005942   2.576009  -0.000617   0.146371  -0.004213
 478  17  -2.182621  -1.079446   2.183164  -0.000769   0.146371  -0.005255
 479  17  -2.389049  -0.171209   1.266943  -0.000799   0.146371  -0.005462
 480  17  -1.888018   0.363813   0.185423  -0.000612   0.146371  -0.004181
 481  17  -0.875338   0.316524  -0.638718  -0.000597   0.146371  -0.004079
 482  17   0.253217  -0.294594  -0.883393  -0.000640   0.146371  -0.004376
 483  17   0.987796  -1.040812  -0.622236  -0.000232   0.066268  -0.003503
 484   6   1.459183  -2.312414   1.095073  -0.000459   0.145948  -0.003144
 485   6   0.598973  -2.639873   2.238699  -0.000432   0.145948  -0.002958
 486   6  -0.658761  -2.288685   2.909404  -0.000367   0.145948  -0.002517
 487   6  -1.822474  -1.396101   2.845064  -0.000600   0.145948  -0.004113
 488   6  -2.437364  -0.310958   2.070824  -0.000750   0.145948  -0.005138
 489   6  -2.263123   0.542649   0.889271  -0.000591   0.145948  -0.004048
 490   6  -1.367847   0.831117  -0.237822  -0.000417   0.145948  -0.002855
 491   6  -0.101425   0.441705  -0.869968  -0.000412   0.145948  -0.002821
 492   6   1.041201  -0.473395  -0.760112  -0.000433   0.145948  -0.002965
 493  18  -0.542156   2.175529   6.039016  -0.000319   0.067805  -0.004711
 494  18  -1.259236   1.393423   5.758198  -0.000790   0.150167  -0.005262
 495  18  -1.505405   0.129358   5.434504  -0.000839   0.150167  -0.005586
 496  18  -0.924082  -1.049873   5.248187  -0.000625   0.150167  -0.004162
 497  18   0.250386  -1.668886   5.274357  -0.000507   0.150167  -0.003376
 498  18   1.335236  -1.632812   5.437303  -0.000292   0.067805  -0.004303
 499   6  -0.969900   2.158792   5.629019  -0.000572   0.148975  -0.003837
 500   6  -1.692966   0.912772   5.241435  -0.000732   0.148975  -0.004917
 501   6  -1.494425  -0.534610   4.939310  -0.000594   0.148975  -0.003989
 502   6  -0.454313  -1.599871   4.844441  -0.000332   0.148975  -0.002226
 503   6   1.008068  -1.853571   4.995072  -0.000393   0.148975  -0.002639
 504  13   1.239777   5.448676   5.705481  -0.000640   0.305355  -0.002096
 505  13   2.046604   6.020850   6.035097  -0.000131   0.305355  -0.000428
 506   7   1.937017   4.695525   6.955061  -0.001612   0.611102  -0.002638
 507  18   0.831858   0.313901   7.231340  -0.000938   0.206325  -0.004548
 508  18   0.282570   1.242890   7.079552  -0.002011   0.412826  -0.004870
 509  18   0.002971   2.179933   6.598355  -0.000500   0.206325  -0.002422
 510   7   1.468399   1.289129   7.914861  -0.001492   0.412826  -0.003614
 511   7   0.951321   2.453202   7.519990  -0.002211   0.412826  -0.005355
 512  10   8.942200  -0.933897   4.849879  -0.000058   0.269098  -0.000216
 513  10   8.159059  -1.690687   4.317885  -0.001114   0.538220  -0.002069
 514  10   7.180641  -1.947354   3.650143  -0.000232   0.269098  -0.000862
 515   8   7.801395  -1.245032   5.913807  -0.000624   0.538220  -0.001159
 516   8   6.703073  -1.876917   5.165779  -0.001030   0.538220  -0.001915
 517  18   1.945621  -1.398280   6.009940   0.000132   0.246050   0.000538
 518   8   3.503615  -1.481677   6.694685   0.000412   0.246050   0.001675
 519   9   8.238483   5.199576   5.731966  -0.001112   0.320404  -0.003471
 520  12   8.815507   5.211289   4.800199  -0.001078   0.320404  -0.003365
 521  15   8.035212   5.962447   4.963578  -0.001112   0.320404  -0.003470
 522  12   9.587425   4.845317   5.010319  -0.000499   0.293872  -0.001699
 523  12  10.044138   3.665701   5.278982  -0.000985   0.587890  -0.001675
 524   9   8.979174   4.392524   6.450796  -0.001703   0.587890  -0.002897
 525   9   9.334318   3.166162   6.656147  -0.000223   0.293872  -0.000758
 526  15   6.178064   7.022998   6.181349  -0.000159   0.290918  -0.000548
 527  15   7.318063   6.795743   5.654043  -0.001698   0.581916  -0.002918
 528   9   6.919691   5.883949   7.087851  -0.001073   0.581916  -0.001845
 529   9   8.002973   5.570438   6.489935  -0.000514   0.290918  -0.001767
 530  14   6.534853   5.789325  -0.989182  -0.000015   0.269971  -0.000057
 531  14   5.712305   5.087596  -1.523498  -0.001025   0.539922  -0.001899
 532  14   4.847077   4.247437  -1.527484  -0.000259   0.269971  -0.000960
 533  11   7.289861   4.441261  -1.423822  -0.000477   0.539922  -0.000883
 534  11   6.237474   3.479839  -1.759472  -0.000868   0.539922  -0.001608
 535  15   8.285805   6.662079   4.479942  -0.000597   0.298721  -0.002000
 536  15   8.332545   6.987785   3.209184  -0.001064   0.597649  -0.001781
 537  12   9.434449   5.752584   3.766913  -0.001664   0.597649  -0.002784
 538  12   9.387937   5.986001   2.476003  -0.000186   0.298721  -0.000624
 539  16  -0.612724   4.741039   3.936408  -0.000571   0.211057  -0.002704
 540  16  -0.680103   5.215129   2.890508  -0.002419   0.422476  -0.005725
 541  16  -0.376319   5.400601   1.796651  -0.000930   0.211057  -0.004405
 542  13   0.092417   5.847433   3.909444  -0.002532   0.422476  -0.005994
 543  13   0.239834   6.258721   2.575139  -0.001914   0.422476  -0.004529
 544  16   0.619138   4.375075  -0.003073   0.000212   0.135795   0.001559
 545  14   2.005903   5.234232  -0.556489   0.000323   0.135795   0.002377
 =====================================================

              3173552  WORDS OF DYNAMIC MEMORY USED
 EXECUTION OF GAMESS TERMINATED NORMALLY Thu Nov 24 21:42:05 2016
 DDI: 263640 bytes (0.3 MB / 0 MWords) used by master data server.

 ----------------------------------------
 CPU timing information for all processes
 ========================================
 0: 1314.872 + 0.544 = 1315.416
 ----------------------------------------
 ddikick.x: exited gracefully.
