----- GAMESS execution script -----

          ******************************************************
          *         GAMESS VERSION =  5 DEC 2014 (R1)          *
          *             FROM IOWA STATE UNIVERSITY             *
          * M.W.SCHMIDT, K.K.BALDRIDGE, J.A.BOATZ, S.T.ELBERT, *
          *   M.S.GORDON, J.H.JENSEN, S.KOSEKI, N.MATSUNAGA,   *
          *          K.A.NGUYEN, S.J.SU, T.L.WINDUS,           *
          *       TOGETHER WITH M.DUPUIS, J.A.MONTGOMERY       *
          *         J.COMPUT.CHEM.  14, 1347-1363(1993)        *
          **************** 64 BIT LINUX VERSION ****************

 EXECUTION OF GAMESS BEGUN Thu Nov 24 20:36:27 2016

            ECHO OF THE FIRST FEW INPUT CARDS -
 INPUT CARD>! SELECT RESTRICTED HARTREE-FOCK AS DEFAULT                                     
 INPUT CARD>$contrl scftyp=rhf $end                                                         
 INPUT CARD>                                                                                
 INPUT CARD>! THEORY: HF OR DFT                                                             
 INPUT CARD> $contrl mplevl=0 $end                                                          
 INPUT CARD>                                                                                
 INPUT CARD> $system timlim=10000 mwords=20 $end                                            
 INPUT CARD> $SCF DIRSCF=.TRUE. $end                                                        
 INPUT CARD>                                                                                
 INPUT CARD>                                                                                
 INPUT CARD>! BASIS SETS                                                                    
 INPUT CARD>! 6-311G(d,p)                                                                   
 INPUT CARD> $BASIS GBASIS=N311 NGAUSS=6 NDFUNC=1 NPFUNC=1 $END                             
 INPUT CARD>                                                                                
 INPUT CARD>! One of the following                                                          
 INPUT CARD> $guess guess=HUCKEL $end                                                       
 INPUT CARD>                                                                                
 INPUT CARD> $statpt projct=.FALSE. $end                                                    
 INPUT CARD> $STATPT IFREEZ(1)=1,2,3 $END                                                   
 INPUT CARD>                                                                                
 INPUT CARD>! Optimize the geometry with COSMO effects                                      
 INPUT CARD> $statpt opttol=0.0005 nstep=50 $end                                            
 INPUT CARD> $contrl nzvar=1 $end                                                           
 INPUT CARD> $zmat dlc=.t. auto=.t. $end                                                    
 INPUT CARD> $contrl runtyp=OPTIMIZE maxit=200 $end                                         
 INPUT CARD>                                                                                
 INPUT CARD>! Run COSMO on perfect conductor                                                
 INPUT CARD> $COSGMS PRFCND=.TRUE. $end                                                     
 INPUT CARD>                                                                                
 INPUT CARD>! Specifying RSOLV                                                              
 INPUT CARD> $COSGMS COSRAD = 1.4 $end                                                      
 INPUT CARD>                                                                                
 INPUT CARD>! available memory                                                              
 INPUT CARD> $SYSTEM MWORDS=40 $END                                                         
 INPUT CARD>                                                                                
 INPUT CARD> $DATA                                                                          
 INPUT CARD>Butane, 1-methoxy-, ID: C628284                                                 
 INPUT CARD>C1                                                                              
 INPUT CARD>C      6.0      2.2548000000    1.9822000000    1.5881000000                    
 INPUT CARD>O      8.0      1.0972000000    1.3579000000    2.1085000000                    
 INPUT CARD>C      6.0      0.9521000000    1.4378000000    3.5038000000                    
 INPUT CARD>C      6.0      3.5314000000    1.1732000000    1.8120000000                    
 INPUT CARD>C      6.0      4.7021000000    1.8116000000    1.0837000000                    
 INPUT CARD>C      6.0      5.9797000000    1.0327000000    1.3010000000                    
 INPUT CARD>H      1.0      2.3630000000    3.0120000000    1.9817000000                    
 INPUT CARD>H      1.0      2.0039000000    2.0508000000    0.5151000000                    
 INPUT CARD>H      1.0      0.0000000000    0.9337000000    3.6855000000                    
 INPUT CARD>H      1.0      0.9004000000    2.4762000000    3.8532000000                    
 INPUT CARD>H      1.0      1.7579000000    0.9182000000    4.0359000000                    
 INPUT CARD>H      1.0      3.3901000000    0.1301000000    1.4655000000                    
   40000000 WORDS OF MEMORY AVAILABLE

     BASIS OPTIONS
     -------------
     GBASIS=N311         IGAUSS=       6      POLAR=POPN311 
     NDFUNC=       1     NFFUNC=       0     DIFFSP=       F
     NPFUNC=       1      DIFFS=       F     BASNAM=        


     RUN TITLE
     ---------
 Butane, 1-methoxy-, ID: C628284                                                 

 THE POINT GROUP OF THE MOLECULE IS C1      
 THE ORDER OF THE PRINCIPAL AXIS IS     0

 ATOM      ATOMIC                      COORDINATES (BOHR)
           CHARGE         X                   Y                   Z
 C           6.0     4.2609541571        3.7458148529        3.0010738411
 O           8.0     2.0734073537        2.5660589187        3.9844872451
 C           6.0     1.7992081129        2.7170480251        6.6212219158
 C           6.0     6.6733783530        2.2170265288        3.4241834898
 C           6.0     8.8856805669        3.4234275994        2.0478960529
 C           6.0    11.2999944888        1.9515200275        2.4585335100
 H           1.0     4.4654225090        5.6918546750        3.7448699899
 H           1.0     3.7868219068        3.8754500556        0.9733978563
 H           1.0     0.0000000000        1.7644371547        6.9645851277
 H           1.0     1.7015092793        4.6793394908        7.2814921759
 H           1.0     3.3219493138        1.7351464019        7.6267451138
 H           1.0     6.4063600710        0.2458533510        2.7693934350
 H           1.0     7.0978108099        2.0720845455        5.4711346797
 H           1.0     9.1343685069        5.4002699551        2.6928595325
 H           1.0     8.4650275620        3.5502282131        0.0000000000
 H           1.0    11.1321868211        0.0000000000        1.7733188669
 H           1.0    11.8064410535        1.8562778377        4.4688240158
 H           1.0    12.8930334964        2.8249513790        1.4586794899

          INTERNUCLEAR DISTANCES (ANGS.)




     $CONTRL OPTIONS
     ---------------
 SCFTYP=RHF          RUNTYP=OPTIMIZE     EXETYP=RUN     
 MPLEVL=       0     CITYP =NONE         CCTYP =NONE         VBTYP =NONE    
 DFTTYP=NONE         TDDFT =NONE    
 MULT  =       1     ICHARG=       0     NZVAR =       1     COORD =UNIQUE  
 PP    =NONE         RELWFN=NONE         LOCAL =NONE         NUMGRD=       F
 ISPHER=      -1     NOSYM =       0     MAXIT =     200     UNITS =ANGS    
 PLTORB=       F     MOLPLT=       F     AIMPAC=       F     FRIEND=        
 NPRINT=       7     IREST =       0     GEOM  =INPUT   
 NORMF =       0     NORMP =       0     ITOL  =      20     ICUT  =       9
 INTTYP=BEST         GRDTYP=BEST         QMTTOL= 1.0E-06

     $SYSTEM OPTIONS
     ---------------
  REPLICATED MEMORY=    40000000 WORDS (ON EVERY NODE).
 DISTRIBUTED MEMDDI=           0 MILLION WORDS IN AGGREGATE,
 MEMDDI DISTRIBUTED OVER   1 PROCESSORS IS           0 WORDS/PROCESSOR.
 TOTAL MEMORY REQUESTED ON EACH PROCESSOR=    40000000 WORDS.
 TIMLIM=       10000.00 MINUTES, OR       6.9 DAYS.
 PARALL= F  BALTYP=  DLB     KDIAG=    0  COREFL= F
 MXSEQ2=     300 MXSEQ3=     150  mem10=         0

     $COSGMS OPTIONS
     ---------------
     EPSI  =   INFTY     NSPA  =      92     COSRAD=    1.40
     DISEX =   10.00     OUTCHG=DBLCAV       COSBUG=       F
     COSWRT=       F     DCOSMO=       F

     SYMMETRY COORDINATES WILL NOT BE USED FOR 
     THE COSMO CALCULATION, EVEN IF SPECIFIED:
         -- SWITCHING TO C1 POINT GROUP --


     DEFINITION OF CAVITY
     ---------------------------
     ATOM         COORDINATES           RADIUS 
     1    4.2610    3.7458    3.0011    2.0000
     2    2.0734    2.5661    3.9845    1.7200
     3    1.7992    2.7170    6.6212    2.0000
     4    6.6734    2.2170    3.4242    2.0000
     5    8.8857    3.4234    2.0479    2.0000
     6   11.3000    1.9515    2.4585    2.0000
     7    4.4654    5.6919    3.7449    1.3000
     8    3.7868    3.8755    0.9734    1.3000
     9    0.0000    1.7644    6.9646    1.3000
    10    1.7015    4.6793    7.2815    1.3000
    11    3.3219    1.7351    7.6267    1.3000
    12    6.4064    0.2459    2.7694    1.3000
    13    7.0978    2.0721    5.4711    1.3000
    14    9.1344    5.4003    2.6929    1.3000
    15    8.4650    3.5502    0.0000    1.3000
    16   11.1322    0.0000    1.7733    1.3000
    17   11.8064    1.8563    4.4688    1.3000
    18   12.8930    2.8250    1.4587    1.3000

          ----------------
          PROPERTIES INPUT
          ----------------

     MOMENTS            FIELD           POTENTIAL          DENSITY
 IEMOM =       1   IEFLD =       0   IEPOT =       0   IEDEN =       0
 WHERE =COMASS     WHERE =NUCLEI     WHERE =NUCLEI     WHERE =NUCLEI  
 OUTPUT=BOTH       OUTPUT=BOTH       OUTPUT=BOTH       OUTPUT=BOTH    
 IEMINT=       0   IEFINT=       0                     IEDINT=       0
                                                       MORB  =       0
          EXTRAPOLATION IN EFFECT
          SOSCF IN EFFECT
 ORBITAL PRINTING OPTION: NPREO=     1   186     2     1

     -------------------------------
     INTEGRAL TRANSFORMATION OPTIONS
     -------------------------------
     NWORD  =            0
     CUTOFF = 1.0E-09     MPTRAN =       0
     DIRTRF =       T     AOINTS =DUP     

          ----------------------
          INTEGRAL INPUT OPTIONS
          ----------------------
 NOPK  =       1 NORDER=       0 SCHWRZ=       T


 -----------------------------------------------
  STATISTICS ON AUTOMATIC COORDINATE GENERATION 
 -----------------------------------------------
  NUMBER OF USER SPECIFIED BONDS                             0
  NUMBER OF BONDS                                           17
  NUMBER OF ANGLES                                          31
  NUMBER OF TORSIONS                                        33
  NUMBER OF EXTRA COORD.                                     0
  NUMBER OF EXTRA COORD. FOR CONSTRAINTS                     0
  NUMBER OF CONSTRAINED COORD.                               0

  TOTAL NUMBER OF PRIMITIVES                                81
 -----------------------------------------------

   --- ENCODED Z MATRIX ---
 COORD  TYPE   I   J   K   L   M   N
    1      1    1   7
    2      1    1   2
    3      1    1   4
    4      1    1   8
    5      1    2   3
    6      1    3  11
    7      1    3  10
    8      1    3   9
    9      1    4  13
   10      1    4  12
   11      1    4   5
   12      1    5  15
   13      1    5  14
   14      1    5   6
   15      1    6  16
   16      1    6  18
   17      1    6  17
   18      2    1   4  12
   19      2    1   4  13
   20      2    1   4   5
   21      2    1   2   3
   22      2    2   1   8
   23      2    2   3  10
   24      2    2   3   9
   25      2    2   1   4
   26      2    2   1   7
   27      2    2   3  11
   28      2    4   1   8
   29      2    4   5   6
   30      2    4   5  15
   31      2    4   1   7
   32      2    4   5  14
   33      2    5   6  18
   34      2    5   6  16
   35      2    5   4  12
   36      2    5   4  13
   37      2    5   6  17
   38      2    6   5  14
   39      2    6   5  15
   40      2    7   1   8
   41      2    9   3  11
   42      2    9   3  10
   43      2   10   3  11
   44      2   12   4  13
   45      2   14   5  15
   46      2   16   6  17
   47      2   16   6  18
   48      2   17   6  18
   49      3    1   4   5   6
   50      3    1   4   5  14
   51      3    1   4   5  15
   52      3    1   2   3   9
   53      3    1   2   3  10
   54      3    1   2   3  11
   55      3    2   1   4  13
   56      3    2   1   4  12
   57      3    2   1   4   5
   58      3    3   2   1   8
   59      3    3   2   1   4
   60      3    3   2   1   7
   61      3    4   5   6  17
   62      3    4   5   6  18
   63      3    4   5   6  16
   64      3    5   4   1   7
   65      3    5   4   1   8
   66      3    6   5   4  12
   67      3    6   5   4  13
   68      3    7   1   4  13
   69      3    7   1   4  12
   70      3    8   1   4  12
   71      3    8   1   4  13
   72      3   12   4   5  14
   73      3   12   4   5  15
   74      3   13   4   5  14
   75      3   13   4   5  15
   76      3   14   5   6  17
   77      3   14   5   6  16
   78      3   14   5   6  18
   79      3   15   5   6  17
   80      3   15   5   6  16
   81      3   15   5   6  18

          INDEP./SYM. INTERNAL COORDINATES
          --------------------------------
 CRD  1=  -0.1033 (  2) -0.1017 ( 11) -0.1013 ( 18) -0.1438 ( 19)  0.3770 ( 20)
          -0.3772 ( 21)  0.1619 ( 22) -0.4880 ( 25)  0.1516 ( 26)  0.1769 ( 28)
          -0.3487 ( 29)  0.1148 ( 30)  0.1084 ( 32) -0.1261 ( 36)  0.1178 ( 39)
          -0.1035 ( 58) -0.1794 ( 59)
 CRD  2=   0.1960 (  2) -0.1044 ( 18) -0.1117 ( 19)  0.3775 ( 20)  0.6926 ( 21)
          -0.2086 ( 29)  0.1269 ( 32) -0.1928 ( 35) -0.1005 ( 55) -0.1375 ( 56)
          -0.1982 ( 57)
 CRD  3=   0.2527 (  3)  0.1010 (  5)  0.2245 ( 11)  0.1695 ( 14) -0.1979 ( 18)
           0.3492 ( 20) -0.2107 ( 21) -0.1521 ( 23)  0.1250 ( 24)  0.1338 ( 25)
          -0.2314 ( 26)  0.1092 ( 27) -0.1423 ( 28)  0.1809 ( 31) -0.2119 ( 36)
          -0.1083 ( 39)  0.1144 ( 49)  0.1521 ( 54)  0.1148 ( 55)  0.1484 ( 57)
           0.2383 ( 58)  0.3226 ( 59)  0.1619 ( 60)  0.1143 ( 65)
 CRD  4=  -0.1760 (  3) -0.2107 ( 11) -0.2577 ( 14)  0.1655 ( 19) -0.1802 ( 20)
          -0.1034 ( 23)  0.2370 ( 25) -0.1008 ( 26)  0.1215 ( 27) -0.1968 ( 28)
          -0.5601 ( 29)  0.1972 ( 30)  0.1362 ( 32) -0.1796 ( 34)  0.2269 ( 38)
           0.1440 ( 39) -0.1139 ( 45)  0.1998 ( 59)  0.1166 ( 60)
 CRD  5=  -0.1259 (  2) -0.1024 (  3) -0.1467 (  5) -0.1349 ( 11)  0.1380 ( 19)
          -0.1607 ( 20)  0.1267 ( 22) -0.1024 ( 24) -0.4110 ( 25)  0.1836 ( 26)
           0.1520 ( 29)  0.2270 ( 31) -0.1049 ( 34)  0.1008 ( 36)  0.1552 ( 37)
          -0.1179 ( 39)  0.2751 ( 49)  0.1366 ( 50)  0.1713 ( 51)  0.2040 ( 52)
           0.2317 ( 53)  0.2062 ( 54) -0.1964 ( 57)  0.2406 ( 59)  0.1101 ( 60)
           0.1408 ( 67)
 CRD  6=   0.1059 (  2) -0.1427 (  3)  0.3702 (  5) -0.1237 ( 20)  0.2512 ( 21)
           0.2384 ( 22)  0.1230 ( 23) -0.2473 ( 25)  0.2257 ( 27) -0.1218 ( 32)
           0.1732 ( 34)  0.1543 ( 35) -0.1667 ( 37) -0.1308 ( 43) -0.2092 ( 49)
           0.1132 ( 52)  0.1757 ( 53)  0.1009 ( 55)  0.2389 ( 57)  0.1664 ( 60)
           0.1112 ( 61)  0.1797 ( 62)  0.1220 ( 63)  0.1735 ( 64)  0.1258 ( 65)
          -0.1304 ( 66)
 CRD  7=  -0.1190 (  2)  0.1202 (  3) -0.1032 (  4) -0.2128 (  5)  0.1390 ( 18)
          -0.2065 ( 23) -0.1462 ( 30)  0.1578 ( 32)  0.2808 ( 34) -0.1697 ( 35)
           0.1157 ( 36) -0.2854 ( 37) -0.1731 ( 38)  0.2093 ( 39) -0.2278 ( 49)
           0.1153 ( 52)  0.1736 ( 53)  0.1854 ( 54) -0.1439 ( 57)  0.2387 ( 58)
           0.2271 ( 59)  0.1888 ( 60) -0.1032 ( 61) -0.1102 ( 63) -0.1338 ( 64)
          -0.1579 ( 66) -0.1968 ( 67)
 CRD  8=  -0.3659 (  2) -0.1863 (  5)  0.1045 (  6) -0.1412 (  8)  0.1883 ( 14)
          -0.1294 ( 22) -0.5378 ( 24)  0.3784 ( 27)  0.1387 ( 28) -0.1319 ( 32)
          -0.1047 ( 36)  0.1735 ( 42) -0.1779 ( 52) -0.2078 ( 54)  0.1344 ( 65)
 CRD  9=  -0.3642 (  3) -0.1126 (  7)  0.2426 ( 11) -0.2223 ( 14) -0.1055 ( 18)
          -0.1628 ( 19)  0.1023 ( 20) -0.4405 ( 23)  0.1066 ( 24)  0.3915 ( 27)
           0.1236 ( 32) -0.1136 ( 33)  0.1211 ( 36) -0.1473 ( 38) -0.1243 ( 41)
          -0.2203 ( 52) -0.1456 ( 53) -0.1135 ( 54) -0.1099 ( 73)
 CRD 10=  -0.2041 (  3)  0.1240 ( 11)  0.5386 ( 14)  0.1036 ( 16) -0.1508 ( 20)
          -0.1092 ( 23)  0.1320 ( 24) -0.1089 ( 30)  0.4906 ( 33)  0.1355 ( 36)
           0.1249 ( 38)  0.1611 ( 39) -0.2193 ( 47) -0.2388 ( 48) -0.1256 ( 72)
           0.1158 ( 75)
 CRD 11=   0.1205 (  2)  0.1009 (  3)  0.1311 (  5) -0.5298 ( 11)  0.1929 ( 14)
          -0.1081 ( 16)  0.1132 ( 18) -0.2308 ( 23)  0.1663 ( 24)  0.2016 ( 27)
          -0.1447 ( 30) -0.2609 ( 33)  0.1174 ( 34) -0.1754 ( 35)  0.3121 ( 37)
           0.1091 ( 39) -0.1128 ( 41) -0.2062 ( 46) -0.1253 ( 52)  0.1111 ( 56)
 CRD 12=  -0.1340 (  2)  0.1969 (  5) -0.1006 (  8)  0.1046 ( 10) -0.1108 ( 15)
           0.1407 ( 18) -0.1324 ( 19)  0.1408 ( 22)  0.3039 ( 23) -0.2421 ( 24)
          -0.2157 ( 26)  0.1119 ( 27) -0.1648 ( 30)  0.1514 ( 31)  0.1828 ( 32)
          -0.3462 ( 34) -0.1494 ( 35)  0.1655 ( 36)  0.2572 ( 37) -0.1046 ( 38)
          -0.1677 ( 43)  0.1326 ( 47) -0.1359 ( 48)  0.1644 ( 55)  0.1508 ( 56)
          -0.1494 ( 61) -0.1867 ( 62) -0.1563 ( 63) -0.1079 ( 64)
 CRD 13=   0.2094 (  3)  0.2052 ( 18) -0.1658 ( 22) -0.2117 ( 23)  0.1920 ( 26)
           0.1073 ( 27)  0.3586 ( 28)  0.1367 ( 30) -0.2453 ( 31) -0.1377 ( 32)
           0.1307 ( 33) -0.3767 ( 34)  0.1704 ( 37)  0.1149 ( 38) -0.1369 ( 39)
           0.1072 ( 47) -0.1228 ( 48) -0.1047 ( 49) -0.1610 ( 50) -0.1782 ( 51)
           0.1047 ( 53)  0.1228 ( 54)  0.2364 ( 58)  0.1541 ( 60)  0.1051 ( 61)
 CRD 14=  -0.1047 (  1) -0.3993 (  3) -0.1392 (  4) -0.1170 (  9)  0.1179 ( 12)
           0.1561 ( 14) -0.1982 ( 19)  0.1116 ( 20)  0.1322 ( 23)  0.1607 ( 25)
          -0.1754 ( 27)  0.1121 ( 30) -0.2678 ( 31) -0.2879 ( 33)  0.1054 ( 34)
           0.3319 ( 37)  0.1821 ( 40) -0.2066 ( 46) -0.1044 ( 50)  0.1409 ( 52)
           0.1336 ( 53)  0.1294 ( 54)  0.2304 ( 60)
 CRD 15=  -0.1035 ( 15)  0.1118 ( 17) -0.2619 ( 18)  0.2553 ( 19) -0.1280 ( 22)
           0.1525 ( 26)  0.1470 ( 28) -0.2279 ( 30) -0.1823 ( 31)  0.2433 ( 32)
          -0.1275 ( 34)  0.2820 ( 35) -0.2741 ( 36)  0.1594 ( 37) -0.2579 ( 38)
           0.2607 ( 39)  0.1354 ( 50)  0.1351 ( 51)  0.1240 ( 57) -0.1292 ( 61)
          -0.1103 ( 62) -0.1269 ( 63)  0.1888 ( 64)  0.1838 ( 65) -0.1715 ( 66)
          -0.1674 ( 67)
 CRD 16=   0.2320 (  3)  0.2084 (  9)  0.1859 ( 10)  0.3866 ( 11)  0.1838 ( 12)
           0.2036 ( 13)  0.1069 ( 14) -0.1134 ( 16) -0.2523 ( 20) -0.1289 ( 25)
          -0.2700 ( 29)  0.1625 ( 30)  0.1038 ( 31)  0.1674 ( 32) -0.2820 ( 33)
           0.2176 ( 34)  0.1190 ( 35)  0.1199 ( 36)  0.1810 ( 37) -0.1076 ( 40)
          -0.1524 ( 44) -0.1538 ( 45) -0.2012 ( 46)
 CRD 17=   0.2788 (  1) -0.2489 (  4) -0.1582 (  5)  0.1099 ( 10)  0.2513 ( 12)
          -0.2429 ( 13) -0.1343 ( 15)  0.1358 ( 17)  0.1025 ( 22) -0.1372 ( 23)
          -0.1043 ( 26) -0.1362 ( 27) -0.2470 ( 28)  0.2954 ( 31) -0.1868 ( 34)
           0.1916 ( 37)  0.1404 ( 43)  0.1238 ( 47) -0.1227 ( 48) -0.1975 ( 49)
          -0.1065 ( 55) -0.1123 ( 56) -0.1487 ( 58)  0.1076 ( 59) -0.1632 ( 60)
           0.1181 ( 61)  0.1464 ( 62)  0.1179 ( 63) -0.1703 ( 66) -0.1687 ( 67)
 CRD 18=   0.1150 (  2)  0.4112 (  6)  0.4062 (  7)  0.3727 (  8) -0.1818 (  9)
           0.1917 ( 10) -0.2085 ( 12)  0.2063 ( 13) -0.2072 ( 23) -0.2108 ( 24)
          -0.2041 ( 27)  0.1841 ( 41)  0.1895 ( 42)  0.2403 ( 43)
 CRD 19=   0.1737 ( 14)  0.5036 ( 15)  0.4801 ( 16)  0.5022 ( 17) -0.1942 ( 33)
          -0.1763 ( 34) -0.1772 ( 37)  0.1875 ( 46)  0.1994 ( 47)  0.2004 ( 48)
 CRD 20=   0.1586 (  1) -0.2590 (  4) -0.1378 (  6) -0.2125 (  7) -0.2860 (  8)
          -0.3676 (  9)  0.3712 ( 10) -0.3181 ( 12)  0.3204 ( 13)  0.1576 ( 24)
          -0.1927 ( 42) -0.1261 ( 50) -0.1247 ( 51) -0.1107 ( 62)  0.1199 ( 65)
 CRD 21=   0.4861 (  6) -0.3456 (  7)  0.4156 ( 41) -0.4947 ( 42)  0.1054 ( 43)
          -0.3602 ( 52)  0.1992 ( 53)  0.1029 ( 54)
 CRD 22=  -0.1199 (  1)  0.1652 (  6)  0.3622 (  7) -0.4567 (  8) -0.3365 ( 41)
          -0.1568 ( 42)  0.5045 ( 43)  0.2423 ( 53) -0.3112 ( 54)
 CRD 23=  -0.5735 (  1) -0.1518 (  2) -0.4845 (  4)  0.2425 (  8)  0.1230 ( 21)
           0.1465 ( 24)  0.2073 ( 28)  0.1944 ( 31) -0.2897 ( 40)  0.2236 ( 58)
          -0.1553 ( 60)
 CRD 24=   0.2450 (  1) -0.1106 (  4)  0.1041 ( 10)  0.1588 ( 18) -0.1703 ( 19)
          -0.1371 ( 30)  0.1356 ( 32) -0.1209 ( 35)  0.1287 ( 36) -0.1738 ( 38)
           0.1760 ( 39)  0.1377 ( 50)  0.1391 ( 51)  0.1000 ( 61)  0.1086 ( 62)
           0.1002 ( 63)  0.1159 ( 64)  0.1348 ( 65)  0.1303 ( 66)  0.1381 ( 67)
           0.1642 ( 68)  0.1608 ( 69)  0.1796 ( 70)  0.1831 ( 71)  0.2572 ( 72)
           0.2585 ( 73)  0.2649 ( 74)  0.2663 ( 75)  0.1516 ( 76)  0.1518 ( 77)
           0.1602 ( 78)  0.1526 ( 79)  0.1527 ( 80)  0.1611 ( 81)
 CRD 25=  -0.1688 ( 12) -0.1694 ( 13) -0.2962 ( 15)  0.6348 ( 16) -0.2936 ( 17)
          -0.3280 ( 46)  0.1581 ( 47)  0.1595 ( 48)  0.1721 ( 61) -0.1712 ( 63)
           0.1875 ( 76) -0.1558 ( 77)  0.1567 ( 79) -0.1865 ( 80)
 CRD 26=  -0.5481 ( 15)  0.5494 ( 17) -0.2949 ( 47)  0.2941 ( 48) -0.2222 ( 62)
           0.1071 ( 76)  0.1080 ( 77) -0.2096 ( 78)  0.1073 ( 79)  0.1082 ( 80)
          -0.2094 ( 81)
 CRD 27=   0.4880 (  9)  0.4871 ( 10) -0.3762 ( 12) -0.3777 ( 13) -0.1028 ( 16)
           0.1819 ( 44) -0.1323 ( 45) -0.1526 ( 72)  0.1501 ( 75)
 CRD 28=   0.3668 (  9)  0.3674 ( 10) -0.1210 ( 11)  0.4514 ( 12)  0.4511 ( 13)
           0.1056 ( 16)  0.1723 ( 44)  0.2021 ( 45) -0.1363 ( 73)  0.1338 ( 74)
          -0.1285 ( 77)  0.1258 ( 79)
 CRD 29=   0.4142 (  2)  0.1246 (  3) -0.5192 (  4)  0.2084 (  6) -0.2196 (  8)
          -0.2727 ( 21) -0.2479 ( 24)  0.2233 ( 26)  0.1713 ( 27) -0.1238 ( 31)
          -0.1044 ( 58)  0.1565 ( 64)  0.1368 ( 68)  0.2086 ( 69) -0.1069 ( 71)
 CRD 30=   0.4307 (  1) -0.2367 (  2) -0.2184 (  4)  0.2554 (  5)  0.1150 (  6)
           0.2360 (  7)  0.1900 (  8)  0.2071 (  9) -0.2075 ( 10) -0.2550 ( 22)
           0.1053 ( 23)  0.1425 ( 24)  0.1092 ( 28) -0.1186 ( 42)  0.1737 ( 65)
           0.1167 ( 68)  0.2250 ( 70)  0.2572 ( 71) -0.1132 ( 72) -0.1017 ( 73)
 CRD 31=   0.1071 (  2) -0.1179 (  5) -0.1285 (  6) -0.1013 (  9)  0.1025 ( 10)
           0.3085 ( 12) -0.3076 ( 13)  0.1117 ( 55)  0.1088 ( 56) -0.1732 ( 61)
          -0.1774 ( 62) -0.1736 ( 63)  0.1092 ( 64)  0.1330 ( 68)  0.1302 ( 69)
          -0.2653 ( 76) -0.2657 ( 77) -0.2695 ( 78) -0.2640 ( 79) -0.2644 ( 80)
          -0.2682 ( 81)
 CRD 32=  -0.1641 (  2)  0.2415 (  5)  0.2751 (  6)  0.1472 (  7)  0.1151 (  8)
          -0.2980 (  9)  0.2940 ( 10)  0.2203 ( 12) -0.2204 ( 13) -0.1607 ( 21)
          -0.1171 ( 22)  0.1593 ( 27) -0.1320 ( 41) -0.1455 ( 43) -0.2237 ( 55)
          -0.2130 ( 56) -0.1550 ( 57) -0.1385 ( 64) -0.2072 ( 68) -0.1965 ( 69)
          -0.1173 ( 70) -0.1280 ( 71)  0.1196 ( 72)  0.1140 ( 73)  0.1024 ( 74)
 CRD 33=  -0.1994 (  1) -0.3353 (  2)  0.1394 (  3)  0.2455 (  6) -0.3416 (  7)
           0.1018 ( 18)  0.1311 ( 21) -0.1363 ( 23) -0.1984 ( 28)  0.2047 ( 40)
          -0.1892 ( 41)  0.1405 ( 42)  0.2910 ( 52)  0.1417 ( 53)  0.1395 ( 54)
           0.1194 ( 56) -0.3481 ( 58) -0.1695 ( 59) -0.1062 ( 60)  0.1218 ( 65)
           0.1562 ( 70)  0.1069 ( 71)
 CRD 34=  -0.1403 (  2) -0.1408 (  3) -0.1080 (  6)  0.1098 (  7)  0.1557 ( 15)
           0.2872 ( 16)  0.1536 ( 17)  0.1552 ( 18)  0.1621 ( 19)  0.1016 ( 26)
           0.1773 ( 30)  0.1782 ( 32)  0.2107 ( 33)  0.1677 ( 34) -0.1293 ( 35)
          -0.1282 ( 36)  0.1665 ( 37) -0.2117 ( 38) -0.2156 ( 39) -0.1246 ( 46)
          -0.2309 ( 47) -0.2292 ( 48)  0.1364 ( 50) -0.1359 ( 51) -0.1301 ( 52)
           0.1188 ( 69) -0.1252 ( 71)  0.2200 ( 72) -0.2290 ( 75)  0.1290 ( 77)
          -0.1213 ( 79)
 CRD 35=   0.2202 (  2)  0.1673 (  5)  0.1343 (  6) -0.1889 (  7) -0.1448 (  8)
          -0.1591 ( 11) -0.3315 ( 14)  0.1937 ( 15)  0.1519 ( 16)  0.1888 ( 17)
          -0.1267 ( 18) -0.1223 ( 19) -0.1592 ( 22) -0.1771 ( 26) -0.1115 ( 27)
           0.1178 ( 28)  0.1073 ( 31)  0.1748 ( 33)  0.1768 ( 34)  0.1548 ( 35)
           0.1441 ( 36)  0.1778 ( 37)  0.2023 ( 42) -0.2088 ( 46) -0.1815 ( 47)
          -0.1774 ( 48)  0.1869 ( 52) -0.1011 ( 60) -0.1604 ( 69)  0.1380 ( 71)
          -0.1084 ( 73)  0.1178 ( 74)
 CRD 36=   0.1499 (  2)  0.1297 (  4) -0.6401 (  5)  0.2365 (  6)  0.1402 (  7)
           0.2249 (  8) -0.1234 ( 14)  0.2635 ( 23)  0.1802 ( 24)  0.2309 ( 27)
          -0.2656 ( 41) -0.2037 ( 42) -0.2051 ( 43)
 CRD 37=   0.2851 (  3) -0.1741 (  4) -0.3135 (  6)  0.1465 (  7)  0.1447 (  8)
           0.1017 ( 11) -0.2706 ( 14)  0.1467 ( 15)  0.1573 ( 17)  0.1158 ( 22)
           0.1166 ( 27) -0.1384 ( 28) -0.1353 ( 30) -0.1498 ( 31) -0.1333 ( 32)
           0.1743 ( 40)  0.1089 ( 41) -0.1920 ( 42)  0.1070 ( 43)  0.1051 ( 45)
          -0.1988 ( 46) -0.2061 ( 52)  0.1027 ( 53) -0.1758 ( 58)  0.1219 ( 60)
          -0.1134 ( 69) -0.1989 ( 77) -0.1232 ( 78)  0.1739 ( 79)  0.1036 ( 81)
 CRD 38=   0.2247 (  1) -0.1357 (  4) -0.1158 (  6) -0.2754 (  7)  0.3948 (  8)
           0.1486 (  9) -0.1841 ( 10)  0.1325 ( 13)  0.1139 ( 23) -0.1885 ( 24)
          -0.1193 ( 26) -0.1835 ( 41)  0.2549 ( 43)  0.2449 ( 53) -0.2111 ( 54)
           0.1122 ( 58) -0.1528 ( 68) -0.1235 ( 69) -0.1477 ( 70) -0.1769 ( 71)
           0.1195 ( 72)  0.1187 ( 73)  0.1535 ( 74)  0.1527 ( 75) -0.1348 ( 79)
 CRD 39=   0.2343 (  7) -0.2958 (  8)  0.1805 (  9) -0.1562 ( 10) -0.2289 ( 12)
           0.2282 ( 13) -0.1849 ( 15)  0.1639 ( 17)  0.1460 ( 21)  0.1628 ( 24)
           0.1369 ( 41) -0.2105 ( 43)  0.1330 ( 47) -0.1278 ( 48) -0.1339 ( 53)
           0.2206 ( 54)  0.1276 ( 62) -0.1189 ( 68) -0.1326 ( 69)  0.1980 ( 72)
           0.1897 ( 73)  0.1782 ( 74)  0.1699 ( 75) -0.1739 ( 76) -0.1637 ( 77)
          -0.1824 ( 79) -0.1722 ( 80)
 CRD 40=   0.1644 (  1) -0.1982 (  2) -0.1577 (  3)  0.1796 (  6) -0.1425 (  7)
           0.3650 ( 11) -0.1165 ( 14)  0.1314 ( 15) -0.2178 ( 16)  0.1510 ( 17)
          -0.1236 ( 27) -0.1123 ( 30) -0.1155 ( 32) -0.1070 ( 35) -0.1225 ( 36)
          -0.1983 ( 40)  0.1310 ( 42)  0.1219 ( 45) -0.2038 ( 46) -0.1111 ( 53)
           0.1685 ( 58)  0.1237 ( 61) -0.1345 ( 63)  0.1001 ( 64) -0.1329 ( 65)
           0.1777 ( 69) -0.2309 ( 71) -0.2386 ( 77) -0.1007 ( 78)  0.2155 ( 79)
 CRD 41=  -0.2012 (  1)  0.2529 (  4)  0.1673 (  5)  0.1059 (  8) -0.1833 (  9)
           0.1047 ( 10)  0.1431 ( 13) -0.2354 ( 15)  0.2442 ( 17) -0.1888 ( 21)
          -0.1454 ( 22) -0.1055 ( 24)  0.1536 ( 26)  0.1008 ( 30) -0.1060 ( 32)
          -0.1237 ( 35)  0.1096 ( 43)  0.1655 ( 47) -0.1963 ( 48) -0.1020 ( 54)
          -0.1316 ( 55) -0.2394 ( 57) -0.1152 ( 60)  0.2674 ( 62)  0.1297 ( 68)
           0.1871 ( 69)  0.1402 ( 70) -0.1230 ( 76) -0.1120 ( 77)  0.1601 ( 78)
          -0.1431 ( 79) -0.1320 ( 80)  0.1401 ( 81)
 CRD 42=   0.1020 (  1) -0.2436 (  2)  0.2507 (  3) -0.1264 (  9) -0.1853 ( 10)
           0.1574 ( 12)  0.1226 ( 13) -0.2845 ( 14)  0.1947 ( 16) -0.1022 ( 18)
          -0.1044 ( 19)  0.1227 ( 22)  0.1016 ( 38)  0.1128 ( 39) -0.1042 ( 40)
           0.2420 ( 44) -0.2181 ( 45) -0.1407 ( 47) -0.1402 ( 50)  0.1199 ( 51)
           0.1060 ( 64) -0.1010 ( 65) -0.1241 ( 66)  0.1462 ( 67)  0.1646 ( 69)
          -0.2152 ( 71) -0.2597 ( 72)  0.2707 ( 75)  0.1725 ( 77) -0.1312 ( 79)
 CRD 43=   0.1063 (  2) -0.1333 (  3)  0.1057 (  4) -0.2247 (  6)  0.2006 (  7)
          -0.1304 ( 10)  0.1215 ( 15) -0.1517 ( 16) -0.1239 ( 22) -0.1596 ( 23)
          -0.1191 ( 26)  0.1803 ( 27)  0.1531 ( 31)  0.1358 ( 41) -0.1510 ( 42)
           0.1471 ( 44)  0.1042 ( 48)  0.3172 ( 53)  0.2812 ( 54) -0.1335 ( 55)
          -0.1526 ( 58) -0.1933 ( 59) -0.3530 ( 60)  0.1140 ( 61) -0.1190 ( 68)
           0.1371 ( 70)  0.1061 ( 74)  0.1485 ( 76) -0.1115 ( 80)
 CRD 44=   0.2042 (  2) -0.2874 (  3)  0.2871 ( 11) -0.2788 ( 14)  0.1602 ( 16)
           0.1751 ( 18)  0.1600 ( 19) -0.1056 ( 26) -0.1488 ( 30) -0.1471 ( 32)
          -0.1600 ( 35) -0.1665 ( 36)  0.1509 ( 38)  0.1615 ( 39) -0.1422 ( 50)
           0.1271 ( 51) -0.1038 ( 64)  0.1243 ( 65)  0.1236 ( 66) -0.1273 ( 67)
          -0.1817 ( 68)  0.1839 ( 70)  0.2643 ( 73) -0.2559 ( 74) -0.1283 ( 76)
           0.1349 ( 80)
 CRD 45=  -0.1446 (  2) -0.1173 (  3)  0.1850 (  4)  0.1068 (  9) -0.1426 ( 12)
           0.1855 ( 16) -0.1501 ( 17)  0.1720 ( 25) -0.1307 ( 29) -0.1578 ( 33)
           0.1030 ( 37) -0.1908 ( 40) -0.1097 ( 44)  0.1753 ( 45)  0.1487 ( 46)
          -0.1018 ( 47)  0.1401 ( 53)  0.1326 ( 54) -0.1637 ( 56) -0.2318 ( 60)
          -0.1126 ( 61)  0.1736 ( 63)  0.1759 ( 64)  0.2330 ( 68) -0.2184 ( 70)
           0.1313 ( 72) -0.2721 ( 76) -0.1980 ( 78)  0.2845 ( 80)
 CRD 46=  -0.2193 (  1)  0.1454 (  4)  0.1039 (  9) -0.1070 ( 10) -0.1054 ( 12)
           0.1599 ( 13)  0.2068 ( 15) -0.1694 ( 17)  0.1131 ( 18) -0.1118 ( 19)
          -0.1054 ( 21)  0.1320 ( 26) -0.1393 ( 28)  0.1060 ( 31) -0.1510 ( 34)
           0.1227 ( 37) -0.1385 ( 38)  0.1189 ( 39) -0.1274 ( 47)  0.1506 ( 48)
          -0.2427 ( 49) -0.1154 ( 53) -0.1433 ( 54) -0.2163 ( 55) -0.2125 ( 56)
          -0.1250 ( 57)  0.2444 ( 59)  0.1717 ( 61) -0.1252 ( 62)  0.1171 ( 63)
           0.1291 ( 65)  0.1094 ( 73)  0.1110 ( 75) -0.2267 ( 78) -0.2875 ( 81)
 CRD 47=  -0.1658 (  3)  0.1452 (  9)  0.1433 ( 10) -0.2399 ( 11)  0.1409 ( 12)
           0.1322 ( 13) -0.1258 ( 14)  0.2142 ( 20)  0.1485 ( 25)  0.2051 ( 29)
           0.1202 ( 33) -0.1217 ( 40) -0.2131 ( 44) -0.2021 ( 45) -0.1303 ( 50)
           0.1248 ( 51)  0.1230 ( 55) -0.1419 ( 56) -0.1190 ( 60)  0.1043 ( 64)
           0.1385 ( 66) -0.1275 ( 67)  0.2338 ( 68) -0.2326 ( 70)  0.2599 ( 73)
          -0.2613 ( 74)  0.2104 ( 76)  0.1307 ( 78) -0.2097 ( 80) -0.1180 ( 81)
 CRD 48=  -0.1008 (  1)  0.1727 (  9) -0.1739 ( 10)  0.1650 ( 12) -0.1640 ( 13)
           0.1222 ( 18) -0.1235 ( 19) -0.1115 ( 28) -0.1451 ( 30)  0.1068 ( 31)
           0.1450 ( 32)  0.1007 ( 34)  0.1480 ( 35) -0.1458 ( 36) -0.1012 ( 37)
           0.1145 ( 38) -0.1144 ( 39) -0.2503 ( 50) -0.2492 ( 51) -0.1852 ( 55)
          -0.1847 ( 56)  0.1569 ( 59) -0.2307 ( 61) -0.2314 ( 63)  0.2316 ( 64)
           0.2378 ( 65)  0.2480 ( 66)  0.2499 ( 67)  0.1789 ( 78)  0.1780 ( 81)

 THE DETERMINANT OF THE G MATRIX IS 10**(   -17)


                     --------------------
                     INTERNAL COORDINATES
                     --------------------

                 - - ATOMS - -         COORDINATE      COORDINATE
 NO.   TYPE    I  J  K  L  M  N        (BOHR,RAD)       (ANG,DEG)
 ----------------------------------------------------------------
   1 STRETCH   1  7                     2.0933492       1.1077528
   2 STRETCH   1  2                     2.6728799       1.4144272
   3 STRETCH   1  4                     2.8872142       1.5278481
   4 STRETCH   1  8                     2.0864028       1.1040769
   5 STRETCH   2  3                     2.6552500       1.4050979
   6 STRETCH   3 11                     2.0721845       1.0965529
   7 STRETCH   3 10                     2.0727011       1.0968262
   8 STRETCH   3  9                     2.0645861       1.0925320
   9 STRETCH   4 13                     2.0955095       1.1088960
  10 STRETCH   4 12                     2.0941758       1.1081902
  11 STRETCH   4  5                     2.8712108       1.5193795
  12 STRETCH   5 15                     2.0944941       1.1083586
  13 STRETCH   5 14                     2.0942133       1.1082100
  14 STRETCH   5  6                     2.8572796       1.5120074
  15 STRETCH   6 16                     2.0751166       1.0981045
  16 STRETCH   6 18                     2.0737318       1.0973717
  17 STRETCH   6 17                     2.0752896       1.0981961
  18 BEND      1  4 12                  1.9241475     110.2455331
  19 BEND      1  4 13                  1.9273119     110.4268397
  20 BEND      1  4  5                  1.9295175     110.5532080
  21 BEND      1  2  3                  2.0095090     115.1363830
  22 BEND      2  1  8                  1.7711394     101.4788133
  23 BEND      2  3 10                  1.9552330     112.0266010
  24 BEND      2  3  9                  1.8017508     103.2327194
  25 BEND      2  1  4                  1.9781787     113.3412933
  26 BEND      2  1  7                  1.9385623     111.0714354
  27 BEND      2  3 11                  1.9595482     112.2738397
  28 BEND      4  1  8                  1.9446434     111.4198597
  29 BEND      4  5  6                  1.9452043     111.4519982
  30 BEND      4  5 15                  1.9170387     109.8382268
  31 BEND      4  1  7                  1.9375200     111.0117194
  32 BEND      4  5 14                  1.9182415     109.9071424
  33 BEND      5  6 18                  1.9421097     111.2746867
  34 BEND      5  6 16                  1.9483792     111.6339076
  35 BEND      5  4 12                  1.9218213     110.1122500
  36 BEND      5  4 13                  1.9190245     109.9520034
  37 BEND      5  6 17                  1.9487938     111.6576624
  38 BEND      6  5 14                  1.9194902     109.9786874
  39 BEND      6  5 15                  1.9192099     109.9626289
  40 BEND      7  1  8                  1.8857246     108.0440637
  41 BEND      9  3 11                  1.9188343     109.9411051
  42 BEND      9  3 10                  1.9206607     110.0457540
  43 BEND     10  3 11                  1.9056879     109.1878759
  44 BEND     12  4 13                  1.8401896     105.4350979
  45 BEND     14  5 15                  1.8419310     105.5348719
  46 BEND     16  6 17                  1.8717568     107.2437626
  47 BEND     16  6 18                  1.8744557     107.3984012
  48 BEND     17  6 18                  1.8743485     107.3922598
  49 TORSION   1  4  5  6               3.1335203     179.5374898
  50 TORSION   1  4  5 14               1.0009001      57.3473538
  51 TORSION   1  4  5 15              -1.0182319     -58.3403883
  52 TORSION   1  2  3  9               3.1104788     178.2173094
  53 TORSION   1  2  3 10               1.0447427      59.8593467
  54 TORSION   1  2  3 11              -1.1070325     -63.4282894
  55 TORSION   2  1  4 13              -1.1359908     -65.0874809
  56 TORSION   2  1  4 12               0.8904829      51.0209137
  57 TORSION   2  1  4  5               3.0195374     173.0067492
  58 TORSION   3  2  1  8              -2.8652971    -164.1694302
  59 TORSION   3  2  1  4               1.3309858      76.2598693
  60 TORSION   3  2  1  7              -0.8644023     -49.5266054
  61 TORSION   4  5  6 17              -1.0498115     -60.1497662
  62 TORSION   4  5  6 18               3.1392621     179.8664686
  63 TORSION   4  5  6 16               1.0452953      59.8910086
  64 TORSION   5  4  1  7              -1.0677039     -61.1749267
  65 TORSION   5  4  1  8               1.0349214      59.2966304
  66 TORSION   6  5  4 12              -1.0192437     -58.3983618
  67 TORSION   6  5  4 13               1.0009949      57.3527808
  68 TORSION   7  1  4 13               1.0599532      60.7308432
  69 TORSION   7  1  4 12               3.0864269     176.8392379
  70 TORSION   8  1  4 12              -1.0941330     -62.6892050
  71 TORSION   8  1  4 13              -3.1206068    -178.7975997
  72 TORSION  12  4  5 14               3.1313214     179.4115022
  73 TORSION  12  4  5 15               1.1121894      63.7237602
  74 TORSION  13  4  5 14              -1.1316253     -64.8373552
  75 TORSION  13  4  5 15               3.1324280     179.4749028
  76 TORSION  14  5  6 17               1.0820884      61.9990980
  77 TORSION  14  5  6 16              -3.1059902    -177.9601272
  78 TORSION  14  5  6 18              -1.0120234     -57.9846672
  79 TORSION  15  5  6 17               3.1031944     177.7999406
  80 TORSION  15  5  6 16              -1.0848842     -62.1592846
  81 TORSION  15  5  6 18               1.0090826      57.8161754

     ------------------------------------------
     THE POINT GROUP IS C1 , NAXIS= 1, ORDER= 1
     ------------------------------------------

     DIMENSIONS OF THE SYMMETRY SUBSPACES ARE
 A   =  186

 ..... DONE SETTING UP THE RUN .....
 STEP CPU TIME =     0.01 TOTAL CPU TIME =        0.0 (    0.0 MIN)
 TOTAL WALL CLOCK TIME=        0.0 SECONDS, CPU UTILIZATION IS  50.00%


          -----------------------------
          STATIONARY POINT LOCATION RUN
          -----------------------------

 OBTAINING INITIAL HESSIAN, HESS=GUESS   
 DIAGONAL GUESS HESSIAN IN INTERNAL COORDS IS
     1  0.3346     2  0.3712     3  0.3687     4  0.3370     5  0.3780
     6  0.3420     7  0.3418     8  0.3447     9  0.3339    10  0.3343
    11  0.3748    12  0.3342    13  0.3343    14  0.3802    15  0.3410
    16  0.3414    17  0.3409    18  0.2231    19  0.2231    20  0.2494
    21  0.2402    22  0.2194    23  0.2204    24  0.2207    25  0.2441
    26  0.2192    27  0.2204    28  0.2234    29  0.2505    30  0.2236
    31  0.2232    32  0.2236    33  0.2247    34  0.2247    35  0.2236
    36  0.2236    37  0.2247    38  0.2241    39  0.2241    40  0.2018
    41  0.2029    42  0.2029    43  0.2027    44  0.2015    45  0.2016
    46  0.2026    47  0.2026    48  0.2026    49  0.2500    50  0.2500
    51  0.2500    52  0.2500    53  0.2500    54  0.2500    55  0.2500
    56  0.2500    57  0.2500    58  0.2500    59  0.2500    60  0.2500
    61  0.2500    62  0.2500    63  0.2500    64  0.2500    65  0.2500
    66  0.2500    67  0.2500    68  0.2500    69  0.2500    70  0.2500
    71  0.2500    72  0.2500    73  0.2500    74  0.2500    75  0.2500
    76  0.2500    77  0.2500    78  0.2500    79  0.2500    80  0.2500
    81  0.2500
 TRANSFORMING HESSIAN TO SYMMETRY COORDINATES

          PARAMETERS CONTROLLING GEOMETRY SEARCH ARE
          METHOD =QA                  UPHESS =BFGS    
          NNEG   =         0          NFRZ   =         3
          NSTEP  =        50          IFOLOW =         1
          HESS   =GUESS               RESTAR =         F
          IHREP  =         0          HSSEND =         F
          NPRT   =         0          NPUN   =         0
          OPTTOL = 5.000E-04          RMIN   = 1.500E-03
          RMAX   = 1.000E-01          RLIM   = 7.000E-02
          DXMAX  = 3.000E-01          PURIFY =         F
          MOVIE  =         F          TRUPD  =         T
          TRMAX  = 5.000E-01          TRMIN  = 5.000E-02
          ITBMAT =         5          STPT   =         F
          STSTEP = 1.000E-02          PROJCT=          F
          FROZEN COORD(S)=   1   2   3


      ***** EQUILIBRIUM GEOMETRY LOCATED *****
            (SUBJECT TO   3 CONSTRAINT(S))
 COORDINATES OF ALL ATOMS ARE (ANGS)
   ATOM   CHARGE       X              Y              Z
 ------------------------------------------------------------
 C           6.0   2.2353889645   1.9842878373   1.5875344410
 O           8.0   1.0924394559   1.3543201114   2.1134883114
 C           6.0   0.9452655750   1.4290032905   3.5051832624
 C           6.0   3.5188995814   1.1912844398   1.8053368622
 C           6.0   4.7134643784   1.8065581986   1.0749733985
 C           6.0   6.0078578461   1.0271422335   1.3042985674
 H           1.0   2.3304034342   2.9836952151   2.0108718505
 H           1.0   2.0497154749   2.0918032609   0.5246586187
 H           1.0  -0.0162598884   0.9977907612   3.7518664203
 H           1.0   0.9668560029   2.4622128071   3.8456899080
 H           1.0   1.7182169595   0.8726891608   4.0273190077
 H           1.0   3.3575472079   0.1738279407   1.4542356867
 H           1.0   3.7425652530   1.1305006098   2.8675050977
 H           1.0   4.8504591352   2.8347782072   1.4054106947
 H           1.0   4.5000168065   1.8496280763   0.0085696275
 H           1.0   5.9079829338  -0.0014672403   0.9665783829
 H           1.0   6.2676728143   1.0072205130   2.3597590099
 H           1.0   6.8369333237   1.4759964086   0.7647988565


                     --------------------
                     INTERNAL COORDINATES
                     --------------------

                 - - ATOMS - -         COORDINATE      COORDINATE
 NO.   TYPE    I  J  K  L  M  N        (BOHR,RAD)       (ANG,DEG)
 ----------------------------------------------------------------
   1 STRETCH   1  7                     2.0588974       1.0895216
   2 STRETCH   1  2                     2.6589596       1.4070609
   3 STRETCH   1  4                     2.8806341       1.5243660
   4 STRETCH   1  8                     2.0490584       1.0843151
   5 STRETCH   2  3                     2.6483501       1.4014466
   6 STRETCH   3 11                     2.0523894       1.0860778
   7 STRETCH   3 10                     2.0561859       1.0880868
   8 STRETCH   3  9                     2.0452109       1.0822791
   9 STRETCH   4 13                     2.0544393       1.0871625
  10 STRETCH   4 12                     2.0566995       1.0883586
  11 STRETCH   4  5                     2.8900934       1.5293716
  12 STRETCH   5 15                     2.0567928       1.0884080
  13 STRETCH   5 14                     2.0572796       1.0886656
  14 STRETCH   5  6                     2.8879649       1.5282453
  15 STRETCH   6 16                     2.0545653       1.0872292
  16 STRETCH   6 18                     2.0526775       1.0862303
  17 STRETCH   6 17                     2.0544176       1.0871511
  18 BEND      1  4 12                  1.8916819     108.3853915
  19 BEND      1  4 13                  1.9197431     109.9931781
  20 BEND      1  4  5                  1.9607526     112.3428510
  21 BEND      1  2  3                  2.0182152     115.6352147
  22 BEND      2  1  8                  1.8459605     105.7657444
  23 BEND      2  3 10                  1.9382945     111.0560955
  24 BEND      2  3  9                  1.8738223     107.3621113
  25 BEND      2  1  4                  1.9797289     113.4301097
  26 BEND      2  1  7                  1.9137674     109.6507939
  27 BEND      2  3 11                  1.9555958     112.0473833
  28 BEND      4  1  8                  1.9132696     109.6222755
  29 BEND      4  5  6                  1.9657023     112.6264434
  30 BEND      4  5 15                  1.9077833     109.3079297
  31 BEND      4  1  7                  1.9264957     110.3800747
  32 BEND      4  5 14                  1.9106047     109.4695836
  33 BEND      5  6 18                  1.9403401     111.1732966
  34 BEND      5  6 16                  1.9370203     110.9830895
  35 BEND      5  4 12                  1.9154125     109.7450519
  36 BEND      5  4 13                  1.9053811     109.1702963
  37 BEND      5  6 17                  1.9363287     110.9434651
  38 BEND      6  5 14                  1.9066361     109.2422016
  39 BEND      6  5 15                  1.9106053     109.4696228
  40 BEND      7  1  8                  1.8805772     107.7491353
  41 BEND      9  3 11                  1.8950716     108.5796046
  42 BEND      9  3 10                  1.9014228     108.9435042
  43 BEND     10  3 11                  1.8984477     108.7730381
  44 BEND     12  4 13                  1.8685911     107.0623828
  45 BEND     14  5 15                  1.8594818     106.5404599
  46 BEND     16  6 17                  1.8819814     107.8295897
  47 BEND     16  6 18                  1.8826027     107.8651894
  48 BEND     17  6 18                  1.8832103     107.9000009
  49 TORSION   1  4  5  6               3.1280696     179.2251835
  50 TORSION   1  4  5 14               1.0033294      57.4865414
  51 TORSION   1  4  5 15              -1.0273138     -58.8607429
  52 TORSION   1  2  3  9               3.0410611     174.2399666
  53 TORSION   1  2  3 10               0.9640879      55.2381676
  54 TORSION   1  2  3 11              -1.1629149     -66.6301166
  55 TORSION   2  1  4 13              -1.1412747     -65.3902221
  56 TORSION   2  1  4 12               0.8962347      51.3504634
  57 TORSION   2  1  4  5               3.0156508     172.7840642
  58 TORSION   3  2  1  8              -2.8563447    -163.6564972
  59 TORSION   3  2  1  4               1.3293806      76.1678977
  60 TORSION   3  2  1  7              -0.8330990     -47.7330562
  61 TORSION   4  5  6 17              -1.0594345     -60.7011275
  62 TORSION   4  5  6 18               3.1280029     179.2213653
  63 TORSION   4  5  6 16               1.0325594      59.1612969
  64 TORSION   5  4  1  7              -1.1120068     -63.7132975
  65 TORSION   5  4  1  8               0.9568303      54.8223372
  66 TORSION   6  5  4 12              -1.0493260     -60.1219511
  67 TORSION   6  5  4 13               0.9936525      56.9320941
  68 TORSION   7  1  4 13               1.0142530      58.1124163
  69 TORSION   7  1  4 12               3.0517623     174.8531017
  70 TORSION   8  1  4 12              -1.1625859     -66.6112636
  71 TORSION   8  1  4 13               3.0830901     176.6480509
  72 TORSION  12  4  5 14               3.1091192     178.1394067
  73 TORSION  12  4  5 15               1.0784760      61.7921224
  74 TORSION  13  4  5 14              -1.1310876     -64.8065481
  75 TORSION  13  4  5 15               3.1214545     178.8461676
  76 TORSION  14  5  6 17               1.0675538      61.1663281
  77 TORSION  14  5  6 16              -3.1236375    -178.9712476
  78 TORSION  14  5  6 18              -1.0281940     -58.9111791
  79 TORSION  15  5  6 17               3.0975464     177.4763344
  80 TORSION  15  5  6 16              -1.0936450     -62.6612412
  81 TORSION  15  5  6 18               1.0017985      57.3988272

          INTERNUCLEAR DISTANCES (ANGS.)


 =====================================================
   GAMESS/COSab RESULTS
 =====================================================

   Dielectric Constant                  = INFTY
   Basic Grid Size                      =                 1082
   Number of Segments                   =                   92
   Number of Segments located on spheres=                  246
   Number of Segments of the cavity     =                  643
   Solvent Radius (rsolv)               = 1.40
   Outlying Charge Error Method         = double cavity

 =====================================================

  Total solvated Energy (a.u.)          =  -271.2494461473
  Total Energy corrected (a.u.)         =  -271.2492333717

  Outlying charge effect (a.u.)         =     0.0002127756
  Outlying charge effect (kcal/mol)     =     0.1335188168

  Dielectric Energy (a.u.)              =    -0.0072087075
  Dielectric energy corr. (a.u.)        =    -0.0069959319

  Sum of polarization charges           =     0.0254555899
  Sum of polarization charges(cor.)     =    -0.0254555899

  Total surface area of cavity (A**2)   =  146.09
  Total volume of cavity (A**3)         =  134.61

 =====================================================
 NPS=                   643
NR.  ATOM  (X, Y, Z)(a.u.)                  CHARGE(e)  AREA(A**2) SIGMA(e/A**2)
   1   1   2.842057   6.694734   1.076246   0.000944   0.418105   0.002257
   2   1   3.578797   1.324836   0.173800   0.000017   0.139368   0.000120
   3   1   3.180494   0.826185   0.844187   0.000169   0.139368   0.001210
   4   1   3.263082   7.197386   1.785833   0.000591   0.278737   0.002121
   5   1   5.052905   6.697885   0.785010   0.000150   0.232280   0.000645
   6   1   4.164274   6.889069   0.896342   0.000911   0.371649   0.002451
   7   1   2.082772   6.711135   2.036447   0.000551   0.371649   0.001484
   8   1   1.451068   6.305603   2.752616   0.000447   0.278737   0.001603
   9   1   1.825068   5.978784   1.113340   0.000352   0.325193   0.001081
  10   1   1.234139   5.130172   1.145874   0.000544   0.232280   0.002341
  11   1   2.847904   1.365352   0.410696  -0.000037   0.185824  -0.000201
  12   1   1.922994   6.737231   3.251646   0.000069   0.232280   0.000297
  13   1   4.899228   7.157579   1.511563   0.000073   0.139368   0.000524
  14   1   1.204611   5.765751   1.950415   0.000219   0.232280   0.000944
  15   2   1.328328  -0.462251   3.048849   0.004594   0.240512   0.019101
  16   2  -0.405520   2.069408   1.938650   0.006433   0.343589   0.018722
  17   2   0.528531  -0.277515   3.596077   0.003576   0.274871   0.013011
  18   2  -0.773701   1.108989   3.356423   0.003359   0.206154   0.016296
  19   2  -0.785238   1.561720   2.790168   0.005003   0.274871   0.018200
  20   2   0.658485   0.068316   2.450187   0.006525   0.343589   0.018991
  21   2  -0.003313   0.954412   2.066857   0.007149   0.377948   0.018914
  22   2  -0.801570   2.840570   2.486706   0.006640   0.343589   0.019326
  23   2  -0.849165   3.747352   3.178926   0.005394   0.274871   0.019624
  24   2   1.863835  -0.682797   3.878519   0.005281   0.274871   0.019212
  25   2   1.679929  -0.007814   2.037685   0.005319   0.274871   0.019351
  26   2   1.877678   0.458785   1.520517   0.002325   0.137436   0.016920
  27   2   1.172956   1.332594   1.118988   0.002721   0.206154   0.013200
  28   2   0.370184   1.882137   1.303984   0.004629   0.274871   0.016839
  29   2   0.042683   2.954507   1.479740   0.006287   0.343589   0.018299
  30   2   0.082488   3.913470   1.802382   0.002567   0.206154   0.012453
  31   2  -0.213954   4.532375   2.777111   0.003912   0.206154   0.018974
  32   2  -0.028834   4.962183   3.354351   0.003098   0.240512   0.012880
  33   2   2.028515  -0.488625   2.865373   0.004562   0.206154   0.022127
  34   2  -0.206923   0.361885   3.234235   0.006515   0.377948   0.017238
  35   2  -1.128180   2.479834   3.389198   0.004178   0.309230   0.013510
  36   2   0.940895   0.723085   1.558603   0.004590   0.274871   0.016699
  37   2  -0.450954   3.852512   2.392308   0.004335   0.240512   0.018025
  38   3   0.654735  -0.682499   5.374947   0.000300   0.185824   0.001613
  39   3   1.614793  -0.446495   8.709936   0.000450   0.232280   0.001937
  40   3   0.711046   3.234684  10.207508  -0.000824   0.371649  -0.002218
  41   3  -1.093244   5.081926   7.190385   0.000971   0.371649   0.002614
  42   3   4.623269   3.983271   8.766286   0.000308   0.185824   0.001660
  43   3  -1.663197   2.901818   5.092579   0.000229   0.185824   0.001234
  44   3  -1.562334   4.170271   7.578054   0.000327   0.278737   0.001172
  45   3  -0.201585   2.669826   9.838135  -0.000724   0.418105  -0.001732
  46   3   0.821050  -0.477719   8.427180   0.000542   0.371649   0.001458
  47   3   0.126429  -0.620436   5.915979  -0.000016   0.232280  -0.000069
  48   3   3.863297   3.593156   9.652586   0.000414   0.371649   0.001113
  49   3   3.937061   4.471253   9.177771   0.000498   0.278737   0.001786
  50   3   1.227615  -0.997359   6.077396   0.000092   0.371649   0.000248
  51   3   1.712468  -0.962266   7.553125   0.000731   0.371649   0.001968
  52   3   1.259391   0.414676   9.587289   0.000422   0.511017   0.000825
  53   3   0.922562   1.902172  10.215643  -0.000732   0.418105  -0.001750
  54   3  -0.003758   3.939354   9.713344  -0.000143   0.371649  -0.000385
  55   3  -0.936899   4.739051   8.270802   0.000805   0.371649   0.002167
  56   3  -1.519163   4.478830   6.181678   0.000485   0.464561   0.001044
  57   3  -1.488134   3.865705   5.139074   0.000268   0.278737   0.000960
  58   3   2.263575  -0.903582   5.590569   0.000581   0.185824   0.003128
  59   3   2.916960   3.016600  10.216313  -0.000343   0.325193  -0.001055
  60   3   1.827311   3.073857  10.384574  -0.001054   0.464561  -0.002269
  61   3   1.267556   4.182667  10.061588  -0.000574   0.278737  -0.002060
  62   3  -0.726196   5.491036   6.194738   0.000425   0.371649   0.001142
  63   3  -0.012489   5.730652   5.257703   0.000424   0.278737   0.001521
  64   3   4.510437   4.760415   8.242378   0.000326   0.232280   0.001404
  65   3  -1.806098   3.636193   5.914367   0.000041   0.139368   0.000294
  66   3  -0.841663   3.855321   9.082363   0.000148   0.278737   0.000532
  67   3   0.491277   1.139454   9.812979  -0.000315   0.278737  -0.001130
  68   3   0.777776  -0.912142   7.089227   0.000410   0.325193   0.001260
  69   3  -0.347408  -0.079607   5.208540   0.000157   0.139368   0.001125
  70   3   2.672319   4.091805  10.024317  -0.000291   0.418105  -0.000696
  71   3   2.501283  -1.009072   6.511008   0.000516   0.511017   0.001010
  72   3   2.092974   1.733278  10.264561  -0.000806   0.464561  -0.001735
  73   3  -0.279708   4.648228   9.118225   0.000006   0.232280   0.000024
  74   3  -0.889117   4.929182   5.154461   0.000497   0.325193   0.001528
  75   4   7.438214   4.885585   6.004401   0.000077   0.092912   0.000832
  76   4   5.924255  -1.023435   5.153632   0.001024   0.278737   0.003672
  77   4   5.506902   0.708867   0.155935   0.000048   0.139368   0.000347
  78   4   7.996717  -0.687503   5.369647   0.000999   0.232280   0.004300
  79   4   6.968550  -0.818256   5.593584   0.001883   0.371649   0.005066
  80   4   6.942716   4.728420   6.250937  -0.000036   0.092912  -0.000388
  81   4   7.538260  -1.153677   4.790585   0.000595   0.139368   0.004273
  82   4   6.053053   0.662534   0.034570   0.000061   0.046456   0.001316
  83   5  10.923954   5.842530  -0.046713   0.000921   0.325193   0.002833
  84   5   7.644449   6.279510  -0.084761   0.001314   0.325193   0.004040
  85   5   8.214554   0.707271  -0.513916   0.000140   0.092912   0.001503
  86   5   8.655067   0.991324  -0.858539   0.000050   0.046456   0.001067
  87   5   8.011972   6.771219   0.544336   0.001158   0.278737   0.004154
  88   5  10.883427   6.367076   0.744000   0.000661   0.278737   0.002373
  89   5   9.341861   5.046425   5.412263   0.000221   0.185824   0.001189
  90   5  10.010427   6.043131  -0.449368   0.001234   0.278737   0.004429
  91   5   8.781556   6.388790  -0.296375   0.001505   0.278737   0.005400
  92   5  10.625601   5.084087  -0.891213   0.000724   0.278737   0.002596
  93   5   7.891836   0.914449  -0.615493   0.000071   0.046456   0.001530
  94   5   9.613214   6.541181   0.029930   0.001238   0.278737   0.004442
  95   5   9.940691   5.053000   5.276318   0.000080   0.046456   0.001732
  96   6  13.417757   0.709159  -0.451480   0.001087   0.232280   0.004679
  97   6  14.247569  -0.298279   3.409483   0.000895   0.371649   0.002409
  98   6  10.962862  -0.768332   5.070769   0.001516   0.325193   0.004662
  99   6  13.124546   5.182119   3.265960   0.001551   0.464561   0.003338
 100   6  13.994064   4.459195   3.449118   0.000713   0.185824   0.003834
 101   6  12.507641   5.004124   4.353925   0.000566   0.232280   0.002435
 102   6  13.009947   4.572210   4.613323   0.000805   0.232280   0.003466
 103   6  11.198585  -1.356174   4.305642   0.000842   0.185824   0.004531
 104   6  13.603013  -1.067464   2.879106   0.001239   0.418105   0.002964
 105   6  12.864655   0.072737  -0.452317   0.001724   0.371649   0.004640
 106   6  10.457286   0.353743  -0.846152   0.000535   0.232280   0.002303
 107   6  14.695684   3.164390   3.735788   0.001840   0.371649   0.004952
 108   6  14.376382   3.146273   4.386237   0.001063   0.232280   0.004578
 109   6  11.415030   1.181672  -1.237111   0.000994   0.325193   0.003058
 110   6  12.495503   1.145945  -1.049114   0.001367   0.325193   0.004205
 111   6  14.047561   0.149337   0.511650   0.002436   0.511017   0.004767
 112   6  14.414861  -0.239869   2.071950   0.001205   0.418105   0.002883
 113   6  13.413694  -0.651075   4.286767   0.001600   0.418105   0.003828
 114   6  12.070425  -1.001270   4.725907   0.001723   0.325193   0.005298
 115   6  10.324930  -1.189778   4.315430   0.000802   0.185824   0.004314
 116   6  11.871565   3.172389  -1.070678   0.000171   0.092912   0.001842
 117   6  15.082756   1.812390   3.063281   0.001307   0.371649   0.003517
 118   6  14.859647   0.656823   3.047875   0.001206   0.464561   0.002596
 119   6  14.325120   0.415779   4.232716   0.000923   0.325193   0.002838
 120   6  12.788926   5.424036   2.162114   0.000151   0.092912   0.001623
 121   6  13.795831   4.229473   4.219997   0.001704   0.371649   0.004584
 122   6  11.945402   4.592063   5.092597   0.000346   0.139368   0.002486
 123   6  12.681540  -1.256511   3.979881   0.001390   0.325193   0.004274
 124   6  13.929109  -0.570924   1.307535   0.000985   0.278737   0.003534
 125   6  11.685160   0.339788  -0.942606   0.000800   0.232280   0.003446
 126   6  14.748503   1.672211   4.103053   0.001615   0.418105   0.003864
 127   6  12.027942   2.222840  -1.243285   0.000930   0.325193   0.002861
 128   6  14.859673   0.740301   1.724974   0.001043   0.371649   0.002805
 129   7   4.773571   8.012078   4.313643  -0.001768   0.333671  -0.005299
 130   7   5.583581   6.760182   5.639773  -0.001737   0.333671  -0.005206
 131   7   2.881706   7.513138   4.251042  -0.001062   0.215905  -0.004921
 132   7   4.070084   7.901161   2.903651  -0.000952   0.333671  -0.002852
 133   7   4.896639   7.413629   5.425000  -0.001622   0.294415  -0.005510
 134   7   3.902956   7.767451   4.918558  -0.001613   0.274788  -0.005870
 135   7   3.831969   8.021434   3.970350  -0.001379   0.294415  -0.004685
 136   7   5.108548   7.895790   3.134814  -0.001985   0.412182  -0.004816
 137   7   5.617891   7.618189   4.600876  -0.002132   0.333671  -0.006390
 138   7   3.063513   7.666774   3.447598  -0.000627   0.255160  -0.002456
 139   8   2.944186   4.259598  -1.261890  -0.002881   0.471065  -0.006116
 140   8   2.328873   2.795972  -0.528728  -0.001190   0.294415  -0.004042
 141   8   3.957514   2.451225  -0.950924  -0.001879   0.372926  -0.005039
 142   8   4.120370   5.764389  -0.649482  -0.001742   0.392554  -0.004437
 143   8   2.065847   4.981060  -0.316519  -0.001372   0.372926  -0.003679
 144   8   3.052736   2.782648  -1.006543  -0.001689   0.372926  -0.004528
 145   8   3.985073   3.624013  -1.440491  -0.002626   0.392554  -0.006689
 146   8   4.088133   4.862024  -1.280651  -0.002786   0.431809  -0.006452
 147   8   2.954032   5.635708  -0.544155  -0.001843   0.471065  -0.003913
 148   8   1.987353   3.892904  -0.581537  -0.002157   0.431809  -0.004994
 149   9  -2.218270   0.880432   7.579358  -0.004486   0.608459  -0.007373
 150   9  -0.756167  -0.165161   8.231653  -0.001637   0.392554  -0.004171
 151   9  -1.282560  -0.029494   6.195249  -0.001512   0.353299  -0.004280
 152   9  -2.213354   1.835444   5.963622  -0.001582   0.353299  -0.004477
 153   9  -2.144828   2.828722   7.912270  -0.001486   0.372926  -0.003985
 154   9  -1.225702   1.540577   9.208518  -0.001818   0.412182  -0.004411
 155   9  -1.250846  -0.242848   7.217619  -0.002653   0.490692  -0.005406
 156   9  -2.007850   0.811432   6.103930  -0.002973   0.490692  -0.006060
 157   9  -2.450278   2.286483   6.948091  -0.002760   0.510320  -0.005408
 158   9  -1.989781   2.037983   8.564440  -0.003029   0.510320  -0.005936
 159   9  -1.273913   0.555421   8.739337  -0.002790   0.471065  -0.005922
 160  10   1.490975   6.807778   8.398060  -0.002884   0.471065  -0.006123
 161  10   3.573267   6.075677   8.247968  -0.001290   0.333671  -0.003867
 162  10   2.352057   5.790968   9.380188  -0.001639   0.392554  -0.004176
 163  10   0.322164   6.056355   8.609150  -0.001327   0.353299  -0.003757
 164  10   0.694717   6.695864   6.506291  -0.001417   0.392554  -0.003609
 165  10   2.595250   6.919610   7.821455  -0.002569   0.412182  -0.006233
 166  10   2.884147   6.224171   8.832180  -0.001662   0.353299  -0.004704
 167  10   1.225570   5.896269   9.298867  -0.001843   0.412182  -0.004471
 168  10   0.260704   6.511770   7.622417  -0.001849   0.471065  -0.003925
 169  10   1.522076   7.086457   7.126285  -0.002374   0.412182  -0.005759
 170  11   4.736521   0.400017   9.112532  -0.002479   0.372926  -0.006649
 171  11   4.772350   2.344494   9.406292  -0.000946   0.274788  -0.003443
 172  11   3.794300  -0.738225   7.800334  -0.001271   0.353299  -0.003596
 173  11   3.319499  -0.415153   8.940404  -0.001399   0.392554  -0.003563
 174  11   3.549325   1.175638  10.002077  -0.001198   0.314043  -0.003814
 175  11   5.050809   1.381935   9.256686  -0.001707   0.255160  -0.006691
 176  11   4.503517  -0.314298   8.385828  -0.002458   0.372926  -0.006590
 177  11   3.558729   0.261676   9.613746  -0.001615   0.372926  -0.004332
 178  11   4.341467   1.531825   9.806755  -0.001458   0.314043  -0.004644
 179  12   5.801332  -2.020084   2.274958  -0.001911   0.412182  -0.004637
 180  12   6.559814  -0.910531   0.637733  -0.001300   0.353299  -0.003681
 181  12   5.340280  -0.644070   0.728191  -0.001134   0.392554  -0.002889
 182  12   6.090925  -1.863204   3.828426  -0.000708   0.412182  -0.001717
 183  12   5.920619  -1.477002   1.137114  -0.001197   0.294415  -0.004065
 184  12   4.893263  -1.377261   1.738942  -0.001774   0.412182  -0.004303
 185  12   5.122470  -1.760264   3.170008  -0.001702   0.431809  -0.003942
 186  12   6.958641  -2.002878   3.220384  -0.001525   0.451437  -0.003378
 187  12   6.776646  -1.890587   1.786701  -0.001996   0.372926  -0.005353
 188  13   7.792700   2.035660   7.765313  -0.002521   0.412182  -0.006117
 189  13   8.059901   3.766493   6.968820  -0.000744   0.274788  -0.002709
 190  13   7.831038   0.250916   6.798935  -0.000611   0.255160  -0.002396
 191  13   7.390290   3.473978   7.454663  -0.001445   0.314043  -0.004600
 192  13   8.303188   2.764739   7.449909  -0.001706   0.314043  -0.005431
 193  13   8.237112   1.119952   7.328130  -0.001266   0.255160  -0.004961
 194  13   7.425275   0.668776   7.357053  -0.001289   0.255160  -0.005050
 195  14   9.733112   7.635757   3.377330  -0.002016   0.431809  -0.004670
 196  14  10.668014   6.752568   4.009137  -0.000946   0.314043  -0.003013
 197  14   9.179822   6.409570   4.875506  -0.000885   0.314043  -0.002819
 198  14   8.696700   7.529367   1.609230  -0.000695   0.392554  -0.001771
 199  14  10.755578   7.085681   1.934787  -0.000662   0.353299  -0.001873
 200  14  10.006731   6.665406   4.557493  -0.001100   0.372926  -0.002949
 201  14   8.913227   7.335323   4.090144  -0.001974   0.392554  -0.005028
 202  14   8.648169   7.757722   2.712295  -0.002019   0.431809  -0.004675
 203  14   9.799292   7.602726   1.887372  -0.001285   0.451437  -0.002847
 204  14  10.795952   7.168003   2.969754  -0.001268   0.431809  -0.002937
 205  15   8.395543   3.874802  -2.408541  -0.001824   0.392554  -0.004646
 206  15   7.303693   2.138058  -1.642945  -0.001252   0.353299  -0.003543
 207  15   8.469255   1.800300  -1.761690  -0.000720   0.353299  -0.002039
 208  15   9.752475   3.849573  -2.069559  -0.001125   0.412182  -0.002729
 209  15   8.472567   5.263891  -1.688562  -0.000567   0.353299  -0.001605
 210  15   8.029689   2.682241  -2.253000  -0.001519   0.372926  -0.004073
 211  15   9.249224   2.752395  -2.203605  -0.001244   0.431809  -0.002880
 212  15   9.247616   4.736441  -1.969097  -0.000853   0.372926  -0.002288
 213  15   7.597099   5.001230  -1.699954  -0.001300   0.392554  -0.003312
 214  15   7.335061   3.643557  -2.139535  -0.002162   0.412182  -0.005245
 215  16  11.239033  -2.335619   1.060155  -0.002737   0.529948  -0.005164
 216  16  12.054875  -1.208460  -0.119878  -0.000649   0.353299  -0.001838
 217  16  10.177292  -1.011683  -0.184079  -0.001009   0.333671  -0.003024
 218  16  11.097683  -2.148153   3.021543  -0.000602   0.353299  -0.001704
 219  16  12.709725  -1.911696   1.768867  -0.000897   0.412182  -0.002176
 220  16  11.084988  -1.420379  -0.178230  -0.001333   0.412182  -0.003234
 221  16  10.118684  -1.933957   0.725675  -0.002398   0.451437  -0.005311
 222  16  10.337995  -2.279547   2.236836  -0.002149   0.451437  -0.004760
 223  16  11.860070  -2.306718   2.319605  -0.001464   0.451437  -0.003243
 224  16  12.439175  -1.759668   0.676092  -0.001394   0.451437  -0.003088
 225  17  13.012213   1.896900   6.620498  -0.002037   0.412182  -0.004941
 226  17  11.656730   3.425071   6.378778  -0.001587   0.412182  -0.003849
 227  17  12.833411   3.575793   5.962469  -0.000607   0.314043  -0.001932
 228  17  13.911828   1.718951   5.773047  -0.000974   0.392554  -0.002482
 229  17  12.444739   0.111446   6.028845  -0.000641   0.333671  -0.001922
 230  17  11.397263   0.434818   6.377310  -0.001109   0.353299  -0.003139
 231  17  12.406109   2.816007   6.669830  -0.001463   0.333671  -0.004386
 232  17  13.649383   2.832454   5.842463  -0.000976   0.412182  -0.002368
 233  17  13.406905   0.711536   5.933255  -0.001222   0.431809  -0.002830
 234  17  12.230029   0.994658   6.708855  -0.001690   0.372926  -0.004532
 235  17  11.600142   1.933802   6.903610  -0.002324   0.412182  -0.005639
 236  18  14.797453   3.741814   0.179317  -0.003332   0.588831  -0.005659
 237  18  14.877586   4.074563   2.187298  -0.000671   0.372926  -0.001800
 238  18  13.666281   5.104395   1.101584  -0.000902   0.353299  -0.002554
 239  18  13.201528   3.805660  -0.773456  -0.001016   0.353299  -0.002877
 240  18  14.272385   2.071517  -0.475898  -0.000734   0.372926  -0.001968
 241  18  15.309742   2.245078   1.278564  -0.000921   0.412182  -0.002234
 242  18  14.512048   4.657104   1.338776  -0.001880   0.490692  -0.003832
 243  18  13.645167   4.613951  -0.031073  -0.001884   0.490692  -0.003840
 244  18  13.895122   3.066634  -0.792409  -0.001648   0.471065  -0.003498
 245  18  15.002445   2.289544   0.241707  -0.001711   0.471065  -0.003632
 246  18  15.315544   3.315142   1.585101  -0.001772   0.490692  -0.003612
 247   1   0.968146   5.746360   3.686666   0.000520   0.056116   0.009263
 248   2   0.617129   5.488394   3.862799   0.000816   0.056116   0.014543
 249   3   0.542855   5.563486   4.318632   0.000565   0.056116   0.010064
 250   1   1.204640   3.783750   0.721266   0.000085   0.016271   0.005228
 251   2   0.907074   3.550913   0.998810   0.000365   0.016271   0.022417
 252   8   1.380621   3.816083   0.478421  -0.000015   0.016271  -0.000926
 253   1   1.971895   2.141081   0.421058   0.000076   0.016271   0.004672
 254   2   1.642139   1.977163   0.711197   0.000290   0.016271   0.017799
 255   8   2.077532   2.324019   0.205737  -0.000028   0.016271  -0.001696
 256   1   3.389109   0.388283   1.402311   0.000401   0.093094   0.004312
 257   2   3.014726   0.278855   1.666658   0.001007   0.093094   0.010817
 258  12   3.960555  -0.070261   1.534089   0.000171   0.093094   0.001837
 259   2   1.848423   1.200369   1.166102   0.003757   0.307152   0.012230
 260   1   2.605927   1.132034   0.956994   0.001277   0.335876   0.003802
 261   2   0.532659   5.323610   3.245480   0.002064   0.169501   0.012177
 262   2   0.485528   4.269833   1.880888   0.005445   0.352356   0.015454
 263   1   0.949203   5.342661   2.400099   0.002742   0.364064   0.007532
 264   1   0.990260   4.153237   1.064675   0.001085   0.185449   0.005850
 265   1   1.536311   6.264329   4.528512  -0.000011   0.062180  -0.000179
 266   3   1.074865   6.145200   5.149078  -0.000118   0.062180  -0.001893
 267  10   1.170260   6.290744   5.399778  -0.000262   0.062180  -0.004216
 268   3   0.767724   5.983534   4.797605   0.000467   0.226626   0.002062
 269   1   1.265847   6.150718   3.796563   0.000637   0.226626   0.002813
 270   1   4.582237   1.613487  -0.106634  -0.000102   0.027455  -0.003702
 271   4   5.005844   1.376567   0.000349  -0.000074   0.027455  -0.002702
 272   8   4.490095   1.838722  -0.285395  -0.000142   0.027455  -0.005170
 273   1   4.545297   0.849816   0.434375  -0.000040   0.029212  -0.001357
 274   4   4.953772   0.569074   0.471796  -0.000044   0.029212  -0.001496
 275  12   5.015140   0.291291   0.578854  -0.000076   0.029212  -0.002599
 276   4   5.033346   0.847981   0.240795  -0.000000   0.105696  -0.000004
 277   1   4.497990   1.304279   0.070741  -0.000084   0.105696  -0.000799
 278   1   5.546831   5.886080   0.122135  -0.000246   0.067803  -0.003624
 279   5   6.367620   5.767682   0.009583  -0.000121   0.067803  -0.001788
 280   8   5.386476   5.734971  -0.086848  -0.000347   0.067803  -0.005113
 281   1   6.444270   6.778336   1.587530  -0.000177   0.067420  -0.002624
 282   5   7.256660   6.797487   1.387663  -0.000032   0.067420  -0.000471
 283  14   7.426216   6.938207   1.599548  -0.000134   0.067420  -0.001988
 284   5   6.942957   6.314634   0.436182   0.000331   0.456190   0.000725
 285   1   5.844059   6.573144   0.945294  -0.000585   0.456190  -0.001282
 286   1   1.982043   6.582675   4.323044  -0.000229   0.083796  -0.002730
 287   7   2.200153   6.770171   4.431533  -0.000352   0.083796  -0.004196
 288  10   1.674622   6.491621   5.212192  -0.000263   0.083796  -0.003135
 289   1   5.977959   7.055525   2.122329  -0.000323   0.087716  -0.003685
 290   7   5.909421   7.195178   2.387494  -0.000391   0.087716  -0.004460
 291  14   6.971061   7.053233   2.169048  -0.000174   0.087716  -0.001984
 292   7   5.205235   7.456266   2.352039  -0.000307   0.067059  -0.004574
 293   7   4.132025   7.553038   2.364452  -0.000496   0.147688  -0.003355
 294   7   2.988139   7.403342   2.974577  -0.000517   0.147688  -0.003500
 295   7   2.421596   7.091983   3.836774  -0.000270   0.067059  -0.004033
 296   1   4.795754   7.293776   1.959156  -0.000398   0.148177  -0.002687
 297   1   3.358408   7.307431   2.249512  -0.000236   0.148177  -0.001593
 298   1   2.351984   6.973970   3.262611  -0.000377   0.148177  -0.002543
 299   8   3.978378   1.960820  -0.439401  -0.000233   0.070762  -0.003298
 300   8   2.871832   2.146196  -0.227336  -0.000713   0.158123  -0.004508
 301   1   3.583855   1.710645  -0.055531  -0.000635   0.154148  -0.004119
 302   1   2.386469   2.021072   0.185054  -0.000095   0.086451  -0.001095
 303   8   1.557713   4.209920   0.211002  -0.000217   0.067728  -0.003203
 304   8   1.973825   5.223389   0.240828  -0.000574   0.149933  -0.003827
 305   8   3.018435   6.033913   0.140326  -0.000489   0.149933  -0.003260
 306   8   4.324841   6.055737  -0.085694  -0.000707   0.149933  -0.004714
 307   1   1.502772   4.648734   0.605244  -0.000417   0.148867  -0.002798
 308   1   2.336571   5.883130   0.584449  -0.000392   0.148867  -0.002636
 309   1   3.729034   6.376114   0.391056  -0.000328   0.148867  -0.002200
 310   1   4.897763   6.160865   0.165106  -0.000274   0.082744  -0.003316
 311  10   1.230759   6.507501   5.558188  -0.000076   0.043709  -0.001733
 312   1   1.689515   6.561834   4.240768   0.000135   0.061793   0.002180
 313  12   4.624450  -0.186979   1.056176  -0.000618   0.241741  -0.002556
 314   1   3.996107   0.674967   0.684329   0.000081   0.340571   0.000238
 315  14   7.517050   7.168777   1.775213  -0.000016   0.089899  -0.000173
 316   1   6.050145   7.095579   1.784482   0.000126   0.127638   0.000986
 317   2  -1.179654   1.741213   4.321083   0.000254   0.011306   0.022484
 318   3  -1.355435   1.733004   4.753420   0.000049   0.011306   0.004309
 319   9  -1.481139   1.633497   5.007666  -0.000022   0.011306  -0.001923
 320   2  -0.649995   0.626415   4.436921   0.000160   0.011306   0.014128
 321   3  -0.802427   0.569064   4.874364   0.000020   0.011306   0.001737
 322   9  -0.979005   0.576632   5.117484  -0.000054   0.011306  -0.004753
 323   2   3.070673  -0.576935   4.350703   0.002300   0.132201   0.017394
 324   3   3.037277  -0.591273   4.820245   0.001377   0.132201   0.010413
 325  12   4.017849  -0.770879   4.040202   0.001132   0.132201   0.008566
 326   3  -0.063780   5.287858   4.555537   0.001022   0.175382   0.005829
 327   3  -1.030420   3.882966   4.528703   0.002575   0.344382   0.007478
 328   3  -1.374228   2.213296   4.581944   0.000829   0.175382   0.004726
 329   2  -0.296970   4.653936   3.900249   0.004952   0.331686   0.014931
 330   2  -1.082504   2.810922   3.916078   0.004340   0.331686   0.013085
 331   3  -0.378740   0.194913   4.795535   0.000700   0.200118   0.003497
 332   3   1.372352  -0.571115   5.021829   0.002666   0.392827   0.006786
 333   2   0.407132  -0.070950   4.228265   0.005086   0.383843   0.013250
 334   2   2.157979  -0.647297   4.444354   0.002627   0.182906   0.014363
 335   8   1.909969   2.649100   0.060534  -0.000301   0.192084  -0.001566
 336   8   1.494305   3.539022   0.223173  -0.000244   0.192084  -0.001271
 337   2   1.039133   2.650776   0.872940   0.004308   0.462063   0.009323
 338   9  -1.422377   1.158772   5.137475  -0.000542   0.269768  -0.002010
 339   2  -0.896541   1.042788   4.152957   0.002873   0.328789   0.008738
 340  12   4.322743  -1.203924   3.395112   0.000218   0.252122   0.000864
 341  12   4.156519  -0.839682   2.171752  -0.000086   0.507456  -0.000169
 342   2   2.889534  -0.643476   3.266076   0.008456   0.622395   0.013585
 343   2   2.769987  -0.143173   1.959457   0.003367   0.313632   0.010737
 344   3   5.102294   4.944104   6.834437  -0.000657   0.199953  -0.003284
 345   4   5.976809   4.880113   6.282084  -0.000510   0.199953  -0.002548
 346   7   5.484035   5.448236   6.163126  -0.000850   0.199953  -0.004251
 347   3   3.845450  -0.544154   6.250015  -0.000106   0.091723  -0.001154
 348   4   4.697375  -0.528252   5.670228   0.000288   0.091723   0.003137
 349  11   4.041516  -0.510256   6.482831  -0.000225   0.091723  -0.002455
 350   3   3.996601  -0.583421   5.371612   0.000423   0.062952   0.006721
 351   4   4.844900  -0.804700   4.834391   0.000184   0.062952   0.002921
 352  12   4.904742  -0.937517   4.567182   0.000043   0.062952   0.000690
 353   3   5.459448   4.405920   7.118228  -0.000234   0.091984  -0.002549
 354   4   6.355274   4.394920   6.608780  -0.000264   0.091984  -0.002868
 355  13   6.439100   4.187942   6.819136  -0.000259   0.091984  -0.002811
 356   4   6.324048   4.695724   6.556074   0.000152   0.059727   0.002541
 357   3   5.110613   4.782946   7.386330   0.000068   0.059727   0.001138
 358   4   4.918245  -0.866927   5.205536   0.000462   0.131599   0.003514
 359   3   3.649993  -0.765513   5.950815   0.000275   0.131599   0.002086
 360   3   4.362459   5.471940   7.278964  -0.000244   0.080758  -0.003016
 361   7   4.687303   5.883368   6.527249  -0.000330   0.080758  -0.004091
 362  10   4.164102   5.698327   7.336758  -0.000333   0.080758  -0.004119
 363   7   5.192461   5.986944   6.228760  -0.000264   0.097074  -0.002720
 364   3   4.738211   5.268168   7.285443   0.000085   0.136952   0.000617
 365   9  -1.066339   0.304629   5.518977  -0.000288   0.066578  -0.004331
 366   9  -0.597071  -0.308268   6.276751  -0.000657   0.147065  -0.004465
 367   9  -0.203611  -0.477745   7.514150  -0.000645   0.147065  -0.004388
 368   9  -0.157445   0.093005   8.691777  -0.000662   0.147065  -0.004504
 369   9  -0.476671   1.180259   9.348027  -0.000817   0.147065  -0.005555
 370   9  -1.036158   2.357838   9.225666  -0.000836   0.147065  -0.005686
 371   9  -1.616600   3.164157   8.372656  -0.000645   0.147065  -0.004387
 372   9  -1.990477   3.283157   7.123358  -0.000628   0.147065  -0.004267
 373   9  -2.011237   2.668193   5.967469  -0.000683   0.147065  -0.004643
 374   9  -1.777671   1.801803   5.363407  -0.000262   0.066578  -0.003933
 375   3  -0.558889   0.008149   5.522059  -0.000562   0.146634  -0.003830
 376   3   0.020806  -0.590925   6.734430  -0.000465   0.146634  -0.003169
 377   3   0.280860  -0.353559   8.162998  -0.000415   0.146634  -0.002831
 378   3   0.119336   0.627206   9.247797  -0.000615   0.146634  -0.004196
 379   3  -0.400452   1.966930   9.563611  -0.000786   0.146634  -0.005362
 380   3  -1.074759   3.140472   8.986646  -0.000606   0.146634  -0.004131
 381   3  -1.639270   3.687830   7.743060  -0.000419   0.146634  -0.002857
 382   3  -1.872711   3.394451   6.320312  -0.000446   0.146634  -0.003042
 383   3  -1.683578   2.375333   5.276087  -0.000495   0.146634  -0.003373
 384  10   0.722006   6.367958   5.898177  -0.000298   0.068672  -0.004345
 385  10   0.006605   6.118207   6.701405  -0.000529   0.152093  -0.003477
 386  10  -0.220567   5.710527   7.952880  -0.000535   0.152093  -0.003515
 387  10   0.393234   5.327675   9.075675  -0.000810   0.152093  -0.005323
 388  10   1.598768   5.125109   9.613870  -0.000902   0.152093  -0.005931
 389  10   2.906516   5.185085   9.348925  -0.000723   0.152093  -0.004752
 390  10   3.785455   5.483248   8.388423  -0.000554   0.152093  -0.003645
 391   3   0.236718   6.021216   5.906291  -0.000472   0.150908  -0.003130
 392   3  -0.476238   5.621413   7.164682  -0.000431   0.150908  -0.002854
 393   3  -0.247116   5.152932   8.571708  -0.000471   0.150908  -0.003124
 394   3   0.831048   4.806005   9.556035  -0.000775   0.150908  -0.005133
 395   3   2.320455   4.721504   9.717967  -0.000746   0.150908  -0.004943
 396   3   3.616318   4.933742   8.991749  -0.000426   0.150908  -0.002825
 397   3   4.222819   5.253171   7.984000  -0.000157   0.083898  -0.001877
 398   3   5.196113   3.175844   8.401710  -0.000219   0.087195  -0.002511
 399  11   5.289355   2.891619   8.465704  -0.000391   0.087195  -0.004479
 400  13   6.092429   2.960344   7.904578  -0.000391   0.087195  -0.004489
 401  11   4.838320   2.876966   9.023439  -0.000308   0.068472  -0.004498
 402  11   4.078403   2.467978   9.712634  -0.000748   0.151750  -0.004932
 403  11   3.191218   1.514807  10.010427  -0.000847   0.151750  -0.005583
 404  11   2.669577   0.369586   9.562462  -0.000704   0.151750  -0.004638
 405  11   2.725916  -0.501295   8.551173  -0.000582   0.151750  -0.003834
 406  11   3.337293  -0.743171   7.388405  -0.000646   0.151750  -0.004256
 407   3   4.366516   3.124709   9.289330  -0.000500   0.150354  -0.003322
 408   3   3.312324   2.338712  10.012471  -0.000752   0.150354  -0.005005
 409   3   2.477304   1.094981   9.923464  -0.000710   0.150354  -0.004721
 410   3   2.201517  -0.099975   9.058555  -0.000405   0.150354  -0.002691
 411   3   2.597276  -0.759512   7.769978  -0.000311   0.150354  -0.002069
 412   3   3.271934  -0.774899   6.754846  -0.000184   0.083653  -0.002204
 413  12   4.751120  -1.205134   4.227506   0.000408   0.251308   0.001623
 414   3   3.253762  -0.886742   5.307854   0.001249   0.370625   0.003369
 415  13   6.589533   3.745834   7.318705  -0.001241   0.402749  -0.003081
 416   3   5.244191   3.902447   8.103408   0.000277   0.574179   0.000483
 417   4   6.826924   0.403381   0.110517  -0.000007   0.027660  -0.000269
 418   5   7.223352   0.627484  -0.092680   0.000018   0.027660   0.000652
 419  12   6.760109   0.138059   0.242763  -0.000035   0.027660  -0.001272
 420   4   8.373954   4.404515   6.006917  -0.000030   0.028272  -0.001068
 421   5   8.752490   4.582056   5.735115  -0.000012   0.028272  -0.000427
 422  13   8.335413   4.195220   6.223081  -0.000069   0.028272  -0.002454
 423   4   8.273781   5.102757   5.494885  -0.000015   0.028022  -0.000531
 424   5   8.669534   5.327552   5.291112  -0.000027   0.028022  -0.000976
 425  14   8.731222   5.591715   5.153790  -0.000060   0.028022  -0.002134
 426   4   6.843079   1.031265  -0.273757   0.000011   0.028200   0.000386
 427   5   7.222034   1.208163  -0.545388  -0.000008   0.028200  -0.000269
 428  15   7.261563   1.414584  -0.764944  -0.000035   0.028200  -0.001228
 429   5   7.322409   0.905303  -0.396334   0.000092   0.065773   0.001399
 430   4   6.717588   0.675155  -0.082669   0.000083   0.065773   0.001266
 431   5   8.773180   5.067041   5.482450   0.000063   0.093377   0.000672
 432   4   8.280950   4.698247   5.863466   0.000065   0.093377   0.000700
 433   4   8.729249   0.017484   5.709003   0.000116   0.067814   0.001707
 434   6   9.538156   0.021658   5.484865   0.000169   0.067814   0.002488
 435  13   8.677953   0.193013   5.953113  -0.000093   0.067814  -0.001376
 436   4   8.822736  -1.100585   3.841089   0.000178   0.065349   0.002720
 437   6   9.640087  -1.235952   3.707206   0.000139   0.065349   0.002129
 438  16   9.712664  -1.387501   3.452887  -0.000074   0.065349  -0.001135
 439   6   9.809897  -0.648655   4.811397   0.001249   0.533092   0.002342
 440   4   8.561961  -0.778362   4.738304   0.001148   0.533092   0.002154
 441   4   7.284459   5.563381   5.277118  -0.000271   0.167393  -0.001621
 442   7   6.714694   6.047466   5.147551  -0.000627   0.167393  -0.003747
 443  14   7.779696   5.984769   4.892085  -0.000334   0.167393  -0.001998
 444   7   5.927179   5.955437   5.753149  -0.000782   0.186235  -0.004197
 445   4   6.830973   5.273823   5.841798  -0.000030   0.262377  -0.000116
 446   4   5.818866   1.763874  -0.324561  -0.000264   0.165771  -0.001591
 447   8   5.276825   2.240693  -0.540468  -0.000599   0.165771  -0.003615
 448  15   6.310319   2.138676  -0.757982  -0.000375   0.165771  -0.002265
 449   8   4.616003   2.092004  -0.540147  -0.000372   0.095451  -0.003899
 450   4   5.335993   1.330785  -0.147605   0.000058   0.134632   0.000429
 451   4   6.260492  -0.103115   6.463432  -0.000011   0.087390  -0.000127
 452  11   5.484410   0.038916   7.147992  -0.000334   0.087390  -0.003817
 453  13   6.358566   0.063732   6.701007  -0.000205   0.087390  -0.002344
 454  11   4.513461  -0.453147   6.976612  -0.001411   0.403390  -0.003497
 455   4   5.762775  -0.551478   6.045134   0.001383   0.574892   0.002406
 456   4   8.298653  -1.204277   3.795221   0.000078   0.090084   0.000864
 457  12   8.123593  -1.346908   3.587123  -0.000047   0.090084  -0.000527
 458  16   9.191055  -1.341186   3.338549   0.000137   0.090084   0.001522
 459  12   5.451946  -0.007894   0.483065  -0.000130   0.067633  -0.001921
 460  12   6.279015  -0.084925   0.326211  -0.000126   0.067633  -0.001869
 461   4   5.880366   0.351595   0.287669  -0.000312   0.149092  -0.002090
 462  12   7.402314  -1.515277   3.954966  -0.000037   0.085113  -0.000436
 463  12   6.107017  -1.431675   4.307954  -0.000418   0.199108  -0.002101
 464   4   7.045435  -1.273169   4.460611   0.000042   0.178036   0.000238
 465   4   5.589786  -1.127703   4.708016   0.000127   0.103984   0.001221
 466  13   7.692686   4.125080   6.610130  -0.000452   0.125522  -0.003599
 467   4   7.385508   4.435335   6.349021  -0.000349   0.153353  -0.002273
 468  13   7.079343  -0.061130   6.499728  -0.000087   0.079230  -0.001098
 469  13   8.038903   0.068049   6.305050  -0.000140   0.079230  -0.001772
 470   4   7.516857  -0.204886   6.055815  -0.000044   0.168582  -0.000259
 471  14   8.507309   5.963633   5.006879  -0.000254   0.125327  -0.002027
 472   4   7.894088   5.229590   5.598136   0.000168   0.176706   0.000952
 473  15   7.073413   1.690296  -0.972966  -0.000268   0.155767  -0.001720
 474   4   6.283730   1.220163  -0.321891   0.000206   0.219581   0.000939
 475  16   9.756638  -1.588538   3.354248   0.000015   0.011267   0.001342
 476   4   8.430906  -1.299154   3.976871   0.000097   0.016027   0.006078
 477   5  11.649889   6.022425   1.896858   0.000011   0.028285   0.000394
 478   6  12.048097   5.733833   1.977234   0.000042   0.028285   0.001500
 479  14  11.484170   6.221867   2.055642  -0.000016   0.028285  -0.000569
 480   5  10.618059   5.193544   4.903820   0.000024   0.028285   0.000836
 481   6  11.029652   4.915705   4.945186   0.000072   0.028285   0.002559
 482  14  10.544713   5.467190   4.793410  -0.000011   0.028285  -0.000383
 483   5   9.177315   1.082719  -0.941242   0.000015   0.027992   0.000522
 484   6   9.605584   0.852576  -0.832037   0.000044   0.027992   0.001576
 485  15   9.081179   1.297833  -1.133222  -0.000017   0.027992  -0.000615
 486   5  10.882454   3.846910  -1.170902   0.000024   0.027992   0.000848
 487   6  11.288521   3.580774  -1.058707   0.000075   0.027992   0.002677
 488  15  10.633583   3.814428  -1.342311  -0.000008   0.027992  -0.000277
 489   5   9.205065   0.397451  -0.404187   0.000014   0.025943   0.000535
 490   6   9.615771   0.118374  -0.363138  -0.000013   0.025943  -0.000496
 491  16   9.708033  -0.151081  -0.258906  -0.000046   0.025943  -0.001792
 492   5  10.683367   4.532416   5.304563   0.000028   0.025993   0.001095
 493   6  11.111881   4.303130   5.414350   0.000007   0.025993   0.000267
 494  17  11.225506   4.094588   5.602929  -0.000028   0.025993  -0.001068
 495   5  11.427610   3.946873  -0.881387   0.000067   0.025602   0.002624
 496   6  11.862777   3.706886  -0.845675   0.000015   0.025602   0.000600
 497  18  12.155580   3.755053  -0.785422  -0.000016   0.025602  -0.000627
 498   5  12.037413   5.652922   1.475152   0.000035   0.025602   0.001364
 499   6  12.480849   5.436069   1.542818   0.000010   0.025602   0.000395
 500  18  12.718065   5.328719   1.388259  -0.000019   0.025602  -0.000740
 501   6   9.661510   0.364779  -0.586876   0.000127   0.093908   0.001347
 502   5   9.111930   0.801603  -0.760150   0.000146   0.093908   0.001555
 503   6  11.672660   3.587278  -0.986111   0.000098   0.040974   0.002399
 504   5  11.087810   3.991190  -1.072170   0.000109   0.040974   0.002669
 505   6  12.380623   5.562965   1.732818   0.000101   0.054200   0.001866
 506   5  11.772336   5.940463   1.689279   0.000101   0.054200   0.001860
 507   6  11.190520   4.609712   5.210440   0.000158   0.074488   0.002122
 508   5  10.541512   4.916195   5.155375   0.000131   0.074488   0.001760
 509   5   6.816138   5.536327  -0.402175  -0.000094   0.087807  -0.001067
 510   8   5.840248   5.397503  -0.383037  -0.000279   0.087807  -0.003181
 511  15   6.862241   5.363043  -0.651392  -0.000134   0.087807  -0.001529
 512   8   5.287145   5.695193  -0.329487  -0.000101   0.055645  -0.001820
 513   5   6.737931   5.813114  -0.321787   0.000207   0.078943   0.002623
 514   5   8.346395   0.057699   0.220422   0.000004   0.168635   0.000023
 515  12   7.831972  -0.354204   0.593070  -0.000191   0.168635  -0.001132
 516  16   8.910091  -0.427870   0.387633  -0.000144   0.168635  -0.000853
 517  12   6.931012  -0.202743   0.371164  -0.000277   0.162386  -0.001706
 518   5   7.774771   0.372713  -0.112602   0.000287   0.228863   0.001255
 519   5   9.709554   3.960821   5.762730  -0.000045   0.167802  -0.000266
 520  13   9.226601   3.571552   6.191034  -0.000233   0.167802  -0.001387
 521  17  10.292977   3.518707   5.975589  -0.000221   0.167802  -0.001317
 522  13   8.589557   3.860671   6.440477  -0.000305   0.130426  -0.002338
 523   5   9.171954   4.531688   5.755017   0.000209   0.183913   0.001135
 524  14  11.142713   6.591170   1.873096  -0.000092   0.066978  -0.001374
 525  14  10.336754   6.905179   1.230145  -0.000246   0.147551  -0.001664
 526  14   9.067013   7.136660   1.036265  -0.000123   0.147551  -0.000830
 527  14   8.053128   7.154420   1.401341  -0.000122   0.066978  -0.001826
 528   5  10.997921   6.430235   1.324372  -0.000133   0.147952  -0.000902
 529   5   9.730124   6.803463   0.688622   0.000125   0.147952   0.000846
 530   5   8.285485   6.924729   0.910204   0.000034   0.147952   0.000232
 531  14   9.222765   5.820733   5.066396  -0.000125   0.071109  -0.001763
 532  14  10.091052   5.760354   4.894299  -0.000110   0.071109  -0.001541
 533   5   9.653439   5.395520   5.101434  -0.000292   0.155223  -0.001879
 534  15   8.563714   1.412107  -1.281657  -0.000112   0.071437  -0.001562
 535  15   7.691636   1.467656  -1.104860  -0.000128   0.071437  -0.001796
 536   5   8.177223   1.188276  -0.869805  -0.000268   0.155761  -0.001721
 537  15   7.578248   5.562001  -0.916804  -0.000053   0.079242  -0.000666
 538  15   8.813720   5.537375  -1.165089  -0.000288   0.181528  -0.001588
 539  15   9.999657   4.638557  -1.438766  -0.000457   0.181528  -0.002516
 540   5   8.101456   5.832211  -0.667082   0.000013   0.168779   0.000075
 541   5   9.705910   5.392658  -1.005981  -0.000039   0.168779  -0.000229
 542   5  10.582196   4.335169  -1.224086  -0.000046   0.096811  -0.000474
 543  16   9.525344  -0.496471  -0.019374  -0.000240   0.128120  -0.001871
 544   5   8.805145   0.318850  -0.340439   0.000288   0.180558   0.001594
 545  17  11.122898   3.850938   5.871226  -0.000246   0.149490  -0.001648
 546   5  10.192221   4.426618   5.566382   0.000290   0.210640   0.001375
 547  18  12.412131   4.093974  -0.618257  -0.000279   0.199729  -0.001397
 548  18  12.708552   4.974198   0.472964  -0.001172   0.408612  -0.002869
 549   5  11.490570   4.875237  -0.333664   0.000681   0.547237   0.001245
 550   5  11.822025   5.756155   0.996663   0.000576   0.281271   0.002047
 551   6  10.147625   0.192681   5.669612   0.000036   0.087683   0.000412
 552  13   9.258911   0.469868   6.016804   0.000082   0.087683   0.000935
 553  17  10.326420   0.352473   5.860246  -0.000049   0.087683  -0.000563
 554  13   8.685448   0.250341   6.214271   0.000019   0.056505   0.000330
 555   6  10.002360  -0.068912   5.652212   0.000294   0.080224   0.003664
 556  14  10.749923   5.819233   4.509916  -0.000276   0.217592  -0.001269
 557  14  11.309480   6.255484   3.116058  -0.001474   0.448244  -0.003289
 558   6  11.818905   5.279171   4.146198   0.000678   0.593376   0.001143
 559   6  12.313831   5.688817   2.488199   0.000662   0.306530   0.002160
 560  15  10.400836   3.455797  -1.585802  -0.000287   0.215684  -0.001330
 561  15   9.632404   2.110430  -1.545569  -0.001359   0.443942  -0.003062
 562   6  11.068598   2.449976  -1.259756   0.000730   0.588477   0.001240
 563   6  10.108488   0.984325  -1.072817   0.000663   0.303828   0.002181
 564  16  10.150246  -0.430291  -0.370804  -0.000107   0.067687  -0.001586
 565  16  11.227912  -0.482434  -0.530688  -0.000246   0.149550  -0.001646
 566  16  12.437300  -0.749759  -0.074139  -0.000203   0.149550  -0.001361
 567  16  13.099416  -1.163515   0.990250  -0.000202   0.149550  -0.001350
 568  16  12.951918  -1.559765   2.240749  -0.000274   0.149550  -0.001834
 569  16  12.053248  -1.781507   3.181886  -0.000153   0.149550  -0.001025
 570  16  10.759475  -1.740883   3.440765  -0.000275   0.149550  -0.001840
 571   6  10.534237  -0.038953  -0.595518  -0.000167   0.149080  -0.001121
 572   6  12.006108  -0.206034  -0.521912   0.000010   0.149080   0.000064
 573   6  13.113773  -0.609137   0.378268   0.000120   0.149080   0.000805
 574   6  13.418355  -1.088546   1.748354  -0.000053   0.149080  -0.000359
 575   6  12.799171  -1.454309   3.045492  -0.000023   0.149080  -0.000152
 576   6  11.501556  -1.561506   3.755731   0.000138   0.149080   0.000927
 577   6  10.302940  -1.449967   3.770483   0.000036   0.082694   0.000435
 578  17  11.014239   0.050256   5.844411  -0.000058   0.067232  -0.000869
 579  17  12.033757  -0.214290   5.588459  -0.000175   0.148352  -0.001182
 580  17  13.260901   0.144686   5.293172  -0.000237   0.148352  -0.001600
 581  17  14.044217   1.183125   5.119963  -0.000286   0.148352  -0.001931
 582  17  14.077304   2.494829   5.136582  -0.000168   0.148352  -0.001131
 583  17  13.347219   3.566713   5.336531  -0.000206   0.148352  -0.001386
 584  17  12.139543   3.979500   5.641596  -0.000340   0.148352  -0.002293
 585   6  11.232202  -0.318976   5.438054  -0.000005   0.148263  -0.000033
 586   6  12.662441  -0.379263   5.084860   0.000014   0.148263   0.000091
 587   6  13.851569   0.447267   4.807758  -0.000033   0.148263  -0.000223
 588   6  14.334447   1.837308   4.715139   0.000038   0.148263   0.000258
 589   6  13.922194   3.247131   4.843233   0.000112   0.148263   0.000752
 590   6  12.776064   4.125270   5.141934  -0.000035   0.148263  -0.000236
 591   6  11.624252   4.276114   5.428303  -0.000021   0.082138  -0.000261
 592  18  13.221648   5.224506   1.554095  -0.000098   0.069343  -0.001410
 593  18  13.937705   4.792571   2.295127  -0.000267   0.154073  -0.001734
 594  18  14.736554   3.771151   2.672942  -0.000223   0.154073  -0.001450
 595  18  15.154118   2.543974   2.293628  -0.000242   0.154073  -0.001570
 596  18  15.016212   1.622951   1.315414  -0.000323   0.154073  -0.002093
 597  18  14.380362   1.392284   0.146358  -0.000196   0.154073  -0.001274
 598  18  13.511811   1.948194  -0.725872  -0.000250   0.154073  -0.001626
 599  18  12.772871   3.058787  -0.937430  -0.000373   0.154073  -0.002418
 600   6  13.200968   5.168514   2.150141  -0.000160   0.151896  -0.001054
 601   6  14.177670   4.331127   2.954385   0.000075   0.151896   0.000491
 602   6  14.899575   2.996652   2.953496   0.000129   0.151896   0.000850
 603   6  15.065543   1.721759   2.147843  -0.000080   0.151896  -0.000529
 604   6  14.606342   1.038266   0.873503  -0.000037   0.151896  -0.000241
 605   6  13.713525   1.231288  -0.337939   0.000121   0.151896   0.000800
 606   6  12.759527   2.220308  -0.981135  -0.000034   0.151896  -0.000225
 607   6  12.182609   3.310043  -0.961060  -0.000011   0.084718  -0.000133
 608  10   4.009592   6.142706   7.376432  -0.000279   0.251583  -0.001111
 609  10   3.130204   6.852462   6.924636  -0.001676   0.503435  -0.003328
 610  10   1.934631   6.928673   6.057806  -0.001493   0.503435  -0.002966
 611   7   4.499984   6.752656   6.124349  -0.001465   0.503435  -0.002910
 612   7   3.334749   7.333816   5.423578  -0.001603   0.503435  -0.003185
 613   7   2.400417   7.129094   4.671044  -0.000219   0.251583  -0.000871
 614  14   7.486994   7.434722   2.320953   0.000008   0.240737   0.000033
 615  14   7.738978   7.466420   3.361969  -0.000709   0.481273  -0.001472
 616  14   7.972752   6.840446   4.488955  -0.000575   0.481273  -0.001194
 617   7   6.066217   7.563112   3.081131  -0.000898   0.481273  -0.001865
 618   7   6.355094   7.337480   4.338999  -0.001061   0.481273  -0.002205
 619   7   6.507631   6.646658   5.143805  -0.000241   0.240737  -0.001001
 620  15   6.450855   2.420273  -1.321838  -0.000095   0.251452  -0.000378
 621  15   6.488606   3.515047  -1.656311  -0.000917   0.502843  -0.001824
 622  15   6.694343   4.850337  -1.306080  -0.000496   0.502843  -0.000987
 623   8   4.986808   2.975515  -1.168069  -0.001328   0.502843  -0.002641
 624   8   5.098823   4.361652  -1.286668  -0.001457   0.502843  -0.002897
 625   8   5.305991   5.364512  -0.773657  -0.000411   0.251452  -0.001633
 626  13   6.708637   2.711753   7.981302  -0.000626   0.222312  -0.002817
 627  13   6.832990   1.633796   7.958730  -0.001628   0.444652  -0.003662
 628  13   6.640214   0.463712   7.362161  -0.000890   0.444652  -0.002002
 629  11   5.559873   2.148011   8.688828  -0.001386   0.444652  -0.003118
 630  11   5.579146   0.845586   8.432953  -0.001894   0.444652  -0.004259
 631  11   5.320289   0.006791   7.794688  -0.000710   0.222312  -0.003194
 632  16   9.559237  -1.805210   3.018164   0.000266   0.250280   0.001063
 633  16   9.345036  -1.910775   1.935860  -0.000437   0.500370  -0.000874
 634  16   9.155850  -1.319769   0.733984  -0.000407   0.500370  -0.000814
 635  12   7.939370  -1.768295   2.902142  -0.000009   0.500370  -0.000018
 636  12   7.697309  -1.613185   1.580426  -0.000482   0.500370  -0.000963
 637  12   7.578588  -0.931620   0.714526   0.000038   0.250280   0.000150
 638  17  10.613447   3.226753   6.449092  -0.000001   0.247397  -0.000003
 639  17  10.628946   2.173079   6.782014  -0.000564   0.494628  -0.001141
 640  17  10.503665   0.865016   6.476572  -0.000131   0.494628  -0.000265
 641  13   9.105013   2.907500   6.908227  -0.000552   0.494628  -0.001116
 642  13   9.066817   1.565816   7.044040  -0.000603   0.494628  -0.001219
 643  13   8.925050   0.572858   6.580099   0.000093   0.247397   0.000374
 =====================================================

              3173552  WORDS OF DYNAMIC MEMORY USED
 EXECUTION OF GAMESS TERMINATED NORMALLY Thu Nov 24 20:51:03 2016
 DDI: 263640 bytes (0.3 MB / 0 MWords) used by master data server.

 ----------------------------------------
 CPU timing information for all processes
 ========================================
 0: 875.432 + 0.404 = 875.836
 ----------------------------------------
 ddikick.x: exited gracefully.
