----- GAMESS execution script -----

          ******************************************************
          *         GAMESS VERSION =  5 DEC 2014 (R1)          *
          *             FROM IOWA STATE UNIVERSITY             *
          * M.W.SCHMIDT, K.K.BALDRIDGE, J.A.BOATZ, S.T.ELBERT, *
          *   M.S.GORDON, J.H.JENSEN, S.KOSEKI, N.MATSUNAGA,   *
          *          K.A.NGUYEN, S.J.SU, T.L.WINDUS,           *
          *       TOGETHER WITH M.DUPUIS, J.A.MONTGOMERY       *
          *         J.COMPUT.CHEM.  14, 1347-1363(1993)        *
          **************** 64 BIT LINUX VERSION ****************

 EXECUTION OF GAMESS BEGUN Thu Nov 24 19:25:47 2016

            ECHO OF THE FIRST FEW INPUT CARDS -
 INPUT CARD>! SELECT RESTRICTED HARTREE-FOCK AS DEFAULT                                     
 INPUT CARD>$contrl scftyp=rhf $end                                                         
 INPUT CARD>                                                                                
 INPUT CARD>! THEORY: HF OR DFT                                                             
 INPUT CARD> $contrl mplevl=0 $end                                                          
 INPUT CARD>                                                                                
 INPUT CARD> $system timlim=10000 mwords=20 $end                                            
 INPUT CARD> $SCF DIRSCF=.TRUE. $end                                                        
 INPUT CARD>                                                                                
 INPUT CARD>                                                                                
 INPUT CARD>! BASIS SETS                                                                    
 INPUT CARD>! 6-311G(d,p)                                                                   
 INPUT CARD> $BASIS GBASIS=N311 NGAUSS=6 NDFUNC=1 NPFUNC=1 $END                             
 INPUT CARD>                                                                                
 INPUT CARD>! One of the following                                                          
 INPUT CARD> $guess guess=HUCKEL $end                                                       
 INPUT CARD>                                                                                
 INPUT CARD> $statpt projct=.FALSE. $end                                                    
 INPUT CARD> $STATPT IFREEZ(1)=1,2,3 $END                                                   
 INPUT CARD>                                                                                
 INPUT CARD>! Optimize the geometry with COSMO effects                                      
 INPUT CARD> $statpt opttol=0.0005 nstep=50 $end                                            
 INPUT CARD> $contrl nzvar=1 $end                                                           
 INPUT CARD> $zmat dlc=.t. auto=.t. $end                                                    
 INPUT CARD> $contrl runtyp=OPTIMIZE maxit=200 $end                                         
 INPUT CARD>                                                                                
 INPUT CARD>! Run COSMO on perfect conductor                                                
 INPUT CARD> $COSGMS PRFCND=.TRUE. $end                                                     
 INPUT CARD>                                                                                
 INPUT CARD>! Specifying RSOLV                                                              
 INPUT CARD> $COSGMS COSRAD = 1.4 $end                                                      
 INPUT CARD>                                                                                
 INPUT CARD>! available memory                                                              
 INPUT CARD> $SYSTEM MWORDS=40 $END                                                         
 INPUT CARD>                                                                                
 INPUT CARD> $DATA                                                                          
 INPUT CARD>Methyl formate, ID: C107313                                                     
 INPUT CARD>C1                                                                              
 INPUT CARD>O      8.0      1.9452000000    1.6536000000    0.8742000000                    
 INPUT CARD>C      6.0      0.8623000000    0.7461000000    0.8395000000                    
 INPUT CARD>C      6.0      3.2069000000    1.1851000000    1.0378000000                    
 INPUT CARD>O      8.0      3.4122000000    0.0000000000    1.1545000000                    
 INPUT CARD>H      1.0      0.7738000000    0.1872000000    1.7770000000                    
 INPUT CARD>H      1.0      0.0000000000    1.4032000000    0.7037000000                    
 INPUT CARD>H      1.0      0.9478000000    0.0484000000    0.0000000000                    
 INPUT CARD>H      1.0      3.9162000000    2.0209000000    1.0406000000                    
 INPUT CARD> $END                                                                           
 INPUT CARD>                                                                                
 INPUT CARD>                                                                                
   40000000 WORDS OF MEMORY AVAILABLE

     BASIS OPTIONS
     -------------
     GBASIS=N311         IGAUSS=       6      POLAR=POPN311 
     NDFUNC=       1     NFFUNC=       0     DIFFSP=       F
     NPFUNC=       1      DIFFS=       F     BASNAM=        


     RUN TITLE
     ---------
 Methyl formate, ID: C107313                                                     

 THE POINT GROUP OF THE MOLECULE IS C1      
 THE ORDER OF THE PRINCIPAL AXIS IS     0

 ATOM      ATOMIC                      COORDINATES (BOHR)
           CHARGE         X                   Y                   Z
 O           8.0     3.6758949913        3.1248508933        1.6519984585
 C           6.0     1.6295107192        1.4099245594        1.5864249667
 C           6.0     6.0601622700        2.2395142680        1.9611576301
 O           8.0     6.4481230153        0.0000000000        2.1816886528
 H           1.0     1.4622699693        0.3537567049        3.3580430802
 H           1.0     0.0000000000        2.6516635060        1.3298001776
 H           1.0     1.7910822912        0.0914627378        0.0000000000
 H           1.0     7.4005449131        3.8189472486        1.9664488628

          INTERNUCLEAR DISTANCES (ANGS.)




     $CONTRL OPTIONS
     ---------------
 SCFTYP=RHF          RUNTYP=OPTIMIZE     EXETYP=RUN     
 MPLEVL=       0     CITYP =NONE         CCTYP =NONE         VBTYP =NONE    
 DFTTYP=NONE         TDDFT =NONE    
 MULT  =       1     ICHARG=       0     NZVAR =       1     COORD =UNIQUE  
 PP    =NONE         RELWFN=NONE         LOCAL =NONE         NUMGRD=       F
 ISPHER=      -1     NOSYM =       0     MAXIT =     200     UNITS =ANGS    
 PLTORB=       F     MOLPLT=       F     AIMPAC=       F     FRIEND=        
 NPRINT=       7     IREST =       0     GEOM  =INPUT   
 NORMF =       0     NORMP =       0     ITOL  =      20     ICUT  =       9
 INTTYP=BEST         GRDTYP=BEST         QMTTOL= 1.0E-06

     $SYSTEM OPTIONS
     ---------------
  REPLICATED MEMORY=    40000000 WORDS (ON EVERY NODE).
 DISTRIBUTED MEMDDI=           0 MILLION WORDS IN AGGREGATE,
 MEMDDI DISTRIBUTED OVER   1 PROCESSORS IS           0 WORDS/PROCESSOR.
 TOTAL MEMORY REQUESTED ON EACH PROCESSOR=    40000000 WORDS.
 TIMLIM=       10000.00 MINUTES, OR       6.9 DAYS.
 PARALL= F  BALTYP=  DLB     KDIAG=    0  COREFL= F
 MXSEQ2=     300 MXSEQ3=     150  mem10=         0

     $COSGMS OPTIONS
     ---------------
     EPSI  =   INFTY     NSPA  =      92     COSRAD=    1.40
     DISEX =   10.00     OUTCHG=DBLCAV       COSBUG=       F
     COSWRT=       F     DCOSMO=       F

     SYMMETRY COORDINATES WILL NOT BE USED FOR 
     THE COSMO CALCULATION, EVEN IF SPECIFIED:
         -- SWITCHING TO C1 POINT GROUP --


     DEFINITION OF CAVITY
     ---------------------------
     ATOM         COORDINATES           RADIUS 
     1    3.6759    3.1249    1.6520    1.7200
     2    1.6295    1.4099    1.5864    2.0000
     3    6.0602    2.2395    1.9612    2.0000
     4    6.4481    0.0000    2.1817    1.7200
     5    1.4623    0.3538    3.3580    1.3000
     6    0.0000    2.6517    1.3298    1.3000
     7    1.7911    0.0915    0.0000    1.3000
     8    7.4005    3.8189    1.9664    1.3000

          ----------------
          PROPERTIES INPUT
          ----------------

     MOMENTS            FIELD           POTENTIAL          DENSITY
 IEMOM =       1   IEFLD =       0   IEPOT =       0   IEDEN =       0
 WHERE =COMASS     WHERE =NUCLEI     WHERE =NUCLEI     WHERE =NUCLEI  
 OUTPUT=BOTH       OUTPUT=BOTH       OUTPUT=BOTH       OUTPUT=BOTH    
 IEMINT=       0   IEFINT=       0                     IEDINT=       0
                                                       MORB  =       0
          EXTRAPOLATION IN EFFECT
          SOSCF IN EFFECT
 ORBITAL PRINTING OPTION: NPREO=     1   100     2     1

     -------------------------------
     INTEGRAL TRANSFORMATION OPTIONS
     -------------------------------
     NWORD  =            0
     CUTOFF = 1.0E-09     MPTRAN =       0
     DIRTRF =       T     AOINTS =DUP     

          ----------------------
          INTEGRAL INPUT OPTIONS
          ----------------------
 NOPK  =       1 NORDER=       0 SCHWRZ=       T


 -----------------------------------------------
  STATISTICS ON AUTOMATIC COORDINATE GENERATION 
 -----------------------------------------------
  NUMBER OF USER SPECIFIED BONDS                             0
  NUMBER OF BONDS                                            7
  NUMBER OF ANGLES                                          10
  NUMBER OF TORSIONS                                         5
  NUMBER OF EXTRA COORD.                                     0
  NUMBER OF EXTRA COORD. FOR CONSTRAINTS                     0
  NUMBER OF CONSTRAINED COORD.                               0

  TOTAL NUMBER OF PRIMITIVES                                22
 -----------------------------------------------

   --- ENCODED Z MATRIX ---
 COORD  TYPE   I   J   K   L   M   N
    1      1    1   2
    2      1    1   3
    3      1    2   7
    4      1    2   6
    5      1    2   5
    6      1    3   8
    7      1    3   4
    8      2    1   2   5
    9      2    1   2   6
   10      2    1   3   8
   11      2    1   2   7
   12      2    1   3   4
   13      2    2   1   3
   14      2    4   3   8
   15      2    5   2   6
   16      2    5   2   7
   17      2    6   2   7
   18      3    2   1   3   8
   19      3    2   1   3   4
   20      3    3   1   2   7
   21      3    3   1   2   6
   22      3    3   1   2   5

          INDEP./SYM. INTERNAL COORDINATES
          --------------------------------
 CRD  1=  -0.1876 (  1) -0.1972 (  2) -0.1573 (  8)  0.1644 (  9)  0.1863 ( 10)
          -0.1560 ( 11) -0.2937 ( 12) -0.8320 ( 13)  0.1074 ( 14)
 CRD  2=  -0.2878 (  8)  0.2886 ( 11)  0.4755 ( 18)  0.6043 ( 19)  0.3133 ( 20)
           0.2096 ( 21)  0.3140 ( 22)
 CRD  3=   0.4872 (  1)  0.4148 (  2)  0.1027 (  4)  0.1825 (  6)  0.4636 (  9)
           0.4045 ( 10) -0.1947 ( 12) -0.2098 ( 14) -0.1895 ( 15) -0.1900 ( 17)
 CRD  4=   0.1173 (  3) -0.1168 (  5) -0.5140 (  8)  0.5159 ( 11)  0.1027 ( 15)
          -0.1019 ( 17)  0.2511 ( 18) -0.3235 ( 19) -0.2444 ( 20) -0.3670 ( 21)
          -0.2433 ( 22)
 CRD  5=   0.2040 (  1) -0.2140 (  2) -0.1586 (  4)  0.1678 (  6) -0.1973 (  7)
           0.3203 (  8) -0.4747 (  9)  0.3096 ( 10)  0.3172 ( 11) -0.4425 ( 12)
           0.1328 ( 14) -0.2230 ( 16)
 CRD  6=   0.2631 (  8) -0.2655 ( 11) -0.3002 ( 15)  0.3000 ( 17)  0.7514 ( 18)
          -0.2722 ( 19) -0.1990 ( 21)
 CRD  7=  -0.1593 (  2) -0.3822 (  3) -0.3610 (  4) -0.3823 (  5)  0.2502 (  7)
           0.2044 (  8)  0.2787 (  9) -0.2772 ( 10)  0.2036 ( 11)  0.2993 ( 14)
          -0.2247 ( 15) -0.2189 ( 16) -0.2234 ( 17)
 CRD  8=   0.2434 (  3)  0.1008 (  4)  0.2443 (  5)  0.5135 (  6)  0.3872 (  7)
          -0.1586 (  8) -0.1477 ( 10) -0.1576 ( 11) -0.2773 ( 12)  0.1455 ( 13)
           0.4250 ( 14)  0.2937 ( 16)
 CRD  9=  -0.1615 (  3)  0.5744 (  4) -0.1722 (  5)  0.1729 (  6)  0.2000 (  7)
           0.1105 ( 14)  0.2609 ( 15) -0.4644 ( 16)  0.2700 ( 17)  0.2815 ( 20)
          -0.2777 ( 22)
 CRD 10=   0.4838 (  3) -0.4790 (  5) -0.3783 ( 15)  0.3725 ( 17) -0.2980 ( 18)
           0.1289 ( 19)  0.1617 ( 20) -0.2995 ( 21)  0.1683 ( 22)
 CRD 11=  -0.3997 (  2) -0.1716 (  3)  0.2334 (  4) -0.1732 (  5) -0.5489 (  7)
          -0.1580 (  8)  0.2768 (  9) -0.1562 ( 11) -0.2697 ( 12)  0.3853 ( 13)
           0.2084 ( 14)  0.1063 ( 16)
 CRD 12=  -0.4364 (  1)  0.2791 (  2) -0.3313 (  3) -0.2734 (  4) -0.3315 (  5)
           0.4038 (  6) -0.1212 (  8) -0.1651 (  9)  0.3042 ( 10) -0.1213 ( 11)
          -0.1226 ( 12)  0.1542 ( 13) -0.1816 ( 14)  0.1250 ( 15)  0.1446 ( 16)
           0.1249 ( 17)
 CRD 13=  -0.4148 (  3)  0.4130 (  5) -0.2640 ( 15)  0.2633 ( 17) -0.1393 ( 18)
           0.4350 ( 19) -0.1613 ( 20) -0.5001 ( 21) -0.1600 ( 22)
 CRD 14=   0.3516 (  1)  0.3730 (  2) -0.1417 (  3) -0.1969 (  4) -0.1424 (  5)
          -0.5041 (  6) -0.1741 (  8) -0.1861 (  9) -0.1743 ( 11) -0.2833 ( 12)
           0.3473 ( 14)  0.1876 ( 15)  0.1482 ( 16)  0.1873 ( 17)
 CRD 15=   0.3250 (  2)  0.1150 (  3) -0.2645 (  4)  0.1168 (  5)  0.3557 (  6)
          -0.5989 (  7) -0.3769 ( 10)  0.1574 ( 12) -0.1453 ( 13)  0.2195 ( 14)
          -0.1529 ( 16)  0.1217 ( 20) -0.1214 ( 22)
 CRD 16=   0.5806 (  1) -0.4546 (  2) -0.1276 (  3) -0.1874 (  4) -0.1273 (  5)
           0.2634 (  6) -0.2055 (  8) -0.1034 (  9) -0.2050 ( 11)  0.2546 ( 12)
          -0.2492 ( 14)  0.1834 ( 15)  0.1400 ( 16)  0.1837 ( 17)
 CRD 17=   0.1418 (  1)  0.1571 (  2) -0.2618 (  3)  0.4689 (  4) -0.2643 (  5)
           0.1287 (  6) -0.1936 (  7) -0.2826 (  9) -0.1624 ( 10)  0.1007 ( 12)
          -0.2910 ( 13) -0.1399 ( 15)  0.3451 ( 16) -0.1416 ( 17) -0.2876 ( 20)
           0.2866 ( 22)
 CRD 18=   0.2884 (  3) -0.2873 (  5)  0.2260 (  8) -0.2267 ( 11)  0.1963 ( 15)
          -0.1955 ( 17)  0.1949 ( 18)  0.5002 ( 19) -0.4231 ( 20) -0.4247 ( 22)

 THE DETERMINANT OF THE G MATRIX IS 10**(   -10)


                     --------------------
                     INTERNAL COORDINATES
                     --------------------

                 - - ATOMS - -         COORDINATE      COORDINATE
 NO.   TYPE    I  J  K  L  M  N        (BOHR,RAD)       (ANG,DEG)
 ----------------------------------------------------------------
   1 STRETCH   1  2                     2.6707603       1.4133056
   2 STRETCH   1  3                     2.5620560       1.3557817
   3 STRETCH   2  7                     2.0691039       1.0949227
   4 STRETCH   2  6                     2.0647220       1.0926039
   5 STRETCH   2  5                     2.0693213       1.0950378
   6 STRETCH   3  8                     2.0715362       1.0962098
   7 STRETCH   3  4                     2.2835437       1.2083994
   8 BEND      1  2  5                  1.9483359     111.6314245
   9 BEND      1  2  6                  1.7942431     102.8025569
  10 BEND      1  3  8                  1.9166362     109.8151649
  11 BEND      1  2  7                  1.9478203     111.6018823
  12 BEND      1  3  4                  2.1044153     120.5741145
  13 BEND      2  1  3                  2.0876235     119.6120142
  14 BEND      4  3  8                  2.2621338     129.6107202
  15 BEND      5  2  6                  1.9279189     110.4616154
  16 BEND      5  2  7                  1.9150536     109.7244879
  17 BEND      6  2  7                  1.9278948     110.4602360
  18 TORSION   2  1  3  8               3.1411666     179.9755894
  19 TORSION   2  1  3  4              -0.0005417      -0.0310382
  20 TORSION   3  1  2  7              -1.0782182     -61.7773498
  21 TORSION   3  1  2  6               3.1386067     179.8289147
  22 TORSION   3  1  2  5               1.0719742      61.4195967

     ------------------------------------------
     THE POINT GROUP IS C1 , NAXIS= 1, ORDER= 1
     ------------------------------------------

     DIMENSIONS OF THE SYMMETRY SUBSPACES ARE
 A   =  100

 ..... DONE SETTING UP THE RUN .....
 STEP CPU TIME =     0.01 TOTAL CPU TIME =        0.0 (    0.0 MIN)
 TOTAL WALL CLOCK TIME=        0.0 SECONDS, CPU UTILIZATION IS  50.00%


          -----------------------------
          STATIONARY POINT LOCATION RUN
          -----------------------------

 OBTAINING INITIAL HESSIAN, HESS=GUESS   
 DIAGONAL GUESS HESSIAN IN INTERNAL COORDS IS
     1  0.3720     2  0.4160     3  0.3431     4  0.3446     5  0.3430
     6  0.3422     7  0.5540     8  0.2200     9  0.2202    10  0.2233
    11  0.2200    12  0.2582    13  0.2436    14  0.2323    15  0.2030
    16  0.2029    17  0.2030    18  0.2500    19  0.2500    20  0.2500
    21  0.2500    22  0.2500
 TRANSFORMING HESSIAN TO SYMMETRY COORDINATES

          PARAMETERS CONTROLLING GEOMETRY SEARCH ARE
          METHOD =QA                  UPHESS =BFGS    
          NNEG   =         0          NFRZ   =         3
          NSTEP  =        50          IFOLOW =         1
          HESS   =GUESS               RESTAR =         F
          IHREP  =         0          HSSEND =         F
          NPRT   =         0          NPUN   =         0
          OPTTOL = 5.000E-04          RMIN   = 1.500E-03
          RMAX   = 1.000E-01          RLIM   = 7.000E-02
          DXMAX  = 3.000E-01          PURIFY =         F
          MOVIE  =         F          TRUPD  =         T
          TRMAX  = 5.000E-01          TRMIN  = 5.000E-02
          ITBMAT =         5          STPT   =         F
          STSTEP = 1.000E-02          PROJCT=          F
          FROZEN COORD(S)=   1   2   3


      ***** EQUILIBRIUM GEOMETRY LOCATED *****
            (SUBJECT TO   3 CONSTRAINT(S))
 COORDINATES OF ALL ATOMS ARE (ANGS)
   ATOM   CHARGE       X              Y              Z
 ------------------------------------------------------------
 O           8.0   1.9628992461   1.6497329384   0.8762788216
 C           6.0   0.8486474108   0.7573049020   0.8372375448
 C           6.0   3.1656607743   1.1625261188   1.0355468322
 O           8.0   3.4384751506   0.0142185227   1.1559552627
 H           1.0   0.7700131520   0.2085359991   1.7655400027
 H           1.0  -0.0158639640   1.3880486568   0.7032092657
 H           1.0   0.9422223968   0.0709866754   0.0069705059
 H           1.0   3.8971104635   1.9632120022   1.0432585084


                     --------------------
                     INTERNAL COORDINATES
                     --------------------

                 - - ATOMS - -         COORDINATE      COORDINATE
 NO.   TYPE    I  J  K  L  M  N        (BOHR,RAD)       (ANG,DEG)
 ----------------------------------------------------------------
   1 STRETCH   1  2                     2.6987439       1.4281139
   2 STRETCH   1  3                     2.4706836       1.3074296
   3 STRETCH   2  7                     2.0432931       1.0812642
   4 STRETCH   2  6                     2.0380861       1.0785088
   5 STRETCH   2  5                     2.0432440       1.0812382
   6 STRETCH   3  8                     2.0494390       1.0845165
   7 STRETCH   3  4                     2.2419639       1.1863963
   8 BEND      1  2  5                  1.9288286     110.5137401
   9 BEND      1  2  6                  1.8372909     105.2690160
  10 BEND      1  3  8                  1.9243148     110.2551152
  11 BEND      1  2  7                  1.9284914     110.4944159
  12 BEND      1  3  4                  2.1951680     125.7738611
  13 BEND      2  1  3                  2.0808553     119.2242249
  14 BEND      4  3  8                  2.1637025     123.9710236
  15 BEND      5  2  6                  1.9232709     110.1953036
  16 BEND      5  2  7                  1.9213279     110.0839811
  17 BEND      6  2  7                  1.9232046     110.1915084
  18 TORSION   2  1  3  8               3.1410387     179.9682599
  19 TORSION   2  1  3  4              -0.0004984      -0.0285545
  20 TORSION   3  1  2  7              -1.0685336     -61.2224647
  21 TORSION   3  1  2  6               3.1386345     179.8305131
  22 TORSION   3  1  2  5               1.0623637      60.8689588

          INTERNUCLEAR DISTANCES (ANGS.)


 =====================================================
   GAMESS/COSab RESULTS
 =====================================================

   Dielectric Constant                  = INFTY
   Basic Grid Size                      =                 1082
   Number of Segments                   =                   92
   Number of Segments located on spheres=                  183
   Number of Segments of the cavity     =                  335
   Solvent Radius (rsolv)               = 1.40
   Outlying Charge Error Method         = double cavity

 =====================================================

  Total solvated Energy (a.u.)          =  -227.8628226300
  Total Energy corrected (a.u.)         =  -227.8627074394

  Outlying charge effect (a.u.)         =     0.0001151906
  Outlying charge effect (kcal/mol)     =     0.0722832250

  Dielectric Energy (a.u.)              =    -0.0132607506
  Dielectric energy corr. (a.u.)        =    -0.0131455601

  Sum of polarization charges           =     0.0121447546
  Sum of polarization charges(cor.)     =    -0.0121447546

  Total surface area of cavity (A**2)   =   92.45
  Total volume of cavity (A**3)         =   75.49

 =====================================================
 NPS=                   335
NR.  ATOM  (X, Y, Z)(a.u.)                  CHARGE(e)  AREA(A**2) SIGMA(e/A**2)
   1   1   3.427190   5.213298  -0.812444   0.003592   0.274871   0.013067
   2   1   3.289631   6.245910   2.431647   0.004867   0.343589   0.014166
   3   1   2.462666   5.300434  -0.404514   0.003573   0.343589   0.010400
   4   1   1.898882   5.816468   1.604685   0.001787   0.171795   0.010403
   5   1   2.362976   6.060182   1.960480   0.003160   0.240512   0.013140
   6   1   3.292614   5.947184   0.111875   0.005379   0.377948   0.014232
   7   1   3.231821   6.305883   1.242326   0.005474   0.377948   0.014483
   8   1   2.877115   5.776751   3.329420   0.004594   0.343589   0.013371
   9   1   2.508883   5.025578   3.997477   0.003196   0.274871   0.011626
  10   1   3.183027   4.396517  -1.285482   0.003137   0.274871   0.011414
  11   1   4.362852   5.570492  -0.374003   0.004378   0.377948   0.011582
  12   1   4.596106   6.230346   1.358064   0.001533   0.171795   0.008925
  13   1   4.220452   6.306716   2.019988   0.003451   0.274871   0.012556
  14   1   4.159937   6.045049   2.994306   0.003151   0.274871   0.011465
  15   1   3.887369   5.595250   3.752077   0.002339   0.206154   0.011346
  16   1   3.581211   4.643448   4.522939   0.001171   0.137436   0.008520
  17   1   3.077213   4.170717   4.665212   0.001430   0.206154   0.006935
  18   1   4.000307   3.891640  -1.487447   0.000955   0.137436   0.006952
  19   1   4.192791   4.663264  -1.162175   0.002895   0.240512   0.012038
  20   1   2.212599   5.823782   0.655608   0.004138   0.343589   0.012043
  21   1   2.124020   5.681355   2.871734   0.002617   0.240512   0.010882
  22   1   4.321315   6.132477   0.606978   0.004019   0.309230   0.012997
  23   1   3.429144   5.130788   4.192243   0.003006   0.240512   0.012498
  24   1   3.746349   3.405910  -1.581382   0.000863   0.137436   0.006277
  25   2   1.677956   3.230807  -1.740469  -0.000669   0.418105  -0.001600
  26   2  -1.348985   0.837477  -0.701154  -0.000488   0.418105  -0.001168
  27   2   0.731850   3.439825   4.662582  -0.000427   0.278737  -0.001532
  28   2  -1.866736   1.026068   3.023049  -0.000828   0.464561  -0.001783
  29   2  -0.213303  -1.867985   1.267788  -0.000987   0.325193  -0.003035
  30   2   1.880231   2.111414  -2.125274  -0.000688   0.371649  -0.001852
  31   2   0.823024   3.968441  -1.107954  -0.000677   0.278737  -0.002429
  32   2   0.850545   4.450570  -0.562553  -0.000158   0.139368  -0.001135
  33   2   0.783705   2.632334  -1.906244  -0.000248   0.325193  -0.000763
  34   2  -0.348012   1.995299  -1.604812   0.000031   0.278737   0.000110
  35   2   0.237923  -2.005171   2.363804  -0.000792   0.325193  -0.002435
  36   2  -1.265944   0.652695   3.915261  -0.000543   0.278737  -0.001948
  37   2   0.617991   2.528287   5.061910  -0.000375   0.325193  -0.001152
  38   2  -0.990634   1.644321  -1.157956  -0.000011   0.232280  -0.000048
  39   2  -0.524874   0.717104  -1.458184  -0.000332   0.325193  -0.001021
  40   2   1.626849   3.015921   5.013184  -0.000448   0.232280  -0.001929
  41   2  -0.236841   2.808390   4.582089   0.000006   0.325193   0.000019
  42   2  -1.384345   1.937599   3.840289  -0.000078   0.371649  -0.000211
  43   2  -1.624687  -0.176530   2.712300  -0.001777   0.557473  -0.003187
  44   2  -0.923205  -1.355646   1.946906  -0.001896   0.464561  -0.004081
  45   2   1.178350  -2.324348   1.578815  -0.000275   0.325193  -0.000844
  46   2   2.078520  -2.306514   1.880707   0.000060   0.185824   0.000324
  47   2   0.887453   4.079344   4.181756  -0.000361   0.278737  -0.001295
  48   2  -0.047025   3.994049   3.816101  -0.000678   0.371649  -0.001825
  49   2  -2.074624   0.562907   1.601078  -0.001737   0.464561  -0.003738
  50   2  -1.859396   0.604492   0.314125  -0.000870   0.278737  -0.003123
  51   2  -1.157874  -0.348376  -0.286384  -0.001326   0.511017  -0.002595
  52   2  -0.758026  -1.309860   0.489604  -0.001755   0.418105  -0.004198
  53   2   0.532175  -2.162222   1.108669  -0.000405   0.185824  -0.002177
  54   2   2.776460   1.884945  -1.981973  -0.000533   0.185824  -0.002867
  55   2   0.238681   3.091665  -1.526461  -0.000334   0.278737  -0.001198
  56   2   0.481002   1.670091  -2.018779   0.000080   0.325193   0.000245
  57   2  -0.890772  -1.086841   2.894330  -0.001178   0.278737  -0.004226
  58   2  -0.687501   1.904837   4.550337  -0.000026   0.278737  -0.000093
  59   2   1.998293   2.366114   5.222789  -0.000572   0.185824  -0.003076
  60   2   1.604030  -2.239437   2.482973  -0.000337   0.232280  -0.001449
  61   2   0.640225   4.770419   3.067011  -0.000449   0.185824  -0.002414
  62   2  -0.798454   3.089578   3.982826  -0.000137   0.232280  -0.000592
  63   2  -1.628688  -0.460305   1.073741  -0.002209   0.511017  -0.004323
  64   2   2.231430  -2.268471   1.131058  -0.000201   0.139368  -0.001444
  65   3   5.024367   1.184177   5.469918  -0.000695   0.185824  -0.003739
  66   3   5.390015   4.619804   4.796416  -0.001960   0.325193  -0.006026
  67   3   8.410560   2.062581   4.849899  -0.001046   0.371649  -0.002815
  68   3   9.583466   1.635052   0.957052  -0.000263   0.232280  -0.001134
  69   3   7.354408   3.196796  -1.419702  -0.002879   0.371649  -0.007747
  70   3   7.779969   4.014559  -0.826672  -0.002965   0.371649  -0.007977
  71   3   9.643997   2.380311   1.039285  -0.001603   0.278737  -0.005750
  72   3   8.821064   2.981651   4.325308  -0.002539   0.418105  -0.006073
  73   3   6.492828   4.993164   4.447719  -0.002465   0.325193  -0.007582
  74   3   6.068272   5.803645   0.830911  -0.001021   0.185824  -0.005496
  75   3   5.928893   0.704157  -1.514880  -0.000991   0.232280  -0.004265
  76   3   5.933988   5.493701   3.804251  -0.001744   0.278737  -0.006258
  77   3   6.402651   4.154456   5.162410  -0.003227   0.418105  -0.007718
  78   3   7.708605   3.167775   5.175782  -0.002682   0.418105  -0.006414
  79   3   9.223285   2.024048   3.893377  -0.000595   0.278737  -0.002134
  80   3   9.744511   1.917450   2.183613  -0.000565   0.278737  -0.002028
  81   3   9.170603   1.794890  -0.032300  -0.001477   0.464561  -0.003179
  82   3   8.362532   2.639156  -0.945295  -0.002989   0.464561  -0.006434
  83   3   6.443042   4.268235  -1.170596  -0.003167   0.464561  -0.006817
  84   3   6.199250   5.093500  -0.461062  -0.001037   0.185824  -0.005579
  85   3   5.094762   3.581791   5.359638  -0.002778   0.371649  -0.007475
  86   3   4.915934   2.455630   5.573576  -0.003992   0.464561  -0.008592
  87   3   5.901960   1.668904   5.698440  -0.002034   0.418105  -0.004864
  88   3   7.328925   1.940895   5.478998  -0.002066   0.511017  -0.004044
  89   3   6.911754   0.966027  -1.493503  -0.001247   0.325193  -0.003833
  90   3   7.260720   2.043913  -1.596449  -0.003428   0.464561  -0.007378
  91   3   6.146839   3.194458  -1.684789  -0.003992   0.464561  -0.008594
  92   3   5.475263   2.552744  -1.771445  -0.002004   0.278737  -0.007188
  93   3   8.943662   3.015304  -0.244067  -0.001872   0.278737  -0.006716
  94   3   9.576796   2.240589   3.123696  -0.001159   0.232280  -0.004988
  95   3   7.549021   4.076549   4.837204  -0.002539   0.325193  -0.007808
  96   3   5.946336   5.862133   2.878127  -0.000564   0.092912  -0.006073
  97   3   6.757750   5.117894  -0.312524  -0.001841   0.232280  -0.007928
  98   3   5.874614   1.676556  -1.785017  -0.003363   0.418105  -0.008044
  99   3   6.339641   2.935185   5.646263  -0.004540   0.557473  -0.008143
 100   3   8.295771   1.314630  -0.898521  -0.001264   0.464561  -0.002722
 101   4   7.152466  -3.138833   2.522572   0.004905   0.377948   0.012979
 102   4   5.573565  -2.311938   0.125210   0.002358   0.137436   0.017155
 103   4   6.652608  -1.188458   5.195036   0.004200   0.343589   0.012223
 104   4   9.433490  -0.775033   3.325988   0.005783   0.343589   0.016830
 105   4   8.565043  -1.169938  -0.019786   0.004163   0.309230   0.013461
 106   4   6.585708  -3.139992   1.457890   0.005530   0.412307   0.013412
 107   4   5.929138  -2.780190   0.647662   0.003846   0.274871   0.013992
 108   4   6.083352  -3.149042   2.738055   0.004722   0.343589   0.013744
 109   4   5.150414  -2.792832   3.078068   0.005678   0.343589   0.016525
 110   4   7.055416  -2.803286   3.682407   0.005347   0.412307   0.012969
 111   4   7.094767  -2.068731   4.596229   0.004801   0.377948   0.012703
 112   4   8.161162  -2.662050   2.937746   0.005198   0.377948   0.013754
 113   4   8.966469  -1.874699   3.108664   0.005292   0.343589   0.015401
 114   4   7.970577  -2.820325   1.646912   0.006411   0.481025   0.013327
 115   4   8.405850  -2.163704   0.726630   0.005637   0.412307   0.013672
 116   4   5.105936  -2.685585   1.057493   0.003355   0.171795   0.019531
 117   4   4.937085  -2.824153   2.208509   0.003228   0.206154   0.015657
 118   4   5.152077  -2.340046   3.959686   0.004334   0.274871   0.015766
 119   4   5.746334  -1.746696   4.802549   0.004943   0.343589   0.014385
 120   4   7.862123  -1.061740   4.926363   0.005502   0.412307   0.013344
 121   4   8.823071  -0.970057   4.224971   0.006278   0.412307   0.015226
 122   4   9.593733  -0.959991   2.260151   0.006341   0.377948   0.016779
 123   4   9.273069  -1.153775   0.972669   0.006344   0.412307   0.015387
 124   4   7.686368  -1.677433  -0.314993   0.005601   0.446666   0.012539
 125   4   6.504906  -2.106320  -0.267915   0.004441   0.343589   0.012926
 126   4   5.950594  -0.386360   5.361630   0.003005   0.274871   0.010932
 127   4   7.200487  -0.160419   5.352373   0.003963   0.377948   0.010485
 128   4   9.219208   0.209140   3.952264   0.004627   0.343589   0.013467
 129   4   9.709207   0.203986   2.653402   0.005581   0.377948   0.014768
 130   4   9.036296  -0.261632   0.175153   0.004448   0.343589   0.012945
 131   4   8.032201  -0.503483  -0.631377   0.002897   0.274871   0.010538
 132   4   5.900724  -1.534188  -0.603252   0.002715   0.206154   0.013168
 133   4   5.491731  -3.022618   1.681309   0.003749   0.240512   0.015586
 134   4   6.060286  -2.597813   4.051072   0.004581   0.343589   0.013333
 135   4   8.206880  -2.033770   4.027633   0.005748   0.412307   0.013942
 136   4   9.033750  -1.989831   1.926892   0.006867   0.446666   0.015373
 137   4   7.170827  -2.638628   0.450452   0.005313   0.412307   0.012886
 138   4   5.420652  -0.889935   5.110868   0.002163   0.171795   0.012592
 139   4   8.420127   0.057157   4.805183   0.004551   0.343589   0.013246
 140   4   9.640490  -0.079438   1.361878   0.005986   0.377948   0.015839
 141   4   6.774407  -0.953392  -0.902166   0.004612   0.412307   0.011186
 142   5   0.971979  -0.832517   5.409340  -0.004055   0.471065  -0.008607
 143   5   1.982262  -1.848024   4.190879  -0.002296   0.314043  -0.007310
 144   5   0.402757  -1.732528   3.972909  -0.002218   0.353299  -0.006278
 145   5  -0.361878   0.066238   4.956931  -0.002078   0.372926  -0.005571
 146   5   1.248667   1.149302   5.664935  -0.001945   0.372926  -0.005214
 147   5   2.138150  -0.945760   5.278906  -0.003816   0.431809  -0.008838
 148   5   1.219698  -1.828431   4.356240  -0.002495   0.353299  -0.007063
 149   5  -0.107861  -1.007292   4.612458  -0.003402   0.471065  -0.007223
 150   5   0.419299   0.407966   5.563943  -0.003271   0.471065  -0.006943
 151   5   1.988849   0.293636   5.732246  -0.004032   0.510320  -0.007901
 152   6  -2.005083   4.058966   1.060306  -0.005600   0.608459  -0.009203
 153   6  -1.634609   2.979808  -0.496771  -0.002294   0.392554  -0.005844
 154   6  -0.433881   4.642420  -0.010552  -0.002287   0.353299  -0.006472
 155   6  -0.610729   4.894049   2.063919  -0.002294   0.353299  -0.006493
 156   6  -1.889226   3.275938   2.795826  -0.002220   0.372926  -0.005953
 157   6  -2.438099   2.164389   1.168692  -0.002522   0.412182  -0.006118
 158   6  -1.207455   4.011978  -0.320215  -0.003535   0.490692  -0.007204
 159   6  -0.810115   4.928833   0.997557  -0.004229   0.510320  -0.008288
 160   6  -1.439824   4.280205   2.469561  -0.003645   0.510320  -0.007142
 161   6  -2.388865   2.909315   1.952364  -0.003558   0.471065  -0.007553
 162   6  -2.252479   2.794971   0.296397  -0.003689   0.471065  -0.007832
 163   7   1.470361  -1.500327  -1.794430  -0.003659   0.431809  -0.008475
 164   7   2.814760   0.093982  -2.214809  -0.003013   0.392554  -0.007674
 165   7   1.538991   0.413141  -2.415597  -0.001911   0.372926  -0.005125
 166   7   0.227457  -1.133987  -1.406296  -0.002401   0.372926  -0.006438
 167   7   1.719231  -2.315549  -0.161135  -0.002211   0.353299  -0.006258
 168   7   1.956604  -0.600568  -2.324417  -0.002897   0.372926  -0.007768
 169   7   0.600617  -0.334244  -2.090040  -0.002712   0.431809  -0.006280
 170   7   0.758354  -1.953447  -0.781955  -0.003184   0.471065  -0.006758
 171   7   2.406900  -2.082861  -0.839886  -0.003759   0.451437  -0.008327
 172   7   2.782896  -1.258546  -1.744906  -0.003898   0.431809  -0.009028
 173   8   9.051802   5.493643   2.051182  -0.007462   0.608459  -0.012264
 174   8   9.485645   4.063990   0.783915  -0.003913   0.392554  -0.009967
 175   8   9.630148   3.876304   2.906405  -0.003569   0.372926  -0.009569
 176   8   8.253647   5.186566   3.721910  -0.003774   0.353299  -0.010681
 177   8   7.189016   6.158100   2.075335  -0.003742   0.372926  -0.010033
 178   8   7.987737   5.434502   0.336711  -0.003994   0.412182  -0.009691
 179   8   9.776385   4.163874   1.863523  -0.005333   0.490692  -0.010869
 180   8   9.127444   4.740677   3.336968  -0.005151   0.490692  -0.010498
 181   8   7.859770   5.899256   2.969792  -0.005414   0.510320  -0.010609
 182   8   7.833298   6.018734   1.275266  -0.005592   0.510320  -0.010958
 183   8   8.971518   4.986368   0.621233  -0.005166   0.490692  -0.010529
 184   1   3.978638   2.595691  -1.557898   0.000052   0.051269   0.001008
 185   2   3.615762   2.293269  -1.624612  -0.000107   0.051269  -0.002093
 186   3   4.379353   2.427058  -1.562830  -0.000218   0.051269  -0.004253
 187   1   3.334560   3.117304   4.901374   0.000082   0.051269   0.001599
 188   2   2.960903   2.823614   4.942784  -0.000120   0.051269  -0.002346
 189   3   3.723797   2.957968   5.011560  -0.000164   0.051269  -0.003191
 190   1   1.155201   5.245502   2.159821   0.000098   0.017113   0.005741
 191   2   0.716151   5.061471   2.171824  -0.000084   0.017113  -0.004911
 192   6   0.442238   5.018260   2.060334  -0.000133   0.017113  -0.007764
 193   1   1.332547   5.103373   0.347065   0.000079   0.017113   0.004616
 194   2   0.901304   4.913085   0.279267  -0.000105   0.017113  -0.006118
 195   6   0.610423   4.883472   0.341212  -0.000145   0.017113  -0.008472
 196   2   2.347387   3.121904   4.900787  -0.000169   0.174644  -0.000969
 197   2   1.485085   4.237534   4.009429   0.000079   0.343268   0.000229
 198   2   0.913344   5.011008   2.646505  -0.000026   0.174644  -0.000151
 199   1   2.570005   3.939748   4.493425   0.001739   0.329289   0.005282
 200   1   1.710292   5.072272   3.141976   0.002218   0.329289   0.006737
 201   2   1.186357   4.791875  -0.136463  -0.000155   0.175461  -0.000885
 202   2   2.003060   3.819997  -1.229817   0.000116   0.344855   0.000336
 203   2   3.009466   2.586251  -1.751342  -0.000187   0.175461  -0.001064
 204   1   2.066336   4.785894  -0.473662   0.001989   0.330953   0.006009
 205   1   3.159270   3.463646  -1.441765   0.001789   0.330953   0.005404
 206   3   4.885415   2.903487  -1.599633  -0.000506   0.160119  -0.003160
 207   3   5.398933   4.374014  -0.979224  -0.000547   0.313563  -0.001743
 208   3   5.698563   5.634940   0.615195  -0.001081   0.313563  -0.003448
 209   3   5.495345   5.799519   2.653209  -0.001292   0.313563  -0.004119
 210   3   4.868779   4.803365   4.337541  -0.000607   0.313563  -0.001936
 211   3   4.220285   3.442150   5.070758  -0.000538   0.160119  -0.003358
 212   1   4.505303   3.677149  -1.357944   0.001359   0.313608   0.004332
 213   1   5.004506   5.261045  -0.282641   0.001496   0.313608   0.004771
 214   1   5.053373   5.983575   1.558491   0.001227   0.313608   0.003912
 215   1   4.632789   5.562084   3.445197   0.001686   0.313608   0.005378
 216   1   3.907287   4.161459   4.639392   0.001332   0.313608   0.004248
 217   6   0.307686   5.106995   1.687965  -0.001071   0.200475  -0.005345
 218   6   0.408015   5.026588   0.662437  -0.001058   0.200475  -0.005278
 219   1   1.388699   5.398859   1.250016   0.001640   0.481994   0.003403
 220   2   2.837820   1.840091   5.163513  -0.000452   0.057260  -0.007902
 221   3   3.604549   1.963141   5.151851  -0.000601   0.057260  -0.010494
 222   5   2.728943   1.569844   5.241223  -0.000610   0.057260  -0.010648
 223   2   3.520222   1.298237  -1.707986  -0.000487   0.057123  -0.008525
 224   3   4.271625   1.433434  -1.565665  -0.000643   0.057123  -0.011258
 225   7   3.423421   1.017991  -1.762937  -0.000471   0.057123  -0.008247
 226   3   3.921070   2.614421   5.237756  -0.000770   0.193127  -0.003988
 227   2   2.855332   2.278861   5.174003  -0.000560   0.193127  -0.002899
 228   3   4.636305   1.915262  -1.690101  -0.000984   0.189751  -0.005188
 229   2   3.522229   1.869921  -1.782103  -0.000494   0.189751  -0.002603
 230   2   2.800233  -1.927670   2.987791   0.000155   0.078370   0.001978
 231   4   3.728422  -2.010675   3.040895   0.001348   0.078370   0.017202
 232   5   2.702689  -1.867764   3.268155  -0.000216   0.078370  -0.002760
 233   2   3.002727  -2.083800   0.969900   0.000116   0.078192   0.001481
 234   4   3.921595  -2.159286   1.115497   0.001581   0.078192   0.020221
 235   7   2.961481  -2.069048   0.670261  -0.000217   0.078192  -0.002774
 236   4   4.236021  -2.391694   2.321353   0.008242   0.513296   0.016056
 237   2   2.960405  -2.189066   1.825681   0.001897   0.570636   0.003324
 238   5   2.080727   1.502605   5.435743  -0.000606   0.069937  -0.008663
 239   5   0.949393   1.558058   5.372690  -0.001056   0.156202  -0.006761
 240   5  -0.223540   0.996615   4.941441  -0.000938   0.156202  -0.006003
 241   5  -0.706577  -0.088680   4.258963  -0.001311   0.156202  -0.008391
 242   5  -0.290367  -1.227450   3.621047  -0.001376   0.156202  -0.008809
 243   5   0.844702  -1.926144   3.304171  -0.001179   0.156202  -0.007546
 244   5   1.975327  -2.005204   3.353210  -0.000452   0.069937  -0.006470
 245   2   1.699670   1.939180   5.275744  -0.001092   0.152392  -0.007163
 246   2   0.196543   1.727632   5.023362  -0.000833   0.152392  -0.005463
 247   2  -0.788314   0.748265   4.360993  -0.000928   0.152392  -0.006088
 248   2  -0.828059  -0.574456   3.575712  -0.001221   0.152392  -0.008011
 249   2   0.094536  -1.667255   3.007867  -0.001233   0.152392  -0.008089
 250   2   1.579610  -2.056503   2.903566  -0.000837   0.152392  -0.005494
 251   6   0.200620   4.727120   0.081051  -0.000437   0.066519  -0.006576
 252   6  -0.210784   4.012763  -0.627145  -0.001038   0.147256  -0.007047
 253   6  -0.947577   2.951046  -0.871230  -0.001006   0.147256  -0.006835
 254   6  -1.702235   2.038205  -0.299482  -0.001121   0.147256  -0.007609
 255   6  -2.174555   1.637366   0.860658  -0.001172   0.147256  -0.007956
 256   6  -2.176649   1.907982   2.147688  -0.001173   0.147256  -0.007965
 257   6  -1.707684   2.742403   3.049628  -0.001041   0.147256  -0.007071
 258   6  -0.954214   3.808697   3.207688  -0.000969   0.147256  -0.006582
 259   6  -0.215968   4.682694   2.558992  -0.001174   0.147256  -0.007969
 260   2   0.448971   4.413331  -0.348639  -0.001057   0.146162  -0.007231
 261   2  -0.239280   3.318194  -1.063103  -0.000898   0.146162  -0.006141
 262   2  -1.122188   2.149296  -0.869134  -0.000903   0.146162  -0.006176
 263   2  -1.848534   1.371624   0.156109  -0.001130   0.146162  -0.007734
 264   2  -2.129378   1.294534   1.604784  -0.001203   0.146162  -0.008228
 265   2  -1.853000   1.948694   2.900609  -0.000963   0.146162  -0.006587
 266   2  -1.129343   3.073879   3.528108  -0.000841   0.146162  -0.005752
 267   2  -0.246277   4.222491   3.237662  -0.000963   0.146162  -0.006591
 268   2   0.366328   4.896201   2.456801  -0.000464   0.081267  -0.005713
 269   7   2.262297  -2.230075   0.466494  -0.000392   0.070060  -0.005593
 270   7   1.142722  -2.162667   0.284591  -0.001266   0.156534  -0.008087
 271   7   0.098664  -1.537833  -0.349584  -0.001394   0.156534  -0.008905
 272   7  -0.169106  -0.515586  -1.224777  -0.001260   0.156534  -0.008049
 273   7   0.455846   0.459561  -1.960422  -0.001078   0.156534  -0.006888
 274   7   1.701769   0.963579  -2.236633  -0.001077   0.156534  -0.006879
 275   7   2.824299   0.912697  -2.068056  -0.000541   0.070060  -0.007721
 276   2   1.786226  -2.217954   0.834210  -0.000862   0.152606  -0.005647
 277   2   0.352413  -1.872614   0.387145  -0.001260   0.152606  -0.008258
 278   2  -0.427919  -0.892860  -0.510692  -0.001261   0.152606  -0.008266
 279   2  -0.215452   0.295276  -1.468888  -0.000923   0.152606  -0.006048
 280   2   0.897425   1.175148  -2.070783  -0.000884   0.152606  -0.005793
 281   2   2.426792   1.364154  -2.054652  -0.001094   0.152606  -0.007171
 282   3   4.572478   0.468508   5.094623  -0.000148   0.110991  -0.001330
 283   4   4.701541   0.099749   5.032795   0.000680   0.110991   0.006129
 284   5   3.645775   0.204695   5.053257  -0.000503   0.110991  -0.004535
 285   3   5.187608  -0.031425  -1.079977  -0.000066   0.111090  -0.000594
 286   4   5.296135  -0.383396  -0.935746   0.000711   0.111090   0.006399
 287   7   4.265388  -0.297731  -1.181304  -0.000572   0.111090  -0.005151
 288   4   6.172465  -0.388056  -1.021815   0.000973   0.134688   0.007221
 289   4   7.711316   0.007867  -0.732628   0.002433   0.283972   0.008568
 290   4   9.148439   0.481297   0.526187   0.003092   0.283972   0.010889
 291   4   9.556985   0.777848   2.428612   0.003287   0.283972   0.011577
 292   4   8.778401   0.782431   4.236334   0.002673   0.283972   0.009413
 293   4   7.114849   0.493268   5.247794   0.002239   0.283972   0.007885
 294   4   5.543062   0.124147   5.288830   0.000918   0.134688   0.006817
 295   3   6.655757   0.280222  -1.128448   0.000676   0.280105   0.002415
 296   3   8.483750   0.793908  -0.371320   0.001185   0.280105   0.004232
 297   3   9.492354   1.214680   1.356205   0.001384   0.280105   0.004940
 298   3   9.290139   1.379240   3.383691   0.001519   0.280105   0.005423
 299   3   7.955583   1.223726   4.924292   0.001220   0.280105   0.004355
 300   3   6.006615   0.808489   5.380114   0.000733   0.280105   0.002615
 301   5   2.938394   0.684282   5.345317  -0.002673   0.366084  -0.007302
 302   3   4.166564   1.446010   5.346482  -0.002431   0.517417  -0.004699
 303   7   3.543274   0.385592  -1.759591  -0.002731   0.369977  -0.007382
 304   3   4.939074   0.652715  -1.488142  -0.002328   0.522939  -0.004451
 305   8   8.141974   4.586016   4.132817  -0.000815   0.066031  -0.012336
 306   8   8.898684   3.897764   3.819432  -0.001792   0.145421  -0.012325
 307   8   9.559657   3.303032   2.876794  -0.001817   0.145421  -0.012492
 308   8   9.687818   3.198336   1.591582  -0.001775   0.145421  -0.012208
 309   8   9.234214   3.623667   0.454703  -0.001878   0.145421  -0.012912
 310   8   8.372107   4.416563  -0.099594  -0.001886   0.145421  -0.012969
 311   8   7.430791   5.274164   0.140414  -0.001780   0.145421  -0.012238
 312   8   6.769819   5.868895   1.083052  -0.001773   0.145421  -0.012191
 313   8   6.641658   5.973591   2.368264  -0.002028   0.145421  -0.013946
 314   8   7.095261   5.548260   3.505143  -0.001961   0.145421  -0.013484
 315   8   7.764686   4.931311   4.067066  -0.000845   0.066031  -0.012795
 316   3   8.250771   4.033117   4.292787  -0.001850   0.145871  -0.012685
 317   3   9.197352   3.175125   3.594117  -0.001695   0.145871  -0.011617
 318   3   9.663547   2.761926   2.277973  -0.001809   0.145871  -0.012398
 319   3   9.471286   2.951347   0.847078  -0.001695   0.145871  -0.011618
 320   3   8.694006   3.671037  -0.152016  -0.001745   0.145871  -0.011966
 321   3   7.628601   4.646098  -0.337688  -0.001842   0.145871  -0.012626
 322   3   6.682019   5.504090   0.360982  -0.001753   0.145871  -0.012015
 323   3   6.215824   5.917289   1.677126  -0.001914   0.145871  -0.013122
 324   3   6.408085   5.727868   3.108021  -0.001872   0.145871  -0.012833
 325   3   7.185366   5.008178   4.107115  -0.001989   0.145871  -0.013632
 326   5   2.703643  -1.899129   3.717692  -0.000230   0.234481  -0.000980
 327   5   2.963014  -1.242498   4.643774  -0.001628   0.470887  -0.003458
 328   5   3.169227  -0.259544   5.233132  -0.000862   0.234481  -0.003676
 329   4   4.287965  -1.980581   3.858992   0.006831   0.582498   0.011727
 330   4   4.607074  -0.856817   4.897668   0.005134   0.582498   0.008813
 331   7   3.825534  -0.789633  -1.377154  -0.001055   0.232974  -0.004529
 332   7   3.493021  -1.663909  -0.697944  -0.001575   0.467807  -0.003367
 333   7   3.048925  -2.169605   0.241896  -0.000205   0.232974  -0.000878
 334   4   5.162094  -1.302891  -0.675348   0.004904   0.578927   0.008470
 335   4   4.629747  -2.248830   0.434474   0.006893   0.578927   0.011906
 =====================================================

              1233512  WORDS OF DYNAMIC MEMORY USED
 EXECUTION OF GAMESS TERMINATED NORMALLY Thu Nov 24 19:26:57 2016
 DDI: 263640 bytes (0.3 MB / 0 MWords) used by master data server.

 ----------------------------------------
 CPU timing information for all processes
 ========================================
 0: 70.168 + 0.76 = 70.244
 ----------------------------------------
 ddikick.x: exited gracefully.
