----- GAMESS execution script -----

          ******************************************************
          *         GAMESS VERSION =  5 DEC 2014 (R1)          *
          *             FROM IOWA STATE UNIVERSITY             *
          * M.W.SCHMIDT, K.K.BALDRIDGE, J.A.BOATZ, S.T.ELBERT, *
          *   M.S.GORDON, J.H.JENSEN, S.KOSEKI, N.MATSUNAGA,   *
          *          K.A.NGUYEN, S.J.SU, T.L.WINDUS,           *
          *       TOGETHER WITH M.DUPUIS, J.A.MONTGOMERY       *
          *         J.COMPUT.CHEM.  14, 1347-1363(1993)        *
          **************** 64 BIT LINUX VERSION ****************

 EXECUTION OF GAMESS BEGUN Thu Nov 24 16:44:39 2016

            ECHO OF THE FIRST FEW INPUT CARDS -
 INPUT CARD>! SELECT RESTRICTED HARTREE-FOCK AS DEFAULT                                     
 INPUT CARD>$contrl scftyp=rhf $end                                                         
 INPUT CARD>                                                                                
 INPUT CARD>! THEORY: HF OR DFT                                                             
 INPUT CARD> $contrl mplevl=0 $end                                                          
 INPUT CARD>                                                                                
 INPUT CARD> $system timlim=10000 mwords=20 $end                                            
 INPUT CARD> $SCF DIRSCF=.TRUE. $end                                                        
 INPUT CARD>                                                                                
 INPUT CARD>                                                                                
 INPUT CARD>! BASIS SETS                                                                    
 INPUT CARD>! 6-311G(d,p)                                                                   
 INPUT CARD> $BASIS GBASIS=N311 NGAUSS=6 NDFUNC=1 NPFUNC=1 $END                             
 INPUT CARD>                                                                                
 INPUT CARD>! One of the following                                                          
 INPUT CARD> $guess guess=HUCKEL $end                                                       
 INPUT CARD>                                                                                
 INPUT CARD> $statpt projct=.FALSE. $end                                                    
 INPUT CARD> $STATPT IFREEZ(1)=1,2,3 $END                                                   
 INPUT CARD>                                                                                
 INPUT CARD>! Optimize the geometry with COSMO effects                                      
 INPUT CARD> $statpt opttol=0.0005 nstep=50 $end                                            
 INPUT CARD> $contrl nzvar=1 $end                                                           
 INPUT CARD> $zmat dlc=.t. auto=.t. $end                                                    
 INPUT CARD> $contrl runtyp=OPTIMIZE maxit=200 $end                                         
 INPUT CARD>                                                                                
 INPUT CARD>! Run COSMO on perfect conductor                                                
 INPUT CARD> $COSGMS PRFCND=.TRUE. $end                                                     
 INPUT CARD>                                                                                
 INPUT CARD>! Specifying RSOLV                                                              
 INPUT CARD> $COSGMS COSRAD = 1.4 $end                                                      
 INPUT CARD>                                                                                
 INPUT CARD>! available memory                                                              
 INPUT CARD> $SYSTEM MWORDS=40 $END                                                         
 INPUT CARD>                                                                                
 INPUT CARD> $DATA                                                                          
 INPUT CARD>file:/home/renata/glycerol/METHYLLINOLEATE.mol                                  
 INPUT CARD>C1                                                                              
 INPUT CARD>C      6.0     -0.4917600000   -0.4202500000   -0.3614300000                    
 INPUT CARD>O      8.0     -0.6608300000    0.6269100000   -0.9736600000                    
 INPUT CARD>O      8.0     -1.4847900000   -1.2652800000    0.0245200000                    
 INPUT CARD>C      6.0      0.8571200000   -0.8861400000    0.1305000000                    
 INPUT CARD>C      6.0     -2.7884000000   -0.8539000000   -0.3896900000                    
 INPUT CARD>H      1.0     -3.5005200000   -1.6253400000   -0.0844300000                    
 INPUT CARD>H      1.0     -2.8345500000   -0.7533600000   -1.4789000000                    
 INPUT CARD>H      1.0     -3.0636900000    0.0862000000    0.0986100000                    
 INPUT CARD>H      1.0      0.9606700000   -0.5915800000    1.1804100000                    
 INPUT CARD>H      1.0      1.6138600000   -0.3405600000   -0.4462600000                    
 INPUT CARD>C      6.0      1.0815000000   -2.3889100000   -0.0366000000                    
 INPUT CARD>H      1.0      0.7885700000   -2.6997200000   -1.0470800000                    
   40000000 WORDS OF MEMORY AVAILABLE

     BASIS OPTIONS
     -------------
     GBASIS=N311         IGAUSS=       6      POLAR=POPN311 
     NDFUNC=       1     NFFUNC=       0     DIFFSP=       F
     NPFUNC=       1      DIFFS=       F     BASNAM=        


     RUN TITLE
     ---------
 file:/home/renata/glycerol/METHYLLINOLEATE.mol                                  

 THE POINT GROUP OF THE MOLECULE IS C1      
 THE ORDER OF THE PRINCIPAL AXIS IS     0

 ATOM      ATOMIC                      COORDINATES (BOHR)
           CHARGE         X                   Y                   Z
 C           6.0    -0.9292916517       -0.7941573463       -0.6830036637
 O           8.0    -1.2487876245        1.1846881190       -1.8399506052
 O           8.0    -2.8058462493       -2.3910324977        0.0463360812
 C           6.0     1.6197219386       -1.6745617868        0.2466092414
 C           6.0    -5.2693119442       -1.6136370209       -0.7364073202
 H           1.0    -6.6150236145       -3.0714472369       -0.1595495651
 H           1.0    -5.3565227985       -1.4236439701       -2.7947157632
 H           1.0    -5.7895346113        0.1628943801        0.1863458796
 H           1.0     1.8154030646       -1.1179240998        2.2306514532
 H           1.0     3.0497531825       -0.6435650824       -0.8433091193
 C           6.0     2.0437386557       -4.5143853093       -0.0691639712
 H           1.0     1.4901812221       -5.1017310436       -1.9786942872
 H           1.0     0.8338415921       -5.5560022738        1.2529450216
 C           6.0     4.8124139949       -5.1989952402        0.3955574437
 H           1.0     5.3818640240       -4.5547498564        2.2818819247
 H           1.0     5.9998233192       -4.1926216654       -0.9739647741
 C           6.0     5.2847888000       -8.0433918996        0.1725130854
 H           1.0     4.5694519246       -8.7338977755       -1.6458946435
 H           1.0     4.2450804588       -9.0417908307        1.6613526021
 C           6.0     8.1102693023       -8.6224795313        0.3793813893
 H           1.0     8.8470923622       -7.8635088828        2.1621677834
 H           1.0     9.1149988155       -7.6547319557       -1.1540556607
 C           6.0     8.6595748524      -11.4584291156        0.2523351111
 H           1.0     7.7673407273      -12.2683089821       -1.4354736548
 H           1.0     7.8190247331      -12.4006653903        1.8967935629
 C           6.0    11.5163114226      -11.9458083451        0.1708501265
 H           1.0    12.4051818354      -10.9686688314        1.7609978534
 H           1.0    12.2927242419      -11.1284451636       -1.5679434465
 C           6.0    12.1135593210      -14.7209465471        0.1950953110
 C           6.0    13.9746748573      -15.8846209131        1.4747988526
 C           6.0    15.9438260283      -14.7201717594        3.1653288240
 H           1.0    15.7580092719      -15.5584164131        5.0511241816
 H           1.0    15.6356873087      -12.6958405896        3.4033776066
 C           6.0    18.5608319596      -15.2682300904        2.1984127278
 H           1.0    10.9101629148      -15.8981702484       -0.9915203285
 H           1.0    14.1129083133      -17.9294178153        1.2692722542
 C           6.0    20.3735138188      -13.6137371936        1.5417329471
 C           6.0    20.2527225337      -10.7781466573        1.6590471364
 H           1.0    18.7202492439      -10.1370193214        2.8899579530
 H           1.0    19.8617004323      -10.0613168983       -0.2451163579
 C           6.0    22.7489938717       -9.6512841535        2.6060266234
 H           1.0    24.2841883669      -10.1766468754        1.3137753012
 H           1.0    23.2240898823      -10.4408683630        4.4637973446
 C           6.0    22.5926568407       -6.7693386387        2.7941299482
 H           1.0    19.0081867927      -17.2693554251        2.0008607731
 H           1.0    22.1354943298      -14.3946664581        0.8145663870
 H           1.0    21.1381725425       -6.2476797798        4.1756330288
 H           1.0    22.0097708598       -5.9823622511        0.9673318359
 C           6.0    25.1255132739       -5.6176262382        3.5706939456
 H           1.0    26.5727221270       -6.0935537282        2.1665519477
 H           1.0    25.7414127678       -6.4143914064        5.3807868802
 C           6.0    24.9500900104       -2.7590188393        3.8078923516
 H           1.0    23.5801898474       -2.2198611178        5.2614884786
 H           1.0    24.3694905979       -1.8994013848        2.0180194850
 H           1.0    26.7876217664       -1.9680551299        4.3333873542

          INTERNUCLEAR DISTANCES (ANGS.)




     $CONTRL OPTIONS
     ---------------
 SCFTYP=RHF          RUNTYP=OPTIMIZE     EXETYP=RUN     
 MPLEVL=       0     CITYP =NONE         CCTYP =NONE         VBTYP =NONE    
 DFTTYP=NONE         TDDFT =NONE    
 MULT  =       1     ICHARG=       0     NZVAR =       1     COORD =UNIQUE  
 PP    =NONE         RELWFN=NONE         LOCAL =NONE         NUMGRD=       F
 ISPHER=      -1     NOSYM =       0     MAXIT =     200     UNITS =ANGS    
 PLTORB=       F     MOLPLT=       F     AIMPAC=       F     FRIEND=        
 NPRINT=       7     IREST =       0     GEOM  =INPUT   
 NORMF =       0     NORMP =       0     ITOL  =      20     ICUT  =       9
 INTTYP=BEST         GRDTYP=BEST         QMTTOL= 1.0E-06

     $SYSTEM OPTIONS
     ---------------
  REPLICATED MEMORY=    40000000 WORDS (ON EVERY NODE).
 DISTRIBUTED MEMDDI=           0 MILLION WORDS IN AGGREGATE,
 MEMDDI DISTRIBUTED OVER   1 PROCESSORS IS           0 WORDS/PROCESSOR.
 TOTAL MEMORY REQUESTED ON EACH PROCESSOR=    40000000 WORDS.
 TIMLIM=       10000.00 MINUTES, OR       6.9 DAYS.
 PARALL= F  BALTYP=  DLB     KDIAG=    0  COREFL= F
 MXSEQ2=     300 MXSEQ3=     150  mem10=         0

     $COSGMS OPTIONS
     ---------------
     EPSI  =   INFTY     NSPA  =      92     COSRAD=    1.40
     DISEX =   10.00     OUTCHG=DBLCAV       COSBUG=       F
     COSWRT=       F     DCOSMO=       F

     SYMMETRY COORDINATES WILL NOT BE USED FOR 
     THE COSMO CALCULATION, EVEN IF SPECIFIED:
         -- SWITCHING TO C1 POINT GROUP --


     DEFINITION OF CAVITY
     ---------------------------
     ATOM         COORDINATES           RADIUS 
     1   -0.9293   -0.7942   -0.6830    2.0000
     2   -1.2488    1.1847   -1.8400    1.7200
     3   -2.8058   -2.3910    0.0463    1.7200
     4    1.6197   -1.6746    0.2466    2.0000
     5   -5.2693   -1.6136   -0.7364    2.0000
     6   -6.6150   -3.0714   -0.1595    1.3000
     7   -5.3565   -1.4236   -2.7947    1.3000
     8   -5.7895    0.1629    0.1863    1.3000
     9    1.8154   -1.1179    2.2307    1.3000
    10    3.0498   -0.6436   -0.8433    1.3000
    11    2.0437   -4.5144   -0.0692    2.0000
    12    1.4902   -5.1017   -1.9787    1.3000
    13    0.8338   -5.5560    1.2529    1.3000
    14    4.8124   -5.1990    0.3956    2.0000
    15    5.3819   -4.5547    2.2819    1.3000
    16    5.9998   -4.1926   -0.9740    1.3000
    17    5.2848   -8.0434    0.1725    2.0000
    18    4.5695   -8.7339   -1.6459    1.3000
    19    4.2451   -9.0418    1.6614    1.3000
    20    8.1103   -8.6225    0.3794    2.0000
    21    8.8471   -7.8635    2.1622    1.3000
    22    9.1150   -7.6547   -1.1541    1.3000
    23    8.6596  -11.4584    0.2523    2.0000
    24    7.7673  -12.2683   -1.4355    1.3000
    25    7.8190  -12.4007    1.8968    1.3000
    26   11.5163  -11.9458    0.1709    2.0000
    27   12.4052  -10.9687    1.7610    1.3000
    28   12.2927  -11.1284   -1.5679    1.3000
    29   12.1136  -14.7209    0.1951    2.0000
    30   13.9747  -15.8846    1.4748    2.0000
    31   15.9438  -14.7202    3.1653    2.0000
    32   15.7580  -15.5584    5.0511    1.3000
    33   15.6357  -12.6958    3.4034    1.3000
    34   18.5608  -15.2682    2.1984    2.0000
    35   10.9102  -15.8982   -0.9915    1.3000
    36   14.1129  -17.9294    1.2693    1.3000
    37   20.3735  -13.6137    1.5417    2.0000
    38   20.2527  -10.7781    1.6590    2.0000
    39   18.7202  -10.1370    2.8900    1.3000
    40   19.8617  -10.0613   -0.2451    1.3000
    41   22.7490   -9.6513    2.6060    2.0000
    42   24.2842  -10.1766    1.3138    1.3000
    43   23.2241  -10.4409    4.4638    1.3000
    44   22.5927   -6.7693    2.7941    2.0000
    45   19.0082  -17.2694    2.0009    1.3000
    46   22.1355  -14.3947    0.8146    1.3000
    47   21.1382   -6.2477    4.1756    1.3000
    48   22.0098   -5.9824    0.9673    1.3000
    49   25.1255   -5.6176    3.5707    2.0000
    50   26.5727   -6.0936    2.1666    1.3000
    51   25.7414   -6.4144    5.3808    1.3000
    52   24.9501   -2.7590    3.8079    2.0000
    53   23.5802   -2.2199    5.2615    1.3000
    54   24.3695   -1.8994    2.0180    1.3000
    55   26.7876   -1.9681    4.3334    1.3000

          ----------------
          PROPERTIES INPUT
          ----------------

     MOMENTS            FIELD           POTENTIAL          DENSITY
 IEMOM =       1   IEFLD =       0   IEPOT =       0   IEDEN =       0
 WHERE =COMASS     WHERE =NUCLEI     WHERE =NUCLEI     WHERE =NUCLEI  
 OUTPUT=BOTH       OUTPUT=BOTH       OUTPUT=BOTH       OUTPUT=BOTH    
 IEMINT=       0   IEFINT=       0                     IEDINT=       0
                                                       MORB  =       0
          EXTRAPOLATION IN EFFECT
          SOSCF IN EFFECT
 ORBITAL PRINTING OPTION: NPREO=     1   603     2     1

     -------------------------------
     INTEGRAL TRANSFORMATION OPTIONS
     -------------------------------
     NWORD  =            0
     CUTOFF = 1.0E-09     MPTRAN =       0
     DIRTRF =       T     AOINTS =DUP     

          ----------------------
          INTEGRAL INPUT OPTIONS
          ----------------------
 NOPK  =       1 NORDER=       0 SCHWRZ=       T


 -----------------------------------------------
  STATISTICS ON AUTOMATIC COORDINATE GENERATION 
 -----------------------------------------------
  NUMBER OF USER SPECIFIED BONDS                             0
  NUMBER OF BONDS                                           54
  NUMBER OF ANGLES                                         100
  NUMBER OF TORSIONS                                       133
  NUMBER OF EXTRA COORD.                                     0
  NUMBER OF EXTRA COORD. FOR CONSTRAINTS                     0
  NUMBER OF CONSTRAINED COORD.                               0

  TOTAL NUMBER OF PRIMITIVES                               287
 -----------------------------------------------

   --- ENCODED Z MATRIX ---
 COORD  TYPE   I   J   K   L   M   N
    1      1    1   4
    2      1    1   2
    3      1    1   3
    4      1    3   5
    5      1    4  10
    6      1    4   9
    7      1    4  11
    8      1    5   8
    9      1    5   6
   10      1    5   7
   11      1   11  14
   12      1   11  13
   13      1   11  12
   14      1   14  16
   15      1   14  15
   16      1   14  17
   17      1   17  20
   18      1   17  19
   19      1   17  18
   20      1   20  22
   21      1   20  21
   22      1   20  23
   23      1   23  26
   24      1   23  25
   25      1   23  24
   26      1   26  29
   27      1   26  28
   28      1   26  27
   29      1   29  30
   30      1   29  35
   31      1   30  31
   32      1   30  36
   33      1   31  32
   34      1   31  34
   35      1   31  33
   36      1   34  45
   37      1   34  37
   38      1   37  46
   39      1   37  38
   40      1   38  41
   41      1   38  40
   42      1   38  39
   43      1   41  44
   44      1   41  43
   45      1   41  42
   46      1   44  49
   47      1   44  48
   48      1   44  47
   49      1   49  52
   50      1   49  51
   51      1   49  50
   52      1   52  55
   53      1   52  54
   54      1   52  53
   55      2    1   4  11
   56      2    1   4   9
   57      2    1   3   5
   58      2    1   4  10
   59      2    2   1   3
   60      2    2   1   4
   61      2    3   5   6
   62      2    3   5   7
   63      2    3   5   8
   64      2    3   1   4
   65      2    4  11  12
   66      2    4  11  14
   67      2    4  11  13
   68      2    6   5   7
   69      2    6   5   8
   70      2    7   5   8
   71      2    9   4  11
   72      2    9   4  10
   73      2   10   4  11
   74      2   11  14  17
   75      2   11  14  15
   76      2   11  14  16
   77      2   12  11  13
   78      2   12  11  14
   79      2   13  11  14
   80      2   14  17  19
   81      2   14  17  20
   82      2   14  17  18
   83      2   15  14  17
   84      2   15  14  16
   85      2   16  14  17
   86      2   17  20  23
   87      2   17  20  21
   88      2   17  20  22
   89      2   18  17  19
   90      2   18  17  20
   91      2   19  17  20
   92      2   20  23  25
   93      2   20  23  26
   94      2   20  23  24
   95      2   21  20  23
   96      2   21  20  22
   97      2   22  20  23
   98      2   23  26  27
   99      2   23  26  28
  100      2   23  26  29
  101      2   24  23  25
  102      2   24  23  26
  103      2   25  23  26
  104      2   26  29  35
  105      2   26  29  30
  106      2   27  26  28
  107      2   27  26  29
  108      2   28  26  29
  109      2   29  30  36
  110      2   29  30  31
  111      2   30  31  33
  112      2   30  31  34
  113      2   30  31  32
  114      2   30  29  35
  115      2   31  30  36
  116      2   31  34  37
  117      2   31  34  45
  118      2   32  31  33
  119      2   32  31  34
  120      2   33  31  34
  121      2   34  37  38
  122      2   34  37  46
  123      2   37  38  39
  124      2   37  38  40
  125      2   37  38  41
  126      2   37  34  45
  127      2   38  41  42
  128      2   38  41  43
  129      2   38  41  44
  130      2   38  37  46
  131      2   39  38  40
  132      2   39  38  41
  133      2   40  38  41
  134      2   41  44  47
  135      2   41  44  48
  136      2   41  44  49
  137      2   42  41  43
  138      2   42  41  44
  139      2   43  41  44
  140      2   44  49  50
  141      2   44  49  51
  142      2   44  49  52
  143      2   47  44  48
  144      2   47  44  49
  145      2   48  44  49
  146      2   49  52  53
  147      2   49  52  54
  148      2   49  52  55
  149      2   50  49  51
  150      2   50  49  52
  151      2   51  49  52
  152      2   53  52  54
  153      2   53  52  55
  154      2   54  52  55
  155      3    1   4  11  14
  156      3    1   3   5   7
  157      3    1   4  11  12
  158      3    1   3   5   6
  159      3    1   3   5   8
  160      3    1   4  11  13
  161      3    2   1   4  10
  162      3    2   1   4   9
  163      3    2   1   3   5
  164      3    2   1   4  11
  165      3    3   1   4   9
  166      3    3   1   4  10
  167      3    3   1   4  11
  168      3    4  11  14  17
  169      3    4  11  14  15
  170      3    4  11  14  16
  171      3    4   1   3   5
  172      3    9   4  11  14
  173      3    9   4  11  12
  174      3    9   4  11  13
  175      3   10   4  11  14
  176      3   10   4  11  12
  177      3   10   4  11  13
  178      3   11  14  17  18
  179      3   11  14  17  19
  180      3   11  14  17  20
  181      3   12  11  14  16
  182      3   12  11  14  15
  183      3   12  11  14  17
  184      3   13  11  14  16
  185      3   13  11  14  15
  186      3   13  11  14  17
  187      3   14  17  20  23
  188      3   14  17  20  21
  189      3   14  17  20  22
  190      3   15  14  17  18
  191      3   15  14  17  20
  192      3   15  14  17  19
  193      3   16  14  17  19
  194      3   16  14  17  18
  195      3   16  14  17  20
  196      3   17  20  23  24
  197      3   17  20  23  25
  198      3   17  20  23  26
  199      3   18  17  20  22
  200      3   18  17  20  21
  201      3   18  17  20  23
  202      3   19  17  20  22
  203      3   19  17  20  21
  204      3   19  17  20  23
  205      3   20  23  26  27
  206      3   20  23  26  28
  207      3   20  23  26  29
  208      3   21  20  23  24
  209      3   21  20  23  26
  210      3   21  20  23  25
  211      3   22  20  23  24
  212      3   22  20  23  26
  213      3   22  20  23  25
  214      3   23  26  29  35
  215      3   23  26  29  30
  216      3   24  23  26  29
  217      3   24  23  26  28
  218      3   24  23  26  27
  219      3   25  23  26  29
  220      3   25  23  26  28
  221      3   25  23  26  27
  222      3   26  29  30  36
  223      3   26  29  30  31
  224      3   27  26  29  30
  225      3   27  26  29  35
  226      3   28  26  29  30
  227      3   28  26  29  35
  228      3   29  30  31  33
  229      3   29  30  31  34
  230      3   29  30  31  32
  231      3   30  31  34  37
  232      3   30  31  34  45
  233      3   31  34  37  38
  234      3   31  34  37  46
  235      3   31  30  29  35
  236      3   32  31  34  45
  237      3   32  31  34  37
  238      3   32  31  30  36
  239      3   33  31  34  45
  240      3   33  31  34  37
  241      3   33  31  30  36
  242      3   34  37  38  39
  243      3   34  37  38  40
  244      3   34  37  38  41
  245      3   34  31  30  36
  246      3   35  29  30  36
  247      3   37  38  41  42
  248      3   37  38  41  43
  249      3   37  38  41  44
  250      3   38  41  44  47
  251      3   38  41  44  48
  252      3   38  41  44  49
  253      3   38  37  34  45
  254      3   39  38  41  44
  255      3   39  38  41  43
  256      3   39  38  41  42
  257      3   39  38  37  46
  258      3   40  38  41  44
  259      3   40  38  41  43
  260      3   40  38  41  42
  261      3   40  38  37  46
  262      3   41  44  49  50
  263      3   41  44  49  51
  264      3   41  44  49  52
  265      3   41  38  37  46
  266      3   42  41  44  49
  267      3   42  41  44  48
  268      3   42  41  44  47
  269      3   43  41  44  49
  270      3   43  41  44  48
  271      3   43  41  44  47
  272      3   44  49  52  53
  273      3   44  49  52  54
  274      3   44  49  52  55
  275      3   45  34  37  46
  276      3   47  44  49  52
  277      3   47  44  49  51
  278      3   47  44  49  50
  279      3   48  44  49  52
  280      3   48  44  49  51
  281      3   48  44  49  50
  282      3   50  49  52  53
  283      3   50  49  52  55
  284      3   50  49  52  54
  285      3   51  49  52  53
  286      3   51  49  52  55
  287      3   51  49  52  54

          INDEP./SYM. INTERNAL COORDINATES
          --------------------------------
 CRD  1=  -0.1307 ( 74)  0.1883 ( 81) -0.2130 ( 86)  0.2705 ( 93) -0.2811 (100)
          -0.1455 (104)  0.2905 (105) -0.1488 (109)  0.2981 (110) -0.1566 (112)
          -0.1444 (114) -0.1492 (115)  0.2601 (116) -0.1309 (117)  0.2073 (121)
          -0.1042 (122) -0.1831 (125) -0.1291 (126)  0.1289 (129) -0.1028 (130)
 CRD  2=   0.2298 ( 55) -0.1097 ( 57)  0.1174 ( 64) -0.2597 ( 66)  0.3155 ( 74)
          -0.2915 ( 81)  0.2696 ( 86) -0.1759 ( 93)  0.1415 (110)  0.2280 (116)
          -0.1122 (117)  0.2330 (121) -0.1133 (122) -0.1752 (125) -0.1158 (126)
           0.1735 (129) -0.1194 (130)
 CRD  3=  -0.1171 ( 57)  0.1315 ( 64)  0.1088 ( 75)  0.1048 ( 87) -0.1110 ( 90)
          -0.1150 ( 99) -0.1059 (102)  0.1069 (103) -0.1095 (105) -0.1520 (110)
          -0.2613 (112)  0.1423 (113) -0.1738 (155)  0.1253 (171) -0.1044 (172)
          -0.1114 (178) -0.1078 (179) -0.2233 (180) -0.1239 (191) -0.1173 (195)
          -0.1167 (196) -0.1173 (197) -0.2240 (198) -0.1190 (209) -0.1166 (212)
          -0.1658 (214) -0.1975 (215) -0.1621 (223) -0.1663 (231) -0.1942 (235)
          -0.1041 (237)  0.1114 (244)
 CRD  4=  -0.1296 (104)  0.2600 (105) -0.1036 (108) -0.1095 (109)  0.2212 (110)
          -0.1320 (114) -0.1120 (115) -0.2207 (116)  0.1174 (117) -0.2284 (121)
           0.1187 (122)  0.1033 (126)  0.1104 (130)  0.1106 (168) -0.1358 (180)
           0.1870 (187) -0.1658 (198)  0.1054 (206)  0.2269 (207) -0.1700 (215)
           0.1055 (216)  0.1128 (219)  0.1444 (222)  0.1014 (223)  0.1418 (229)
           0.1173 (233)  0.1439 (249)  0.1207 (253)
 CRD  5=   0.1113 ( 17)  0.1008 ( 23)  0.2845 ( 55) -0.1168 ( 57)  0.1754 ( 64)
          -0.1686 ( 66)  0.1994 ( 74)  0.2212 ( 93) -0.1557 (100)  0.1830 (105)
           0.1058 (110) -0.1424 (121)  0.2765 (125) -0.3126 (129)  0.2200 (136)
          -0.1430 (142)
 CRD  6=  -0.1065 ( 31) -0.1283 ( 34) -0.1175 ( 37)  0.2727 ( 55) -0.1025 ( 56)
           0.1279 ( 64) -0.1859 ( 66) -0.1995 ( 86)  0.1607 ( 93) -0.1577 (100)
          -0.1523 (110) -0.2146 (112) -0.2400 (116)  0.1157 (117)  0.1185 (119)
          -0.1361 (121) -0.1834 (125)  0.1239 (126)  0.1829 (129) -0.2463 (136)
           0.1184 (142) -0.1078 (171)  0.1415 (229) -0.1063 (231)
 CRD  7=  -0.1313 ( 55)  0.1832 ( 57)  0.1281 ( 59)  0.1097 ( 60) -0.2393 ( 64)
          -0.1372 ( 81)  0.1425 (110)  0.1148 (111) -0.3667 (112)  0.1063 (113)
           0.1422 (119)  0.1096 (128) -0.1275 (129) -0.1237 (133)  0.1227 (136)
           0.1342 (155) -0.1074 (168)  0.1300 (180) -0.1149 (187)  0.1198 (229)
           0.1508 (233)  0.1947 (234)  0.1055 (243)  0.1942 (244)  0.1218 (252)
           0.1509 (265)
 CRD  8=   0.1528 (  1)  0.1382 (  7)  0.2183 ( 11)  0.2223 ( 16)  0.1953 ( 17)
           0.2333 ( 22)  0.1533 ( 23)  0.1352 ( 26)  0.1318 ( 29)  0.1713 ( 55)
           0.1037 ( 64)  0.2245 ( 66) -0.1163 ( 80)  0.3224 ( 81)  0.1025 ( 86)
          -0.1145 ( 91)  0.3213 (100) -0.1170 (107) -0.1035 (108)  0.1182 (244)
 CRD  9=   0.1178 ( 16)  0.1148 ( 17)  0.1107 ( 22)  0.1378 ( 23) -0.1129 ( 37)
          -0.1139 ( 39) -0.1433 ( 40) -0.1324 ( 55)  0.1424 ( 57) -0.1211 ( 64)
           0.1133 ( 66)  0.1309 ( 74)  0.2265 ( 86) -0.1002 ( 88) -0.1278 ( 95)
          -0.1103 (116) -0.2061 (121)  0.1121 (122) -0.1228 (125)  0.1210 (133)
          -0.2467 (136)  0.1227 (145) -0.1066 (168) -0.1320 (187) -0.1070 (222)
          -0.1232 (223) -0.1281 (234) -0.1657 (244) -0.1313 (252) -0.1320 (265)
 CRD 10=  -0.2077 ( 57) -0.1138 ( 59)  0.2060 ( 64) -0.1353 ( 74) -0.1186 ( 80)
           0.1030 ( 81)  0.1128 ( 85) -0.1063 ( 93) -0.1414 (105)  0.1065 (124)
          -0.1077 (125) -0.1013 (134)  0.1694 (136) -0.1721 (142) -0.1425 (168)
          -0.1960 (187) -0.1113 (189) -0.1030 (204) -0.1539 (207)  0.1550 (231)
           0.1182 (232)  0.1224 (233) -0.1308 (244)  0.1939 (249) -0.1081 (252)
           0.1598 (253)  0.1197 (264)
 CRD 11=   0.1764 ( 55) -0.1405 ( 56)  0.2632 ( 57) -0.1557 ( 64) -0.1198 (110)
           0.1319 (116) -0.1082 (125)  0.1051 (133)  0.1361 (136) -0.1706 (142)
           0.1769 (155)  0.1099 (157) -0.1109 (163)  0.1059 (166) -0.2379 (171)
          -0.1426 (198)  0.1038 (207) -0.1253 (214) -0.1785 (215) -0.1137 (235)
          -0.1750 (244) -0.1022 (250) -0.1698 (252) -0.1298 (265)
 CRD 12=   0.1039 ( 11)  0.1089 ( 16) -0.1231 ( 34) -0.1948 ( 37) -0.1905 ( 39)
          -0.2060 ( 40) -0.2454 ( 43) -0.1776 ( 46) -0.1317 ( 49) -0.1057 ( 65)
           0.1785 ( 66)  0.1573 ( 86) -0.1061 ( 97) -0.1690 (112)  0.1303 (123)
          -0.2897 (125) -0.1763 (129) -0.3078 (142)  0.1248 (151)  0.1282 (168)
           0.1005 (187)  0.1127 (215)
 CRD 13=  -0.1292 (  7) -0.1457 ( 11) -0.1554 ( 16) -0.1497 ( 17)  0.1164 ( 29)
          -0.1366 ( 40) -0.1386 ( 43) -0.1199 ( 46) -0.2073 ( 57) -0.1044 ( 66)
          -0.2785 ( 74)  0.1323 ( 85) -0.2159 ( 93) -0.1253 ( 99)  0.1953 (100)
           0.1123 (103)  0.1534 (105)  0.1595 (110) -0.1070 (129)  0.1109 (134)
          -0.1808 (136) -0.1140 (168) -0.1317 (171) -0.1555 (249) -0.1340 (264)
 CRD 14=   0.1278 (  1) -0.1005 ( 22) -0.1018 ( 26)  0.1185 ( 55)  0.1467 ( 64)
           0.1964 ( 66) -0.2148 ( 74)  0.1231 ( 76) -0.1210 ( 79)  0.1003 ( 83)
           0.1209 ( 86) -0.2636 ( 93) -0.1088 (100) -0.1950 (112)  0.1184 (120)
          -0.1370 (121) -0.1099 (123)  0.2249 (125)  0.1152 (130) -0.1158 (136)
           0.2776 (142) -0.1053 (151)  0.1066 (167) -0.1069 (222) -0.1114 (223)
 CRD 15=   0.2032 (  1)  0.1529 (  3)  0.2055 (  4) -0.1417 ( 22) -0.1417 ( 23)
          -0.1260 ( 26)  0.1652 ( 55)  0.4730 ( 57) -0.1009 ( 60)  0.1322 ( 62)
           0.1308 ( 66) -0.1245 ( 71) -0.1019 ( 78) -0.1024 ( 81) -0.1172 ( 93)
          -0.1936 (100)  0.1197 (112) -0.1184 (159) -0.1172 (167) -0.1083 (168)
          -0.1062 (249) -0.1145 (264)
 CRD 16=   0.1240 ( 31)  0.1016 ( 34) -0.1070 ( 40) -0.1480 ( 43) -0.1393 ( 46)
           0.3189 ( 57)  0.1195 ( 59) -0.2159 ( 66)  0.1075 ( 81) -0.1513 ( 86)
           0.1545 (100) -0.1436 (105)  0.1125 (112)  0.1167 (116)  0.1323 (128)
          -0.1395 (129) -0.1065 (133)  0.1296 (135) -0.2385 (136)  0.1376 (144)
          -0.1145 (180) -0.1275 (229)  0.1031 (249)  0.1085 (265)
 CRD 17=   0.1133 ( 34)  0.1061 ( 37) -0.1094 ( 46) -0.1168 ( 49) -0.2231 ( 57)
          -0.1337 ( 63)  0.2043 ( 66) -0.1386 ( 81)  0.1158 ( 86) -0.2126 (100)
          -0.1388 (110) -0.1390 (111)  0.2641 (112)  0.1306 (115)  0.1436 (135)
          -0.1337 (136) -0.1229 (139) -0.1908 (142) -0.1182 (146)  0.1263 (150)
          -0.1163 (156) -0.1623 (163) -0.1011 (164) -0.2034 (171)  0.1071 (244)
           0.1307 (264)  0.1090 (265)
 CRD 18=  -0.1141 (  4)  0.1170 ( 11)  0.1390 ( 16) -0.1208 ( 26) -0.1740 ( 29)
          -0.1098 ( 43) -0.1785 ( 57)  0.1017 ( 73)  0.2223 ( 74)  0.1375 (116)
           0.1304 (125)  0.1438 (127)  0.1102 (128) -0.3501 (129) -0.1163 (132)
          -0.1729 (136)  0.1126 (139) -0.1087 (141)  0.2479 (142)  0.1018 (145)
          -0.1098 (167)  0.1132 (231)  0.1061 (232)
 CRD 19=   0.1222 (  1)  0.1092 (  3)  0.1493 (  4) -0.1033 ( 17)  0.1006 ( 34)
           0.1763 ( 37)  0.1036 ( 39) -0.1163 ( 43) -0.1632 ( 46) -0.1330 ( 49)
           0.1460 ( 63)  0.1741 ( 64) -0.1718 ( 81) -0.1381 ( 86)  0.1030 ( 90)
           0.1017 (105)  0.1420 (121)  0.1339 (125) -0.2204 (136) -0.1232 (142)
           0.1782 (163)  0.2281 (171)  0.1460 (180)  0.1043 (191) -0.1108 (215)
           0.1030 (222)  0.1465 (229) -0.1057 (252)
 CRD 20=  -0.1179 (  7) -0.1283 ( 11)  0.1252 ( 22)  0.1065 ( 23)  0.1268 ( 26)
          -0.1043 ( 31)  0.1267 ( 57)  0.1286 ( 65) -0.1304 ( 66) -0.1569 ( 71)
          -0.1762 ( 74)  0.1014 ( 85)  0.1675 ( 86) -0.1109 ( 87) -0.1132 ( 98)
          -0.1094 (103) -0.1576 (112)  0.1058 (120) -0.1340 (156) -0.1306 (158)
          -0.1601 (159) -0.1416 (163) -0.1202 (164) -0.1043 (165) -0.1258 (166)
          -0.2050 (167)  0.1453 (214)  0.1293 (215) -0.1217 (231)  0.1240 (264)
 CRD 21=   0.1420 ( 16) -0.1263 ( 23)  0.1091 ( 39)  0.1076 ( 40) -0.1288 ( 49)
          -0.1000 ( 64) -0.1307 ( 66)  0.1311 ( 74)  0.3168 ( 81) -0.1191 ( 90)
          -0.1185 ( 91)  0.1261 ( 92) -0.2963 ( 93)  0.2154 (125)  0.2543 (129)
          -0.1354 (136) -0.1213 (138) -0.1055 (139) -0.2802 (142)
 CRD 22=   0.1325 ( 22)  0.1531 ( 39) -0.1140 ( 46) -0.1218 ( 49) -0.1944 ( 74)
           0.2189 ( 86) -0.1175 ( 88) -0.1009 ( 92)  0.2222 ( 93) -0.1120 (102)
          -0.1225 (105)  0.1343 (111) -0.1034 (112)  0.1024 (119)  0.2360 (125)
          -0.1404 (132)  0.1595 (134) -0.1878 (136) -0.1135 (138) -0.1422 (142)
          -0.1261 (147)  0.1157 (151) -0.1164 (171)  0.1273 (231)  0.1247 (232)
          -0.1278 (264)
 CRD 23=   0.1008 (  7) -0.1369 ( 17) -0.1033 ( 63)  0.2076 ( 66)  0.1670 ( 74)
           0.1394 ( 80) -0.2251 ( 81) -0.1180 ( 85) -0.3156 ( 86)  0.1541 ( 95)
           0.1021 ( 97) -0.1290 ( 98)  0.2764 (100)  0.1025 (104)  0.1019 (110)
          -0.1582 (112) -0.1165 (115)  0.1068 (125)  0.1362 (129) -0.1003 (142)
          -0.1228 (156) -0.1102 (159) -0.1795 (163) -0.1715 (171)
 CRD 24=   0.1724 ( 29)  0.1353 ( 31) -0.1163 ( 63) -0.1202 ( 64) -0.1040 ( 90)
           0.1060 ( 94)  0.1132 (105) -0.1054 (116)  0.1710 (121) -0.1053 (129)
          -0.1273 (130) -0.1100 (163)  0.1141 (167)  0.1351 (168) -0.1807 (171)
          -0.1022 (179) -0.1600 (180) -0.1188 (205) -0.1596 (207)  0.1483 (229)
          -0.1446 (231)  0.1413 (245) -0.1507 (252)  0.1051 (264) -0.1016 (266)
 CRD 25=  -0.1130 (  3) -0.1231 (  4)  0.1780 (  7) -0.1740 ( 31) -0.1518 ( 34)
           0.2150 ( 55) -0.1590 ( 56)  0.1214 ( 60) -0.1261 ( 62)  0.1112 ( 63)
          -0.1537 ( 64) -0.1068 ( 74)  0.1079 ( 75) -0.1017 ( 81)  0.1147 ( 82)
          -0.1081 ( 88)  0.1252 ( 91)  0.1867 (156)  0.1334 (158)  0.1734 (159)
           0.2414 (163)  0.1035 (165)  0.1421 (166)  0.1340 (167) -0.1098 (168)
           0.1460 (171) -0.1197 (186)  0.1006 (235)
 CRD 26=   0.2144 (  3)  0.1827 (  4) -0.2586 (  7) -0.1506 ( 31) -0.1613 ( 34)
          -0.3050 ( 55)  0.1986 ( 58) -0.1066 ( 60)  0.2103 ( 61)  0.1232 ( 62)
          -0.1746 ( 63)  0.1745 ( 64)  0.1326 ( 71)  0.1286 ( 74) -0.1144 (163)
           0.1176 (167) -0.1809 (171)
 CRD 27=  -0.1697 ( 34)  0.1636 ( 39) -0.1007 ( 58) -0.1030 ( 61)  0.1093 (110)
           0.1382 (111) -0.1083 (116) -0.1254 (120)  0.1344 (121) -0.1144 (122)
           0.1235 (123) -0.1162 (132)  0.1011 (135) -0.1542 (140)  0.1473 (141)
           0.1398 (144) -0.1500 (145) -0.1194 (146)  0.1201 (147)  0.1291 (150)
          -0.1222 (151) -0.1283 (233) -0.1438 (234) -0.1178 (243) -0.1250 (244)
           0.1698 (252) -0.1033 (261)  0.1113 (264) -0.1105 (265)  0.1358 (266)
           0.1447 (269)  0.1283 (272)  0.1284 (273)
 CRD 28=   0.1583 ( 26) -0.1896 ( 31)  0.2108 ( 34)  0.1597 ( 37)  0.1328 ( 62)
          -0.1064 ( 63)  0.1389 (105)  0.1128 (109) -0.1357 (110) -0.1109 (114)
           0.1328 (116)  0.2197 (146) -0.2153 (147) -0.1288 (155) -0.1036 (187)
           0.1174 (198) -0.1365 (244)  0.1351 (249)  0.1319 (252) -0.1399 (264)
           0.1106 (266)  0.1096 (269)  0.1070 (272)  0.1048 (273)  0.1667 (274)
 CRD 29=  -0.1360 (  1) -0.3078 ( 26)  0.1678 ( 31)  0.1692 ( 34) -0.2580 ( 39)
           0.1063 ( 59) -0.1151 ( 60)  0.1713 ( 62) -0.1750 ( 63) -0.1068 ( 94)
          -0.1099 (105) -0.1292 (108) -0.1438 (109)  0.1534 (114)  0.1449 (122)
          -0.1215 (124) -0.1241 (126) -0.1390 (146)  0.1121 (147) -0.1088 (155)
           0.1067 (156)  0.1652 (158)  0.1004 (159)  0.1115 (205)  0.1068 (207)
 CRD 30=  -0.1118 (  1)  0.1802 ( 26) -0.1744 ( 29) -0.3292 ( 31) -0.1261 ( 33)
          -0.1252 ( 37) -0.1097 ( 39)  0.1166 ( 40) -0.1014 ( 60)  0.1150 (104)
           0.1100 (109)  0.1094 (112) -0.1508 (113) -0.2104 (114) -0.2124 (146)
           0.1745 (147) -0.1018 (155)  0.1012 (231)  0.1081 (232)  0.1190 (239)
           0.1121 (240) -0.1117 (249) -0.1205 (274)
 CRD 31=  -0.1655 (  1)  0.1196 ( 23) -0.2768 ( 34)  0.3022 ( 39)  0.1321 ( 59)
          -0.1522 ( 60)  0.1562 ( 62) -0.1895 ( 63) -0.1006 ( 67) -0.1060 (116)
          -0.1192 (119) -0.1886 (122)  0.1273 (124)  0.1760 (126)  0.1045 (130)
           0.1202 (156)  0.1785 (158)  0.1235 (159) -0.1157 (222) -0.1198 (223)
          -0.1156 (228) -0.1023 (235) -0.1198 (241)
 CRD 32=   0.1739 ( 40) -0.6027 ( 49)  0.1357 (136)  0.1139 (141)  0.1157 (142)
          -0.4366 (148) -0.1687 (150) -0.1999 (151)  0.2318 (153)  0.2232 (154)
           0.1020 (281)  0.1016 (282)
 CRD 33=  -0.3835 (  1)  0.2188 (  3)  0.1502 ( 16) -0.1090 ( 17) -0.1010 ( 23)
          -0.1396 ( 56) -0.1197 ( 58)  0.3728 ( 59) -0.4146 ( 60)  0.2859 ( 61)
          -0.3019 ( 62)
 CRD 34=   0.1109 ( 11) -0.1699 ( 16)  0.2100 ( 17) -0.1798 ( 22)  0.1362 ( 23)
          -0.1700 ( 26) -0.2028 ( 37)  0.1175 ( 43)  0.1384 ( 63) -0.1042 ( 65)
           0.1114 ( 76)  0.1057 ( 87) -0.1116 ( 92) -0.1519 ( 95) -0.1296 (108)
           0.1031 (115)  0.1031 (116) -0.1478 (122) -0.1218 (126)  0.1563 (130)
           0.1067 (146) -0.1274 (148) -0.1117 (156) -0.1532 (158) -0.1345 (159)
           0.1105 (168)  0.1190 (169) -0.1326 (187) -0.1259 (201)  0.1079 (219)
 CRD 35=  -0.1190 (  7)  0.2549 ( 11) -0.2562 ( 16)  0.2473 ( 17) -0.2676 ( 22)
           0.2001 ( 23) -0.1416 ( 31)  0.1608 ( 37) -0.1263 ( 43)  0.1128 ( 46)
           0.1186 ( 59)  0.1425 ( 61) -0.2018 ( 62)  0.1022 ( 75)  0.1121 (102)
           0.1193 (109)  0.1146 (122) -0.1298 (130)  0.1320 (148)
 CRD 36=  -0.2623 ( 29) -0.1029 ( 32)  0.1692 ( 34)  0.2520 ( 37)  0.1034 ( 38)
          -0.1906 ( 40)  0.2456 ( 43) -0.3271 ( 46)  0.1845 (104) -0.1571 (109)
          -0.1069 (113) -0.1896 (114)  0.1082 (119)  0.1913 (122)  0.1105 (126)
          -0.1462 (130) -0.1302 (144) -0.1069 (145)  0.1908 (147) -0.2432 (148)
          -0.1020 (152)
 CRD 37=  -0.1226 ( 26) -0.3108 ( 29) -0.1107 ( 34)  0.1737 ( 37) -0.2332 ( 43)
           0.3005 ( 46)  0.1285 (104) -0.1152 (108) -0.2848 (109) -0.1861 (114)
           0.2183 (115) -0.1505 (117)  0.1034 (122)  0.2152 (126) -0.1037 (130)
           0.1093 (145) -0.1880 (147)  0.1785 (148)
 CRD 38=   0.1039 (  1)  0.1703 (  7) -0.2326 ( 11)  0.1548 ( 16) -0.1010 ( 21)
           0.1803 ( 23) -0.1006 ( 56)  0.1297 ( 58)  0.1149 ( 61) -0.2284 ( 62)
           0.1599 ( 63)  0.1725 ( 71) -0.1134 ( 73) -0.1570 ( 76)  0.1195 ( 82)
           0.1419 ( 85) -0.1134 ( 94)  0.1495 (102) -0.1403 (104)  0.1068 (109)
           0.1140 (114) -0.1345 (156) -0.1592 (158) -0.1069 (159) -0.1035 (163)
           0.1211 (198) -0.1018 (235)
 CRD 39=   0.1166 (  7) -0.1896 ( 11) -0.1428 ( 22)  0.1826 ( 23)  0.1718 ( 29)
           0.2413 ( 37) -0.1394 ( 61)  0.1802 ( 62)  0.1039 ( 73) -0.1371 ( 75)
          -0.1233 ( 79)  0.1113 (103) -0.1940 (104)  0.1913 (109)  0.1925 (114)
          -0.1383 (115) -0.2512 (117)  0.2205 (122)  0.2565 (126) -0.1524 (130)
           0.1095 (147) -0.1008 (198)
 CRD 40=   0.1855 (  7) -0.2302 ( 11)  0.1162 ( 16) -0.2315 ( 22)  0.2600 ( 23)
          -0.1447 ( 31)  0.1616 ( 34) -0.1125 ( 37) -0.1170 ( 40)  0.1029 ( 46)
           0.1427 ( 61) -0.1875 ( 63)  0.1145 ( 73) -0.1187 ( 92)  0.1137 (103)
          -0.1169 (113)  0.2339 (117)  0.1383 (119) -0.1408 (122) -0.2100 (126)
          -0.1448 (147)  0.1124 (158)  0.1030 (159)
 CRD 41=   0.1298 ( 38)  0.1456 ( 39) -0.4428 ( 40)  0.1993 ( 43)  0.2798 ( 46)
           0.1068 ( 48) -0.1898 ( 49)  0.1149 (109)  0.1081 (114) -0.1313 (115)
           0.1360 (124) -0.1001 (127) -0.1147 (128) -0.1686 (133)  0.1383 (139)
          -0.3003 (146)  0.1926 (148)  0.1743 (152) -0.1048 (243) -0.1050 (268)
           0.1032 (270)
 CRD 42=  -0.1473 (  1) -0.1678 (  2) -0.1236 (  3) -0.2847 (  7)  0.1047 ( 11)
           0.1636 ( 16) -0.2133 ( 17)  0.1597 ( 23) -0.1161 ( 26) -0.1698 ( 31)
          -0.2797 ( 61)  0.2414 ( 63)  0.1021 ( 64)  0.1099 (109) -0.1292 (113)
          -0.1883 (115) -0.1065 (116)  0.1689 (117)  0.1235 (119)  0.1493 (146)
          -0.1029 (147)
 CRD 43=   0.1150 (  1)  0.1147 (  2)  0.1335 (  7) -0.1510 ( 23) -0.1013 ( 26)
          -0.1988 ( 31) -0.1134 ( 34) -0.1006 ( 39)  0.1711 ( 61) -0.1018 ( 99)
           0.1737 (109)  0.1036 (110) -0.1081 (113)  0.1364 (114) -0.2772 (115)
           0.1012 (126) -0.1289 (127)  0.1223 (128) -0.1241 (130)  0.1153 (132)
           0.1101 (138) -0.1425 (139)  0.1589 (140) -0.1573 (141)  0.1145 (146)
          -0.1244 (150)  0.1295 (151) -0.1198 (233) -0.1193 (253) -0.1175 (272)
          -0.1228 (273) -0.1018 (274)
 CRD 44=   0.1349 (  1)  0.1771 (  2) -0.1455 (  7)  0.2581 ( 11)  0.1075 ( 16)
          -0.3306 ( 17)  0.2245 ( 23) -0.1610 ( 26) -0.1202 ( 30)  0.2125 ( 61)
          -0.1958 ( 63) -0.1460 ( 64) -0.1489 ( 71)  0.1068 ( 80) -0.1198 ( 91)
          -0.1088 ( 92)  0.1051 ( 97)  0.1030 ( 99)  0.1040 (103) -0.1654 (104)
          -0.1211 (108) -0.1141 (206)
 CRD 45=  -0.1643 (  7)  0.2257 ( 16) -0.2387 ( 22)  0.1443 ( 26) -0.1893 ( 34)
          -0.1459 ( 36) -0.2371 ( 39)  0.2277 ( 43)  0.1061 ( 63) -0.1236 ( 67)
           0.1071 ( 79)  0.1110 ( 80) -0.1112 ( 92) -0.1090 ( 97)  0.1212 ( 98)
           0.1026 (108) -0.1106 (114) -0.1865 (117)  0.1427 (122) -0.1324 (130)
          -0.1404 (147)
 CRD 46=  -0.1081 (  7)  0.1371 ( 16) -0.1533 ( 22)  0.1520 ( 39)  0.1047 ( 41)
          -0.2708 ( 43) -0.1434 ( 47)  0.1203 ( 53) -0.1151 (122)  0.1482 (124)
           0.1995 (130)  0.1213 (132) -0.1130 (133) -0.1542 (135) -0.1396 (146)
           0.3503 (147) -0.1277 (148)  0.1192 (153) -0.1090 (154) -0.1131 (234)
           0.1120 (247)  0.1039 (251) -0.1177 (264)
 CRD 47=   0.1243 ( 40)  0.1749 ( 43)  0.1068 ( 44)  0.1152 ( 48) -0.1396 ( 65)
           0.1055 ( 67) -0.1119 ( 71)  0.1542 ( 78) -0.1328 ( 79)  0.1006 ( 82)
          -0.1134 ( 90) -0.1251 ( 94)  0.1419 (102) -0.1297 (103) -0.1328 (127)
           0.1804 (128)  0.1776 (138) -0.1037 (139)  0.1294 (140) -0.1809 (141)
          -0.2233 (146)  0.1140 (148) -0.1437 (150)  0.1329 (151)  0.1006 (172)
           0.1006 (175)  0.1016 (209)  0.1004 (212)  0.1282 (250)  0.1014 (251)
           0.1017 (252) -0.1134 (272) -0.1049 (274) -0.1005 (279)
 CRD 48=   0.2049 (  7) -0.1135 ( 15) -0.2773 ( 16) -0.1082 ( 19)  0.2079 ( 22)
           0.1676 ( 23)  0.1461 ( 40)  0.1359 ( 43) -0.1130 ( 55)  0.1304 ( 65)
           0.1531 ( 71) -0.1241 ( 82)  0.1607 ( 94)  0.1454 (103)  0.1208 (128)
           0.1090 (138) -0.2002 (146)  0.1091 (148) -0.1024 (170)
 CRD 49=   0.1916 (  7)  0.1636 ( 11)  0.1037 ( 13) -0.1461 ( 16) -0.2501 ( 17)
          -0.1161 ( 19)  0.1949 ( 23)  0.1320 ( 26) -0.1146 ( 36) -0.1677 ( 40)
          -0.1086 ( 43) -0.1083 ( 65)  0.1862 ( 67)  0.1324 ( 75)  0.1803 ( 78)
          -0.1017 ( 79) -0.1689 ( 83) -0.1045 ( 87)  0.1881 ( 98) -0.1047 (100)
           0.1079 (104)  0.1465 (108) -0.1128 (148)  0.1131 (169) -0.1144 (186)
 CRD 50=  -0.1014 ( 31) -0.1125 ( 32)  0.1463 ( 40)  0.1466 ( 45) -0.1111 ( 51)
           0.1053 ( 67)  0.1033 ( 78) -0.1017 (107) -0.1096 (123)  0.1035 (124)
           0.1772 (132)  0.2646 (134) -0.2079 (135) -0.2268 (140)  0.1446 (141)
          -0.2392 (144)  0.1984 (145) -0.1030 (147)  0.1126 (148)  0.1842 (150)
          -0.2018 (151) -0.1513 (262) -0.1505 (263) -0.1102 (266) -0.1354 (269)
           0.1027 (272)  0.1152 (273)  0.1293 (276)  0.1019 (279)
 CRD 51=   0.1856 ( 75) -0.1806 ( 76)  0.2725 ( 80) -0.2611 ( 82) -0.1451 ( 83)
           0.1692 ( 85)  0.2214 ( 87) -0.2283 ( 88)  0.2632 ( 90) -0.2654 ( 91)
          -0.1018 ( 94) -0.2581 ( 95)  0.2334 ( 97)  0.1073 (102) -0.1093 (103)
          -0.1181 (178) -0.1180 (179)  0.1661 (188)  0.1547 (189)  0.1583 (191)
           0.1617 (195) -0.1222 (196) -0.1163 (197) -0.1510 (201) -0.1579 (204)
 CRD 52=   0.1429 ( 40) -0.1407 ( 65)  0.1151 ( 67) -0.1150 ( 76)  0.1139 ( 78)
          -0.1383 ( 79) -0.1142 ( 83)  0.1147 ( 85) -0.1249 ( 87)  0.1606 ( 88)
           0.1028 ( 94)  0.1329 ( 95) -0.1233 ( 97) -0.1127 (102) -0.1014 (123)
           0.1258 (124)  0.2204 (127) -0.1453 (128)  0.1410 (132) -0.1508 (134)
           0.1883 (135) -0.1582 (138)  0.1922 (139) -0.1166 (141)  0.1673 (144)
          -0.2067 (145) -0.1031 (150)  0.1023 (196) -0.1239 (251) -0.1014 (258)
           0.1385 (266)  0.1058 (269)
 CRD 53=  -0.1005 ( 11)  0.1304 ( 17) -0.1297 ( 40) -0.1589 ( 65)  0.1149 ( 67)
           0.1518 ( 75) -0.2029 ( 76) -0.1522 ( 79) -0.1666 ( 83)  0.1736 ( 85)
           0.1223 ( 88)  0.1244 ( 90) -0.1310 ( 92)  0.1634 ( 94) -0.1303 ( 98)
          -0.1339 (102)  0.1207 (103)  0.1064 (107) -0.1129 (108)  0.1357 (123)
          -0.1424 (124) -0.1571 (127) -0.1847 (132)  0.1138 (138) -0.1434 (139)
           0.1029 (145) -0.1299 (178) -0.1021 (205) -0.1031 (206)
 CRD 54=  -0.1060 (  6) -0.1493 (  7) -0.2375 ( 11) -0.1264 ( 12) -0.1508 ( 14)
          -0.1342 ( 16)  0.1128 ( 17)  0.1435 ( 20)  0.2828 ( 22)  0.1507 ( 23)
           0.1959 ( 25) -0.1633 ( 30) -0.1186 ( 34) -0.1289 ( 36) -0.1071 ( 39)
           0.1456 ( 66) -0.1134 ( 71)  0.1285 ( 74) -0.1344 ( 86)  0.1078 ( 87)
           0.1576 ( 92) -0.1523 ( 93)  0.1520 ( 97)  0.1290 ( 98)  0.1724 (102)
          -0.1126 (107)  0.1234 (209)  0.1103 (212) -0.1120 (219)
 CRD 55=   0.1162 ( 32) -0.1281 ( 34) -0.1436 ( 36) -0.1506 ( 38) -0.1538 ( 39)
          -0.1022 ( 92) -0.2546 ( 98)  0.1978 ( 99)  0.2176 (107) -0.1762 (108)
           0.2143 (111) -0.1015 (113) -0.2402 (120) -0.2146 (123)  0.1284 (124)
           0.1930 (132) -0.1931 (133) -0.1005 (205) -0.1446 (224) -0.1151 (226)
          -0.1010 (234) -0.1378 (235) -0.1044 (246)
 CRD 56=  -0.1106 (  1) -0.1441 (  2)  0.1262 (  5)  0.1275 (  7)  0.1321 ( 11)
           0.1612 ( 13)  0.1003 ( 15) -0.1215 ( 19) -0.1096 ( 22) -0.1607 ( 23)
          -0.2001 ( 24) -0.1938 ( 26) -0.1972 ( 30) -0.1473 ( 31) -0.1082 ( 32)
           0.1494 ( 73)  0.1262 ( 93)  0.1329 (100) -0.1250 (103) -0.1139 (104)
           0.1018 (105) -0.2109 (111)  0.1002 (113) -0.1437 (119)  0.1493 (120)
           0.1144 (155)  0.1014 (160) -0.1115 (180) -0.1024 (195)  0.1052 (198)
           0.1100 (212)
 CRD 57=   0.1136 ( 40)  0.2788 ( 43)  0.1038 ( 44)  0.1401 ( 45)  0.3293 ( 46)
           0.1695 ( 47)  0.2095 ( 48)  0.1791 ( 50)  0.1423 ( 51) -0.1768 (129)
          -0.2467 (136)  0.1325 (140)  0.1403 (141) -0.2318 (142) -0.1463 (143)
           0.1138 (144)  0.1203 (146)  0.1890 (147) -0.2240 (148) -0.1301 (149)
          -0.1542 (152)
 CRD 58=  -0.1313 (  7) -0.2344 ( 11) -0.1491 ( 13) -0.1739 ( 14) -0.1533 ( 15)
          -0.2727 ( 16) -0.2567 ( 17) -0.1863 ( 18) -0.1572 ( 19) -0.1329 ( 20)
          -0.1515 ( 21) -0.1785 ( 22)  0.1726 ( 66)  0.2327 ( 74)  0.2447 ( 81)
          -0.1009 ( 82)  0.1293 ( 84) -0.1022 ( 85)  0.2032 ( 86)  0.1380 ( 89)
          -0.1050 ( 91)  0.1198 ( 93)  0.1125 ( 96)
 CRD 59=  -0.1004 ( 26) -0.1033 ( 28) -0.1091 ( 30) -0.3179 ( 38) -0.1902 ( 39)
          -0.1130 ( 40) -0.2186 ( 42) -0.2042 ( 44) -0.1269 ( 47)  0.1372 ( 50)
          -0.1669 ( 51) -0.1058 ( 54)  0.1817 (121)  0.1403 (125) -0.1200 (128)
          -0.1743 (130) -0.1229 (132) -0.1688 (146)  0.1455 (147)  0.1189 (247)
           0.1041 (248)  0.1569 (249) -0.1013 (251) -0.1537 (264) -0.1216 (276)
          -0.1111 (279)
 CRD 60=  -0.1027 ( 28) -0.2341 ( 30)  0.2228 ( 32) -0.2163 ( 36)  0.2142 ( 38)
          -0.1589 ( 99)  0.1229 (100) -0.1643 (104)  0.1564 (105) -0.1150 (107)
          -0.1307 (110)  0.2278 (111) -0.2651 (113)  0.1091 (115)  0.1241 (116)
          -0.1030 (117)  0.2682 (119) -0.2291 (120) -0.1449 (121)  0.1037 (123)
          -0.1120 (125)  0.1533 (130)  0.1489 (133)  0.1191 (226) -0.1221 (228)
          -0.1544 (230) -0.1486 (237) -0.1167 (240)  0.1100 (243)
 CRD 61=  -0.1122 ( 28) -0.2426 ( 30)  0.2430 ( 32)  0.1025 ( 34)  0.1826 ( 35)
           0.2135 ( 36) -0.1416 ( 38) -0.1209 ( 45) -0.1085 ( 50) -0.1493 ( 99)
           0.1012 (100) -0.1464 (104)  0.1535 (105) -0.1251 (107) -0.1644 (110)
          -0.1563 (112)  0.1638 (115) -0.1313 (116)  0.1431 (117) -0.1077 (118)
           0.1046 (120) -0.1284 (123) -0.1070 (130)  0.1015 (132) -0.2143 (133)
           0.1247 (226)  0.1173 (231)  0.1473 (237) -0.1458 (242) -0.1966 (243)
          -0.1291 (261)
 CRD 62=   0.1090 ( 15)  0.2750 ( 56) -0.2292 ( 58) -0.1957 ( 62)  0.2124 ( 63)
           0.1138 ( 68) -0.1497 ( 69) -0.2702 ( 71)  0.3563 ( 73)  0.1736 (161)
           0.1384 (162) -0.1075 (163)  0.2599 (165)  0.2950 (166) -0.2303 (171)
 CRD 63=  -0.1231 (  1) -0.1450 (  2)  0.1579 (  5) -0.2298 (  6) -0.1767 ( 14)
           0.1827 ( 15)  0.1711 ( 20) -0.1734 ( 21) -0.1103 ( 27)  0.1702 ( 28)
           0.1084 ( 30)  0.1420 ( 35)  0.1312 ( 36) -0.1962 ( 56)  0.1177 ( 58)
           0.1418 ( 62) -0.1050 ( 68)  0.1167 ( 98) -0.1082 ( 99)  0.1288 (155)
           0.1515 (157)  0.1610 (160) -0.1109 (162)  0.1336 (163) -0.1343 (164)
          -0.1119 (165) -0.1353 (167)  0.1368 (171) -0.1035 (179)  0.1002 (186)
           0.1021 (197)
 CRD 64=   0.1117 (  4) -0.1706 (  6)  0.1255 ( 12) -0.1083 ( 13) -0.1689 ( 18)
           0.1628 ( 19)  0.1333 ( 24) -0.1539 ( 25) -0.1362 ( 28) -0.1416 ( 32)
           0.1259 ( 33) -0.2443 ( 35) -0.1315 ( 36)  0.1158 ( 41) -0.1721 ( 42)
           0.1415 ( 44) -0.1621 ( 45) -0.1890 ( 50)  0.1867 ( 51)  0.1108 ( 61)
           0.1037 ( 63) -0.1046 ( 69)
 CRD 65=   0.1355 (  1)  0.1043 (  3) -0.1878 (  4)  0.2380 (  8)  0.2565 (  9)
           0.2410 ( 10)  0.1307 ( 41) -0.1643 ( 42) -0.1093 ( 45) -0.1680 ( 50)
           0.1674 ( 51) -0.1285 ( 60) -0.2532 ( 61) -0.1856 ( 62) -0.1990 ( 63)
           0.1284 ( 64)  0.2231 ( 68)  0.2287 ( 69)  0.1917 ( 70)
 CRD 66=  -0.2207 (  5)  0.1454 (  6) -0.1801 (  8) -0.1961 (  9) -0.1823 ( 10)
          -0.1189 ( 12) -0.1003 ( 15)  0.1905 ( 18) -0.1881 ( 19)  0.1099 ( 25)
          -0.1480 ( 27)  0.1723 ( 28)  0.1316 ( 41) -0.1461 ( 42) -0.1052 ( 47)
          -0.1537 ( 50)  0.1543 ( 51)  0.1687 ( 61)  0.1348 ( 62)  0.1135 ( 63)
          -0.1568 ( 68) -0.1443 ( 69) -0.1198 ( 70)
 CRD 67=  -0.1540 (  5)  0.1601 (  6) -0.2125 ( 12)  0.1955 ( 13) -0.1118 ( 14)
           0.2053 ( 20) -0.2189 ( 21)  0.2039 ( 24) -0.2045 ( 25) -0.1065 ( 32)
           0.1870 ( 33) -0.2464 ( 35) -0.1224 ( 36)  0.1654 ( 47) -0.1683 ( 48)
           0.1487 ( 50) -0.1519 ( 51)
 CRD 68=  -0.1763 ( 49) -0.4818 ( 52) -0.5070 ( 53) -0.5065 ( 54)  0.1753 (146)
           0.1754 (147)  0.1908 (148) -0.1827 (152) -0.1918 (153) -0.1922 (154)
 CRD 69=   0.1304 (  5) -0.1445 (  6)  0.2249 ( 12) -0.2140 ( 13)  0.2052 ( 14)
          -0.2020 ( 15)  0.1097 ( 18) -0.1280 ( 24)  0.1287 ( 25) -0.1848 ( 27)
           0.1633 ( 28)  0.1570 ( 33) -0.1877 ( 35)  0.1610 ( 44) -0.1632 ( 45)
           0.2004 ( 47) -0.2061 ( 48)  0.1501 ( 50) -0.1532 ( 51)
 CRD 70=  -0.2359 (  8)  0.4626 (  9) -0.3258 ( 10)  0.2027 ( 68)  0.2964 ( 69)
          -0.5363 ( 70) -0.2740 (156)  0.3085 (159)
 CRD 71=  -0.4708 (  8)  0.4007 ( 10)  0.4678 ( 68) -0.4193 ( 69) -0.1840 (156)
           0.3559 (158) -0.1227 (159)
 CRD 72=   0.1623 ( 12) -0.1567 ( 13)  0.1849 ( 14) -0.1878 ( 15)  0.1860 ( 18)
          -0.1818 ( 19)  0.1648 ( 20) -0.1678 ( 21)  0.1264 ( 24) -0.1246 ( 25)
           0.1085 ( 33) -0.1170 ( 35) -0.2173 ( 41)  0.2096 ( 42) -0.2633 ( 44)
           0.2592 ( 45) -0.2507 ( 47)  0.2556 ( 48) -0.1716 ( 50)  0.1747 ( 51)
 CRD 73=   0.1650 ( 12) -0.1591 ( 13)  0.1924 ( 14) -0.1960 ( 15)  0.2118 ( 18)
          -0.2079 ( 19)  0.2203 ( 20) -0.2240 ( 21)  0.2209 ( 24) -0.2125 ( 25)
           0.2140 ( 27) -0.1856 ( 28) -0.1886 ( 33)  0.1877 ( 35)  0.1594 ( 41)
          -0.1300 ( 42)  0.1367 ( 44) -0.1313 ( 45)  0.1233 ( 47) -0.1241 ( 48)
 CRD 74=  -0.1093 (  6)  0.1341 ( 12) -0.1219 ( 13) -0.1471 ( 24)  0.1503 ( 25)
          -0.1510 ( 27)  0.1599 ( 28) -0.1096 ( 65)  0.1044 ( 67) -0.1284 ( 75)
           0.1266 ( 76)  0.1281 ( 80) -0.1298 ( 82)  0.1093 ( 83) -0.1079 ( 85)
          -0.1005 ( 87)  0.1004 ( 88)  0.1318 ( 90) -0.1313 ( 91)  0.1232 ( 95)
          -0.1247 ( 97) -0.1423 (181) -0.1422 (182) -0.1385 (184) -0.1384 (185)
          -0.1690 (190) -0.1690 (192) -0.1677 (193) -0.1677 (194) -0.1662 (199)
          -0.1647 (200) -0.1642 (202) -0.1627 (203) -0.1297 (208) -0.1294 (210)
          -0.1292 (211) -0.1290 (213)
 CRD 75=   0.2062 (  1)  0.1915 (  3) -0.4130 (  4)  0.4178 (  5)  0.1710 (  6)
          -0.3002 (  8) -0.4483 (  9) -0.3168 ( 10)  0.1206 ( 59) -0.2327 ( 60)
          -0.1556 ( 61)  0.1110 ( 64)
 CRD 76=   0.1416 ( 33) -0.1801 ( 41)  0.2049 ( 42) -0.1351 ( 44)  0.1411 ( 45)
           0.1337 (127) -0.1335 (128)  0.1467 (134) -0.1480 (135)  0.1120 (140)
          -0.1125 (141) -0.1434 (144)  0.1426 (145) -0.1504 (150)  0.1501 (151)
           0.1152 (255)  0.1170 (256)  0.1182 (259)  0.1200 (260)  0.1191 (262)
           0.1186 (263)  0.1163 (266)  0.1959 (267)  0.1968 (268)  0.1156 (269)
           0.1952 (270)  0.1962 (271)  0.2065 (277)  0.2070 (278)  0.2077 (280)
           0.2082 (281)  0.1134 (282)  0.1141 (283)  0.1129 (284)  0.1136 (285)
           0.1144 (286)  0.1132 (287)
 CRD 77=   0.6567 ( 33)  0.5373 ( 35)  0.2877 (118) -0.1434 (228)  0.1101 (230)
          -0.1178 (236) -0.1220 (237)  0.1076 (238)  0.1417 (239)  0.1375 (240)
          -0.1458 (241)
 CRD 78=   0.1840 ( 50)  0.1841 ( 51) -0.6333 ( 52)  0.2957 ( 53)  0.2838 ( 54)
           0.3270 (152) -0.1611 (153) -0.1546 (154)  0.1706 (272) -0.1679 (273)
           0.1524 (282) -0.1861 (284)  0.1887 (285) -0.1497 (287)
 CRD 79=  -0.3579 ( 27) -0.4656 ( 28)  0.3634 ( 41)  0.3059 ( 42) -0.1778 (106)
           0.1422 (131)  0.1158 (206)  0.1359 (217)  0.1422 (220)
 CRD 80=   0.2916 ( 27)  0.3435 ( 28)  0.5121 ( 41)  0.4931 ( 42)  0.1397 (106)
           0.2210 (131)  0.1033 (242) -0.1105 (243)  0.1095 (257) -0.1043 (261)
 CRD 81=   0.5414 ( 53) -0.5507 ( 54) -0.2933 (153)  0.2978 (154) -0.2274 (274)
          -0.2191 (283) -0.2189 (286)
 CRD 82=  -0.1728 (  5)  0.1435 ( 18) -0.1385 ( 19) -0.4468 ( 27) -0.1828 ( 28)
          -0.1020 ( 35) -0.1381 (106)  0.1286 (173)  0.1278 (174)  0.1514 (181)
           0.1490 (182)  0.1422 (184)  0.1398 (185) -0.1327 (205) -0.1386 (208)
          -0.1450 (210) -0.1410 (211) -0.1474 (213) -0.1771 (218) -0.1621 (221)
 CRD 83=   0.1570 (  1)  0.1374 (  3) -0.1719 (  4) -0.4599 (  5) -0.6002 (  6)
          -0.1670 (  9) -0.1108 ( 10) -0.2642 ( 72)  0.1305 (161) -0.1079 (162)
           0.1398 (166) -0.1232 (175) -0.1246 (176) -0.1406 (177)
 CRD 84=   0.1633 ( 12)  0.1637 ( 13) -0.3045 ( 14) -0.2957 ( 15)  0.3893 ( 18)
           0.3959 ( 19) -0.3214 ( 20) -0.3181 ( 21)  0.1990 ( 24)  0.2050 ( 25)
           0.1302 ( 89) -0.1021 ( 96)  0.1077 (190) -0.1066 (193) -0.1090 (200)
           0.1111 (202)
 CRD 85=   0.3306 ( 44)  0.3353 ( 45) -0.4517 ( 47) -0.4478 ( 48)  0.2895 ( 50)
           0.2860 ( 51)  0.1142 (137) -0.1523 (143) -0.1274 (268)  0.1275 (270)
           0.1161 (278) -0.1162 (280)
 CRD 86=  -0.2952 ( 12) -0.2979 ( 13)  0.3180 ( 14)  0.3225 ( 15) -0.2928 ( 20)
          -0.2778 ( 21)  0.3480 ( 24)  0.3532 ( 25) -0.1052 ( 77)  0.1128 ( 84)
          -0.1004 ( 96)  0.1284 (101)  0.1007 (182) -0.1099 (184)  0.1163 (208)
          -0.1058 (213)
 CRD 87=  -0.3588 ( 12) -0.3637 ( 13)  0.3566 ( 18)  0.3545 ( 19) -0.3384 ( 24)
          -0.3360 ( 25) -0.1422 ( 77)  0.1444 ( 89) -0.1368 (101)
 CRD 88=  -0.4264 ( 44) -0.4238 ( 45)  0.4253 ( 50)  0.4230 ( 51)  0.1142 ( 52)
          -0.1040 ( 53) -0.1023 ( 54) -0.1715 (137)  0.1669 (149) -0.1124 (282)
           0.1145 (287)
 CRD 89=  -0.2947 ( 12) -0.3061 ( 13) -0.2919 ( 14) -0.2780 ( 15)  0.3220 ( 20)
           0.3365 ( 21)  0.2754 ( 24)  0.2638 ( 25) -0.1352 ( 77) -0.1268 ( 84)
           0.1463 ( 96)  0.1248 (101) -0.1037 (185)  0.1080 (211)
 CRD 90=  -0.1030 ( 43)  0.2943 ( 44)  0.2842 ( 45) -0.1027 ( 46)  0.4173 ( 47)
           0.4154 ( 48)  0.2872 ( 50)  0.2904 ( 51)  0.1376 (137)  0.1960 (143)
           0.1358 (149) -0.1248 (267)  0.1229 (271) -0.1232 (277)  0.1179 (281)
 CRD 91=  -0.1920 ( 12) -0.2013 ( 13) -0.3099 ( 14) -0.3158 ( 15) -0.3070 ( 18)
          -0.3029 ( 19) -0.2926 ( 20) -0.2876 ( 21) -0.1609 ( 24) -0.1507 ( 25)
          -0.1509 ( 84) -0.1534 ( 89) -0.1396 ( 96)  0.1120 (192) -0.1184 (194)
           0.1095 (199) -0.1121 (203)
 CRD 92=   0.5404 (  2)  0.3392 (  3)  0.2229 (  4)  0.2650 (  8) -0.1025 (  9)
           0.2822 ( 10) -0.3841 ( 57)  0.2488 ( 59) -0.1974 ( 61)  0.1888 ( 62)
           0.1739 ( 63) -0.1507 ( 64) -0.1489 ( 70)
 CRD 93=  -0.1533 ( 41)  0.1389 ( 42) -0.1039 ( 45)  0.1729 ( 47) -0.1780 ( 48)
          -0.1060 (124) -0.1261 (234)  0.1064 (236)  0.1147 (237)  0.1176 (247)
           0.1233 (248)  0.1444 (254)  0.2264 (255)  0.2207 (256)  0.1406 (258)
           0.2225 (259)  0.2168 (260) -0.1163 (272) -0.1169 (273) -0.1175 (275)
          -0.1047 (276) -0.1594 (277) -0.1610 (278) -0.1046 (279) -0.1592 (280)
          -0.1609 (281) -0.1682 (282) -0.1451 (283) -0.1688 (284) -0.1684 (285)
          -0.1452 (286) -0.1689 (287)
 CRD 94=   0.1369 ( 14) -0.1371 ( 15) -0.1269 ( 20)  0.1298 ( 21) -0.1065 ( 24)
           0.1109 ( 25)  0.1157 ( 27) -0.1102 ( 28)  0.1063 (157)  0.1090 (172)
           0.1679 (173)  0.1603 (174)  0.1141 (175)  0.1729 (176)  0.1654 (177)
          -0.1052 (188) -0.1055 (189) -0.1163 (190) -0.1176 (192) -0.1202 (193)
          -0.1189 (194) -0.1521 (199) -0.1518 (200) -0.1505 (202) -0.1502 (203)
           0.1177 (205)  0.1166 (206)  0.1034 (216)  0.1827 (217)  0.1838 (218)
           0.1093 (219)  0.1886 (220)  0.1897 (221)  0.1079 (230) -0.1157 (235)
           0.1034 (238) -0.1109 (246)
 CRD 95=   0.1011 ( 24) -0.1063 ( 25) -0.2375 ( 27)  0.2395 ( 28)  0.1053 ( 38)
           0.2397 ( 41) -0.2442 ( 42) -0.1100 ( 44)  0.1153 ( 45)  0.1292 (113)
          -0.1324 (119)  0.1123 (214) -0.1415 (222) -0.1065 (223)  0.1133 (224)
           0.1301 (225)  0.1587 (226)  0.1755 (227)  0.1563 (230)  0.1059 (232)
          -0.1011 (233) -0.1162 (234) -0.1229 (235)  0.1823 (236)  0.1469 (237)
           0.1915 (238)  0.1015 (241)  0.1099 (242)  0.1524 (243)  0.1098 (245)
          -0.1580 (246) -0.1363 (253)  0.1253 (257)  0.1678 (261)  0.1066 (265)
          -0.1514 (275)
 CRD 96=  -0.1053 ( 12)  0.1038 ( 13) -0.1276 ( 32) -0.2934 ( 33)  0.2568 ( 35)
          -0.1125 ( 36) -0.1750 ( 41)  0.1500 ( 42) -0.1097 (173) -0.1059 (174)
          -0.1092 (176) -0.1054 (177)  0.1121 (214) -0.1142 (222)  0.1054 (225)
           0.1327 (226)  0.1597 (227)  0.1546 (230)  0.1013 (234) -0.1243 (235)
          -0.1688 (236) -0.1474 (237)  0.1723 (238) -0.1337 (243) -0.1427 (246)
           0.1056 (253) -0.1006 (257) -0.1507 (261)  0.1235 (275)
 CRD 97=   0.1476 (  5) -0.1376 (  6) -0.2082 ( 12)  0.2058 ( 13)  0.1722 ( 20)
          -0.1717 ( 21) -0.2847 ( 24)  0.2879 ( 25)  0.2111 ( 27) -0.2092 ( 28)
           0.1109 ( 41) -0.1037 ( 42) -0.1417 (173) -0.1381 (174) -0.1386 (176)
          -0.1350 (177) -0.1380 (208) -0.1378 (210) -0.1363 (211) -0.1361 (213)
           0.1460 (217)  0.1393 (218)  0.1472 (220)  0.1405 (221)
 CRD 98=   0.1097 ( 41) -0.1262 ( 42) -0.3223 ( 44)  0.3234 ( 45)  0.2995 ( 47)
          -0.3005 ( 48)  0.1335 (250)  0.1292 (251) -0.1193 (255) -0.1088 (256)
          -0.1300 (259) -0.1195 (260)  0.1386 (266)  0.2117 (267)  0.2160 (268)
           0.1299 (269)  0.2030 (270)  0.2073 (271)
 CRD 99=   0.1823 ( 12) -0.1808 ( 13) -0.3129 ( 14)  0.3118 ( 15)  0.3095 ( 18)
          -0.3105 ( 19) -0.1215 ( 20)  0.1220 ( 21)  0.1173 ( 27) -0.1131 ( 28)
           0.1100 (178)  0.1115 (179) -0.1019 (182)  0.1800 (190)  0.1144 (191)
           0.1815 (192)  0.1822 (193)  0.1806 (194)  0.1151 (195) -0.1155 (199)
          -0.1142 (200) -0.1161 (202) -0.1148 (203)
 CRD100=  -0.1765 (  5)  0.1716 (  6)  0.2293 ( 12) -0.2273 ( 13) -0.1658 ( 18)
           0.1659 ( 19)  0.2902 ( 20) -0.2901 ( 21) -0.1941 ( 24)  0.1935 ( 25)
           0.1166 (173)  0.1182 (174)  0.1110 (176)  0.1125 (177) -0.1124 (181)
          -0.1128 (182) -0.1108 (184) -0.1112 (185)  0.1147 (188)  0.1172 (189)
           0.1531 (199)  0.1507 (200)  0.1537 (202)  0.1512 (203) -0.1472 (208)
          -0.1051 (209) -0.1424 (210) -0.1446 (211) -0.1025 (212) -0.1397 (213)
 CRD101=  -0.1825 ( 47)  0.1823 ( 48)  0.3549 ( 50) -0.3570 ( 51)  0.1201 (262)
           0.1196 (263) -0.1547 (272) -0.1547 (273) -0.1706 (274)  0.1028 (276)
           0.1423 (277)  0.1428 (278)  0.1033 (279)  0.1428 (280)  0.1433 (281)
          -0.2403 (282) -0.2562 (283) -0.2403 (284) -0.2407 (285) -0.2566 (286)
          -0.2408 (287)
 CRD102=   0.2143 (  5) -0.2609 (  6) -0.1866 (  8)  0.2006 ( 10)  0.1456 ( 62)
          -0.1363 ( 63) -0.1063 ( 68) -0.2060 (156) -0.2442 (158) -0.2061 (159)
           0.3041 (161)  0.4014 (162)  0.3335 (164)  0.2061 (165)  0.1088 (166)
           0.1382 (167)  0.1926 (171) -0.1102 (184)
 CRD103=  -0.2670 ( 30)  0.1449 ( 32) -0.1534 ( 36)  0.2712 ( 38)  0.2080 (104)
           0.2281 (109)  0.1016 (111)  0.1456 (113) -0.1963 (114) -0.2370 (115)
           0.2414 (117) -0.1440 (119)  0.2010 (122) -0.2318 (126) -0.2134 (130)
           0.1101 (222) -0.1249 (228) -0.1244 (232) -0.1819 (239) -0.1251 (240)
          -0.1812 (241) -0.1250 (245)  0.1094 (253)
 CRD104=   0.1357 ( 26)  0.1699 ( 30) -0.1234 ( 31) -0.2831 ( 32) -0.1209 ( 34)
           0.1180 ( 35) -0.2771 ( 36)  0.1646 ( 38)  0.1336 ( 39) -0.1040 ( 99)
          -0.2418 (104) -0.1458 (109)  0.2249 (114)  0.1764 (115)  0.1704 (117)
           0.2182 (122) -0.1402 (126) -0.2352 (130) -0.1004 (133) -0.1226 (218)
          -0.1238 (225) -0.1023 (234)  0.1008 (235)  0.1208 (256)  0.1221 (257)
 CRD105=   0.1709 ( 26) -0.2126 ( 29) -0.2613 ( 30) -0.3609 ( 32)  0.3600 ( 36)
           0.2124 ( 37)  0.2535 ( 38) -0.1713 ( 39) -0.1202 (104)  0.1146 (107)
           0.1689 (111)  0.1410 (114) -0.1691 (120) -0.1422 (122) -0.1134 (123)
           0.1224 (130) -0.1068 (218) -0.1085 (239) -0.1083 (241) -0.1067 (256)
 CRD106=  -0.1217 ( 26)  0.1181 ( 29)  0.4228 ( 30) -0.2604 ( 31)  0.2889 ( 32)
          -0.2622 ( 34)  0.3020 ( 36)  0.1213 ( 37)  0.4288 ( 38) -0.1292 ( 39)
          -0.1594 (109)  0.1507 (115)  0.1493 (117)  0.1166 (118) -0.1603 (126)
 CRD107=  -0.3045 (  2)  0.1312 (  8) -0.1277 ( 32)  0.1829 ( 56) -0.1325 ( 57)
           0.1738 ( 58)  0.2460 ( 59) -0.1385 ( 60) -0.1078 ( 64)  0.1423 ( 65)
           0.1483 ( 67) -0.1443 ( 71) -0.1375 ( 73)  0.1364 ( 75)  0.1256 ( 76)
          -0.1358 ( 78) -0.1537 ( 79)  0.1089 ( 80)  0.1061 ( 82) -0.1401 ( 83)
          -0.1342 ( 85) -0.1142 ( 90) -0.1173 ( 91) -0.1013 (161) -0.1051 (166)
           0.1033 (172)  0.1778 (173) -0.1012 (175) -0.1942 (177)  0.1731 (182)
          -0.1555 (184)  0.1421 (190) -0.1435 (193)  0.1147 (200) -0.1159 (202)
 CRD108=   0.2284 ( 36) -0.1716 ( 39)  0.2306 ( 52)  0.1205 ( 53)  0.1212 ( 54)
           0.1353 (127)  0.1436 (128)  0.1680 (134)  0.1689 (135) -0.1169 (138)
          -0.1177 (139)  0.1529 (140)  0.1537 (141) -0.1587 (144) -0.1584 (145)
           0.1329 (146)  0.1325 (147)  0.1738 (148) -0.1901 (150) -0.1896 (151)
          -0.1834 (153) -0.1828 (154)  0.1190 (262) -0.1179 (263)  0.1693 (268)
          -0.1723 (270)  0.2154 (278) -0.2154 (280)  0.1106 (282) -0.1114 (287)
 CRD109=   0.1646 (  1) -0.2613 (  2) -0.1482 (  3)  0.1033 (  7)  0.1032 (  8)
           0.1149 ( 11) -0.1633 ( 26)  0.2123 ( 32)  0.1047 ( 56) -0.1200 ( 57)
           0.1081 ( 58)  0.2641 ( 59) -0.1532 ( 60) -0.1109 ( 64) -0.1257 ( 80)
          -0.1285 ( 82) -0.1453 ( 87) -0.1432 ( 88)  0.1125 ( 90)  0.1151 ( 91)
          -0.1134 ( 92) -0.1125 ( 94)  0.1443 ( 95)  0.1431 ( 97)  0.1253 (102)
           0.1365 (103) -0.1116 (190)  0.1083 (193) -0.1557 (200)  0.1523 (202)
          -0.1536 (208)  0.1609 (213)
 CRD110=  -0.2808 (  1)  0.3582 (  3)  0.1086 (  4) -0.1235 (  9)  0.1189 ( 17)
          -0.1311 ( 26) -0.1744 ( 29)  0.2183 ( 32) -0.1108 ( 35) -0.2189 ( 59)
           0.1856 ( 60) -0.1148 ( 61)  0.1194 ( 67)  0.1189 ( 68) -0.1028 ( 85)
           0.1211 (182) -0.1195 (184) -0.1077 (225)
 CRD111=   0.1133 (  3)  0.1055 ( 30) -0.2860 ( 36)  0.2597 ( 37) -0.1499 ( 38)
           0.1758 ( 39) -0.1254 ( 43) -0.1361 ( 46) -0.1862 ( 49)  0.1911 ( 52)
           0.1497 ( 53)  0.1475 ( 54)  0.1236 (117) -0.1166 (123) -0.1159 (124)
          -0.1101 (127) -0.1098 (128)  0.1267 (132)  0.1267 (133)  0.1214 (138)
           0.1109 (139)  0.1565 (146)  0.1569 (147)  0.1703 (148) -0.1465 (152)
          -0.1792 (153) -0.1808 (154) -0.1159 (256) -0.1450 (257)  0.1022 (259)
 CRD112=  -0.2562 (  2)  0.3329 (  3) -0.1121 (  5) -0.1362 (  9)  0.2817 ( 29)
          -0.2732 ( 30)  0.1157 ( 31) -0.1699 ( 32) -0.1534 ( 34) -0.1056 ( 37)
           0.2428 ( 38)  0.1192 ( 60)  0.1016 ( 99) -0.1025 (111)  0.1162 (119)
          -0.1012 (227)  0.1685 (239)
 CRD113=   0.2691 (  2) -0.2893 (  3)  0.1027 (  5) -0.1119 (  7)  0.1233 (  9)
          -0.1923 ( 30)  0.1601 ( 31)  0.1014 ( 32) -0.1339 ( 34) -0.1356 ( 37)
           0.2167 ( 38) -0.1109 ( 98) -0.1019 (105) -0.1294 (111)  0.1375 (120)
           0.1002 (220) -0.1164 (222) -0.1919 (225)  0.1030 (234)  0.1136 (235)
           0.1205 (239)  0.1813 (241) -0.1425 (257) -0.1086 (261)
 CRD114=   0.1419 (  1) -0.2761 (  2)  0.1709 (  3)  0.1318 ( 10) -0.1397 ( 16)
           0.1427 ( 23) -0.2653 ( 29)  0.1661 ( 32)  0.1261 ( 33) -0.1585 ( 35)
           0.1251 ( 36) -0.2116 ( 37)  0.1033 ( 40) -0.1579 ( 49) -0.1131 ( 64)
          -0.1055 ( 65)  0.1019 ( 78)  0.1278 (114)  0.1135 (122) -0.1095 (173)
           0.1006 (238)
 CRD115=   0.1028 (  1) -0.1588 (  2)  0.1110 ( 10)  0.1154 ( 23) -0.1100 ( 26)
           0.1129 ( 30)  0.1273 ( 35) -0.2059 ( 36)  0.2679 ( 37) -0.1436 ( 40)
           0.2146 ( 49) -0.1070 ( 53) -0.1083 ( 54)  0.1018 (109) -0.1030 (116)
          -0.1082 (118) -0.1619 (122)  0.1261 (152) -0.1319 (214) -0.1189 (222)
          -0.2287 (225)  0.1711 (235)  0.1415 (241)
 CRD116=  -0.1042 ( 26)  0.1557 ( 30) -0.1585 ( 32)  0.1343 ( 33)  0.1309 ( 35)
           0.1956 ( 38) -0.1163 ( 39)  0.1462 ( 40) -0.1010 ( 41) -0.1516 ( 49)
           0.1113 (105)  0.1118 (109) -0.1133 (110) -0.1674 (114) -0.2075 (118)
          -0.1226 (122)  0.1533 (126)  0.1246 (131) -0.1127 (222) -0.1007 (225)
           0.1119 (228) -0.1517 (232) -0.1771 (234) -0.2717 (239)  0.2088 (241)
           0.1166 (245)  0.1819 (253)  0.2561 (257)  0.1142 (261)  0.1519 (265)
 CRD117=   0.1907 (  3) -0.3946 (  4)  0.1472 (  6) -0.1137 (  7)  0.1220 (  9)
           0.3213 ( 10)  0.1220 ( 17) -0.1063 ( 23)  0.2212 ( 29) -0.1067 ( 30)
           0.1096 ( 61)  0.2086 ( 63) -0.2619 ( 68) -0.1330 ( 70)  0.1123 ( 73)
          -0.1799 (158)  0.1567 (166)
 CRD118=  -0.1243 (  1)  0.2216 (  3) -0.5167 (  4) -0.1252 (  6)  0.3256 (  8)
           0.1953 (  9) -0.1341 ( 29) -0.1634 ( 59)  0.1237 ( 61)  0.2573 ( 62)
           0.1148 ( 63) -0.3075 ( 69) -0.1432 ( 70)  0.1728 (158) -0.1360 (166)
 CRD119=  -0.1330 (  8)  0.1188 ( 10)  0.1230 ( 27) -0.1314 ( 28) -0.1765 ( 29)
           0.2101 ( 30)  0.1645 ( 31)  0.1950 ( 34) -0.2339 ( 37)  0.2320 ( 38)
           0.1100 ( 41) -0.1451 ( 42)  0.1262 (105)  0.1991 (109) -0.1104 (114)
          -0.1123 (115) -0.1381 (117)  0.1354 (121) -0.1036 (122)  0.2229 (126)
          -0.1070 (158)  0.1704 (225)  0.1575 (227) -0.1359 (235)  0.1056 (236)
          -0.1308 (238) -0.1102 (241) -0.1293 (257) -0.1358 (261)
 CRD120=   0.1959 ( 30)  0.1586 ( 31) -0.2808 ( 32) -0.1569 ( 34)  0.2827 ( 36)
          -0.1988 ( 38)  0.1701 (105)  0.1178 (106)  0.2070 (109) -0.2083 (110)
          -0.2205 (114)  0.2108 (116) -0.1727 (121)  0.2190 (122) -0.2073 (126)
          -0.1190 (131) -0.1260 (225)  0.1033 (232)  0.1142 (234)  0.1164 (235)
           0.1063 (236)  0.1025 (238)  0.1020 (245) -0.1244 (257)
 CRD121=  -0.1620 (  1)  0.1188 (  2) -0.2485 (  8)  0.1856 (  9)  0.1450 ( 11)
           0.1122 ( 16) -0.1029 ( 17) -0.1486 ( 22)  0.1886 ( 26) -0.1510 ( 29)
           0.1236 ( 33)  0.1084 ( 39) -0.1012 ( 43)  0.1331 ( 49)  0.1022 ( 58)
           0.1198 ( 63) -0.1802 ( 68)  0.1009 ( 70) -0.1131 ( 79) -0.1002 ( 82)
          -0.1054 (104)  0.1252 (114)  0.1393 (156) -0.1343 (158) -0.1483 (177)
          -0.1133 (239)  0.1262 (241)
 CRD122=   0.1268 (  8) -0.1497 (  9)  0.1305 ( 29)  0.1391 ( 36) -0.2427 ( 37)
           0.2444 ( 39) -0.1946 ( 43) -0.1463 ( 46)  0.2580 ( 49) -0.1383 ( 53)
          -0.1298 ( 54)  0.1616 (122) -0.1002 (127) -0.1403 (130)  0.1094 (138)
           0.1173 (139)  0.1252 (140)  0.1209 (141)  0.1813 (152) -0.1005 (156)
          -0.1098 (239)  0.1021 (253)  0.1688 (282) -0.1024 (286) -0.1678 (287)
 CRD123=  -0.1088 (  3) -0.1132 (  7)  0.1884 (  8) -0.4390 (  9)  0.2901 ( 10)
           0.1079 ( 16) -0.1116 ( 22)  0.1222 ( 26) -0.1124 ( 29)  0.2312 ( 57)
           0.2596 ( 61) -0.1158 ( 62)  0.1631 ( 69) -0.3181 ( 70) -0.2445 (156)
           0.2820 (159)
 CRD124=   0.1941 ( 47) -0.1884 ( 48) -0.2751 ( 50)  0.2763 ( 51)  0.2103 ( 53)
          -0.2212 ( 54)  0.1629 (153) -0.1647 (154) -0.1277 (267) -0.1310 (268)
          -0.1208 (270) -0.1241 (271)  0.1620 (274)  0.2145 (277)  0.2171 (278)
           0.2104 (280)  0.2131 (281) -0.2001 (282) -0.2076 (284) -0.2049 (285)
          -0.2125 (287)
 CRD125=  -0.1122 ( 12)  0.1068 ( 13)  0.1158 ( 14) -0.1198 ( 15) -0.1051 ( 20)
           0.1273 ( 21)  0.2029 ( 24) -0.1993 ( 25) -0.1790 ( 27)  0.1434 ( 28)
          -0.1238 ( 31)  0.1591 ( 34)  0.1237 ( 41) -0.1040 ( 42) -0.1180 ( 44)
           0.1132 ( 45) -0.1015 (107) -0.1064 (184) -0.1151 (185) -0.1286 (208)
          -0.1384 (210) -0.1478 (211) -0.1575 (213)  0.1542 (217)  0.1819 (218)
           0.1388 (220)  0.1666 (221) -0.1188 (225)  0.1134 (246)  0.1039 (255)
           0.1149 (256)  0.1017 (260)
 CRD126=   0.1009 ( 14) -0.1644 ( 18)  0.1411 ( 19)  0.1719 ( 20) -0.1649 ( 21)
          -0.1304 ( 24)  0.1197 ( 25) -0.1205 ( 31)  0.1391 ( 41) -0.1357 ( 44)
           0.1181 ( 45) -0.1000 (181)  0.1546 (190)  0.1340 (192)  0.1075 (194)
          -0.1233 (199) -0.1776 (200) -0.1240 (202) -0.1783 (203)  0.1252 (208)
           0.1092 (210)  0.1667 (211)  0.1507 (213) -0.1038 (239)  0.1315 (256)
          -0.1041 (257)  0.1141 (260)  0.1138 (275)
 CRD127=   0.1679 (  1) -0.1435 (  2) -0.1109 ( 11) -0.1363 ( 12)  0.1371 ( 13)
           0.1253 ( 14)  0.1058 ( 16)  0.1012 ( 17) -0.1240 ( 22)  0.1542 ( 26)
          -0.1915 ( 29)  0.1427 ( 31) -0.1200 ( 34) -0.1070 ( 41)  0.1055 ( 42)
           0.1241 ( 44) -0.1276 ( 45) -0.1041 ( 57) -0.1347 ( 58) -0.1165 ( 64)
          -0.1178 ( 85)  0.1192 (176)  0.1168 (177) -0.1490 (181) -0.1264 (184)
           0.1177 (190) -0.1116 (255) -0.1003 (256)
 CRD128=  -0.1084 (  1)  0.1185 ( 11)  0.1453 ( 14) -0.1724 ( 15) -0.1651 ( 18)
           0.1904 ( 19)  0.1117 ( 20) -0.1144 ( 21)  0.1000 ( 23) -0.1058 ( 33)
          -0.1065 ( 41)  0.1022 ( 44) -0.1189 ( 76) -0.1063 ( 97) -0.1178 (182)
          -0.1142 (184) -0.1548 (185)  0.1048 (190)  0.1320 (192)  0.2055 (193)
           0.1783 (194) -0.1683 (199) -0.1081 (200) -0.1627 (202) -0.1025 (203)
           0.1033 (239) -0.1091 (241) -0.1019 (256)
 CRD129=   0.1752 ( 37) -0.1599 ( 39)  0.1588 ( 40)  0.1306 ( 43)  0.1208 ( 45)
          -0.2156 ( 46) -0.1106 ( 48)  0.1412 ( 50)  0.2161 ( 52) -0.1638 ( 53)
           0.1516 (123)  0.1401 (130) -0.1251 (132) -0.1058 (133) -0.1154 (134)
          -0.1076 (135)  0.1238 (140)  0.1082 (143)  0.1010 (144) -0.1763 (149)
           0.1539 (152) -0.1358 (153) -0.1305 (243)  0.1209 (255) -0.1399 (261)
           0.1119 (272) -0.1129 (273) -0.1459 (278)  0.1259 (279)  0.1630 (280)
           0.2472 (282) -0.1398 (286) -0.1798 (287)
 CRD130=   0.1079 (  6)  0.1358 (  8) -0.1321 ( 10)  0.1513 ( 12) -0.1146 ( 13)
           0.1005 ( 16) -0.1189 ( 22) -0.1595 ( 27) -0.1380 ( 31)  0.2615 ( 34)
          -0.1378 ( 37) -0.1060 ( 56) -0.1083 ( 83) -0.1225 (120)  0.1036 (126)
          -0.1070 (156)  0.1383 (161)  0.1302 (171) -0.1285 (173) -0.1020 (174)
           0.1239 (182)  0.1126 (185)  0.1406 (218) -0.1248 (225) -0.1026 (241)
           0.1311 (246)
 CRD131=  -0.1021 (  1) -0.1443 ( 13)  0.1126 ( 14)  0.1314 ( 15) -0.1412 ( 18)
          -0.1083 ( 19)  0.1388 ( 20) -0.1073 ( 25) -0.1009 ( 26) -0.1135 ( 72)
           0.1785 ( 77) -0.2025 ( 84)  0.2077 ( 89) -0.1973 ( 96)  0.1596 (101)
          -0.1024 (160) -0.1073 (169)  0.1007 (170)  0.1251 (173) -0.1679 (177)
          -0.1605 (182)  0.1978 (184)  0.1861 (190) -0.1821 (193) -0.1969 (200)
           0.1693 (202)  0.1024 (204)  0.1743 (208)  0.1100 (209) -0.1670 (213)
          -0.1075 (218)  0.1353 (220)
 CRD132=  -0.1518 (  5)  0.1306 (  7)  0.1400 ( 12) -0.1424 ( 23) -0.1469 ( 25)
           0.1389 ( 28)  0.1029 ( 43) -0.1018 ( 60)  0.1007 ( 64)  0.1460 ( 72)
          -0.1507 ( 77)  0.1031 ( 78) -0.1040 ( 92)  0.1432 (101)  0.1023 (105)
          -0.1521 (106)  0.1228 (160)  0.1325 (162)  0.1441 (165) -0.1768 (173)
          -0.1061 (176)  0.1132 (194) -0.1052 (203) -0.1094 (216) -0.1002 (218)
           0.1796 (220)  0.1040 (225) -0.1476 (226) -0.1276 (227)
 CRD133=   0.1587 ( 31)  0.2317 ( 39) -0.1089 ( 41) -0.1009 ( 42) -0.1269 ( 43)
           0.1124 ( 44)  0.1762 ( 45)  0.2172 ( 46) -0.1233 ( 48) -0.1025 ( 49)
           0.1666 (131) -0.2346 (137)  0.1646 (143) -0.1041 (145) -0.1051 (247)
           0.1206 (248)  0.1151 (250) -0.1123 (254) -0.2044 (256)  0.2279 (259)
           0.1034 (266)  0.1895 (268) -0.1046 (269) -0.2332 (270)
 CRD134=   0.1193 ( 29) -0.2239 ( 31)  0.1191 ( 34) -0.2008 ( 40)  0.1257 ( 43)
           0.1376 ( 44) -0.1765 ( 47) -0.1894 ( 49)  0.1138 ( 51)  0.1023 ( 52)
          -0.1043 ( 54)  0.1246 (111)  0.1217 (127) -0.1085 (137)  0.1729 (143)
          -0.1317 (149) -0.1336 (154)  0.1124 (234) -0.1089 (257)  0.1126 (263)
           0.2087 (268)  0.1060 (274)  0.1062 (275) -0.1079 (276) -0.1875 (278)
           0.1550 (280)  0.1043 (283) -0.1217 (287)
 CRD135=   0.2095 (  1) -0.1989 (  7)  0.1326 ( 13) -0.1020 ( 14)  0.2376 ( 16)
          -0.2240 ( 17)  0.2389 ( 23) -0.1420 ( 24) -0.2005 ( 26) -0.1201 ( 58)
          -0.1461 ( 77)  0.1107 ( 84)  0.1006 ( 90) -0.1432 ( 96)  0.1510 (101)
          -0.1052 (102)  0.1165 (107)  0.1531 (177)  0.1577 (182) -0.1638 (184)
          -0.1105 (186)  0.1032 (196)  0.1191 (202)  0.2014 (208) -0.1598 (213)
          -0.1304 (218)
 CRD136=   0.1591 (  6) -0.2224 (  7)  0.1130 (  8) -0.1126 ( 10)  0.1964 ( 11)
          -0.1585 ( 17)  0.1203 ( 19)  0.1447 ( 22) -0.1021 ( 26) -0.1278 ( 34)
          -0.1483 ( 40)  0.1184 ( 43) -0.1114 ( 49) -0.1581 ( 72)  0.1112 ( 73)
          -0.1267 ( 89)  0.1000 ( 91) -0.1173 (156) -0.1166 (159)  0.1563 (161)
           0.1233 (163)  0.1522 (166)  0.1295 (171) -0.1410 (177) -0.1020 (190)
           0.1581 (193) -0.1016 (202)
 CRD137=   0.1007 (  5)  0.1396 ( 11)  0.1590 ( 22) -0.1526 ( 23)  0.1039 ( 28)
           0.1958 ( 40) -0.1158 ( 42) -0.1362 ( 43)  0.1439 ( 49) -0.1242 ( 89)
          -0.1351 (106)  0.1125 (131) -0.1261 (133)  0.1006 (173) -0.1104 (190)
           0.1025 (200) -0.1090 (218)  0.1023 (220) -0.1016 (222)  0.1228 (224)
          -0.1635 (227)  0.1063 (236)  0.1277 (242) -0.1071 (247) -0.1932 (261)
 CRD138=  -0.1193 (  5) -0.1232 ( 28)  0.1239 ( 33) -0.1280 ( 34)  0.1137 ( 37)
          -0.1196 ( 42)  0.1204 ( 53) -0.1022 ( 99) -0.1200 (118)  0.1115 (123)
          -0.1115 (133)  0.1121 (153)  0.1143 (163)  0.1047 (165) -0.1088 (211)
          -0.1018 (215)  0.1102 (216)  0.1651 (227) -0.1001 (235)  0.1010 (244)
          -0.1118 (247) -0.1495 (261)  0.1126 (274)  0.1029 (283)  0.1027 (286)
 CRD139=   0.2002 (  7) -0.1726 ( 11) -0.1468 ( 22)  0.1959 ( 23) -0.1427 ( 26)
          -0.1381 ( 34)  0.1922 ( 35) -0.1129 ( 67)  0.1011 ( 76)  0.1274 ( 94)
          -0.1103 (102) -0.1168 (103)  0.1081 (108)  0.1030 (112) -0.1281 (118)
          -0.1380 (181) -0.1046 (183)  0.1576 (185)  0.1222 (192) -0.1184 (194)
          -0.1603 (210)  0.1555 (211)  0.1559 (217) -0.1042 (221)  0.1019 (229)
          -0.1047 (230)  0.1100 (237) -0.1759 (238)
 CRD140=  -0.1784 ( 31)  0.1152 ( 32)  0.2458 ( 35) -0.1146 ( 37)  0.1360 ( 42)
          -0.1349 ( 48)  0.1342 ( 54)  0.1419 (110)  0.1214 (112)  0.1501 (113)
           0.1156 (116) -0.1310 (117) -0.1346 (118) -0.1318 (120)  0.1011 (124)
           0.1077 (138) -0.1343 (230) -0.1603 (231)  0.2352 (236)  0.1244 (237)
           0.1308 (245)  0.1048 (248) -0.1385 (260) -0.1325 (267) -0.1282 (286)
 CRD141=  -0.1653 (  1)  0.1367 (  6) -0.1375 ( 15)  0.1138 ( 21) -0.1399 ( 22)
           0.1422 ( 23)  0.1012 ( 27)  0.1281 ( 34)  0.1076 ( 58) -0.1232 ( 65)
          -0.1108 ( 71)  0.1031 ( 82) -0.1000 ( 87)  0.1393 ( 97) -0.1279 (156)
          -0.1123 (159)  0.1020 (160)  0.1720 (163)  0.1033 (166)  0.1078 (168)
           0.1236 (174) -0.1308 (175) -0.1386 (176) -0.1392 (181) -0.1050 (187)
           0.1282 (196)  0.1701 (199) -0.1039 (204)  0.1042 (207) -0.1195 (210)
           0.1476 (238)
 CRD142=   0.1936 ( 39) -0.2346 ( 40)  0.2281 ( 43) -0.2310 ( 46)  0.1803 ( 49)
          -0.1078 (123)  0.1303 (127)  0.1523 (128) -0.1631 (135) -0.1099 (138)
          -0.1491 (139)  0.1609 (144)  0.1201 (145) -0.1100 (150) -0.1314 (250)
          -0.1486 (255)  0.1142 (260) -0.1216 (263)  0.1506 (266)  0.2183 (267)
          -0.2519 (271) -0.1094 (277)  0.1641 (281)
 CRD143=   0.1422 (  7) -0.2165 ( 11)  0.2139 ( 16) -0.2075 ( 17)  0.1999 ( 22)
          -0.1139 ( 23) -0.1237 ( 35)  0.1258 ( 75) -0.1362 ( 80) -0.1312 ( 82)
          -0.1128 ( 85)  0.1239 ( 90)  0.1457 ( 91) -0.1061 ( 95)  0.1016 ( 96)
           0.1190 (188) -0.1018 (189)  0.1152 (191)  0.2114 (192) -0.1820 (194)
          -0.1094 (195) -0.1807 (199)  0.1896 (203)  0.1203 (238)
 CRD144=   0.1397 ( 39) -0.1225 ( 42) -0.1682 ( 43)  0.1406 ( 46)  0.1251 ( 48)
          -0.1658 ( 49)  0.2325 ( 52) -0.1049 ( 54)  0.1457 (131)  0.1092 (136)
          -0.1388 (140) -0.1362 (141) -0.1752 (143) -0.1201 (148)  0.1443 (150)
           0.1286 (151)  0.1435 (152) -0.1135 (154)  0.1203 (260)  0.1438 (272)
          -0.1561 (273)  0.1389 (276)  0.1994 (277) -0.1362 (279) -0.2152 (281)
          -0.2422 (284)  0.2370 (285)  0.1057 (286)
 CRD145=   0.1572 (  1) -0.1091 (  5) -0.1045 (  7)  0.1055 ( 11) -0.2109 ( 16)
           0.2167 ( 17) -0.1094 ( 22) -0.1897 ( 26)  0.1044 ( 28)  0.1003 ( 67)
           0.1216 ( 72) -0.1083 ( 79) -0.1389 ( 84)  0.1080 ( 94)  0.1406 ( 96)
          -0.1011 (103) -0.1356 (106) -0.1239 (169)  0.1118 (170) -0.1110 (172)
          -0.1723 (174)  0.1364 (176)  0.1820 (181) -0.1853 (185) -0.1076 (205)
           0.1105 (206) -0.1166 (209) -0.1801 (210)  0.1707 (211)  0.1170 (212)
           0.1792 (217) -0.1606 (221)
 CRD146=   0.2099 ( 33) -0.1242 ( 53)  0.1067 (111)  0.1045 (156) -0.1589 (163)
           0.1088 (164) -0.1134 (165) -0.1170 (224)  0.1325 (227)  0.1253 (228)
          -0.1028 (229)  0.1878 (232)  0.1647 (234) -0.1285 (235) -0.1700 (240)
           0.1443 (242) -0.1546 (245)  0.1046 (249) -0.1301 (253) -0.1196 (261)
          -0.1099 (264) -0.1269 (265) -0.1514 (283)
 CRD147=   0.1328 (  1) -0.1359 (  5) -0.1084 ( 13) -0.1235 ( 16) -0.1134 ( 17)
           0.1354 ( 19)  0.1005 ( 23) -0.1044 ( 25)  0.1231 ( 26) -0.1485 ( 28)
          -0.1232 ( 55) -0.1050 ( 66)  0.1418 ( 72)  0.1369 ( 77)  0.1325 ( 81)
          -0.1805 ( 89) -0.1044 ( 93) -0.1232 (100)  0.1369 (101)  0.1352 (106)
           0.1377 (157)  0.1057 (162) -0.1096 (172) -0.2423 (174)  0.1102 (175)
           0.1840 (176) -0.1235 (178)  0.1806 (192) -0.1395 (194)  0.1592 (199)
          -0.1485 (203) -0.1363 (204) -0.1227 (206) -0.2087 (217)  0.1528 (219)
           0.1769 (221)
 CRD148=   0.1309 ( 39)  0.1056 ( 40) -0.1111 ( 44) -0.1120 ( 46)  0.1202 ( 50)
          -0.1131 ( 52) -0.1234 (125) -0.1248 (129)  0.1373 (131)  0.1576 (137)
           0.1310 (142)  0.1153 (148) -0.1673 (149)  0.1089 (156)  0.1043 (159)
           0.1239 (161) -0.1836 (163)  0.1086 (164) -0.1024 (165)  0.1028 (247)
          -0.1147 (248) -0.1048 (254) -0.2020 (255)  0.2185 (260) -0.1086 (272)
          -0.1129 (281)  0.1362 (283)  0.2023 (284) -0.2057 (285)
 CRD149=  -0.1312 ( 27)  0.1016 ( 33)  0.1056 (131) -0.1199 (149) -0.1451 (156)
          -0.1395 (159) -0.1752 (161) -0.1122 (162)  0.2472 (163) -0.1423 (164)
           0.1352 (165)  0.1050 (167)  0.1034 (180) -0.1003 (198)  0.1215 (214)
          -0.1146 (216)  0.1126 (222) -0.1039 (224)  0.1317 (228) -0.1030 (235)
[...]
1670  42  24.993260  -9.693766  -0.288657  -0.000100   0.070521  -0.001417
1671  41  24.438000  -9.849583  -0.467825  -0.000256   0.154250  -0.001661
1672  41  21.011476  -8.440265   5.983416   0.000009   0.028066   0.000315
1673  43  21.155485  -8.650791   6.149185  -0.000025   0.028066  -0.000892
1674  44  21.039779  -7.947951   5.910434   0.000030   0.028066   0.001067
1675  41  25.079046  -9.778023   5.716324   0.000132   0.089531   0.001470
1676  43  24.874112  -9.853285   5.932698  -0.000095   0.089531  -0.001063
1677  51  25.338561  -8.899449   6.123744   0.000209   0.089531   0.002335
1678  43  20.983796  -9.162242   6.270796  -0.000091   0.072214  -0.001262
1679  43  20.547938  -9.922405   6.064503  -0.000113   0.072214  -0.001564
1680  41  20.556469  -9.342427   5.873472  -0.000231   0.157161  -0.001473
1681  43  23.875732 -12.194280   5.434766  -0.000035   0.083011  -0.000426
1682  43  24.572129 -11.118931   5.726366  -0.000307   0.192601  -0.001595
1683  41  24.378200 -11.863581   5.174271   0.000085   0.174863   0.000488
1684  41  25.018616 -10.608801   5.515018   0.000179   0.101416   0.001766
1685  41  20.473887  -8.013034   5.572277   0.000029   0.028169   0.001043
1686  44  20.458316  -7.514778   5.571586   0.000004   0.028169   0.000148
1687  47  20.259776  -7.297174   5.494259  -0.000026   0.028169  -0.000918
1688  41  24.192092  -8.518806  -0.578408   0.000036   0.028385   0.001275
1689  44  24.220213  -8.026464  -0.651329   0.000020   0.028385   0.000707
1690  48  24.073572  -7.817520  -0.817398  -0.000016   0.028385  -0.000549
1691  44  20.685116  -7.620390   5.751242   0.000125   0.078965   0.001587
1692  41  20.755581  -8.330573   5.852360   0.000137   0.078965   0.001736
1693  44  24.571049  -8.132660  -0.463516   0.000154   0.083113   0.001848
1694  41  24.475148  -8.847725  -0.462977   0.000147   0.083113   0.001764
1695  46  24.271270 -14.277664   2.461132   0.000021   0.038813   0.000544
1696  41  24.686138 -13.067613   3.186212   0.000237   0.055121   0.004303
1697  47  19.802421  -7.274099   5.255618  -0.000192   0.147141  -0.001306
1698  41  20.155137  -8.319102   5.484035   0.000373   0.207428   0.001798
1699  48  23.800600  -7.762741  -1.053464  -0.000144   0.137930  -0.001044
1700  41  23.848711  -8.862365  -0.825308   0.000319   0.194470   0.001640
1701  41  25.386744  -9.356153   5.648571   0.000230   0.067508   0.003406
1702  49  25.842439  -8.690175   5.889372   0.000145   0.067508   0.002155
1703  51  25.744321  -8.564331   6.150119  -0.000010   0.067508  -0.000141
1704  49  26.337057  -8.889403   5.194240   0.001310   0.524538   0.002497
1705  41  25.946505  -9.933593   4.610453   0.001347   0.524538   0.002568
1706  51  25.761844  -8.552093   6.375275   0.000030   0.007459   0.003983
1707  41  25.319161  -9.800977   5.717089   0.000080   0.010601   0.007521
1708  42  25.754187  -8.670205   0.499632  -0.000110   0.165919  -0.000665
1709  44  25.622574  -7.934770   0.397610   0.000099   0.165919   0.000598
1710  50  26.274445  -7.761449   0.735466  -0.000033   0.165919  -0.000201
1711  44  25.180583  -8.116095  -0.079063   0.000330   0.192921   0.001712
1712  42  25.325808  -9.227572  -0.007394  -0.000162   0.136824  -0.001183
1713  46  23.972309 -13.208917  -0.583015  -0.000321   0.258607  -0.001243
1714  46  24.597122 -13.750437   0.257919  -0.001544   0.517214  -0.002986
1715  46  24.668755 -14.140469   1.636591  -0.001031   0.517214  -0.001993
1716  42  24.913748 -12.122717   0.049687  -0.000778   0.517214  -0.001503
1717  42  25.427412 -12.700193   1.258265  -0.000792   0.517214  -0.001531
1718  42  25.252678 -12.902663   2.406864   0.000224   0.258607   0.000867
1719  42  26.581206  -9.650564   3.439740   0.000187   0.089353   0.002095
1720  49  26.962115  -8.868433   3.932369   0.000131   0.089353   0.001463
1721  50  27.162349  -8.794729   3.711187  -0.000085   0.089353  -0.000953
1722  49  26.980280  -9.033996   4.101236   0.000064   0.007780   0.008186
1723  42  26.488082 -10.239356   3.407534   0.000023   0.005477   0.004182
1724  50  27.496821  -8.882814   3.397844   0.000366   0.255493   0.001431
1725  50  27.650742  -8.679576   2.274910  -0.000250   0.510903  -0.000490
1726  50  27.156950  -8.092249   1.100871  -0.000233   0.510903  -0.000456
1727  42  26.841144 -10.115189   2.633672  -0.000034   0.510903  -0.000067
1728  42  26.761838  -9.721137   1.289952  -0.000452   0.510903  -0.000885
1729  42  26.166525  -9.168529   0.473738   0.000076   0.255493   0.000297
1730  43  22.156804  -8.178460   6.473929  -0.000032   0.166400  -0.000192
1731  44  22.065903  -7.444521   6.319427   0.000116   0.166400   0.000695
1732  51  22.684242  -7.264718   6.713185  -0.000066   0.166400  -0.000399
1733  44  21.285753  -7.633029   6.114519   0.000391   0.206000   0.001897
1734  43  21.573823  -8.670008   6.446250  -0.000192   0.146127  -0.001313
1735  51  23.037129  -7.336717   7.248397   0.000147   0.253717   0.000579
1736  51  23.980119  -7.936213   7.458941  -0.000327   0.507312  -0.000645
1737  51  25.154450  -8.486115   6.969783   0.000109   0.507312   0.000215
1738  43  22.637452  -8.870456   7.016837  -0.000227   0.507312  -0.000447
1739  43  23.841112  -9.556617   6.983561  -0.000259   0.507312  -0.000511
1740  43  24.731103  -9.909892   6.370320   0.000374   0.253717   0.001472
1741  44  21.436208  -5.818315   6.018911   0.000029   0.028374   0.001009
1742  47  21.169667  -5.718453   5.910571  -0.000009   0.028374  -0.000307
1743  49  21.853419  -5.616449   6.202994   0.000049   0.028374   0.001728
1744  44  20.653551  -3.540325   2.333243   0.000168   0.067694   0.002483
1745  47  20.461104  -3.624974   2.555825  -0.000012   0.067694  -0.000180
1746  52  21.130175  -2.877369   2.540654   0.000240   0.067694   0.003542
1747  47  20.267894  -6.764584   5.639349  -0.000087   0.071968  -0.001207
1748  47  20.704589  -6.007868   5.839214  -0.000078   0.071968  -0.001082
1749  44  20.829302  -6.604209   5.815027  -0.000209   0.156817  -0.001330
1750  47  19.885838  -4.070942   2.343647   0.000017   0.083758   0.000203
1751  47  19.224242  -5.160405   1.987867  -0.000303   0.194731  -0.001559
1752  44  19.858083  -4.469589   1.820108   0.000188   0.176146   0.001068
1753  44  19.166352  -5.728301   1.559377   0.000163   0.102329   0.001591
1754  44  25.182776  -6.351769  -0.211819   0.000013   0.028469   0.000461
1755  48  24.969585  -6.258592  -0.408312  -0.000020   0.028469  -0.000710
1756  49  25.556552  -6.143704   0.044511   0.000033   0.028469   0.001168
1757  44  21.742394  -3.694594   0.518752   0.000182   0.067815   0.002684
1758  48  21.841307  -3.819761   0.257436  -0.000039   0.067815  -0.000568
1759  52  22.199656  -3.028785   0.758181   0.000231   0.067815   0.003402
1760  48  24.667578  -6.565985  -0.746956  -0.000080   0.070691  -0.001134
1761  48  24.239443  -7.310542  -0.942456  -0.000084   0.070691  -0.001193
1762  44  24.667006  -7.138065  -0.551313  -0.000181   0.154604  -0.001171
1763  48  20.468543  -5.798869  -0.493669   0.000015   0.082413   0.000178
1764  48  21.040863  -4.665671  -0.195237  -0.000292   0.190694  -0.001530
1765  44  20.416612  -5.349642  -0.022722   0.000123   0.174024   0.000705
1766  44  21.173890  -4.166344   0.287120   0.000191   0.100686   0.001896
1767  44  25.731015  -6.769294   0.202929   0.000032   0.028370   0.001134
1768  49  26.148205  -6.567414   0.387051   0.000005   0.028370   0.000189
1769  50  26.414277  -6.667439   0.495262  -0.000025   0.028370  -0.000875
1770  44  22.032420  -6.251849   6.363862   0.000048   0.028254   0.001706
1771  49  22.406200  -6.043913   6.620283   0.000028   0.028254   0.000979
1772  51  22.619843  -6.135561   6.816305  -0.000010   0.028254  -0.000344
1773  49  22.174858  -5.736628   6.489176   0.000168   0.081661   0.002052
1774  44  21.638104  -6.121866   6.199269   0.000171   0.081661   0.002094
1775  49  25.979817  -6.356990   0.234284   0.000128   0.079661   0.001610
1776  44  25.380680  -6.566717  -0.107983   0.000145   0.079661   0.001823
1777  50  26.622035  -7.106706   0.612388  -0.000170   0.140549  -0.001209
1778  44  25.628217  -7.182783   0.092700   0.000385   0.198162   0.001945
1779  51  22.761484  -6.430922   6.990278  -0.000128   0.141839  -0.000901
1780  44  21.883861  -6.786230   6.383115   0.000380   0.199972   0.001902
1781  52  21.831727  -2.479246   1.488858   0.001466   0.531208   0.002760
1782  44  21.052713  -3.468133   1.546671   0.001424   0.531208   0.002680
1783  46  22.622455 -17.054506   1.460754  -0.000342   0.309168  -0.001105
1784  46  22.215577 -17.096390   0.383377  -0.000324   0.309168  -0.001049
1785  45  21.422312 -17.928255   1.331631  -0.001757   0.620069  -0.002833
1786  47  21.320691  -4.590512   5.656333  -0.000076   0.168267  -0.000449
1787  49  21.970933  -4.413040   5.996317   0.000105   0.168267   0.000626
1788  53  21.859323  -3.664010   5.901559  -0.000053   0.168267  -0.000314
1789  49  21.945621  -5.058103   6.270131   0.000369   0.207694   0.001779
1790  47  20.971311  -5.405399   5.826532  -0.000145   0.147324  -0.000987
1791  47  20.692435  -3.246291   2.939521   0.000212   0.088598   0.002398
1792  52  21.233235  -2.404027   2.880653   0.000106   0.088598   0.001192
1793  53  21.159876  -2.278253   3.150355  -0.000099   0.088598  -0.001121
1794  52  21.125774  -2.414662   2.616734   0.000211   0.045138   0.004669
1795  47  20.242045  -3.599088   2.696350   0.000067   0.031762   0.002103
1796  53  20.857648  -2.154703   3.469180   0.000369   0.249362   0.001478
1797  53  20.738806  -2.371977   4.546125  -0.000249   0.498534  -0.000500
1798  53  21.222090  -2.950022   5.664919  -0.000246   0.498534  -0.000493
1799  47  20.020646  -3.544254   3.529010   0.000113   0.498534   0.000227
1800  47  20.122200  -3.944568   4.813079  -0.000250   0.498534  -0.000501
1801  47  20.692643  -4.482768   5.591588   0.000142   0.249362   0.000570
1802  48  24.904532  -5.102682  -0.300254  -0.000030   0.168138  -0.000179
1803  49  25.523187  -4.922020   0.092012   0.000102   0.168138   0.000608
1804  54  25.443950  -4.177839  -0.057056  -0.000104   0.168138  -0.000621
1805  49  25.729208  -5.727776   0.032640   0.000390   0.206543   0.001886
1806  48  24.796871  -5.808262  -0.591370  -0.000182   0.146502  -0.001245
1807  48  22.320638  -3.475408   0.231264   0.000189   0.088524   0.002133
1808  52  22.587771  -2.595072   0.627502   0.000090   0.088524   0.001019
1809  54  22.799567  -2.510603   0.422678  -0.000015   0.088524  -0.000166
1810  52  22.319044  -2.578940   0.643667   0.000212   0.047684   0.004444
1811  48  21.847493  -3.829538   0.011536   0.000034   0.033557   0.001010
1812  54  25.329358  -3.716504  -0.490299   0.000080   0.249397   0.000322
1813  54  24.416434  -3.128111  -0.700958  -0.000374   0.498608  -0.000750
1814  54  23.269850  -2.576986  -0.248076   0.000035   0.498608   0.000069
1815  48  24.219043  -4.807762  -0.943116  -0.000161   0.498608  -0.000323
1816  48  23.051050  -4.130298  -0.924967  -0.000220   0.498608  -0.000441
1817  48  22.176786  -3.770043  -0.350603   0.000298   0.249397   0.001195
1818  49  27.117851  -4.885072   0.825088   0.000049   0.028328   0.001737
1819  50  27.316801  -5.101545   0.902974   0.000010   0.028328   0.000368
1820  52  27.104047  -4.386887   0.823219   0.000097   0.028328   0.003418
1821  49  28.618612  -4.691712   3.745108   0.000031   0.028328   0.001082
1822  50  28.683210  -4.925496   3.561586   0.000011   0.028328   0.000385
1823  52  28.585340  -4.196035   3.705361   0.000059   0.028328   0.002076
1824  50  28.823187  -5.424119   3.694494  -0.000055   0.066860  -0.000819
1825  50  28.704465  -6.318103   4.280805  -0.000158   0.147223  -0.001074
1826  50  28.230513  -7.523239   4.422796  -0.000026   0.147223  -0.000174
1827  50  27.669568  -8.357477   4.040107  -0.000053   0.066860  -0.000792
1828  49  28.655409  -5.501537   4.254224  -0.000045   0.147757  -0.000305
1829  49  28.337110  -6.814469   4.817986   0.000229   0.147757   0.001551
1830  49  27.642703  -8.076588   4.557621   0.000164   0.147757   0.001110
1831  50  26.877735  -6.381001   0.566139  -0.000081   0.071037  -0.001143
1832  50  27.309387  -5.632115   0.761157  -0.000071   0.071037  -0.001004
1833  49  26.750576  -5.788912   0.587028  -0.000192   0.155119  -0.001237
1834  49  26.662476  -4.411048   7.002382   0.000040   0.028247   0.001399
1835  51  26.514704  -4.614724   7.173108   0.000008   0.028247   0.000272
1836  52  26.649360  -3.918276   6.929010   0.000094   0.028247   0.003336
1837  49  23.382776  -4.347687   7.061740   0.000033   0.028247   0.001183
1838  51  23.528651  -4.557035   7.227152   0.000009   0.028247   0.000321
1839  52  23.412245  -3.855737   6.987598   0.000063   0.028247   0.002214
1840  51  23.358636  -5.066716   7.352419  -0.000066   0.071752  -0.000921
1841  51  22.923080  -5.823350   7.155549  -0.000077   0.071752  -0.001080
1842  49  22.928159  -5.246411   6.961194  -0.000173   0.156338  -0.001110
1843  51  26.190453  -8.153409   6.489704   0.000008   0.067079   0.000117
1844  51  26.859924  -7.333628   6.700450  -0.000063   0.147811  -0.000423
1845  51  27.053285  -6.084524   7.032253  -0.000194   0.147811  -0.001310
1846  51  26.660847  -5.114676   7.296891  -0.000077   0.067079  -0.001146
1847  49  26.654280  -7.943028   6.191315   0.000165   0.148137   0.001113
1848  49  27.312362  -6.672874   6.522744   0.000195   0.148137   0.001315
1849  49  27.067277  -5.275085   6.900008  -0.000052   0.148137  -0.000353
1850  49  22.812976  -3.915238   6.630631   0.000032   0.025805   0.001240
1851  52  22.798055  -3.417155   6.629554   0.000001   0.025805   0.000026
1852  53  22.613715  -3.186261   6.560745  -0.000032   0.025805  -0.001224
1853  49  26.515236  -4.446045   0.477221   0.000046   0.025840   0.001768
1854  52  26.545000  -3.954365   0.401882   0.000022   0.025840   0.000866
1855  54  26.414916  -3.731467   0.242417  -0.000018   0.025840  -0.000697
1856  49  27.030478  -3.985531   6.701023   0.000084   0.025673   0.003276
1857  52  27.062061  -3.488228   6.700733   0.000026   0.025673   0.001001
1858  55  27.255386  -3.263364   6.638668  -0.000007   0.025673  -0.000284
1859  49  28.560147  -4.205113   4.154573   0.000049   0.025673   0.001908
1860  52  28.612471  -3.710788   4.119757   0.000021   0.025673   0.000814
1861  55  28.666356  -3.465908   4.289817  -0.000006   0.025673  -0.000236
1862  52  23.033992  -3.528737   6.814243   0.000150   0.086702   0.001725
1863  49  23.110305  -4.238511   6.921647   0.000177   0.086702   0.002042
1864  52  26.862870  -3.594193   6.857808   0.000116   0.044060   0.002640
1865  49  26.895275  -4.309292   6.884186   0.000134   0.044060   0.003037
1866  52  28.645359  -3.846472   3.938148   0.000098   0.044152   0.002229
1867  49  28.635456  -4.562730   3.939098   0.000104   0.044152   0.002355
1868  52  26.891918  -4.067875   0.586290   0.000208   0.084150   0.002468
1869  49  26.792311  -4.782428   0.588497   0.000189   0.084150   0.002250
1870  53  22.182715  -3.140888   6.342001  -0.000203   0.138805  -0.001466
1871  49  22.508087  -4.208443   6.554995   0.000384   0.195592   0.001963
1872  54  26.149040  -3.662687   0.010617  -0.000176   0.138823  -0.001271
1873  49  26.167800  -4.776431   0.233702   0.000363   0.195619   0.001857
1874  55  27.662083  -3.216771   6.433967  -0.000228   0.200205  -0.001141
1875  55  28.453686  -3.355162   5.243883  -0.001067   0.409637  -0.002606
1876  49  27.788634  -4.388373   6.042469   0.000870   0.548482   0.001587
1877  49  28.576340  -4.478893   4.614831   0.000679   0.281938   0.002410
1878  52  28.649226  -3.908784   3.207559   0.000761   0.306907   0.002480
1879  52  27.901539  -3.978385   1.593688   0.000891   0.594074   0.001499
1880  50  28.529725  -5.008503   2.499377  -0.001218   0.448837  -0.002714
1881  50  27.746405  -5.138775   1.149958  -0.000167   0.217860  -0.000767
1882  52  23.818168  -3.519890   7.222845   0.000771   0.306164   0.002518
1883  52  25.593471  -3.510601   7.258166   0.000922   0.592723   0.001556
1884  51  24.550483  -4.557067   7.556743  -0.001194   0.447653  -0.002668
1885  51  26.107077  -4.634994   7.454514  -0.000189   0.217335  -0.000872
1886  53  22.631360  -2.673777   6.712708  -0.000075   0.067757  -0.001112
1887  53  23.189785  -1.753723   6.894489  -0.000214   0.149721  -0.001431
1888  53  23.581479  -0.557975   6.492343  -0.000171   0.149721  -0.001145
1889  53  23.494849   0.305195   5.496156  -0.000171   0.149721  -0.001140
1890  53  22.964264   0.493340   4.301150  -0.000244   0.149721  -0.001633
1891  53  22.200226  -0.068184   3.381426  -0.000126   0.149721  -0.000842
1892  53  21.505855  -1.156602   3.101869  -0.000235   0.149721  -0.001570
1893  52  23.188144  -2.580078   6.893392  -0.000126   0.149220  -0.000844
1894  52  23.842968  -1.248499   6.863379   0.000041   0.149220   0.000272
1895  52  24.023534  -0.029829   6.035708   0.000156   0.149220   0.001044
1896  52  23.658206   0.592442   4.738746  -0.000019   0.149220  -0.000125
1897  52  22.891921   0.371440   3.487042   0.000014   0.149220   0.000092
1898  52  22.028692  -0.605158   2.777189   0.000180   0.149220   0.001209
1899  52  21.468742  -1.670959   2.732749   0.000050   0.082780   0.000605
1900  54  22.905749  -1.763899   0.486815  -0.000037   0.067716  -0.000554
1901  54  23.242352  -0.772309   0.792462  -0.000140   0.149611  -0.000938
1902  54  24.226119   0.064632   1.065818  -0.000206   0.149611  -0.001379
1903  54  25.540777   0.169575   1.126276  -0.000255   0.149611  -0.001703
1904  54  26.665410  -0.499063   0.949881  -0.000137   0.149611  -0.000917
1905  54  27.154399  -1.676344   0.606527  -0.000155   0.149611  -0.001038
1906  54  26.813990  -2.895787   0.232263  -0.000328   0.149611  -0.002190
1907  52  22.745424  -1.415702   0.938813   0.000017   0.149151   0.000111
1908  52  23.483379  -0.188034   1.324289   0.000030   0.149151   0.000203
1909  52  24.843724   0.369429   1.521860   0.000013   0.149151   0.000085
1910  52  26.287442   0.035800   1.453241   0.000071   0.149151   0.000477
1911  52  27.242480  -1.056725   1.145623   0.000152   0.149151   0.001021
1912  52  27.330418  -2.475249   0.720894   0.000010   0.149151   0.000068
1913  52  26.800565  -3.507361   0.398811   0.000002   0.082730   0.000029
1914  55  28.835750  -2.973644   4.144873  -0.000082   0.069357  -0.001187
1915  55  28.790315  -2.082279   3.473306  -0.000239   0.154074  -0.001554
1916  55  28.333037  -0.834204   3.236037  -0.000195   0.154074  -0.001264
1917  55  27.571365   0.144606   3.769773  -0.000214   0.154074  -0.001387
1918  55  26.822657   0.446322   4.852128  -0.000294   0.154074  -0.001909
1919  55  26.398869  -0.054771   6.032128  -0.000166   0.154074  -0.001075
1920  55  26.476578  -1.149887   6.818113  -0.000213   0.154074  -0.001382
1921  55  27.023405  -2.382734   6.882595  -0.000337   0.154074  -0.002188
1922  52  28.719548  -2.914430   3.560135  -0.000124   0.151958  -0.000814
1923  52  28.470525  -1.581942   2.879656   0.000107   0.151958   0.000701
1924  52  27.747161  -0.260436   3.055589   0.000157   0.151958   0.001031
1925  52  26.850852   0.499469   4.014631  -0.000052   0.151958  -0.000343
1926  52  26.155055   0.381152   5.357186  -0.000009   0.151958  -0.000057
1927  52  25.949681  -0.566090   6.523865   0.000158   0.151958   0.001043
1928  52  26.320300  -1.947578   7.028560   0.000010   0.151958   0.000067
1929  52  26.915114  -3.015357   6.867950   0.000013   0.084735   0.000149
 =====================================================

             31587448  WORDS OF DYNAMIC MEMORY USED
 EXECUTION OF GAMESS TERMINATED NORMALLY Fri Nov 25 02:43:55 2016
 DDI: 263640 bytes (0.3 MB / 0 MWords) used by master data server.

 ----------------------------------------
 CPU timing information for all processes
 ========================================
 0: 35942.676 + 6.680 = 35949.356
 ----------------------------------------
 ddikick.x: exited gracefully.
