----- GAMESS execution script -----

          ******************************************************
          *         GAMESS VERSION =  5 DEC 2014 (R1)          *
          *             FROM IOWA STATE UNIVERSITY             *
          * M.W.SCHMIDT, K.K.BALDRIDGE, J.A.BOATZ, S.T.ELBERT, *
          *   M.S.GORDON, J.H.JENSEN, S.KOSEKI, N.MATSUNAGA,   *
          *          K.A.NGUYEN, S.J.SU, T.L.WINDUS,           *
          *       TOGETHER WITH M.DUPUIS, J.A.MONTGOMERY       *
          *         J.COMPUT.CHEM.  14, 1347-1363(1993)        *
          **************** 64 BIT LINUX VERSION ****************

 EXECUTION OF GAMESS BEGUN Thu Nov 24 21:42:08 2016

            ECHO OF THE FIRST FEW INPUT CARDS -
 INPUT CARD>! SELECT RESTRICTED HARTREE-FOCK AS DEFAULT                                     
 INPUT CARD>$contrl scftyp=rhf $end                                                         
 INPUT CARD>                                                                                
 INPUT CARD>! THEORY: HF OR DFT                                                             
 INPUT CARD> $contrl mplevl=0 $end                                                          
 INPUT CARD>                                                                                
 INPUT CARD> $system timlim=10000 mwords=20 $end                                            
 INPUT CARD> $SCF DIRSCF=.TRUE. $end                                                        
 INPUT CARD>                                                                                
 INPUT CARD>                                                                                
 INPUT CARD>! BASIS SETS                                                                    
 INPUT CARD>! 6-311G(d,p)                                                                   
 INPUT CARD> $BASIS GBASIS=N311 NGAUSS=6 NDFUNC=1 NPFUNC=1 $END                             
 INPUT CARD>                                                                                
 INPUT CARD>! One of the following                                                          
 INPUT CARD> $guess guess=HUCKEL $end                                                       
 INPUT CARD>                                                                                
 INPUT CARD> $statpt projct=.FALSE. $end                                                    
 INPUT CARD> $STATPT IFREEZ(1)=1,2,3 $END                                                   
 INPUT CARD>                                                                                
 INPUT CARD>! Optimize the geometry with COSMO effects                                      
 INPUT CARD> $statpt opttol=0.0005 nstep=50 $end                                            
 INPUT CARD> $contrl nzvar=1 $end                                                           
 INPUT CARD> $zmat dlc=.t. auto=.t. $end                                                    
 INPUT CARD> $contrl runtyp=OPTIMIZE maxit=200 $end                                         
 INPUT CARD>                                                                                
 INPUT CARD>! Run COSMO on perfect conductor                                                
 INPUT CARD> $COSGMS PRFCND=.TRUE. $end                                                     
 INPUT CARD>                                                                                
 INPUT CARD>! Specifying RSOLV                                                              
 INPUT CARD> $COSGMS COSRAD = 1.4 $end                                                      
 INPUT CARD>                                                                                
 INPUT CARD>! available memory                                                              
 INPUT CARD> $SYSTEM MWORDS=40 $END                                                         
 INPUT CARD>                                                                                
 INPUT CARD> $DATA                                                                          
 INPUT CARD>http://cactus.nci.nih.gov/chemical/structure/METHYL%20VALERATE/file?format=sdf&g
 INPUT CARD>C1                                                                              
 INPUT CARD>C      6.0      1.0873000000   -0.0161000000   -0.0022000000                    
 INPUT CARD>C      6.0     -0.2112000000   -0.7809000000   -0.0021000000                    
 INPUT CARD>C      6.0     -1.3827000000    0.2033000000   -0.0002000000                    
 INPUT CARD>C      6.0     -2.7010000000   -0.5732000000   -0.0000000000                    
 INPUT CARD>C      6.0     -3.8725000000    0.4109000000    0.0018000000                    
 INPUT CARD>O      8.0      1.0768000000    1.1921000000   -0.0010000000                    
 INPUT CARD>O      8.0      2.2555000000   -0.6771000000    0.0018000000                    
 INPUT CARD>C      6.0      3.4664000000    0.1242000000    0.0014000000                    
 INPUT CARD>H      1.0     -0.2641000000   -1.4071000000   -0.8926000000                    
 INPUT CARD>H      1.0     -0.2629000000   -1.4089000000    0.8873000000                    
 INPUT CARD>H      1.0     -1.3297000000    0.8295000000    0.8903000000                    
 INPUT CARD>H      1.0     -1.3310000000    0.8313000000   -0.8896000000                    
   40000000 WORDS OF MEMORY AVAILABLE

     BASIS OPTIONS
     -------------
     GBASIS=N311         IGAUSS=       6      POLAR=POPN311 
     NDFUNC=       1     NFFUNC=       0     DIFFSP=       F
     NPFUNC=       1      DIFFS=       F     BASNAM=        


     RUN TITLE
     ---------
 http://cactus.nci.nih.gov/chemical/structure/METHYL%20VALERATE/file?format=sdf&g

 THE POINT GROUP OF THE MOLECULE IS C1      
 THE ORDER OF THE PRINCIPAL AXIS IS     0

 ATOM      ATOMIC                      COORDINATES (BOHR)
           CHARGE         X                   Y                   Z
 C           6.0     2.0546990664       -0.0304245884       -0.0041573972
 C           6.0    -0.3991101286       -1.4756870238       -0.0039684246
 C           6.0    -2.6129241232        0.3841812933       -0.0003779452
 C           6.0    -5.1041498928       -1.0831909362       -0.0000000000
 C           6.0    -7.3179638875        0.7764884084        0.0034015068
 O           8.0     2.0348569436        2.2527423500       -0.0018897260
 O           8.0     4.2622769653       -1.2795334663        0.0034015068
 C           6.0     6.5505461638        0.2347039677        0.0026456164
 H           1.0    -0.4990766334       -2.6590334373       -1.6867694166
 H           1.0    -0.4968089622       -2.6624349441        1.6767538689
 H           1.0    -2.5127686459        1.5675277068        1.6824230469
 H           1.0    -2.5152252897        1.5709292136       -1.6811002387
 H           1.0    -5.2043053702       -2.2667263223       -1.6829899647
 H           1.0    -5.2018487264       -2.2699388565        1.6807222935
 H           1.0    -7.2179973827        1.9600237945        1.6862024988
 H           1.0    -7.2204540265        1.9632363286       -1.6773207867
 H           1.0    -9.0927945351       -0.2689080081        0.0035904794
 H           1.0     6.5900414370        1.4180503812       -1.6828009921
 H           1.0     6.5843722590        1.4286328467        1.6807222935
 H           1.0     8.1947967458       -1.0057121707        0.0092596573

          INTERNUCLEAR DISTANCES (ANGS.)




     $CONTRL OPTIONS
     ---------------
 SCFTYP=RHF          RUNTYP=OPTIMIZE     EXETYP=RUN     
 MPLEVL=       0     CITYP =NONE         CCTYP =NONE         VBTYP =NONE    
 DFTTYP=NONE         TDDFT =NONE    
 MULT  =       1     ICHARG=       0     NZVAR =       1     COORD =UNIQUE  
 PP    =NONE         RELWFN=NONE         LOCAL =NONE         NUMGRD=       F
 ISPHER=      -1     NOSYM =       0     MAXIT =     200     UNITS =ANGS    
 PLTORB=       F     MOLPLT=       F     AIMPAC=       F     FRIEND=        
 NPRINT=       7     IREST =       0     GEOM  =INPUT   
 NORMF =       0     NORMP =       0     ITOL  =      20     ICUT  =       9
 INTTYP=BEST         GRDTYP=BEST         QMTTOL= 1.0E-06

     $SYSTEM OPTIONS
     ---------------
  REPLICATED MEMORY=    40000000 WORDS (ON EVERY NODE).
 DISTRIBUTED MEMDDI=           0 MILLION WORDS IN AGGREGATE,
 MEMDDI DISTRIBUTED OVER   1 PROCESSORS IS           0 WORDS/PROCESSOR.
 TOTAL MEMORY REQUESTED ON EACH PROCESSOR=    40000000 WORDS.
 TIMLIM=       10000.00 MINUTES, OR       6.9 DAYS.
 PARALL= F  BALTYP=  DLB     KDIAG=    0  COREFL= F
 MXSEQ2=     300 MXSEQ3=     150  mem10=         0

     $COSGMS OPTIONS
     ---------------
     EPSI  =   INFTY     NSPA  =      92     COSRAD=    1.40
     DISEX =   10.00     OUTCHG=DBLCAV       COSBUG=       F
     COSWRT=       F     DCOSMO=       F

     SYMMETRY COORDINATES WILL NOT BE USED FOR 
     THE COSMO CALCULATION, EVEN IF SPECIFIED:
         -- SWITCHING TO C1 POINT GROUP --


     DEFINITION OF CAVITY
     ---------------------------
     ATOM         COORDINATES           RADIUS 
     1    2.0547   -0.0304   -0.0042    2.0000
     2   -0.3991   -1.4757   -0.0040    2.0000
     3   -2.6129    0.3842   -0.0004    2.0000
     4   -5.1041   -1.0832   -0.0000    2.0000
     5   -7.3180    0.7765    0.0034    2.0000
     6    2.0349    2.2527   -0.0019    1.7200
     7    4.2623   -1.2795    0.0034    1.7200
     8    6.5505    0.2347    0.0026    2.0000
     9   -0.4991   -2.6590   -1.6868    1.3000
    10   -0.4968   -2.6624    1.6768    1.3000
    11   -2.5128    1.5675    1.6824    1.3000
    12   -2.5152    1.5709   -1.6811    1.3000
    13   -5.2043   -2.2667   -1.6830    1.3000
    14   -5.2018   -2.2699    1.6807    1.3000
    15   -7.2180    1.9600    1.6862    1.3000
    16   -7.2205    1.9632   -1.6773    1.3000
    17   -9.0928   -0.2689    0.0036    1.3000
    18    6.5900    1.4181   -1.6828    1.3000
    19    6.5844    1.4286    1.6807    1.3000
    20    8.1948   -1.0057    0.0093    1.3000

          ----------------
          PROPERTIES INPUT
          ----------------

     MOMENTS            FIELD           POTENTIAL          DENSITY
 IEMOM =       1   IEFLD =       0   IEPOT =       0   IEDEN =       0
 WHERE =COMASS     WHERE =NUCLEI     WHERE =NUCLEI     WHERE =NUCLEI  
 OUTPUT=BOTH       OUTPUT=BOTH       OUTPUT=BOTH       OUTPUT=BOTH    
 IEMINT=       0   IEFINT=       0                     IEDINT=       0
                                                       MORB  =       0
          EXTRAPOLATION IN EFFECT
          SOSCF IN EFFECT
 ORBITAL PRINTING OPTION: NPREO=     1   224     2     1

     -------------------------------
     INTEGRAL TRANSFORMATION OPTIONS
     -------------------------------
     NWORD  =            0
     CUTOFF = 1.0E-09     MPTRAN =       0
     DIRTRF =       T     AOINTS =DUP     

          ----------------------
          INTEGRAL INPUT OPTIONS
          ----------------------
 NOPK  =       1 NORDER=       0 SCHWRZ=       T


 -----------------------------------------------
  STATISTICS ON AUTOMATIC COORDINATE GENERATION 
 -----------------------------------------------
  NUMBER OF USER SPECIFIED BONDS                             0
  NUMBER OF BONDS                                           19
  NUMBER OF ANGLES                                          34
  NUMBER OF TORSIONS                                        38
  NUMBER OF EXTRA COORD.                                     0
  NUMBER OF EXTRA COORD. FOR CONSTRAINTS                     0
  NUMBER OF CONSTRAINED COORD.                               0

  TOTAL NUMBER OF PRIMITIVES                                91
 -----------------------------------------------

   --- ENCODED Z MATRIX ---
 COORD  TYPE   I   J   K   L   M   N
    1      1    1   7
    2      1    1   6
    3      1    1   2
    4      1    2   9
    5      1    2   3
    6      1    2  10
    7      1    3   4
    8      1    3  12
    9      1    3  11
   10      1    4  14
   11      1    4  13
   12      1    4   5
   13      1    5  16
   14      1    5  15
   15      1    5  17
   16      1    7   8
   17      1    8  20
   18      1    8  19
   19      1    8  18
   20      2    1   2   3
   21      2    1   2   9
   22      2    1   2  10
   23      2    1   7   8
   24      2    2   3  11
   25      2    2   1   6
   26      2    2   3  12
   27      2    2   3   4
   28      2    2   1   7
   29      2    3   2   9
   30      2    3   2  10
   31      2    3   4   5
   32      2    3   4  13
   33      2    3   4  14
   34      2    4   3  11
   35      2    4   5  17
   36      2    4   5  15
   37      2    4   5  16
   38      2    4   3  12
   39      2    5   4  13
   40      2    5   4  14
   41      2    6   1   7
   42      2    7   8  19
   43      2    7   8  20
   44      2    7   8  18
   45      2    9   2  10
   46      2   11   3  12
   47      2   13   4  14
   48      2   15   5  17
   49      2   15   5  16
   50      2   16   5  17
   51      2   18   8  19
   52      2   18   8  20
   53      2   19   8  20
   54      3    1   2   3   4
   55      3    1   7   8  19
   56      3    1   7   8  20
   57      3    1   2   3  11
   58      3    1   7   8  18
   59      3    1   2   3  12
   60      3    2   3   4   5
   61      3    2   3   4  13
   62      3    2   3   4  14
   63      3    2   1   7   8
   64      3    3   2   1   7
   65      3    3   4   5  17
   66      3    3   4   5  15
   67      3    3   2   1   6
   68      3    3   4   5  16
   69      3    4   3   2  10
   70      3    4   3   2   9
   71      3    5   4   3  11
   72      3    5   4   3  12
   73      3    6   1   2   9
   74      3    6   1   7   8
   75      3    6   1   2  10
   76      3    7   1   2   9
   77      3    7   1   2  10
   78      3    9   2   3  12
   79      3    9   2   3  11
   80      3   10   2   3  12
   81      3   10   2   3  11
   82      3   11   3   4  14
   83      3   11   3   4  13
   84      3   12   3   4  14
   85      3   12   3   4  13
   86      3   13   4   5  16
   87      3   13   4   5  15
   88      3   13   4   5  17
   89      3   14   4   5  16
   90      3   14   4   5  15
   91      3   14   4   5  17

          INDEP./SYM. INTERNAL COORDINATES
          --------------------------------
 CRD  1=  -0.5023 ( 20)  0.1500 ( 21)  0.1501 ( 22) -0.3646 ( 23) -0.1188 ( 24)
          -0.1772 ( 25) -0.1187 ( 26)  0.3825 ( 27)  0.3267 ( 28)  0.1401 ( 29)
           0.1400 ( 30) -0.2764 ( 31) -0.1062 ( 34) -0.1064 ( 38) -0.1495 ( 41)
 CRD  2=   0.2049 (  1)  0.2588 (  3)  0.1705 (  5)  0.1634 (  7)  0.2042 ( 16)
           0.5505 ( 23) -0.1268 ( 24) -0.1216 ( 26)  0.4743 ( 27) -0.2163 ( 31)
          -0.1636 ( 34) -0.1547 ( 38)  0.1018 ( 42)  0.1117 ( 44)
 CRD  3=  -0.1384 ( 21)  0.1334 ( 22)  0.1015 ( 34) -0.1150 ( 38)  0.1259 ( 42)
          -0.1173 ( 44) -0.3728 ( 54) -0.2003 ( 57) -0.2020 ( 59)  0.2232 ( 60)
           0.1150 ( 61)  0.1172 ( 62) -0.4587 ( 63)  0.3488 ( 64) -0.1211 ( 65)
          -0.1468 ( 69) -0.1473 ( 70) -0.1010 ( 73) -0.2094 ( 74) -0.1032 ( 75)
           0.1483 ( 76)  0.1460 ( 77)
 CRD  4=   0.1317 (  1)  0.2181 (  3)  0.3010 (  5)  0.2531 (  7)  0.2309 ( 12)
           0.1625 ( 16) -0.1793 ( 23) -0.1053 ( 25)  0.1068 ( 27)  0.3271 ( 28)
           0.5255 ( 31) -0.1414 ( 32) -0.1424 ( 33)  0.1166 ( 36)  0.1181 ( 37)
          -0.1704 ( 39) -0.1715 ( 40) -0.2218 ( 41)  0.1331 ( 43)  0.1003 ( 47)
 CRD  5=  -0.1087 ( 21)  0.1079 ( 22) -0.1627 ( 24)  0.1628 ( 26)  0.1948 ( 29)
          -0.1955 ( 30) -0.1281 ( 36)  0.1277 ( 37)  0.1179 ( 39) -0.1174 ( 40)
           0.1205 ( 42) -0.1209 ( 44) -0.2532 ( 55) -0.1900 ( 56) -0.2530 ( 58)
          -0.2698 ( 60) -0.1728 ( 61) -0.1726 ( 62) -0.2901 ( 63) -0.2738 ( 64)
          -0.2475 ( 67) -0.1230 ( 71) -0.1229 ( 72) -0.3164 ( 74) -0.1010 ( 76)
          -0.1012 ( 77)
 CRD  6=  -0.1308 (  3) -0.1412 (  5) -0.1102 (  7) -0.5008 ( 20)  0.1657 ( 21)
           0.1673 ( 22)  0.4724 ( 23) -0.2220 ( 25) -0.1078 ( 27)  0.1343 ( 29)
           0.1336 ( 30)  0.2954 ( 31) -0.1119 ( 32) -0.1107 ( 33) -0.1125 ( 35)
           0.2287 ( 41)  0.1167 ( 42) -0.1632 ( 43)  0.1151 ( 44) -0.1001 ( 45)
 CRD  7=   0.2596 (  1)  0.2574 (  3) -0.1744 (  7) -0.2082 ( 12)  0.3424 ( 16)
           0.1132 ( 23)  0.1398 ( 24) -0.2287 ( 25)  0.1403 ( 26) -0.3451 ( 27)
           0.4042 ( 28) -0.1170 ( 29) -0.1172 ( 30) -0.2033 ( 31) -0.1756 ( 41)
           0.1286 ( 43) -0.1008 ( 52) -0.1008 ( 53)
 CRD  8=   0.1102 ( 24) -0.1105 ( 26)  0.2081 ( 32) -0.2083 ( 33) -0.2105 ( 34)
           0.2107 ( 38) -0.1240 ( 39)  0.1239 ( 40)  0.2623 ( 42) -0.2623 ( 44)
           0.2741 ( 54) -0.1489 ( 55) -0.1488 ( 58) -0.3037 ( 63)  0.1745 ( 65)
           0.1960 ( 66)  0.1961 ( 68)  0.2165 ( 69)  0.2165 ( 70) -0.3473 ( 74)
 CRD  9=  -0.3529 ( 36)  0.3532 ( 37)  0.1348 ( 39) -0.1349 ( 40)  0.2198 ( 42)
          -0.2203 ( 44)  0.2223 ( 55)  0.3220 ( 56)  0.2224 ( 58) -0.2551 ( 60)
           0.2444 ( 64)  0.1516 ( 65) -0.1824 ( 71) -0.1825 ( 72)  0.1810 ( 76)
           0.1808 ( 77)
 CRD 10=  -0.1842 (  1)  0.2322 (  3) -0.2256 (  5)  0.2068 (  7) -0.4581 ( 12)
           0.2517 ( 25)  0.1019 ( 27)  0.1132 ( 31) -0.2824 ( 35) -0.1532 ( 39)
          -0.1533 ( 40) -0.2501 ( 41)  0.1252 ( 42) -0.2543 ( 43)  0.1247 ( 44)
           0.1597 ( 48)  0.1030 ( 49)  0.1596 ( 50)  0.1101 ( 82) -0.1102 ( 85)
 CRD 11=   0.1761 (  1) -0.1534 (  3)  0.2676 (  5) -0.2163 (  7) -0.3892 ( 12)
          -0.1004 ( 15) -0.1648 ( 25)  0.1360 ( 27) -0.1146 ( 34) -0.4630 ( 35)
          -0.1149 ( 38)  0.2083 ( 41) -0.1380 ( 42)  0.2668 ( 43) -0.1377 ( 44)
           0.1835 ( 48)  0.1837 ( 50) -0.1094 ( 83)  0.1094 ( 84)
 CRD 12=   0.1821 (  1) -0.1314 (  3) -0.1478 (  5)  0.4852 (  7) -0.1799 ( 12)
           0.1090 ( 15) -0.1940 ( 25)  0.1173 ( 34)  0.2742 ( 35) -0.2201 ( 36)
          -0.2259 ( 37)  0.1158 ( 38)  0.2264 ( 41) -0.1539 ( 42)  0.3071 ( 43)
          -0.1591 ( 44)  0.1974 ( 49)
 CRD 13=   0.1145 ( 18) -0.1142 ( 19) -0.1128 ( 24)  0.1138 ( 26)  0.1064 ( 29)
          -0.1068 ( 30)  0.3569 ( 36) -0.3530 ( 37)  0.3970 ( 42) -0.3959 ( 44)
          -0.1337 ( 48)  0.1336 ( 50)  0.1133 ( 52) -0.1132 ( 53)  0.1701 ( 55)
           0.2741 ( 56)  0.1700 ( 58) -0.1002 ( 62) -0.1119 ( 64) -0.1211 ( 65)
          -0.1395 ( 67)  0.1232 ( 74)
 CRD 14=   0.1442 (  1)  0.2025 (  2)  0.1852 (  3) -0.5138 (  5) -0.1147 (  8)
          -0.1145 (  9)  0.1902 ( 12) -0.1083 ( 24) -0.1089 ( 26)  0.1010 ( 27)
          -0.1116 ( 28) -0.1257 ( 29) -0.1244 ( 30) -0.2363 ( 35)  0.2131 ( 36)
           0.2145 ( 37) -0.1519 ( 42)  0.3257 ( 43) -0.1497 ( 44) -0.1861 ( 49)
 CRD 15=  -0.2585 ( 21)  0.2583 ( 22)  0.2636 ( 29) -0.2641 ( 30)  0.2907 ( 32)
          -0.2904 ( 33) -0.2352 ( 39)  0.2353 ( 40) -0.1128 ( 54)  0.1062 ( 55)
          -0.1725 ( 57)  0.1063 ( 58) -0.1726 ( 59) -0.1088 ( 61) -0.1088 ( 62)
           0.2051 ( 65)  0.2220 ( 66) -0.1782 ( 67)  0.2221 ( 68)  0.1174 ( 71)
           0.1172 ( 72)  0.1469 ( 74)  0.1237 ( 76)  0.1240 ( 77)
 CRD 16=   0.1013 ( 10) -0.1026 ( 11) -0.2248 ( 21)  0.2257 ( 22)  0.3011 ( 24)
          -0.3008 ( 26)  0.2174 ( 29) -0.2169 ( 30) -0.1507 ( 32)  0.1496 ( 33)
          -0.2772 ( 34)  0.2766 ( 38)  0.1534 ( 39) -0.1536 ( 40) -0.1398 ( 57)
          -0.1394 ( 59)  0.1132 ( 60)  0.2093 ( 61)  0.2092 ( 62) -0.1114 ( 64)
          -0.1689 ( 67)  0.1584 ( 69)  0.1580 ( 70)  0.1096 ( 74)
 CRD 17=  -0.2680 (  2) -0.3191 (  3) -0.1173 (  4) -0.1172 (  6)  0.3494 (  7)
           0.1515 ( 10)  0.1530 ( 11)  0.1161 ( 12) -0.1030 ( 15)  0.1462 ( 20)
          -0.2661 ( 25)  0.1825 ( 28) -0.2010 ( 31)  0.1351 ( 32)  0.1384 ( 33)
          -0.2883 ( 35)  0.2133 ( 36)  0.2060 ( 37)  0.1031 ( 42) -0.1793 ( 43)
           0.1066 ( 44) -0.1257 ( 47) -0.1877 ( 49)
 CRD 18=  -0.1749 (  8)  0.1780 (  9)  0.1244 ( 10) -0.1199 ( 11)  0.1704 ( 13)
          -0.1690 ( 14)  0.1277 ( 34) -0.3116 ( 36)  0.3171 ( 37) -0.1254 ( 38)
          -0.1430 ( 39)  0.1439 ( 40)  0.2374 ( 42) -0.2359 ( 44)  0.1663 ( 48)
          -0.1655 ( 50)  0.1071 ( 52) -0.1070 ( 53)  0.2313 ( 60)  0.1863 ( 63)
          -0.1649 ( 64) -0.1549 ( 69) -0.1544 ( 70)  0.1722 ( 71)  0.1723 ( 72)
          -0.1764 ( 76) -0.1763 ( 77)
 CRD 19=  -0.2405 (  2) -0.2580 (  3) -0.1796 (  4) -0.2987 (  5) -0.1807 (  6)
          -0.2738 (  7) -0.1841 (  8) -0.1828 (  9) -0.1284 ( 10) -0.1298 ( 11)
           0.2608 ( 20) -0.1008 ( 24) -0.1982 ( 25) -0.1008 ( 26)  0.2507 ( 27)
           0.1473 ( 28) -0.1231 ( 29) -0.1232 ( 30)  0.1917 ( 31) -0.1086 ( 32)
          -0.1084 ( 33)  0.1583 ( 35) -0.1139 ( 36) -0.1119 ( 37)  0.1651 ( 45)
           0.1481 ( 46)  0.1077 ( 47)  0.1074 ( 49)
 CRD 20=   0.1263 (  1)  0.1963 (  3) -0.3058 ( 16)  0.2799 ( 17)  0.2866 ( 18)
           0.2867 ( 19) -0.2152 ( 25)  0.1584 ( 28) -0.2523 ( 42) -0.3474 ( 43)
          -0.2524 ( 44)  0.2631 ( 51)  0.2944 ( 52)  0.2945 ( 53)
 CRD 21=   0.1772 (  4) -0.1767 (  6)  0.1963 (  8) -0.1960 (  9)  0.3541 ( 10)
          -0.3540 ( 11) -0.1255 ( 24)  0.1254 ( 26)  0.1499 ( 29) -0.1492 ( 30)
           0.1008 ( 44) -0.1046 ( 52)  0.1031 ( 53)  0.1475 ( 54)  0.1420 ( 57)
           0.1419 ( 59) -0.1562 ( 63) -0.1610 ( 65) -0.1345 ( 66) -0.1345 ( 68)
           0.1707 ( 71)  0.1707 ( 72)  0.1559 ( 73) -0.1247 ( 74)  0.1554 ( 75)
           0.1874 ( 76)  0.1870 ( 77)
 CRD 22=   0.1817 ( 12)  0.5103 ( 13)  0.5104 ( 14)  0.4902 ( 15) -0.1867 ( 35)
          -0.1711 ( 36) -0.1711 ( 37)  0.1803 ( 48)  0.1684 ( 49)  0.1803 ( 50)
 CRD 23=   0.1533 (  4) -0.1506 (  6) -0.1694 (  8)  0.1691 (  9) -0.1205 ( 10)
           0.1204 ( 11)  0.3506 ( 18) -0.4210 ( 19) -0.3871 ( 52)  0.4515 ( 53)
          -0.1649 ( 55)  0.3418 ( 56)
 CRD 24=   0.4548 ( 17) -0.3282 ( 18) -0.2297 ( 19) -0.5366 ( 51)  0.3071 ( 52)
           0.2002 ( 53) -0.2745 ( 55)  0.3072 ( 58)
 CRD 25=   0.3443 (  4) -0.3439 (  6) -0.3126 (  8)  0.3126 (  9) -0.2101 ( 10)
           0.2101 ( 11) -0.2359 ( 18)  0.2365 ( 19)  0.1110 ( 29) -0.1109 ( 30)
           0.1115 ( 34) -0.1115 ( 38)  0.1460 ( 52) -0.1468 ( 53) -0.1037 ( 56)
           0.1525 ( 57)  0.1525 ( 59)  0.1066 ( 61)  0.1065 ( 62)  0.1356 ( 73)
           0.1356 ( 75)  0.1388 ( 76)  0.1388 ( 77)
 CRD 26=  -0.1625 (  1) -0.1609 (  2) -0.2099 (  3) -0.1015 (  4) -0.1020 (  6)
           0.4159 ( 16)  0.5285 ( 17)  0.3367 ( 18)  0.3378 ( 19)  0.2660 ( 25)
           0.1009 ( 29)  0.1007 ( 30) -0.1862 ( 41)  0.1380 ( 43)
 CRD 27=   0.1144 (  3) -0.6058 (  4) -0.6044 (  6) -0.2575 ( 45)  0.1055 ( 69)
          -0.1048 ( 70)  0.1151 ( 73) -0.1152 ( 75)  0.1151 ( 76) -0.1152 ( 77)
          -0.1150 ( 79)  0.1161 ( 80)
 CRD 28=  -0.2587 ( 10) -0.2588 ( 11) -0.2691 ( 13) -0.2680 ( 14)  0.6028 ( 15)
           0.1505 ( 48) -0.3180 ( 49)  0.1499 ( 50)  0.1599 ( 66) -0.1598 ( 68)
          -0.1896 ( 86)  0.1302 ( 87) -0.1302 ( 89)  0.1895 ( 90)
 CRD 29=   0.2485 (  4) -0.2517 (  6) -0.2105 ( 13)  0.2110 ( 14)  0.1190 ( 21)
          -0.1188 ( 22)  0.1286 ( 24) -0.1285 ( 26)  0.1223 ( 32) -0.1224 ( 33)
          -0.1073 ( 34)  0.1073 ( 38) -0.1623 ( 39)  0.1622 ( 40)  0.1062 ( 48)
          -0.1065 ( 50) -0.1321 ( 61) -0.1320 ( 62) -0.1615 ( 65) -0.1128 ( 69)
          -0.1133 ( 70) -0.1660 ( 78) -0.1661 ( 79) -0.1656 ( 80) -0.1656 ( 81)
          -0.2237 ( 82) -0.2238 ( 83) -0.2237 ( 84) -0.2238 ( 85) -0.2119 ( 88)
          -0.2121 ( 91)
 CRD 30=   0.1074 (  4) -0.1084 (  6)  0.5067 ( 13) -0.5070 ( 14) -0.2788 ( 48)
           0.2790 ( 50)  0.1755 ( 65) -0.1180 ( 66) -0.1182 ( 68) -0.1486 ( 86)
          -0.1484 ( 87)  0.1451 ( 88) -0.1485 ( 89) -0.1483 ( 90)  0.1452 ( 91)
 CRD 31=  -0.4710 (  8) -0.4710 (  9)  0.3668 ( 10)  0.3668 ( 11) -0.1428 ( 13)
          -0.1429 ( 14)  0.1979 ( 15) -0.1671 ( 46)  0.1198 ( 47) -0.1351 ( 83)
           0.1351 ( 84)  0.1125 ( 87) -0.1125 ( 89)
 CRD 32=  -0.1217 (  7)  0.3935 (  8)  0.3936 (  9)  0.4293 ( 10)  0.4293 ( 11)
          -0.1159 ( 13) -0.1159 ( 14)  0.1417 ( 15)  0.1742 ( 46)  0.1840 ( 47)
           0.1236 ( 82) -0.1236 ( 85)  0.1277 ( 87) -0.1277 ( 89)
 CRD 33=  -0.3052 (  1) -0.5314 (  2) -0.2432 ( 16) -0.2885 ( 18) -0.2877 ( 19)
           0.3935 ( 23)  0.1659 ( 28) -0.2655 ( 41) -0.1887 ( 42)  0.1843 ( 43)
          -0.1880 ( 44)  0.1482 ( 51)
 CRD 34=  -0.2498 (  4)  0.2497 (  6) -0.2841 (  8)  0.2839 (  9) -0.1055 ( 21)
           0.1056 ( 22)  0.1298 ( 57)  0.1298 ( 59) -0.1077 ( 65) -0.1242 ( 66)
           0.1315 ( 67) -0.1242 ( 68)  0.1269 ( 69)  0.1268 ( 70)  0.1329 ( 73)
           0.1330 ( 75)  0.2260 ( 78)  0.2259 ( 79)  0.2261 ( 80)  0.2260 ( 81)
          -0.1339 ( 82) -0.1339 ( 83) -0.1339 ( 84) -0.1339 ( 85) -0.1668 ( 86)
          -0.1668 ( 87) -0.1503 ( 88) -0.1668 ( 89) -0.1668 ( 90) -0.1502 ( 91)
 CRD 35=   0.2516 (  8) -0.2515 (  9) -0.3720 ( 10)  0.3721 ( 11)  0.1155 ( 61)
           0.1155 ( 62) -0.1538 ( 65) -0.1386 ( 66) -0.1386 ( 68)  0.1119 ( 71)
           0.1119 ( 72)  0.1524 ( 82)  0.1524 ( 83)  0.1524 ( 84)  0.1524 ( 85)
          -0.2327 ( 86) -0.2328 ( 87) -0.2480 ( 88) -0.2327 ( 89) -0.2328 ( 90)
          -0.2480 ( 91)
 CRD 36=  -0.1038 (  8)  0.1038 (  9) -0.2188 ( 18)  0.2185 ( 19) -0.1203 ( 42)
           0.1202 ( 44) -0.1236 ( 52)  0.1247 ( 53)  0.2040 ( 55)  0.2824 ( 56)
           0.1053 ( 57)  0.2040 ( 58)  0.1050 ( 59) -0.2235 ( 63) -0.1088 ( 64)
          -0.3005 ( 67) -0.3785 ( 73) -0.3789 ( 75) -0.1867 ( 76) -0.1872 ( 77)
           0.1046 ( 78)  0.1049 ( 79)  0.1043 ( 80)  0.1045 ( 81)
 CRD 37=   0.4795 (  1) -0.1348 ( 15) -0.1417 ( 17) -0.1719 ( 21) -0.1714 ( 22)
          -0.1332 ( 24)  0.1626 ( 25) -0.1334 ( 26)  0.1017 ( 28)  0.1648 ( 29)
           0.1643 ( 30)  0.1380 ( 34) -0.1056 ( 35)  0.1380 ( 38)  0.1222 ( 39)
           0.1223 ( 40) -0.2643 ( 41) -0.1496 ( 43)  0.1057 ( 48)  0.1056 ( 50)
           0.1094 ( 52)  0.1080 ( 53) -0.1063 ( 69)  0.1059 ( 70)  0.1008 ( 73)
           0.1004 ( 76)  0.1867 ( 79) -0.1869 ( 80)  0.1623 ( 83) -0.1626 ( 84)
 CRD 38=  -0.2761 (  1)  0.1862 (  3)  0.1445 (  5)  0.1010 (  7)  0.1922 ( 12)
          -0.1798 ( 13) -0.1798 ( 14) -0.2692 ( 15) -0.1448 ( 25) -0.1324 ( 32)
          -0.1324 ( 33) -0.2370 ( 35) -0.2050 ( 36) -0.2050 ( 37)  0.1627 ( 39)
           0.1627 ( 40)  0.2146 ( 41)  0.1012 ( 43)  0.2403 ( 48)  0.1667 ( 49)
           0.2402 ( 50)  0.1203 ( 61) -0.1203 ( 62)  0.1599 ( 83) -0.1598 ( 84)
 CRD 39=  -0.2778 (  1)  0.6382 (  2) -0.3004 (  3)  0.1128 ( 12)  0.1127 ( 17)
          -0.1314 ( 18) -0.1309 ( 19)  0.1963 ( 23)  0.2524 ( 28) -0.2278 ( 41)
           0.1505 ( 45)  0.1576 ( 51)
 CRD 40=   0.2277 (  1) -0.1989 (  2) -0.1748 (  3) -0.1180 (  5)  0.3346 ( 12)
          -0.1525 ( 13) -0.1527 ( 14)  0.2894 ( 16) -0.2080 ( 17)  0.1205 ( 21)
           0.1207 ( 22)  0.1403 ( 24)  0.1563 ( 25)  0.1399 ( 26) -0.1386 ( 28)
          -0.1538 ( 34) -0.1234 ( 35) -0.1368 ( 36) -0.1367 ( 37) -0.1537 ( 38)
          -0.1210 ( 42) -0.1011 ( 43) -0.1211 ( 44)  0.1049 ( 48)  0.1872 ( 49)
           0.1047 ( 50)  0.1485 ( 52)  0.1485 ( 53) -0.1575 ( 79)  0.1572 ( 80)
 CRD 41=   0.2887 (  1) -0.1275 (  3) -0.1114 (  5)  0.1878 ( 12) -0.5995 ( 16)
           0.2004 ( 17)  0.1528 ( 18)  0.1447 ( 19)  0.1076 ( 25) -0.1988 ( 41)
           0.2047 ( 42)  0.1551 ( 43)  0.2077 ( 44)  0.1081 ( 49) -0.1666 ( 51)
          -0.1978 ( 52) -0.2031 ( 53)
 CRD 42=  -0.2468 (  4)  0.2462 (  6) -0.3555 ( 18)  0.3588 ( 19)  0.1342 ( 42)
          -0.1299 ( 44) -0.2352 ( 52)  0.2310 ( 53)  0.3064 ( 56)  0.1124 ( 63)
          -0.1625 ( 64)  0.2442 ( 73) -0.1471 ( 74)  0.2447 ( 75) -0.1474 ( 78)
          -0.1480 ( 79) -0.1483 ( 80) -0.1489 ( 81)
 CRD 43=  -0.4948 ( 17)  0.2728 ( 18)  0.2726 ( 19)  0.2556 ( 23) -0.1105 ( 42)
           0.2801 ( 43) -0.1103 ( 44) -0.3563 ( 51)  0.1486 ( 52)  0.1485 ( 53)
          -0.2857 ( 55)  0.2859 ( 58)
 CRD 44=   0.2167 (  8) -0.2166 (  9) -0.2836 ( 10)  0.2832 ( 11)  0.2006 ( 13)
          -0.1997 ( 14)  0.1565 ( 48) -0.1563 ( 50) -0.1429 ( 65)  0.1332 ( 78)
           0.1334 ( 79)  0.1334 ( 80)  0.1335 ( 81) -0.2188 ( 82) -0.2187 ( 83)
          -0.2186 ( 84) -0.2184 ( 85)  0.1991 ( 86)  0.1997 ( 87)  0.1984 ( 89)
           0.1990 ( 90)
 CRD 45=   0.2439 (  1) -0.2473 (  3)  0.1167 (  5)  0.2867 (  7) -0.1866 ( 12)
           0.1509 ( 13)  0.1521 ( 14) -0.2035 ( 15)  0.1110 ( 17)  0.1550 ( 21)
           0.1549 ( 22)  0.1792 ( 25) -0.1336 ( 29) -0.1336 ( 30) -0.1631 ( 32)
          -0.1636 ( 33)  0.1442 ( 47) -0.2253 ( 49)  0.1202 ( 66) -0.1204 ( 68)
          -0.1163 ( 73)  0.1172 ( 75) -0.1163 ( 76)  0.1173 ( 77)  0.2554 ( 87)
           0.1356 ( 88) -0.2564 ( 89) -0.1356 ( 91)
 CRD 46=  -0.2106 (  4)  0.2107 (  6) -0.1383 (  8)  0.1382 (  9) -0.1023 ( 10)
           0.1024 ( 11)  0.2031 ( 13) -0.2032 ( 14)  0.2393 ( 18) -0.2392 ( 19)
           0.1116 ( 21) -0.1117 ( 22) -0.1035 ( 34)  0.1035 ( 38) -0.1424 ( 42)
           0.1423 ( 44)  0.1599 ( 48) -0.1600 ( 50)  0.1588 ( 52) -0.1587 ( 53)
           0.1676 ( 54)  0.2026 ( 55)  0.2027 ( 58) -0.2254 ( 63) -0.2279 ( 65)
          -0.1770 ( 74) -0.1293 ( 78) -0.1294 ( 79) -0.1291 ( 80) -0.1292 ( 81)
           0.1041 ( 86)  0.1040 ( 87) -0.1259 ( 88)  0.1042 ( 89)  0.1041 ( 90)
          -0.1258 ( 91)
 CRD 47=  -0.2694 (  3)  0.2210 (  5) -0.1510 (  8) -0.1512 (  9)  0.1276 ( 10)
           0.1275 ( 11) -0.2852 ( 12)  0.1785 ( 15)  0.1108 ( 21)  0.1109 ( 22)
           0.1186 ( 39)  0.1186 ( 40) -0.1344 ( 45)  0.2572 ( 46) -0.2174 ( 47)
          -0.1006 ( 48) -0.1004 ( 50)  0.1360 ( 61) -0.1360 ( 62)  0.1118 ( 69)
          -0.1119 ( 70)  0.1322 ( 71) -0.1322 ( 72) -0.2111 ( 79)  0.2111 ( 80)
           0.2682 ( 83) -0.2682 ( 84) -0.1375 ( 87)  0.1374 ( 89)
 CRD 48=   0.1165 (  1) -0.1141 (  2) -0.1574 (  4)  0.3140 (  5) -0.1574 (  6)
          -0.2534 (  7)  0.2035 ( 15)  0.1580 ( 25) -0.1606 ( 28) -0.1582 ( 29)
          -0.1584 ( 30)  0.1149 ( 34)  0.1147 ( 38)  0.2483 ( 45) -0.1562 ( 46)
           0.1553 ( 49)  0.1331 ( 57) -0.1333 ( 59) -0.1175 ( 66)  0.1174 ( 68)
          -0.2013 ( 73)  0.2021 ( 75) -0.2015 ( 76)  0.2019 ( 77)  0.1883 ( 79)
          -0.1882 ( 80) -0.1371 ( 87)  0.1368 ( 89)
 CRD 49=   0.1924 (  3) -0.2783 (  5)  0.2838 (  7) -0.2658 ( 12)  0.1824 ( 15)
           0.1629 ( 24)  0.1632 ( 26) -0.1531 ( 32) -0.1531 ( 33) -0.1498 ( 34)
          -0.1497 ( 38)  0.1630 ( 39)  0.1628 ( 40)  0.1306 ( 61) -0.1308 ( 62)
          -0.1063 ( 66)  0.1065 ( 68) -0.1010 ( 69)  0.1012 ( 70) -0.1361 ( 71)
           0.1360 ( 72)  0.1567 ( 78) -0.1567 ( 81) -0.2666 ( 82)  0.2668 ( 85)
           0.1693 ( 86) -0.1692 ( 90)
 CRD 50=  -0.1139 (  4)  0.1134 (  6)  0.1555 (  8) -0.1560 (  9) -0.2136 ( 13)
           0.2140 ( 14)  0.1078 ( 18) -0.1079 ( 19)  0.1135 ( 24) -0.1129 ( 26)
           0.1048 ( 29) -0.1040 ( 30) -0.1241 ( 36)  0.1239 ( 37) -0.1110 ( 39)
           0.1111 ( 40) -0.1654 ( 48)  0.1656 ( 50)  0.2186 ( 55)  0.2186 ( 58)
           0.2138 ( 60) -0.2216 ( 64)  0.1800 ( 65) -0.1135 ( 69) -0.1125 ( 70)
           0.1227 ( 73) -0.2987 ( 74)  0.1226 ( 75)  0.2391 ( 88)  0.2395 ( 91)
 CRD 51=   0.2020 (  3) -0.1368 (  4)  0.1053 (  5) -0.1374 (  6)  0.1213 ( 10)
           0.1208 ( 11)  0.1031 ( 13)  0.1021 ( 14) -0.1860 ( 15) -0.1650 ( 20)
           0.1363 ( 31)  0.1587 ( 35)  0.2194 ( 45)  0.1260 ( 46) -0.2012 ( 47)
          -0.1580 ( 49) -0.1039 ( 57)  0.1033 ( 59)  0.1383 ( 66) -0.1377 ( 68)
          -0.1513 ( 69)  0.1518 ( 70) -0.1007 ( 73)  0.1004 ( 75) -0.1003 ( 76)
           0.1007 ( 77)  0.2552 ( 78) -0.2552 ( 81)  0.1211 ( 83) -0.1206 ( 84)
          -0.2833 ( 86) -0.1460 ( 88)  0.2834 ( 90)  0.1448 ( 91)
 CRD 52=   0.1078 (  3)  0.1695 (  5)  0.2434 (  7) -0.1406 (  8) -0.1407 (  9)
          -0.1311 ( 10) -0.1317 ( 11)  0.1338 ( 12) -0.1365 ( 20) -0.2149 ( 27)
          -0.2010 ( 31) -0.1127 ( 35)  0.1268 ( 45)  0.2279 ( 46)  0.2129 ( 47)
          -0.1365 ( 57)  0.1359 ( 59) -0.1323 ( 61)  0.1325 ( 62)  0.1386 ( 71)
          -0.1392 ( 72)  0.2339 ( 78) -0.2337 ( 81)  0.2715 ( 82) -0.2712 ( 85)
           0.1997 ( 86)  0.1242 ( 88) -0.1998 ( 90) -0.1251 ( 91)
 CRD 53=   0.1079 (  4) -0.1073 (  6)  0.1483 ( 10) -0.1479 ( 11)  0.1119 ( 13)
          -0.1117 ( 14) -0.1183 ( 21)  0.1181 ( 22)  0.1022 ( 36) -0.1023 ( 37)
           0.1116 ( 39) -0.1115 ( 40) -0.1981 ( 54)  0.2047 ( 55)  0.1259 ( 56)
          -0.1111 ( 57)  0.2047 ( 58) -0.1117 ( 59) -0.1241 ( 60) -0.1489 ( 64)
           0.1684 ( 66)  0.2556 ( 67)  0.1682 ( 68) -0.1599 ( 71) -0.1593 ( 72)
           0.1389 ( 73) -0.3358 ( 74)  0.1382 ( 75) -0.2656 ( 76) -0.2663 ( 77)
          -0.1822 ( 88) -0.1818 ( 91)
 CRD 54=   0.1364 (  4) -0.1363 (  6) -0.1675 (  8)  0.1675 (  9) -0.1329 ( 10)
           0.1329 ( 11) -0.1022 ( 21)  0.1021 ( 22) -0.1326 ( 24)  0.1326 ( 26)
          -0.1259 ( 29)  0.1259 ( 30) -0.1256 ( 32)  0.1256 ( 33) -0.1318 ( 34)
           0.1318 ( 38) -0.2138 ( 57) -0.2137 ( 59) -0.2312 ( 61) -0.2312 ( 62)
          -0.1821 ( 66)  0.2671 ( 67) -0.1821 ( 68)  0.2311 ( 69)  0.2311 ( 70)
           0.1983 ( 71)  0.1983 ( 72) -0.1409 ( 74) -0.1751 ( 76) -0.1752 ( 77)
           0.1279 ( 88)  0.1279 ( 91)

 THE DETERMINANT OF THE G MATRIX IS 10**(   -25)


                     --------------------
                     INTERNAL COORDINATES
                     --------------------

                 - - ATOMS - -         COORDINATE      COORDINATE
 NO.   TYPE    I  J  K  L  M  N        (BOHR,RAD)       (ANG,DEG)
 ----------------------------------------------------------------
   1 STRETCH   1  7                     2.5364799       1.3422475
   2 STRETCH   1  6                     2.2832543       1.2082462
   3 STRETCH   1  2                     2.8477997       1.5069908
   4 STRETCH   2  9                     2.0596410       1.0899152
   5 STRETCH   2  3                     2.8913830       1.5300541
   6 STRETCH   2 10                     2.0597920       1.0899951
   7 STRETCH   3  4                     2.8912605       1.5299893
   8 STRETCH   3 12                     2.0597920       1.0899951
   9 STRETCH   3 11                     2.0596502       1.0899200
  10 STRETCH   4 14                     2.0597920       1.0899951
  11 STRETCH   4 13                     2.0599132       1.0900592
  12 STRETCH   4  5                     2.8912612       1.5299896
  13 STRETCH   5 16                     2.0597831       1.0899903
  14 STRETCH   5 15                     2.0597496       1.0899726
  15 STRETCH   5 17                     2.0598246       1.0900123
  16 STRETCH   7  8                     2.7439190       1.4520195
  17 STRETCH   8 20                     2.0596689       1.0899299
  18 STRETCH   8 19                     2.0597455       1.0899705
  19 STRETCH   8 18                     2.0597570       1.0899765
  20 BEND      1  2  3                  1.9105800     109.4681712
  21 BEND      1  2  9                  1.9106474     109.4720336
  22 BEND      1  2 10                  1.9106192     109.4704168
  23 BEND      1  7  8                  2.0420921     117.0032613
  24 BEND      2  3 11                  1.9106521     109.4723001
  25 BEND      2  1  6                  2.0943881     119.9996009
  26 BEND      2  3 12                  1.9105722     109.4677245
  27 BEND      2  3  4                  1.9105587     109.4669481
  28 BEND      2  1  7                  2.0943935     119.9999087
  29 BEND      3  2  9                  1.9107282     109.4766596
  30 BEND      3  2 10                  1.9105722     109.4677245
  31 BEND      3  4  5                  1.9106087     109.4698165
  32 BEND      3  4 13                  1.9106888     109.4744068
  33 BEND      3  4 14                  1.9106856     109.4742234
  34 BEND      4  3 11                  1.9106846     109.4741644
  35 BEND      4  5 17                  1.9106118     109.4699938
  36 BEND      4  5 15                  1.9106905     109.4745040
  37 BEND      4  5 16                  1.9106798     109.4738872
  38 BEND      4  3 12                  1.9106856     109.4742234
  39 BEND      5  4 13                  1.9105881     109.4686330
  40 BEND      5  4 14                  1.9106037     109.4695301
  41 BEND      6  1  7                  2.0943942     119.9999507
  42 BEND      7  8 19                  1.9106523     109.4723130
  43 BEND      7  8 20                  1.9106977     109.4749148
  44 BEND      7  8 18                  1.9105548     109.4667241
  45 BEND      9  2 10                  1.9106524     109.4723177
  46 BEND     11  3 12                  1.9106462     109.4719629
  47 BEND     13  4 14                  1.9106244     109.4707138
  48 BEND     15  5 17                  1.9106653     109.4730578
  49 BEND     15  5 16                  1.9105839     109.4683961
  50 BEND     16  5 17                  1.9105680     109.4674846
  51 BEND     18  8 19                  1.9106206     109.4704966
  52 BEND     18  8 20                  1.9106108     109.4699363
  53 BEND     19  8 20                  1.9106632     109.4729387
  54 TORSION   1  2  3  4              -3.1415244    -179.9960870
  55 TORSION   1  7  8 19               1.0470913      59.9939098
  56 TORSION   1  7  8 20               3.1415742     179.9989455
  57 TORSION   1  2  3 11              -1.0471005     -59.9944370
  58 TORSION   1  7  8 18              -1.0472520     -60.0031189
  59 TORSION   1  2  3 12               1.0472847      60.0049922
  60 TORSION   2  3  4  5              -3.1415234    -179.9960321
  61 TORSION   2  3  4 13              -1.0471646     -59.9981102
  62 TORSION   2  3  4 14               1.0472859      60.0050594
  63 TORSION   2  1  7  8               3.1415620     179.9982433
  64 TORSION   3  2  1  7               3.1368196     179.7265248
  65 TORSION   3  4  5 17               3.1415513     179.9976311
  66 TORSION   3  4  5 15              -1.0471776     -59.9988594
  67 TORSION   3  2  1  6              -0.0001085      -0.0062169
  68 TORSION   3  4  5 16               1.0472207      60.0013251
  69 TORSION   4  3  2 10              -1.0472164     -60.0010792
  70 TORSION   4  3  2  9               1.0472229      60.0014540
  71 TORSION   5  4  3 11               1.0472579      60.0034596
  72 TORSION   5  4  3 12              -1.0472166     -60.0010915
  73 TORSION   6  1  2  9               2.0943790     119.9990749
  74 TORSION   6  1  7  8              -0.0046952      -0.2690159
  75 TORSION   6  1  2 10              -2.0943877    -119.9995758
  76 TORSION   7  1  2  9              -1.0518782     -60.2681834
  77 TORSION   7  1  2 10               1.0425404      59.7331658
  78 TORSION   9  2  3 12              -1.0471533     -59.9974668
  79 TORSION   9  2  3 11              -3.1415385    -179.9968960
  80 TORSION  10  2  3 12               3.1415927     180.0000000
  81 TORSION  10  2  3 11               1.0472075      60.0005708
  82 TORSION  11  3  4 14              -1.0471181     -59.9954488
  83 TORSION  11  3  4 13              -3.1415685    -179.9986184
  84 TORSION  12  3  4 14               3.1415927     180.0000000
  85 TORSION  12  3  4 13               1.0471422      59.9968304
  86 TORSION  13  4  5 16              -1.0471999     -60.0001326
  87 TORSION  13  4  5 15               3.1415871     179.9996828
  88 TORSION  13  4  5 17               1.0471308      59.9961733
  89 TORSION  14  4  5 16              -3.1415384    -179.9968923
  90 TORSION  14  4  5 15               1.0472486      60.0029232
  91 TORSION  14  4  5 17              -1.0472078     -60.0005863

     ------------------------------------------
     THE POINT GROUP IS C1 , NAXIS= 1, ORDER= 1
     ------------------------------------------

     DIMENSIONS OF THE SYMMETRY SUBSPACES ARE
 A   =  224

 ..... DONE SETTING UP THE RUN .....
 STEP CPU TIME =     0.01 TOTAL CPU TIME =        0.0 (    0.0 MIN)
 TOTAL WALL CLOCK TIME=        0.0 SECONDS, CPU UTILIZATION IS  33.33%


          -----------------------------
          STATIONARY POINT LOCATION RUN
          -----------------------------

 OBTAINING INITIAL HESSIAN, HESS=GUESS   
 DIAGONAL GUESS HESSIAN IN INTERNAL COORDS IS
     1  0.4271     2  0.5542     3  0.3840     4  0.3464     5  0.3671
     6  0.3464     7  0.3672     8  0.3464     9  0.3464    10  0.3464
    11  0.3463    12  0.3672    13  0.3464    14  0.3464    15  0.3464
    16  0.3450    17  0.3464    18  0.3464    19  0.3464    20  0.2501
    21  0.2255    22  0.2255    23  0.2419    24  0.2241    25  0.2604
    26  0.2241    27  0.2485    28  0.2506    29  0.2241    30  0.2241
    31  0.2485    32  0.2241    33  0.2241    34  0.2241    35  0.2241
    36  0.2241    37  0.2241    38  0.2241    39  0.2241    40  0.2241
    41  0.2592    42  0.2181    43  0.2181    44  0.2181    45  0.2034
    46  0.2034    47  0.2034    48  0.2034    49  0.2034    50  0.2034
    51  0.2034    52  0.2034    53  0.2034    54  0.2500    55  0.2500
    56  0.2500    57  0.2500    58  0.2500    59  0.2500    60  0.2500
    61  0.2500    62  0.2500    63  0.2500    64  0.2500    65  0.2500
    66  0.2500    67  0.2500    68  0.2500    69  0.2500    70  0.2500
    71  0.2500    72  0.2500    73  0.2500    74  0.2500    75  0.2500
    76  0.2500    77  0.2500    78  0.2500    79  0.2500    80  0.2500
    81  0.2500    82  0.2500    83  0.2500    84  0.2500    85  0.2500
    86  0.2500    87  0.2500    88  0.2500    89  0.2500    90  0.2500
    91  0.2500
 TRANSFORMING HESSIAN TO SYMMETRY COORDINATES

          PARAMETERS CONTROLLING GEOMETRY SEARCH ARE
          METHOD =QA                  UPHESS =BFGS    
          NNEG   =         0          NFRZ   =         3
          NSTEP  =        50          IFOLOW =         1
          HESS   =GUESS               RESTAR =         F
          IHREP  =         0          HSSEND =         F
          NPRT   =         0          NPUN   =         0
          OPTTOL = 5.000E-04          RMIN   = 1.500E-03
          RMAX   = 1.000E-01          RLIM   = 7.000E-02
          DXMAX  = 3.000E-01          PURIFY =         F
          MOVIE  =         F          TRUPD  =         T
          TRMAX  = 5.000E-01          TRMIN  = 5.000E-02
          ITBMAT =         5          STPT   =         F
          STSTEP = 1.000E-02          PROJCT=          F
          FROZEN COORD(S)=   1   2   3


      ***** EQUILIBRIUM GEOMETRY LOCATED *****
            (SUBJECT TO   3 CONSTRAINT(S))
 COORDINATES OF ALL ATOMS ARE (ANGS)
   ATOM   CHARGE       X              Y              Z
 ------------------------------------------------------------
 C           6.0   1.0994827730   0.0390244094  -0.0007693097
 C           6.0  -0.1622266395  -0.7745009046  -0.0012958770
 C           6.0  -1.3688026147   0.1524782240   0.0002099374
 C           6.0  -2.7025994464  -0.5767032246  -0.0002430590
 C           6.0  -3.8705248901   0.4059403579   0.0015339294
 O           8.0   1.1196992495   1.2304567954  -0.0019056586
 O           8.0   2.2030696582  -0.6763683077   0.0008858840
 C           6.0   3.4034163834   0.0905119131   0.0015055898
 H           1.0  -0.1472557744  -1.4235544676  -0.8730766777
 H           1.0  -0.1468457642  -1.4256474561   0.8688951645
 H           1.0  -1.3062449996   0.8001145563   0.8700726359
 H           1.0  -1.3068610743   0.8023290050  -0.8680105553
 H           1.0  -2.7624210739  -1.2208700092  -0.8751724904
 H           1.0  -2.7617983316  -1.2232166909   0.8729926831
 H           1.0  -3.8319980656   1.0453858967   0.8802672557
 H           1.0  -3.8326860936   1.0477648259  -0.8754948553
 H           1.0  -4.8244359864  -0.1112126251   0.0012369958
 H           1.0   3.4340728289   0.7132859867  -0.8810259945
 H           1.0   3.4324276511   0.7142762939   0.8834104613
 H           1.0   4.2186247734  -0.6124572785   0.0027007976


                     --------------------
                     INTERNAL COORDINATES
                     --------------------

                 - - ATOMS - -         COORDINATE      COORDINATE
 NO.   TYPE    I  J  K  L  M  N        (BOHR,RAD)       (ANG,DEG)
 ----------------------------------------------------------------
   1 STRETCH   1  7                     2.4853263       1.3151781
   2 STRETCH   1  6                     2.2518059       1.1916044
   3 STRETCH   1  2                     2.8369403       1.5012443
   4 STRETCH   2  9                     2.0540691       1.0869666
   5 STRETCH   2  3                     2.8753149       1.5215512
   6 STRETCH   2 10                     2.0540381       1.0869503
   7 STRETCH   3  4                     2.8725823       1.5201052
   8 STRETCH   3 12                     2.0527240       1.0862549
   9 STRETCH   3 11                     2.0527743       1.0862814
  10 STRETCH   4 14                     2.0562657       1.0881291
  11 STRETCH   4 13                     2.0562711       1.0881319
  12 STRETCH   4  5                     2.8843196       1.5263163
  13 STRETCH   5 16                     2.0549846       1.0874511
  14 STRETCH   5 15                     2.0549822       1.0874498
  15 STRETCH   5 17                     2.0504996       1.0850777
  16 STRETCH   7  8                     2.6917407       1.4244079
  17 STRETCH   8 20                     2.0341843       1.0764441
  18 STRETCH   8 19                     2.0420235       1.0805924
  19 STRETCH   8 18                     2.0419968       1.0805783
  20 BEND      1  2  3                  1.9138017     109.6527623
  21 BEND      1  2  9                  1.8883965     108.1971468
  22 BEND      1  2 10                  1.8885744     108.2073406
  23 BEND      1  7  8                  1.9979338     114.4731734
  24 BEND      2  3 11                  1.8947818     108.5629992
  25 BEND      2  1  6                  2.1604592     123.7851944
  26 BEND      2  3 12                  1.8949042     108.5700110
  27 BEND      2  3  4                  1.9861957     113.8006335
  28 BEND      2  1  7                  1.9937565     114.2338312
  29 BEND      3  2  9                  1.9557359     112.0554107
  30 BEND      3  2 10                  1.9556192     112.0487248
  31 BEND      3  4  5                  1.9418334     111.2588571
  32 BEND      3  4 13                  1.9096987     109.4176768
  33 BEND      3  4 14                  1.9097565     109.4209846
  34 BEND      4  3 11                  1.9142692     109.6795459
  35 BEND      4  5 17                  1.9453481     111.4602369
  36 BEND      4  5 15                  1.9309315     110.6342263
  37 BEND      4  5 16                  1.9309448     110.6349847
  38 BEND      4  3 12                  1.9142816     109.6802565
  39 BEND      5  4 13                  1.9177072     109.8765269
  40 BEND      5  4 14                  1.9176612     109.8738955
  41 BEND      6  1  7                  2.1289696     121.9809737
  42 BEND      7  8 19                  1.9110843     109.4970663
  43 BEND      7  8 20                  1.8614709     106.6544268
  44 BEND      7  8 18                  1.9111730     109.5021452
  45 BEND      9  2 10                  1.8589509     106.5100413
  46 BEND     11  3 12                  1.8546758     106.2650983
  47 BEND     13  4 14                  1.8655948     106.8907080
  48 BEND     15  5 17                  1.8876953     108.1569759
  49 BEND     15  5 16                  1.8790725     107.6629262
  50 BEND     16  5 17                  1.8877419     108.1596425
  51 BEND     18  8 19                  1.9103914     109.4573616
  52 BEND     18  8 20                  1.9345610     110.8421784
  53 BEND     19  8 20                  1.9344902     110.8381225
  54 TORSION   1  2  3  4               3.1415563     179.9979185
  55 TORSION   1  7  8 19               1.0475757      60.0216637
  56 TORSION   1  7  8 20              -3.1414367    -179.9910651
  57 TORSION   1  2  3 11              -1.0046926     -57.5646450
  58 TORSION   1  7  8 18              -1.0471305     -59.9961554
  59 TORSION   1  2  3 12               1.0045139      57.5544065
  60 TORSION   2  3  4  5               3.1414406     179.9912855
  61 TORSION   2  3  4 13              -1.0194484     -58.4100929
  62 TORSION   2  3  4 14               1.0191630      58.3937411
  63 TORSION   2  1  7  8              -3.1415056    -179.9950139
  64 TORSION   3  2  1  7               3.1391942     179.8625815
  65 TORSION   3  4  5 17              -3.1415716    -179.9987963
  66 TORSION   3  4  5 15              -1.0404484     -59.6133003
  67 TORSION   3  2  1  6              -0.0025582      -0.1465743
  68 TORSION   3  4  5 16               1.0404226      59.6118221
  69 TORSION   4  3  2 10              -1.0442252     -59.8296963
  70 TORSION   4  3  2  9               1.0443008      59.8340297
  71 TORSION   5  4  3 11               1.0152625      58.1702592
  72 TORSION   5  4  3 12              -1.0153991     -58.1780811
  73 TORSION   6  1  2  9               2.1352538     122.3410299
  74 TORSION   6  1  7  8               0.0002436       0.0139574
  75 TORSION   6  1  2 10              -2.1403394    -122.6324169
  76 TORSION   7  1  2  9              -1.0061791     -57.6498143
  77 TORSION   7  1  2 10               1.0014130      57.3767389
  78 TORSION   9  2  3 12              -1.0927416     -62.6094824
  79 TORSION   9  2  3 11              -3.1019481    -177.7285339
  80 TORSION  10  2  3 12               3.1019177     177.7267917
  81 TORSION  10  2  3 11               1.0927112      62.6077402
  82 TORSION  11  3  4 14              -1.1070150     -63.4272851
  83 TORSION  11  3  4 13               3.1375589     179.7688809
  84 TORSION  12  3  4 14              -3.1376766    -179.7756255
  85 TORSION  12  3  4 13               1.1068972      63.4205405
  86 TORSION  13  4  5 16              -1.0772017     -61.7191086
  87 TORSION  13  4  5 15               3.1251127     179.0557689
  88 TORSION  13  4  5 17               1.0239894      58.6702729
  89 TORSION  14  4  5 16              -3.1250968    -179.0548577
  90 TORSION  14  4  5 15               1.0772176      61.7200199
  91 TORSION  14  4  5 17              -1.0239057     -58.6654761

          INTERNUCLEAR DISTANCES (ANGS.)


 =====================================================
   GAMESS/COSab RESULTS
 =====================================================

   Dielectric Constant                  = INFTY
   Basic Grid Size                      =                 1082
   Number of Segments                   =                   92
   Number of Segments located on spheres=                  285
   Number of Segments of the cavity     =                  728
   Solvent Radius (rsolv)               = 1.40
   Outlying Charge Error Method         = double cavity

 =====================================================

  Total solvated Energy (a.u.)          =  -384.0497579027
  Total Energy corrected (a.u.)         =  -384.0495044523

  Outlying charge effect (a.u.)         =     0.0002534503
  Outlying charge effect (kcal/mol)     =     0.1590426175

  Dielectric Energy (a.u.)              =    -0.0121799167
  Dielectric energy corr. (a.u.)        =    -0.0119264663

  Sum of polarization charges           =     0.0244774019
  Sum of polarization charges(cor.)     =    -0.0244774019

  Total surface area of cavity (A**2)   =  168.61
  Total volume of cavity (A**3)         =  159.32

 =====================================================
 NPS=                   728
NR.  ATOM  (X, Y, Z)(a.u.)                  CHARGE(e)  AREA(A**2) SIGMA(e/A**2)
   1   1   2.529379  -1.236581   3.514690  -0.000940   0.139368  -0.006748
   2   1   2.430155   1.300602  -3.558830  -0.000310   0.185824  -0.001669
   3   1   2.651675  -1.128864  -3.538211  -0.001833   0.278737  -0.006576
   4   1   1.521963   1.181964   3.568862  -0.000674   0.232280  -0.002903
   5   1   1.316408   0.413447   3.684897  -0.001586   0.232280  -0.006827
   6   1   1.922292  -0.308253   3.755421  -0.002313   0.278737  -0.008297
   7   1   2.902677  -0.401409   3.656125  -0.002923   0.371649  -0.007864
   8   1   2.949471  -0.247293  -3.664967  -0.001577   0.185824  -0.008485
   9   1   2.529593   0.610106  -3.715273  -0.001777   0.278737  -0.006374
  10   1   1.377928   0.702628  -3.661932  -0.002191   0.325193  -0.006737
  11   1   1.953227  -0.265020  -3.763643  -0.002775   0.325193  -0.008534
  12   1   2.499643   0.882442   3.666267  -0.002490   0.418105  -0.005954
  13   2  -1.460987  -5.030775   0.473837   0.000225   0.325193   0.000691
  14   2  -0.210101  -0.634300   3.683629  -0.000392   0.139368  -0.002815
  15   2   0.174184  -1.111471   3.729723  -0.000198   0.046456  -0.004263
  16   2  -0.758558  -5.191630  -0.428812   0.000250   0.185824   0.001346
  17   2   1.378543  -4.748614  -0.810776  -0.000121   0.139368  -0.000866
  18   2  -0.623661  -0.922235  -3.729466  -0.000252   0.139368  -0.001805
  19   2   0.058499  -0.516694  -3.643106   0.000001   0.046456   0.000025
  20   2   1.193288  -4.897021   0.493887   0.000038   0.278737   0.000137
  21   2  -0.176871  -5.234947   0.208278   0.000540   0.325193   0.001660
  22   2  -1.676240  -4.962065  -0.413562   0.000200   0.232280   0.000860
  23   2  -0.618679  -0.974121   3.732148  -0.000078   0.046456  -0.001684
  24   2   0.658143  -5.104814  -0.310987   0.000362   0.278737   0.001298
  25   2  -0.062479  -0.907363  -3.732772  -0.000160   0.046456  -0.003434
  26   3  -3.416219   3.964519  -0.282959   0.000794   0.232280   0.003418
  27   3  -2.652413  -0.460339  -3.703613   0.000051   0.092912   0.000550
  28   3  -2.135923  -0.105417  -3.731382  -0.000014   0.046456  -0.000302
  29   3  -2.910356   4.027571   0.443227   0.000892   0.232280   0.003842
  30   3  -2.938757  -0.221315   3.728773   0.000158   0.139368   0.001131
  31   3  -2.593056   4.052628  -0.335457   0.000935   0.185824   0.005033
  32   3  -2.936639  -0.185124  -3.732936   0.000051   0.046456   0.001097
  33   3  -2.380114  -0.276690   3.731697   0.000024   0.046456   0.000522
  34   4  -6.529774  -4.576504   0.321194   0.001687   0.371649   0.004539
  35   4  -5.030555  -0.362928   3.707654   0.000137   0.092912   0.001472
  36   4  -6.243094  -4.653768  -0.540975   0.001255   0.278737   0.004503
  37   4  -5.359711  -0.502799  -3.725487   0.000201   0.139368   0.001439
  38   4  -4.299084  -4.771767   0.272362   0.000992   0.232280   0.004269
  39   4  -5.255335  -4.863518   0.145950   0.001725   0.325193   0.005303
  40   4  -7.391508  -4.083749  -0.320516   0.001185   0.371649   0.003188
  41   4  -7.911498  -3.548197  -0.613966   0.000293   0.139368   0.002102
  42   4  -7.540522  -3.837062   0.902721   0.000967   0.325193   0.002974
  43   4  -5.361110  -0.580465   3.735905   0.000073   0.046456   0.001582
  44   4  -7.625730  -3.565421  -1.346748   0.000373   0.185824   0.002009
  45   4  -4.589518  -4.792932  -0.551054   0.000571   0.139368   0.004097
  46   4  -4.800544  -0.552568  -3.728934   0.000068   0.046456   0.001467
  47   5 -10.183815   1.642498  -2.295680   0.002146   0.418105   0.005133
  48   5  -8.428325  -0.829608   3.242267   0.000785   0.278737   0.002817
  49   5  -8.318285   4.386639  -0.415740   0.001772   0.418105   0.004239
  50   5 -10.658568   1.857194   1.385445   0.001430   0.371649   0.003847
  51   5  -8.836351  -1.737854  -2.382993   0.000660   0.278737   0.002366
  52   5  -7.621091  -0.010958  -3.682839   0.000683   0.232280   0.002942
  53   5  -8.476208  -0.663586  -3.296665   0.000995   0.325193   0.003061
  54   5  -9.476467   0.133527  -3.031494   0.001490   0.325193   0.004581
  55   5 -10.023533   2.217322   2.203100   0.001522   0.371649   0.004095
  56   5  -7.899044   4.457918   0.568856   0.001142   0.278737   0.004096
  57   5  -5.626874   4.023047   0.917260   0.000116   0.046456   0.002493
  58   5  -8.372384   0.189104   3.584864   0.000965   0.278737   0.003462
  59   5  -9.463603   1.060605  -3.091988   0.001041   0.232280   0.004483
  60   5 -10.165385   0.543962  -2.468007   0.001237   0.278737   0.004437
  61   5  -5.959927   4.286758  -0.246706   0.001116   0.232280   0.004805
  62   5  -6.934553   4.522116  -0.197475   0.002157   0.418105   0.005159
  63   5  -9.239215   3.999055   0.368048   0.001453   0.464561   0.003128
  64   5 -10.267368   2.942412   0.914700   0.001325   0.464561   0.002852
  65   5 -10.174666   1.047457   2.457201   0.001900   0.371649   0.005111
  66   5  -9.173680  -0.184350   3.152727   0.000883   0.232280   0.003803
  67   5  -8.996717  -1.321808   2.665580   0.001003   0.325193   0.003085
  68   5  -9.499062   3.720860  -0.883796   0.001089   0.371649   0.002930
  69   5 -10.075980   2.789677  -1.599067   0.001445   0.418105   0.003457
  70   5 -10.714674   1.920581  -1.176420   0.001615   0.464561   0.003475
  71   5 -10.855343   2.071172   0.213279   0.000920   0.325193   0.002828
  72   5  -8.506368   0.230706  -3.543270   0.000807   0.232280   0.003474
  73   5  -9.215038  -0.940765  -2.781754   0.000821   0.232280   0.003536
  74   5  -9.563614   3.511090   1.304901   0.000750   0.278737   0.002691
  75   5  -6.243398   4.345904   0.577284   0.000575   0.139368   0.004122
  76   5  -7.530878  -0.006805   3.695915   0.000617   0.232280   0.002655
  77   5  -9.352740   0.877516   3.183555   0.001452   0.325193   0.004466
  78   5  -8.794967  -2.061594   2.025282   0.000136   0.092912   0.001465
  79   5 -10.275824   3.094462  -0.308131   0.000963   0.418105   0.002303
  80   5  -9.762783  -0.118525   2.742331   0.001000   0.232280   0.004303
  81   6   2.077255   5.575273  -0.022520   0.005219   0.377948   0.013809
  82   6   2.232063   3.892095  -2.848972   0.004012   0.309230   0.012975
  83   6   3.291061   3.863951   2.607145   0.002637   0.171795   0.015351
  84   6   1.441502   5.349717   0.977334   0.005835   0.412307   0.014151
  85   6   0.756515   4.774699   1.644636   0.005112   0.309230   0.016530
  86   6   1.053098   5.378224  -0.341604   0.005044   0.343589   0.014680
  87   6   0.320571   4.940960  -0.710193   0.005515   0.309230   0.017836
  88   6   2.149582   5.343505  -1.209229   0.005686   0.412307   0.013790
  89   6   2.423365   4.728678  -2.170072   0.005179   0.377948   0.013703
  90   6   3.196300   5.368535  -0.372032   0.005460   0.377948   0.014445
  91   6   4.009333   4.896998  -0.608329   0.005277   0.274871   0.019198
  92   6   2.829663   5.354898   0.932517   0.006290   0.446666   0.014082
  93   6   3.368716   4.717098   1.805847   0.006373   0.412307   0.015456
  94   6   0.542956   4.566728  -1.754627   0.003101   0.206154   0.015041
  95   6   1.191125   4.052596  -2.596981   0.006121   0.412307   0.014845
  96   6   3.274956   4.089015  -2.475526   0.004485   0.274871   0.016316
  97   6   2.554535   4.158356   2.644391   0.004634   0.343589   0.013487
  98   6   1.338328   4.182910   2.547660   0.005925   0.377948   0.015678
  99   6   1.685208   2.960573  -3.162004   0.003931   0.309230   0.012712
 100   6   2.667823   3.100709  -3.111453   0.002976   0.240512   0.012374
 101   6   2.789486   3.139658   3.070096   0.002602   0.206154   0.012622
 102   6   1.341799   3.308290   2.996213   0.003130   0.240512   0.013012
 103   6   0.356819   5.009484   0.511098   0.005970   0.309230   0.019307
 104   6   1.257328   4.967841  -1.690038   0.004974   0.343589   0.014477
 105   6   3.428483   4.873760  -1.535551   0.005762   0.377948   0.015244
 106   6   3.924713   4.956085   0.605940   0.005890   0.343589   0.017142
 107   6   2.011203   4.915038   1.957654   0.005152   0.377948   0.013631
 108   6   2.008908   2.986391   3.176963   0.003112   0.274871   0.011323
 109   7   4.441542  -3.674234  -2.176859   0.003998   0.274871   0.014544
 110   7   3.969048  -4.348447   1.050612   0.004885   0.309230   0.015798
 111   7   5.636005  -3.979247  -1.046955   0.002184   0.206154   0.010594
 112   7   5.263607  -3.811787  -1.711361   0.002499   0.240512   0.010388
 113   7   5.751275  -4.078460   0.449980   0.001823   0.171795   0.010610
 114   7   4.993566  -4.347561   0.675402   0.004592   0.343589   0.013364
 115   7   4.511000  -4.305202  -1.130005   0.003932   0.274871   0.014304
 116   7   4.094894  -4.527072  -0.065743   0.005472   0.343589   0.015926
 117   7   4.447822  -3.922166   1.870591   0.005462   0.377948   0.014452
 118   7   4.952068  -3.092661   2.580414   0.003859   0.309230   0.012481
 119   7   5.009087  -3.066325  -2.577395   0.003316   0.274871   0.012065
 120   7   3.880230  -4.054540  -1.664546   0.002740   0.171795   0.015952
 121   7   3.933449  -2.465332   3.018702   0.002056   0.171795   0.011966
 122   7   4.409498  -2.139281   3.126162   0.001359   0.171795   0.007908
 123   7   3.992791  -2.290418  -3.082309   0.001383   0.137436   0.010062
 124   7   4.035671  -3.077831  -2.701949   0.002660   0.206154   0.012902
 125   7   5.250727  -4.318741  -0.368184   0.002992   0.240512   0.012440
 126   7   5.440778  -3.793879   1.615236   0.002571   0.274871   0.009355
 127   7   3.728591  -4.394751  -0.812340   0.001953   0.137436   0.014207
 128   7   4.074840  -3.335408   2.516539   0.002986   0.206154   0.014487
 129   7   4.468088  -2.060120  -3.138428   0.001579   0.206154   0.007661
 130   8   6.624282  -2.041857   3.060662  -0.000422   0.325193  -0.001296
 131   8   9.358448   0.703265   2.333961  -0.000177   0.464561  -0.000382
 132   8   7.245961  -1.562393  -3.255387  -0.000224   0.278737  -0.000804
 133   8   8.000726   3.550152   0.638025  -0.000692   0.371649  -0.001862
 134   8   9.926568   0.975571  -1.189449  -0.000799   0.325193  -0.002456
 135   8   7.370071  -2.543191   2.459747  -0.000812   0.464561  -0.001747
 136   8   6.189633  -1.019147   3.581850  -0.000630   0.464561  -0.001356
 137   8   5.535465  -0.405039   3.629077  -0.000365   0.139368  -0.002619
 138   8   7.475864  -1.386365   3.284330  -0.000016   0.371649  -0.000042
 139   8   8.599088  -0.455579   3.034889   0.000243   0.278737   0.000873
 140   8   9.311237   1.360313  -2.136558  -0.000506   0.325193  -0.001555
 141   8   7.487479   3.766086  -0.491964  -0.000501   0.371649  -0.001348
 142   8   7.258804  -0.564119  -3.610923   0.000012   0.371649   0.000031
 143   8   8.597758   0.278566   3.098026   0.000022   0.232280   0.000096
 144   8   9.445958  -0.372774   2.216823  -0.000336   0.278737  -0.001205
 145   8   6.277898  -1.223983  -3.506357  -0.000472   0.371649  -0.001269
 146   8   6.747296   3.929872   0.238920   0.000276   0.371649   0.000743
 147   8   8.692056   3.172294  -0.405419  -0.001274   0.464561  -0.002742
 148   8   9.601428   2.003542  -0.934081  -0.001566   0.464561  -0.003371
 149   8   9.245935   0.265977  -2.517915   0.000072   0.325193   0.000222
 150   8   8.239695  -1.081360  -3.070618   0.000171   0.278737   0.000615
 151   8   7.829043  -2.041881  -2.723709  -0.000227   0.325193  -0.000697
 152   8   6.699270  -2.325924  -2.821633  -0.000320   0.278737  -0.001147
 153   8   8.957567   2.873643   0.776972  -0.001299   0.418105  -0.003106
 154   8   9.333111   1.883950   1.714853  -0.000919   0.325193  -0.002826
 155   8   9.972372   0.786229   1.172527  -0.001201   0.511017  -0.002351
 156   8  10.147086   0.850821  -0.126315  -0.001571   0.464561  -0.003382
 157   8   9.774848   0.195849  -1.759462  -0.000416   0.278737  -0.001491
 158   8   6.982180  -3.220715   1.576710  -0.000198   0.092912  -0.002134
 159   8   7.459374  -0.474654   3.582079   0.000007   0.278737   0.000024
 160   8   8.428707  -1.379563   2.811967   0.000139   0.325193   0.000429
 161   8   8.962954   2.638482  -1.334234  -0.000973   0.278737  -0.003489
 162   8   5.608013  -0.513643  -3.621688  -0.000548   0.232280  -0.002358
 163   8   8.472372   0.014988  -3.174377   0.000166   0.325193   0.000511
 164   8   7.147504  -2.939282  -2.021375  -0.000518   0.278737  -0.001860
 165   8   9.684365   2.030317   0.499154  -0.001974   0.511017  -0.003862
 166   8   8.959109  -0.814315  -2.628608   0.000068   0.278737   0.000243
 167   9  -0.259410  -4.158578  -3.619233  -0.003197   0.412182  -0.007756
 168   9   0.814971  -3.130449  -3.805339  -0.002864   0.392554  -0.007295
 169   9  -0.866799  -2.448053  -4.022668  -0.002455   0.372926  -0.006582
 170   9  -0.460911  -5.122235  -1.944068  -0.001902   0.412182  -0.004615
 171   9   0.931705  -4.742759  -2.247969  -0.002038   0.353299  -0.005769
 172   9   0.128006  -2.515821  -4.066414  -0.001994   0.372926  -0.005347
 173   9  -1.028953  -3.590868  -3.808632  -0.003255   0.392554  -0.008291
 174   9  -1.243991  -4.672638  -2.732513  -0.003458   0.431809  -0.008009
 175   9   0.124984  -4.836429  -2.774967  -0.002323   0.333671  -0.006963
 176   9   0.905350  -4.068366  -3.303528  -0.002830   0.353299  -0.008010
 177  10  -0.036172  -3.963009   3.731629  -0.003207   0.412182  -0.007781
 178  10   0.086346  -2.289428   4.037580  -0.001873   0.333671  -0.005614
 179  10   1.062979  -3.907956   3.304723  -0.002522   0.353299  -0.007138
 180  10   0.014778  -5.113772   1.949849  -0.001442   0.333671  -0.004320
 181  10  -1.147850  -4.924359   2.192826  -0.002481   0.392554  -0.006321
 182  10  -0.872807  -2.771537   4.024126  -0.003487   0.471065  -0.007403
 183  10   0.736316  -3.062657   3.849101  -0.002300   0.353299  -0.006510
 184  10   0.850523  -4.705942   2.487614  -0.002808   0.392554  -0.007153
 185  10  -0.378188  -4.786796   2.924742  -0.002615   0.353299  -0.007402
 186  10  -1.128108  -4.049493   3.505943  -0.003292   0.372926  -0.008828
 187  11  -2.388665   2.904523   3.666476  -0.001203   0.255160  -0.004716
 188  11  -1.558182   1.335486   3.919146  -0.001056   0.255160  -0.004139
 189  11  -3.022099   1.156329   4.011076  -0.000868   0.294415  -0.002948
 190  11  -2.684415   3.929491   2.023863  -0.001183   0.372926  -0.003171
 191  11  -2.275675   1.511981   4.093273  -0.000895   0.274788  -0.003257
 192  11  -3.077697   2.352952   3.870569  -0.001888   0.353299  -0.005344
 193  11  -3.039853   3.463693   3.022410  -0.001579   0.314043  -0.005028
 194  11  -1.994841   3.551314   2.929486  -0.001472   0.314043  -0.004687
 195  11  -1.557979   2.472393   3.713931  -0.001948   0.353299  -0.005515
 196  12  -2.231162   2.729884  -3.762840  -0.001506   0.314043  -0.004794
 197  12  -2.017752   1.130138  -4.023967  -0.001177   0.372926  -0.003156
 198  12  -2.558436   3.951469  -1.951144  -0.000802   0.333671  -0.002404
 199  12  -3.014467   1.623892  -4.033337  -0.001906   0.471065  -0.004045
 200  12  -1.540697   2.135846  -3.828501  -0.001790   0.333671  -0.005365
 201  12  -1.947500   3.431920  -3.086837  -0.001711   0.333671  -0.005128
 202  12  -3.025626   3.673893  -2.674835  -0.001312   0.294415  -0.004457
 203  12  -3.107482   2.911708  -3.558827  -0.001772   0.314043  -0.005644
 204  13  -5.667556  -3.953014  -3.421889  -0.001987   0.431809  -0.004601
 205  13  -4.459591  -2.258483  -3.989268  -0.001301   0.353299  -0.003683
 206  13  -5.614733  -1.871339  -4.039125  -0.000709   0.353299  -0.002007
 207  13  -7.004835  -3.443769  -2.902130  -0.001022   0.372926  -0.002741
 208  13  -5.659397  -4.692109  -2.046262  -0.000631   0.372926  -0.001693
 209  13  -5.319862  -2.932160  -4.027552  -0.001507   0.372926  -0.004042
 210  13  -6.485258  -2.772531  -3.707655  -0.001211   0.431809  -0.002805
 211  13  -6.497475  -4.237637  -2.476497  -0.001013   0.412182  -0.002457
 212  13  -4.738226  -4.593888  -2.411100  -0.001523   0.451437  -0.003374
 213  13  -4.543050  -3.716697  -3.548474  -0.001985   0.372926  -0.005322
 214  14  -5.608103  -3.711897   3.630321  -0.002006   0.431809  -0.004647
 215  14  -6.445895  -2.467694   3.772353  -0.000785   0.294415  -0.002668
 216  14  -4.647814  -1.985381   4.016662  -0.000905   0.333671  -0.002711
 217  14  -5.045702  -4.743860   1.947940  -0.000653   0.392554  -0.001664
 218  14  -6.953767  -3.894278   2.371403  -0.000604   0.353299  -0.001710
 219  14  -5.604065  -2.275512   4.075740  -0.001250   0.412182  -0.003032
 220  14  -4.608297  -3.191391   3.860598  -0.002030   0.412182  -0.004925
 221  14  -4.724998  -4.336900   2.949333  -0.002008   0.431809  -0.004650
 222  14  -6.044361  -4.488557   2.433691  -0.001246   0.451437  -0.002759
 223  14  -6.756265  -3.365716   3.249971  -0.001267   0.451437  -0.002807
 224  15  -7.648676   3.181059   3.764868  -0.002361   0.471065  -0.005012
 225  15  -7.798823   1.716687   4.042003  -0.000862   0.372926  -0.002310
 226  15  -8.903937   3.163480   3.027243  -0.000909   0.392554  -0.002316
 227  15  -7.468325   4.388724   2.063438  -0.000744   0.353299  -0.002105
 228  15  -6.372003   4.235658   2.076851  -0.000869   0.333671  -0.002604
 229  15  -6.699755   1.856027   4.056668  -0.001948   0.490692  -0.003970
 230  15  -8.600468   2.291049   3.685484  -0.000947   0.392554  -0.002413
 231  15  -8.241171   3.980889   2.670465  -0.001701   0.510320  -0.003333
 232  15  -6.703105   3.923230   3.060485  -0.002043   0.412182  -0.004958
 233  15  -6.464578   3.082760   3.714217  -0.002032   0.372926  -0.005449
 234  16  -7.684317   3.474159  -3.553807  -0.002401   0.471065  -0.005098
 235  16  -8.553092   2.130708  -3.726965  -0.000849   0.392554  -0.002163
 236  16  -6.678914   1.672322  -4.025650  -0.001266   0.372926  -0.003394
 237  16  -6.544538   4.295300  -2.086857  -0.001012   0.392554  -0.002578
 238  16  -8.713230   3.743882  -2.527015  -0.000834   0.372926  -0.002236
 239  16  -7.653013   1.937588  -4.076222  -0.001252   0.412182  -0.003037
 240  16  -6.595907   2.841396  -3.862330  -0.002318   0.431809  -0.005368
 241  16  -6.541980   3.853084  -3.081190  -0.002181   0.431809  -0.005052
 242  16  -7.753129   4.308774  -2.247184  -0.001342   0.490692  -0.002734
 243  16  -8.822836   3.002641  -3.233220  -0.000996   0.372926  -0.002671
 244  17 -11.308788  -1.318568  -0.042783  -0.003493   0.608459  -0.005741
 245  17 -10.104584  -2.441543  -0.281345  -0.001263   0.353299  -0.003574
 246  17 -10.482797  -1.168069  -1.800919  -0.000665   0.333671  -0.001993
 247  17 -11.358487   0.353231  -0.830017  -0.000768   0.353299  -0.002174
 248  17 -11.171593   0.033450   1.326679  -0.000746   0.372926  -0.002000
 249  17 -10.136168  -1.717220   1.653080  -0.000705   0.353299  -0.001995
 250  17 -10.320182  -2.008977  -1.160160  -0.001700   0.490692  -0.003464
 251  17 -11.157428  -0.557402  -1.320774  -0.001697   0.490692  -0.003458
 252  17 -11.535769   0.144227   0.244058  -0.001820   0.510320  -0.003566
 253  17 -10.966652  -0.993784   1.416329  -0.001793   0.490692  -0.003653
 254  17 -10.333517  -2.221982   0.714714  -0.001860   0.490692  -0.003790
 255  18   6.961261   2.571476  -3.742260  -0.003544   0.451437  -0.007850
 256  18   5.592968   1.278390  -3.951070  -0.001952   0.294415  -0.006630
 257  18   7.173083   0.917946  -3.985001  -0.001516   0.333671  -0.004544
 258  18   8.307606   2.338756  -2.986900  -0.002001   0.353299  -0.005663
 259  18   6.882250   3.739334  -2.067361  -0.002499   0.392554  -0.006366
 260  18   6.388336   1.306778  -4.119117  -0.002115   0.333671  -0.006340
 261  18   7.836909   1.681204  -3.691818  -0.002509   0.412182  -0.006086
 262  18   7.751979   3.200147  -2.670091  -0.003003   0.471065  -0.006375
 263  18   6.367844   3.414998  -2.986838  -0.003268   0.412182  -0.007929
 264  18   5.736911   2.453815  -3.725430  -0.003475   0.412182  -0.008430
 265  19   6.900355   2.579821   3.755232  -0.003727   0.471065  -0.007912
 266  19   7.893563   1.349015   3.683068  -0.001729   0.353299  -0.004895
 267  19   5.961540   0.933899   4.033021  -0.002069   0.353299  -0.005857
 268  19   6.721014   3.764762   2.053963  -0.002271   0.372926  -0.006090
 269  19   8.170263   2.940796   2.486844  -0.001979   0.353299  -0.005601
 270  19   6.909675   1.328098   4.089198  -0.002679   0.431809  -0.006204
 271  19   5.616284   2.079661   3.847780  -0.003322   0.431809  -0.007692
 272  19   6.114496   3.238653   3.195496  -0.003309   0.412182  -0.008027
 273  19   7.353363   3.410769   2.687101  -0.002486   0.372926  -0.006666
 274  19   8.070428   2.279968   3.300522  -0.002362   0.372926  -0.006334
 275  20   9.832635  -2.760254   0.068709  -0.005577   0.628086  -0.008879
 276  20   8.216731  -3.580397   0.327891  -0.002579   0.392554  -0.006570
 277  20   9.086982  -2.420495   1.792994  -0.001860   0.353299  -0.005266
 278  20  10.305516  -1.056790   0.766589  -0.002163   0.353299  -0.006121
 279  20  10.024432  -1.369372  -1.328236  -0.001950   0.333671  -0.005843
 280  20   8.731422  -2.777102  -1.678607  -0.001656   0.333671  -0.004964
 281  20   8.820181  -3.174890   1.121079  -0.003344   0.490692  -0.006814
 282  20   9.929876  -1.885650   1.298006  -0.003351   0.490692  -0.006829
 283  20  10.402867  -1.336455  -0.301615  -0.003630   0.510320  -0.007112
 284  20   9.644341  -2.339365  -1.351866  -0.003473   0.490692  -0.007077
 285  20   8.625439  -3.412581  -0.717524  -0.003908   0.529948  -0.007374
 286   1   1.065585  -0.920982  -3.615026  -0.000481   0.029030  -0.016584
 287   2   0.655900  -1.185729  -3.655396  -0.000360   0.029030  -0.012400
 288   9   0.596435  -1.478568  -3.707358  -0.000288   0.029030  -0.009922
 289   1   1.068355  -0.930002   3.610391  -0.000424   0.029018  -0.014621
 290   2   0.658703  -1.194849   3.650426  -0.000309   0.029018  -0.010646
 291  10   0.599167  -1.487786   3.701716  -0.000342   0.029018  -0.011801
 292   1   0.237908   0.431292   3.421507  -0.000941   0.102985  -0.009134
 293   2  -0.177334   0.168927   3.454371  -0.000699   0.102985  -0.006787
 294  11  -0.676779   0.720370   3.480877  -0.000488   0.102985  -0.004737
 295   1   0.235393   0.439632  -3.422197  -0.000907   0.102990  -0.008808
 296   2  -0.179873   0.177346  -3.455389  -0.000698   0.102990  -0.006779
 297  12  -0.679328   0.728899  -3.480189  -0.000499   0.102990  -0.004842
 298   2   0.313293  -0.452383  -3.605248  -0.001294   0.193217  -0.006698
 299   1   1.029671  -0.268718  -3.630681  -0.001735   0.193217  -0.008978
 300   2   0.442794  -0.657888   3.627427  -0.001214   0.193268  -0.006282
 301   1   0.905662  -0.081051   3.602570  -0.001623   0.193268  -0.008397
 302   1   0.723346   1.827201   3.155621   0.000286   0.110343   0.002589
 303   6   0.756500   2.211359   3.059153   0.001123   0.110343   0.010180
 304  11  -0.220272   2.003499   3.185013   0.000164   0.110343   0.001489
 305   1   0.718937   1.822091  -3.159618   0.000280   0.110319   0.002536
 306   6   0.752216   2.206463  -3.064051   0.001164   0.110319   0.010548
 307  12  -0.224426   2.000049  -3.187435   0.000195   0.110319   0.001769
 308   1   3.395166   1.778015  -3.196246   0.000125   0.105678   0.001180
 309   6   3.377498   2.163060  -3.100353   0.000922   0.105678   0.008723
 310  18   4.309146   1.922559  -3.234063  -0.000313   0.105678  -0.002962
 311   1   3.388548   1.784061   3.192793   0.000101   0.105689   0.000960
 312   6   3.371079   2.168913   3.096091   0.000970   0.105689   0.009178
 313  19   4.302540   1.928353   3.232362  -0.000232   0.105689  -0.002194
 314   6   2.259878   2.314024  -3.173683   0.002015   0.232312   0.008675
 315   1   1.888226   1.770938  -3.294078   0.000545   0.247885   0.002198
 316   6   1.887657   2.326385   3.163013   0.001905   0.230813   0.008255
 317   1   2.235005   1.771338   3.294201   0.000815   0.246285   0.003309
 318   1   3.887306  -0.772781  -3.316818  -0.000208   0.053483  -0.003885
 319   7   4.248934  -1.011568  -3.255734   0.000111   0.053483   0.002070
 320   8   4.645820  -0.755263  -3.312883  -0.000074   0.053483  -0.001392
 321   1   3.880612  -0.767725   3.318822  -0.000182   0.053483  -0.003396
 322   7   4.242363  -1.006604   3.258833   0.000111   0.053483   0.002073
 323   8   4.639132  -0.750212   3.316392  -0.000089   0.053483  -0.001673
 324   1   2.540419  -2.070044  -3.116382  -0.000520   0.082207  -0.006323
 325   7   2.914785  -2.260592  -2.990664   0.000113   0.082207   0.001369
 326   9   1.953581  -2.509427  -3.162375  -0.000755   0.082207  -0.009182
 327   1   2.534532  -2.066120   3.117165  -0.000606   0.082328  -0.007360
 328   7   2.909176  -2.256916   2.992619   0.000022   0.082328   0.000271
 329  10   1.948588  -2.506932   3.161767  -0.000757   0.082328  -0.009200
 330   7   3.645244  -1.778986  -3.154431   0.000810   0.186680   0.004342
 331   1   3.259783  -1.248003  -3.327611  -0.000509   0.199193  -0.002554
 332   7   3.783948  -1.550276   3.205126   0.000800   0.186699   0.004283
 333   1   3.117045  -1.452867   3.284374  -0.000579   0.199214  -0.002904
 334   1   4.124099   0.165107  -3.407965  -0.000612   0.058592  -0.010445
 335   8   4.878632   0.176435  -3.477723  -0.000452   0.058592  -0.007719
 336  18   4.995048   0.445967  -3.545927  -0.000452   0.058592  -0.007709
 337   1   4.117276   0.169167   3.409032  -0.000565   0.058586  -0.009653
 338   8   4.871666   0.180580   3.480300  -0.000423   0.058586  -0.007212
 339  19   4.988002   0.450163   3.548427  -0.000576   0.058586  -0.009828
 340   8   4.810419  -0.376549  -3.494605  -0.000369   0.175022  -0.002106
 341   1   3.725531  -0.262682  -3.513100  -0.000865   0.175022  -0.004942
 342   8   4.800278  -0.233849   3.515056  -0.000437   0.174731  -0.002501
 343   1   3.721555  -0.395864   3.496783  -0.000639   0.174731  -0.003655
 344   9   0.938379  -2.053376  -3.642039  -0.002713   0.312778  -0.008675
 345   1   1.918658  -1.517444  -3.464055  -0.003350   0.440404  -0.007606
 346  10   1.147352  -2.284330   3.556834  -0.002787   0.309662  -0.009001
 347   1   1.725573  -1.312911   3.536056  -0.003363   0.436041  -0.007712
 348  11  -0.833162   1.386968   3.595837  -0.000740   0.274115  -0.002698
 349   1   0.581842   1.233223   3.463678  -0.000615   0.387583  -0.001588
 350  12  -0.786518   1.594797  -3.554935  -0.000744   0.270631  -0.002749
 351   1   0.531667   1.045086  -3.503447  -0.000792   0.382667  -0.002071
 352  18   4.946512   1.084730  -3.616201  -0.002374   0.352927  -0.006726
 353   1   3.563822   1.022257  -3.482824  -0.001928   0.497330  -0.003877
 354  19   4.872926   1.367343   3.580614  -0.002315   0.353526  -0.006549
 355   1   3.617864   0.771983   3.515172  -0.002121   0.498173  -0.004259
 356   2  -1.335796  -1.224788  -3.637920  -0.000130   0.024344  -0.005340
 357   3  -1.725815  -0.921563  -3.593726  -0.000093   0.024344  -0.003815
 358   9  -1.255921  -1.512806  -3.688279  -0.000183   0.024344  -0.007514
 359   2  -1.333315  -1.233370   3.634271  -0.000146   0.024353  -0.006012
 360   3  -1.723365  -0.930042   3.591068  -0.000096   0.024353  -0.003937
 361  10  -1.253484  -1.521524   3.683882  -0.000153   0.024353  -0.006266
 362   2  -1.225809  -0.351084   3.604566  -0.000102   0.028825  -0.003523
 363   3  -1.617239  -0.049139   3.646457  -0.000080   0.028825  -0.002765
 364  11  -1.657710   0.246731   3.697493  -0.000084   0.028825  -0.002913
 365   2  -1.227603  -0.341629  -3.606092  -0.000096   0.028816  -0.003343
 366   3  -1.619052  -0.039575  -3.647004  -0.000077   0.028816  -0.002679
 367  12  -1.659629   0.256405  -3.697252  -0.000107   0.028816  -0.003711
 368   3  -1.733491  -0.371534  -3.671795  -0.000054   0.097647  -0.000550
 369   2  -1.241260  -0.898083  -3.670508  -0.000174   0.097647  -0.001782
 370   3  -1.802937  -0.473888   3.668307  -0.000057   0.097441  -0.000585
 371   2  -1.167487  -0.814021   3.669780  -0.000193   0.097441  -0.001979
 372   2  -2.799314  -4.421457  -1.080508  -0.000127   0.066945  -0.001890
 373   4  -3.639537  -4.439466  -1.100037   0.000032   0.066945   0.000485
 374  13  -3.757850  -4.414881  -1.380496  -0.000108   0.066945  -0.001616
 375   2  -2.798629  -4.424389   1.069088  -0.000101   0.066947  -0.001515
 376   4  -3.638841  -4.442447   1.089089   0.000041   0.066947   0.000619
 377  14  -3.756948  -4.418618   1.369695  -0.000123   0.066947  -0.001839
 378   4  -3.565333  -4.571913  -0.201354   0.000628   0.550872   0.001141
 379   2  -2.368864  -4.665598   0.189500  -0.000540   0.550872  -0.000980
 380   2   1.825979  -4.371893  -1.234769  -0.000136   0.058471  -0.002334
 381   7   2.607780  -4.174921  -1.177926   0.000318   0.058471   0.005447
[...]
 471  13  -4.073251  -1.554384  -3.751243  -0.000280   0.153273  -0.001826
 472   3  -3.148652  -0.926247  -3.652303   0.000154   0.216113   0.000711
 473  14  -3.968351  -1.680645   3.728026  -0.000335   0.153020  -0.002189
 474   3  -3.239221  -0.829706   3.668918   0.000175   0.215757   0.000810
 475   4  -6.070631  -0.723312  -3.644582   0.000008   0.027448   0.000302
 476   5  -6.449136  -0.403110  -3.601458   0.000043   0.027448   0.001556
 477  13  -6.028707  -1.019607  -3.696867  -0.000019   0.027448  -0.000709
 478   4  -7.832611  -2.820507  -1.980091   0.000028   0.027448   0.001020
 479   5  -8.188075  -2.472879  -1.958733   0.000081   0.027448   0.002947
 480  13  -7.632730  -2.928793  -2.181594  -0.000004   0.027448  -0.000147
 481   4  -7.831190  -2.825941   1.976391   0.000022   0.027450   0.000815
 482   5  -8.186670  -2.478257   1.956247   0.000050   0.027450   0.001807
 483  14  -7.631170  -2.934760   2.177463  -0.000003   0.027450  -0.000117
 484   4  -6.067828  -0.733119   3.645397   0.000026   0.027450   0.000955
 485   5  -6.446367  -0.412802   3.603428   0.000074   0.027450   0.002685
 486  14  -6.025890  -1.029553   3.696848  -0.000009   0.027450  -0.000333
 487   4  -5.975561   0.080773   3.603842   0.000024   0.026416   0.000924
 488   5  -6.353949   0.401001   3.647470   0.000006   0.026416   0.000215
 489  15  -6.404896   0.695299   3.700863  -0.000031   0.026416  -0.001181
 490   4  -5.978306   0.090511  -3.600901   0.000013   0.026416   0.000509
 491   5  -6.356726   0.410855  -3.643376  -0.000003   0.026416  -0.000110
 492  16  -6.407719   0.705296  -3.695935  -0.000039   0.026416  -0.001495
 493   4  -8.328624  -2.702408  -1.464370   0.000071   0.025095   0.002810
 494   5  -8.732901  -2.412960  -1.483699   0.000020   0.025095   0.000780
 495  17  -9.000030  -2.366707  -1.350109  -0.000014   0.025095  -0.000565
 496   4  -8.327431  -2.706269   1.461837   0.000041   0.025095   0.001618
 497   5  -8.731691  -2.416874   1.482260   0.000013   0.025095   0.000538
 498  17  -8.998929  -2.370268   1.349010  -0.000016   0.025095  -0.000625
 499   5  -6.452113   0.112381  -3.671535   0.000144   0.083607   0.001723
 500   4  -5.970946  -0.423766  -3.672467   0.000116   0.083607   0.001392
 501   5  -8.558023  -2.394008  -1.774343   0.000139   0.064143   0.002164
 502   4  -8.035629  -2.881278  -1.707266   0.000147   0.064143   0.002295
 503   5  -8.580165  -2.426602   1.704664   0.000122   0.064053   0.001902
 504   4  -8.010831  -2.858081   1.771703   0.000135   0.064053   0.002100
 505   5  -6.513980   0.025596   3.674843   0.000175   0.083597   0.002092
 506   4  -5.903446  -0.356793   3.674068   0.000138   0.083597   0.001653
 507   4  -4.951423   0.594296   3.466886  -0.000049   0.166991  -0.000295
 508  11  -4.371959   1.073843   3.500741  -0.000213   0.166991  -0.001273
 509  15  -5.437805   1.177421   3.503965  -0.000243   0.166991  -0.001455
 510  11  -3.701501   0.859738   3.733776  -0.000280   0.133968  -0.002087
 511   4  -4.442220   0.020149   3.673931   0.000241   0.188915   0.001277
 512   4  -4.954163   0.603545  -3.463394  -0.000047   0.166991  -0.000284
 513  12  -4.374692   1.083140  -3.496435  -0.000253   0.166991  -0.001518
 514  16  -5.440566   1.186778  -3.498518  -0.000198   0.166991  -0.001187
 515  12  -3.614540   0.767871  -3.747722  -0.000237   0.134023  -0.001765
 516   4  -4.526831   0.122409  -3.656794   0.000226   0.188993   0.001193
 517  13  -4.423792  -4.623587  -1.467923  -0.000063   0.069323  -0.000911
 518  13  -5.531190  -4.671394  -1.357023  -0.000141   0.153831  -0.000914
 519  13  -6.744824  -4.164571  -1.647203  -0.000236   0.153831  -0.001535
 520  13  -7.360301  -3.397277  -2.170042  -0.000085   0.069323  -0.001227
 521   4  -4.778280  -4.674703  -0.987699   0.000116   0.152059   0.000765
 522   4  -6.278505  -4.482284  -1.026810   0.000100   0.152059   0.000658
 523   4  -7.360248  -3.596452  -1.605048  -0.000105   0.152059  -0.000692
 524  13  -5.572820  -1.275482  -3.854388  -0.000114   0.070455  -0.001613
 525  13  -4.696414  -1.354670  -3.855998  -0.000129   0.070455  -0.001831
 526   4  -5.099026  -0.923779  -3.727358  -0.000288   0.154033  -0.001871
 527  14  -4.693334  -1.365184   3.854025  -0.000118   0.070463  -0.001675
 528  14  -5.569851  -1.285877   3.853324  -0.000107   0.070463  -0.001513
 529   4  -5.096057  -0.933909   3.726868  -0.000271   0.154047  -0.001760
 530  14  -7.358741  -3.403195   2.164451  -0.000079   0.069319  -0.001141
 531  14  -6.743633  -4.169028   1.639146  -0.000232   0.153820  -0.001507
 532  14  -5.530250  -4.675037   1.346764  -0.000140   0.153820  -0.000911
 533  14  -4.422822  -4.627544   1.456998  -0.000123   0.069319  -0.001780
 534   4  -7.359080  -3.600837   1.598938  -0.000145   0.152050  -0.000950
 535   4  -6.277768  -4.485051   1.017590   0.000141   0.152050   0.000930
 536   4  -4.777635  -4.677361   0.976901   0.000088   0.152050   0.000578
 537  15  -6.243664   1.008797   3.759241  -0.000228   0.136342  -0.001671
 538   4  -5.458417   0.199784   3.661043   0.000253   0.192162   0.001315
 539  16  -6.138937   1.103006  -3.736509  -0.000249   0.136312  -0.001826
 540   4  -5.559327   0.133017  -3.673768   0.000277   0.192120   0.001443
 541  17  -9.209654  -2.503612  -0.976146  -0.000247   0.196362  -0.001258
 542  17  -9.224227  -2.574514   0.432416  -0.001096   0.401335  -0.002730
 543   4  -8.263334  -3.144955  -0.500478   0.000661   0.538432   0.001228
 544   4  -8.248882  -3.084170   1.102337   0.000606   0.276534   0.002190
 545   5  -5.280493   3.771971   1.276858   0.000035   0.087432   0.000405
 546  11  -4.349893   3.589390   1.547608   0.000078   0.087432   0.000893
 547  15  -5.400233   3.776759   1.558971  -0.000068   0.087432  -0.000779
 548  11  -3.770665   3.765980   1.535442   0.000015   0.021948   0.000698
 549   5  -5.159529   3.942642   1.136598   0.000139   0.031139   0.004454
 550   5  -5.281335   3.775281  -1.264580   0.000058   0.087435   0.000661
 551  12  -4.350938   3.593383  -1.536572   0.000094   0.087435   0.001071
 552  16  -5.401307   3.780838  -1.546582  -0.000139   0.087435  -0.001590
 553  12  -3.776835   3.767717  -1.540621   0.000028   0.021812   0.001298
 554   5  -5.155611   3.947566  -1.109385   0.000151   0.030947   0.004886
 555  13  -7.457223  -2.804818  -2.615820  -0.000246   0.212230  -0.001157
 556  13  -6.675036  -1.811861  -3.469703  -0.001235   0.436245  -0.002831
 557   5  -7.995508  -1.690967  -2.780291   0.000812   0.579564   0.001402
 558   5  -6.992813  -0.553947  -3.622783   0.000672   0.298950   0.002246
 559  14  -6.293597  -1.433133   3.711516  -0.000243   0.212244  -0.001145
 560  14  -7.186621  -2.431449   2.981357  -0.001206   0.436277  -0.002763
 561   5  -7.402023  -0.996572   3.339659   0.000796   0.579600   0.001373
 562   5  -8.305106  -2.124455   2.380077   0.000661   0.298971   0.002211
 563  15  -6.056083   4.123488   1.508306  -0.000083   0.066802  -0.001238
 564  15  -7.098231   4.362831   1.379828  -0.000166   0.147194  -0.001126
 565  15  -8.355272   4.110367   1.618652  -0.000226   0.147194  -0.001537
 566  15  -9.166454   3.301871   2.242549  -0.000272   0.147194  -0.001850
 567  15  -9.218809   2.249272   3.010809  -0.000175   0.147194  -0.001188
 568  15  -8.492139   1.358678   3.627026  -0.000199   0.147194  -0.001352
 569  15  -7.266803   0.973695   3.853454  -0.000318   0.147194  -0.002157
 570   5  -6.371796   4.236785   1.024053   0.000111   0.147524   0.000752
 571   5  -7.834650   4.324564   1.024310   0.000083   0.147524   0.000561
 572   5  -9.057099   3.697470   1.534232  -0.000034   0.147524  -0.000229
 573   5  -9.567503   2.597447   2.357083   0.000031   0.147524   0.000210
 574   5  -9.168941   1.448900   3.175395   0.000099   0.147524   0.000670
 575   5  -8.015184   0.694955   3.673450  -0.000137   0.147524  -0.000929
 576   5  -6.841518   0.521548   3.748182  -0.000001   0.081614  -0.000011
 577  16  -6.852570   0.951592  -3.852900  -0.000082   0.066804  -0.001223
 578  16  -7.917767   1.098249  -3.791539  -0.000237   0.147198  -0.001611
 579  16  -8.944220   1.768032  -3.345681  -0.000180   0.147198  -0.001225
 580  16  -9.298338   2.788228  -2.614377  -0.000212   0.147198  -0.001442
 581  16  -8.843491   3.765212  -1.879789  -0.000257   0.147198  -0.001747
 582  16  -7.755174   4.322033  -1.425343  -0.000174   0.147198  -0.001184
 583  16  -6.453294   4.243850  -1.426380  -0.000276   0.147198  -0.001875
 584   5  -7.289871   0.576598  -3.729734  -0.000161   0.147528  -0.001090
 585   5  -8.666577   1.008505  -3.473068   0.000073   0.147528   0.000492
 586   5  -9.482582   2.007390  -2.777290   0.000078   0.147528   0.000526
 587   5  -9.423044   3.187850  -1.910855  -0.000027   0.147528  -0.000184
 588   5  -8.510937   4.094426  -1.208060   0.000022   0.147528   0.000148
 589   5  -7.098179   4.377332  -0.940067   0.000097   0.147528   0.000656
 590   5  -5.944480   4.124534  -1.075282   0.000099   0.081616   0.001210
 591  17  -9.436407  -2.108445   1.527613  -0.000106   0.069497  -0.001524
 592  17  -9.915115  -1.225742   2.027055  -0.000306   0.154604  -0.001979
 593  17 -10.558867  -0.038267   1.915231  -0.000169   0.154604  -0.001092
 594  17 -11.034193   0.839003   0.997907  -0.000298   0.154604  -0.001926
 595  17 -11.140973   1.036718  -0.338702  -0.000318   0.154604  -0.002060
 596  17 -10.834249   0.471636  -1.531859  -0.000229   0.154604  -0.001478
 597  17 -10.243158  -0.618331  -2.079218  -0.000237   0.154604  -0.001534
 598  17  -9.616562  -1.774286  -1.750330  -0.000355   0.154604  -0.002297
 599   5  -9.254375  -1.743446   1.967081  -0.000162   0.152045  -0.001066
 600   5  -9.957930  -0.445937   2.340521  -0.000039   0.152045  -0.000259
 601   5 -10.622406   0.780047   1.729444   0.000090   0.152045   0.000591
 602   5 -10.968043   1.418340   0.391127  -0.000080   0.152045  -0.000528
 603   5 -10.849321   1.200209  -1.110972  -0.000076   0.152045  -0.000497
 604   5 -10.316226   0.217490  -2.144438   0.000046   0.152045   0.000305
 605   5  -9.593200  -1.116070  -2.274160  -0.000079   0.152045  -0.000519
 606   5  -9.061173  -2.097708  -1.739906  -0.000024   0.084906  -0.000288
 607   6   5.009616   4.077660  -0.900305   0.001791   0.074933   0.023898
 608   8   5.851428   3.839928  -0.936623   0.000235   0.074933   0.003134
 609  18   5.877249   3.800023  -1.235368  -0.000071   0.074933  -0.000944
 610   6   5.007500   4.078580   0.898314   0.001564   0.074924   0.020871
 611   8   5.849228   3.840921   0.936967   0.000305   0.074924   0.004075
 612  19   5.874531   3.801318   1.235793  -0.000070   0.074924  -0.000938
 613   8   5.855344   3.996491  -0.154907   0.002336   0.482600   0.004841
 614   6   4.675726   4.426920   0.158490   0.007568   0.435672   0.017371
 615  11  -0.733255   2.453984   3.358869  -0.000142   0.250164  -0.000566
 616  11  -1.161694   3.444980   2.655990   0.000187   0.503627   0.000372
 617  11  -1.640950   3.992094   1.592668   0.000767   0.250164   0.003066
 618   6   0.485986   3.209331   2.825070   0.007157   0.616839   0.011602
 619   6  -0.134575   4.260883   1.617579   0.009741   0.616839   0.015792
 620  12  -1.643429   3.996125  -1.585318   0.000726   0.251079   0.002891
 621  12  -1.165064   3.447901  -2.654569   0.000131   0.505515   0.000260
 622  12  -0.737423   2.452181  -3.360505  -0.000123   0.251079  -0.000488
 623   6  -0.137295   4.263492  -1.615546   0.009034   0.619015   0.014595
 624   6   0.482072   3.208015  -2.829106   0.007052   0.619015   0.011392
 625  18   4.820651   2.345236  -3.398161  -0.000795   0.239105  -0.003324
 626  18   5.293176   3.315074  -2.724726  -0.001337   0.481597  -0.002777
 627  18   5.805642   3.860915  -1.696710  -0.000021   0.239105  -0.000086
 628   6   3.686175   3.138104  -2.873816   0.006138   0.587362   0.010450
 629   6   4.359024   4.173467  -1.711552   0.008259   0.587362   0.014061
 630  19   5.802035   3.862803   1.696659  -0.000072   0.238942  -0.000300
 631  19   5.287573   3.318820   2.723425  -0.001324   0.481258  -0.002751
 632  19   4.813741   2.350970   3.396914  -0.000683   0.238942  -0.002857
 633   6   4.355301   4.175649   1.707317   0.008199   0.586979   0.013969
 634   6   3.680188   3.142901   2.868778   0.005849   0.586979   0.009965
 635   7   6.445448  -3.644365   0.712468   0.000092   0.013111   0.007014
 636   8   6.899399  -3.508695   0.744129  -0.000049   0.013111  -0.003730
 637  20   7.188759  -3.489250   0.676499  -0.000092   0.013111  -0.007021
 638   7   6.446755  -3.645255  -0.701932   0.000056   0.013111   0.004262
 639   8   6.900763  -3.509624  -0.732926  -0.000089   0.013111  -0.006769
 640  20   7.189998  -3.490094  -0.664785  -0.000160   0.013111  -0.012185
 641   8   6.675883  -3.417629  -1.202184  -0.000102   0.184105  -0.000553
 642   8   6.074132  -2.474653  -2.555895   0.000292   0.361639   0.000808
 643   8   5.229287  -1.151643  -3.343119  -0.000037   0.184105  -0.000201
 644   7   5.838676  -3.354506  -1.674877   0.002210   0.348844   0.006336
 645   7   4.971687  -1.996431  -2.958005   0.002182   0.348844   0.006256
 646   8   5.222592  -1.146632   3.348372  -0.000045   0.184148  -0.000242
 647   8   6.069161  -2.471054   2.564530   0.000333   0.361724   0.000919
 648   8   6.673621  -3.416061   1.212948  -0.000005   0.184148  -0.000025
 649   7   4.965827  -1.992097   2.963918   0.002390   0.348934   0.006850
 650   7   5.835472  -3.352235   1.684094   0.002295   0.348934   0.006577
 651   9   1.765742  -3.081339  -3.232016  -0.001245   0.255073  -0.004882
 652   9   1.747187  -4.051902  -2.352353  -0.002349   0.513666  -0.004572
 653   7   3.163107  -3.181343  -2.605317   0.003900   0.628902   0.006201
 654   7   3.086909  -4.158030  -1.565399   0.002274   0.317008   0.007173
 655  10   1.700780  -4.374274   1.948840  -0.000814   0.256576  -0.003172
 656  10   1.772689  -3.480789   2.914784  -0.002654   0.516762  -0.005136
 657   7   3.129670  -3.815074   1.977468   0.004781   0.632507   0.007559
 658   7   3.151555  -2.757175   2.949910   0.001687   0.318850   0.005291
 659  20   7.347006  -3.560302   0.146964  -0.001707   0.309806  -0.005511
 660   7   6.279394  -3.825015  -0.124351   0.001550   0.377559   0.004105
 661  18   6.555031   3.790729  -1.403021  -0.000338   0.066148  -0.005105
 662  18   7.576632   3.494387  -1.576648  -0.001022   0.146079  -0.006999
 663  18   8.441408   2.682079  -2.119826  -0.001123   0.146079  -0.007685
 664  18   8.558330   1.618302  -2.866439  -0.000959   0.146079  -0.006568
 665  18   7.881810   0.717832  -3.525376  -0.000848   0.146079  -0.005808
 666  18   6.675629   0.331772  -3.839713  -0.000870   0.146079  -0.005957
 667  18   5.607700   0.465501  -3.782447  -0.000469   0.066148  -0.007095
 668   8   7.005461   3.714442  -1.036238  -0.000705   0.145709  -0.004836
 669   8   8.271135   3.089701  -1.433128  -0.000990   0.145709  -0.006797
 670   8   8.851686   1.980231  -2.195878  -0.000980   0.145709  -0.006724
 671   8   8.520754   0.818625  -3.027085  -0.000719   0.145709  -0.004935
 672   8   7.407372   0.057803  -3.602656  -0.000663   0.145709  -0.004550
 673   8   5.945657  -0.005583  -3.698168  -0.000908   0.145709  -0.006234
 674  19   5.600209   0.469907   3.786169  -0.000517   0.066155  -0.007815
 675  19   6.668115   0.336055   3.845700  -0.000835   0.146099  -0.005716
 676  19   7.875072   0.721670   3.533240  -0.000811   0.146099  -0.005551
 677  19   8.552957   1.621461   2.874515  -0.000995   0.146099  -0.006809
 678  19   8.437397   2.684514   2.126425  -0.001059   0.146099  -0.007251
 679  19   7.573461   3.496240   1.580725  -0.000981   0.146099  -0.006712
 680  19   6.552024   3.792296   1.404938  -0.000330   0.066155  -0.004994
 681   8   5.938297  -0.001331   3.703090  -0.000887   0.145722  -0.006086
 682   8   7.400354   0.061747   3.610364  -0.000649   0.145722  -0.004455
 683   8   8.515015   0.821913   3.036022  -0.000710   0.145722  -0.004871
 684   8   8.847565   1.982704   2.204058  -0.001001   0.145722  -0.006872
 685   8   8.268309   3.091414   1.438934  -0.001035   0.145722  -0.007104
 686   8   7.003156   3.715648   1.039048  -0.000734   0.145722  -0.005037
 687  20   7.624903  -3.407757  -0.913628  -0.000464   0.068534  -0.006769
 688  20   8.133781  -2.819000  -1.720519  -0.001064   0.152889  -0.006961
 689  20   8.989666  -1.827041  -2.063930  -0.000931   0.152889  -0.006086
 690  20   9.801071  -0.885167  -1.526388  -0.001138   0.152889  -0.007442
 691  20  10.222739  -0.394149  -0.336619  -0.001246   0.152889  -0.008148
 692  20  10.075251  -0.562916   0.999127  -0.001215   0.152889  -0.007946
 693  20   9.421363  -1.319656   1.912488  -0.000968   0.152889  -0.006330
 694  20   8.539306  -2.342376   2.014825  -0.000964   0.152889  -0.006304
 695  20   7.804397  -3.195905   1.262594  -0.001110   0.152889  -0.007258
 696   8   7.425668  -3.137932  -1.405356  -0.001011   0.149455  -0.006764
 697   8   8.252721  -2.180261  -2.249985  -0.000868   0.149455  -0.005805
 698   8   9.243287  -1.031338  -2.134648  -0.000833   0.149455  -0.005573
 699   8   9.975878  -0.180032  -1.108423  -0.001102   0.149455  -0.007374
 700   8  10.138773   0.011424   0.392029  -0.001199   0.149455  -0.008020
 701   8   9.662661  -0.538436   1.728263  -0.000885   0.149455  -0.005921
 702   8   8.750129  -1.595645   2.331706  -0.000809   0.149455  -0.005412
 703   8   7.789462  -2.710356   1.945593  -0.000899   0.149455  -0.006016
 704   8   7.222175  -3.369716   1.065742  -0.000404   0.083729  -0.004826
 705  13  -3.533626  -2.405827  -3.754559  -0.000047   0.248054  -0.000188
 706  13  -3.614257  -3.442737  -3.421391  -0.000749   0.495889  -0.001511
 707  13  -3.682944  -4.318600  -2.417829  -0.000414   0.495889  -0.000835
 708   9  -1.987946  -2.931859  -3.652757  -0.001569   0.495889  -0.003165
 709   9  -2.078014  -4.087155  -2.992326  -0.001604   0.495889  -0.003235
 710   9  -2.120050  -4.619662  -2.039775  -0.000271   0.248054  -0.001093
 711  14  -3.695669  -4.502764   2.030519   0.000090   0.248062   0.000361
 712  14  -3.653130  -3.972588   2.984471  -0.000703   0.495905  -0.001419
 713  14  -3.562773  -2.818805   3.647756  -0.000631   0.495905  -0.001273
 714  10  -2.104382  -4.446924   2.405309  -0.001419   0.495905  -0.002861
 715  10  -2.035188  -3.573473   3.411102  -0.001785   0.495905  -0.003600
 716  10  -1.954447  -2.537272   3.746793  -0.000522   0.248062  -0.002103
 717  15  -5.613368   1.736004   3.778612  -0.000040   0.251415  -0.000161
 718  15  -5.509641   2.817960   3.445461  -0.000732   0.502735  -0.001457
 719  15  -5.426107   3.721665   2.398209  -0.000293   0.502735  -0.000582
 720  11  -4.054631   2.010531   3.673940  -0.000593   0.502735  -0.001180
 721  11  -3.940598   3.213004   2.994637  -0.000604   0.502735  -0.001201
 722  11  -3.891990   3.755022   1.996523   0.000130   0.251415   0.000517
 723  16  -5.411573   3.907740  -1.989912   0.000213   0.251420   0.000847
 724  16  -5.461013   3.368418  -2.989442  -0.000657   0.502746  -0.001308
 725  16  -5.575653   2.167787  -3.671886  -0.000583   0.502746  -0.001160
 726  12  -3.909662   3.580499  -2.381441  -0.000303   0.502746  -0.000603
 727  12  -3.994086   2.679625  -3.431054  -0.000698   0.502746  -0.001389
 728  12  -4.098133   1.598577  -3.767030  -0.000041   0.251420  -0.000163
 =====================================================


   1 warning(s) detected.
     A line exceeding 80 characters begins with "http://cactus.nci.ni".
 There may be a problem in your input file.

              4436093  WORDS OF DYNAMIC MEMORY USED
 EXECUTION OF GAMESS TERMINATED NORMALLY Thu Nov 24 21:57:52 2016
 DDI: 263640 bytes (0.3 MB / 0 MWords) used by master data server.

 ----------------------------------------
 CPU timing information for all processes
 ========================================
 0: 943.568 + 0.352 = 943.920
 ----------------------------------------
 ddikick.x: exited gracefully.
