----- GAMESS execution script -----

          ******************************************************
          *         GAMESS VERSION =  5 DEC 2014 (R1)          *
          *             FROM IOWA STATE UNIVERSITY             *
          * M.W.SCHMIDT, K.K.BALDRIDGE, J.A.BOATZ, S.T.ELBERT, *
          *   M.S.GORDON, J.H.JENSEN, S.KOSEKI, N.MATSUNAGA,   *
          *          K.A.NGUYEN, S.J.SU, T.L.WINDUS,           *
          *       TOGETHER WITH M.DUPUIS, J.A.MONTGOMERY       *
          *         J.COMPUT.CHEM.  14, 1347-1363(1993)        *
          **************** 64 BIT LINUX VERSION ****************

 EXECUTION OF GAMESS BEGUN Thu Nov 24 19:34:38 2016

            ECHO OF THE FIRST FEW INPUT CARDS -
 INPUT CARD>! SELECT RESTRICTED HARTREE-FOCK AS DEFAULT                                     
 INPUT CARD>$contrl scftyp=rhf $end                                                         
 INPUT CARD>                                                                                
 INPUT CARD>! THEORY: HF OR DFT                                                             
 INPUT CARD> $contrl mplevl=0 $end                                                          
 INPUT CARD>                                                                                
 INPUT CARD> $system timlim=10000 mwords=20 $end                                            
 INPUT CARD> $SCF DIRSCF=.TRUE. $end                                                        
 INPUT CARD>                                                                                
 INPUT CARD>                                                                                
 INPUT CARD>! BASIS SETS                                                                    
 INPUT CARD>! 6-311G(d,p)                                                                   
 INPUT CARD> $BASIS GBASIS=N311 NGAUSS=6 NDFUNC=1 NPFUNC=1 $END                             
 INPUT CARD>                                                                                
 INPUT CARD>! One of the following                                                          
 INPUT CARD> $guess guess=HUCKEL $end                                                       
 INPUT CARD>                                                                                
 INPUT CARD> $statpt projct=.FALSE. $end                                                    
 INPUT CARD> $STATPT IFREEZ(1)=1,2,3 $END                                                   
 INPUT CARD>                                                                                
 INPUT CARD>! Optimize the geometry with COSMO effects                                      
 INPUT CARD> $statpt opttol=0.0005 nstep=50 $end                                            
 INPUT CARD> $contrl nzvar=1 $end                                                           
 INPUT CARD> $zmat dlc=.t. auto=.t. $end                                                    
 INPUT CARD> $contrl runtyp=OPTIMIZE maxit=200 $end                                         
 INPUT CARD>                                                                                
 INPUT CARD>! Run COSMO on perfect conductor                                                
 INPUT CARD> $COSGMS PRFCND=.TRUE. $end                                                     
 INPUT CARD>                                                                                
 INPUT CARD>! Specifying RSOLV                                                              
 INPUT CARD> $COSGMS COSRAD = 1.4 $end                                                      
 INPUT CARD>                                                                                
 INPUT CARD>! available memory                                                              
 INPUT CARD> $SYSTEM MWORDS=40 $END                                                         
 INPUT CARD>                                                                                
 INPUT CARD> $DATA                                                                          
 INPUT CARD>http://cactus.nci.nih.gov/chemical/structure/METHYL%20ISOBUTYL%20ETHER/file?form
 INPUT CARD>C1                                                                              
 INPUT CARD>C      6.0      0.2845000000   -0.5416000000   -0.1897000000                    
 INPUT CARD>C      6.0     -1.0408000000   -0.0094000000    0.3591000000                    
 INPUT CARD>C      6.0     -1.2936000000    1.3954000000   -0.1919000000                    
 INPUT CARD>C      6.0     -2.1794000000   -0.9376000000   -0.0687000000                    
 INPUT CARD>O      8.0      1.3605000000    0.2579000000    0.3054000000                    
 INPUT CARD>C      6.0      2.6500000000   -0.1567000000   -0.1498000000                    
 INPUT CARD>H      1.0      0.4220000000   -1.5743000000    0.1308000000                    
 INPUT CARD>H      1.0      0.2706000000   -0.4979000000   -1.2787000000                    
 INPUT CARD>H      1.0     -0.9937000000    0.0302000000    1.4474000000                    
 INPUT CARD>H      1.0     -0.4825000000    2.0566000000    0.1129000000                    
 INPUT CARD>H      1.0     -1.3407000000    1.3557000000   -1.2802000000                    
 INPUT CARD>H      1.0     -2.2378000000    1.7745000000    0.1991000000                    
   40000000 WORDS OF MEMORY AVAILABLE

     BASIS OPTIONS
     -------------
     GBASIS=N311         IGAUSS=       6      POLAR=POPN311 
     NDFUNC=       1     NFFUNC=       0     DIFFSP=       F
     NPFUNC=       1      DIFFS=       F     BASNAM=        


     RUN TITLE
     ---------
 http://cactus.nci.nih.gov/chemical/structure/METHYL%20ISOBUTYL%20ETHER/file?form

 THE POINT GROUP OF THE MOLECULE IS C1      
 THE ORDER OF THE PRINCIPAL AXIS IS     0

 ATOM      ATOMIC                      COORDINATES (BOHR)
           CHARGE         X                   Y                   Z
 C           6.0     0.5376270435       -1.0234755950       -0.3584810199
 C           6.0    -1.9668268080       -0.0177634243        0.6786006022
 C           6.0    -2.4445495377        2.6369236433       -0.3626384170
 C           6.0    -4.1184688176       -1.7718070861       -0.1298241754
 O           8.0     2.5709722063        0.4873603322        0.5771223167
 C           6.0     5.0077738675       -0.2961200623       -0.2830809530
 H           1.0     0.7974643668       -2.9749956225        0.2471761592
 H           1.0     0.5113598523       -0.9408945693       -2.4163926205
 H           1.0    -1.8778207140        0.0570697248        2.7351893946
 H           1.0    -0.9117927891        3.8864104663        0.2133500640
 H           1.0    -2.5335556317        2.5619015216       -2.4192272095
 H           1.0    -4.2288288153        3.3533187652        0.3762444442
 H           1.0    -3.7781291673       -3.6630448546        0.6120822474
 H           1.0    -5.9027480952       -1.0552229915        0.6090586858
 H           1.0    -4.2074749117       -1.8466402352       -2.1862239952
 H           1.0     5.3602077642       -2.2327112545        0.3240880069
 H           1.0     5.0741032496       -0.1986102013       -2.3394807728
 H           1.0     6.4477450701        0.9448629939        0.5100370441

          INTERNUCLEAR DISTANCES (ANGS.)




     $CONTRL OPTIONS
     ---------------
 SCFTYP=RHF          RUNTYP=OPTIMIZE     EXETYP=RUN     
 MPLEVL=       0     CITYP =NONE         CCTYP =NONE         VBTYP =NONE    
 DFTTYP=NONE         TDDFT =NONE    
 MULT  =       1     ICHARG=       0     NZVAR =       1     COORD =UNIQUE  
 PP    =NONE         RELWFN=NONE         LOCAL =NONE         NUMGRD=       F
 ISPHER=      -1     NOSYM =       0     MAXIT =     200     UNITS =ANGS    
 PLTORB=       F     MOLPLT=       F     AIMPAC=       F     FRIEND=        
 NPRINT=       7     IREST =       0     GEOM  =INPUT   
 NORMF =       0     NORMP =       0     ITOL  =      20     ICUT  =       9
 INTTYP=BEST         GRDTYP=BEST         QMTTOL= 1.0E-06

     $SYSTEM OPTIONS
     ---------------
  REPLICATED MEMORY=    40000000 WORDS (ON EVERY NODE).
 DISTRIBUTED MEMDDI=           0 MILLION WORDS IN AGGREGATE,
 MEMDDI DISTRIBUTED OVER   1 PROCESSORS IS           0 WORDS/PROCESSOR.
 TOTAL MEMORY REQUESTED ON EACH PROCESSOR=    40000000 WORDS.
 TIMLIM=       10000.00 MINUTES, OR       6.9 DAYS.
 PARALL= F  BALTYP=  DLB     KDIAG=    0  COREFL= F
 MXSEQ2=     300 MXSEQ3=     150  mem10=         0

     $COSGMS OPTIONS
     ---------------
     EPSI  =   INFTY     NSPA  =      92     COSRAD=    1.40
     DISEX =   10.00     OUTCHG=DBLCAV       COSBUG=       F
     COSWRT=       F     DCOSMO=       F

     SYMMETRY COORDINATES WILL NOT BE USED FOR 
     THE COSMO CALCULATION, EVEN IF SPECIFIED:
         -- SWITCHING TO C1 POINT GROUP --


     DEFINITION OF CAVITY
     ---------------------------
     ATOM         COORDINATES           RADIUS 
     1    0.5376   -1.0235   -0.3585    2.0000
     2   -1.9668   -0.0178    0.6786    2.0000
     3   -2.4445    2.6369   -0.3626    2.0000
     4   -4.1185   -1.7718   -0.1298    2.0000
     5    2.5710    0.4874    0.5771    1.7200
     6    5.0078   -0.2961   -0.2831    2.0000
     7    0.7975   -2.9750    0.2472    1.3000
     8    0.5114   -0.9409   -2.4164    1.3000
     9   -1.8778    0.0571    2.7352    1.3000
    10   -0.9118    3.8864    0.2134    1.3000
    11   -2.5336    2.5619   -2.4192    1.3000
    12   -4.2288    3.3533    0.3762    1.3000
    13   -3.7781   -3.6630    0.6121    1.3000
    14   -5.9027   -1.0552    0.6091    1.3000
    15   -4.2075   -1.8466   -2.1862    1.3000
    16    5.3602   -2.2327    0.3241    1.3000
    17    5.0741   -0.1986   -2.3395    1.3000
    18    6.4477    0.9449    0.5100    1.3000

          ----------------
          PROPERTIES INPUT
          ----------------

     MOMENTS            FIELD           POTENTIAL          DENSITY
 IEMOM =       1   IEFLD =       0   IEPOT =       0   IEDEN =       0
 WHERE =COMASS     WHERE =NUCLEI     WHERE =NUCLEI     WHERE =NUCLEI  
 OUTPUT=BOTH       OUTPUT=BOTH       OUTPUT=BOTH       OUTPUT=BOTH    
 IEMINT=       0   IEFINT=       0                     IEDINT=       0
                                                       MORB  =       0
          EXTRAPOLATION IN EFFECT
          SOSCF IN EFFECT
 ORBITAL PRINTING OPTION: NPREO=     1   186     2     1

     -------------------------------
     INTEGRAL TRANSFORMATION OPTIONS
     -------------------------------
     NWORD  =            0
     CUTOFF = 1.0E-09     MPTRAN =       0
     DIRTRF =       T     AOINTS =DUP     

          ----------------------
          INTEGRAL INPUT OPTIONS
          ----------------------
 NOPK  =       1 NORDER=       0 SCHWRZ=       T


 -----------------------------------------------
  STATISTICS ON AUTOMATIC COORDINATE GENERATION 
 -----------------------------------------------
  NUMBER OF USER SPECIFIED BONDS                             0
  NUMBER OF BONDS                                           17
  NUMBER OF ANGLES                                          31
  NUMBER OF TORSIONS                                        33
  NUMBER OF EXTRA COORD.                                     0
  NUMBER OF EXTRA COORD. FOR CONSTRAINTS                     0
  NUMBER OF CONSTRAINED COORD.                               0

  TOTAL NUMBER OF PRIMITIVES                                81
 -----------------------------------------------

   --- ENCODED Z MATRIX ---
 COORD  TYPE   I   J   K   L   M   N
    1      1    1   8
    2      1    1   7
    3      1    1   2
    4      1    1   5
    5      1    2   4
    6      1    2   9
    7      1    2   3
    8      1    3  11
    9      1    3  10
   10      1    3  12
   11      1    4  15
   12      1    4  14
   13      1    4  13
   14      1    5   6
   15      1    6  16
   16      1    6  18
   17      1    6  17
   18      2    1   2   4
   19      2    1   2   9
   20      2    1   2   3
   21      2    1   5   6
   22      2    2   1   5
   23      2    2   3  12
   24      2    2   4  13
   25      2    2   1   8
   26      2    2   4  14
   27      2    2   4  15
   28      2    2   3  10
   29      2    2   1   7
   30      2    2   3  11
   31      2    3   2   4
   32      2    3   2   9
   33      2    4   2   9
   34      2    5   1   8
   35      2    5   6  18
   36      2    5   6  16
   37      2    5   6  17
   38      2    5   1   7
   39      2    7   1   8
   40      2   10   3  12
   41      2   10   3  11
   42      2   11   3  12
   43      2   13   4  14
   44      2   13   4  15
   45      2   14   4  15
   46      2   16   6  17
   47      2   16   6  18
   48      2   17   6  18
   49      3    1   2   3  12
   50      3    1   2   3  10
   51      3    1   2   3  11
   52      3    1   2   4  13
   53      3    1   5   6  17
   54      3    1   2   4  14
   55      3    1   5   6  18
   56      3    1   5   6  16
   57      3    1   2   4  15
   58      3    2   1   5   6
   59      3    3   2   4  13
   60      3    3   2   1   5
   61      3    3   2   1   7
   62      3    3   2   1   8
   63      3    3   2   4  15
   64      3    3   2   4  14
   65      3    4   2   3  12
   66      3    4   2   3  11
   67      3    4   2   1   5
   68      3    4   2   3  10
   69      3    4   2   1   7
   70      3    4   2   1   8
   71      3    5   1   2   9
   72      3    6   5   1   7
   73      3    6   5   1   8
   74      3    7   1   2   9
   75      3    8   1   2   9
   76      3    9   2   4  13
   77      3    9   2   3  12
   78      3    9   2   3  11
   79      3    9   2   3  10
   80      3    9   2   4  15
   81      3    9   2   4  14

          INDEP./SYM. INTERNAL COORDINATES
          --------------------------------
 CRD  1=   0.2765 ( 18) -0.2448 ( 20)  0.5383 ( 21) -0.5346 ( 22)  0.1627 ( 29)
           0.1668 ( 34) -0.1123 ( 35)  0.1862 ( 38)  0.1195 ( 49)  0.1276 ( 50)
 CRD  2=  -0.2964 (  3) -0.1911 (  4) -0.2318 ( 14)  0.1572 ( 19) -0.3317 ( 20)
          -0.4349 ( 21) -0.1039 ( 22)  0.1071 ( 23) -0.1139 ( 28)  0.1411 ( 29)
           0.2904 ( 31) -0.1799 ( 37)  0.1220 ( 52)  0.1314 ( 54)  0.1519 ( 57)
           0.2618 ( 58) -0.1312 ( 59) -0.1844 ( 60) -0.1014 ( 63) -0.1219 ( 64)
           0.1150 ( 72)
 CRD  3=  -0.2389 (  3) -0.1838 (  4) -0.1445 (  5)  0.1056 (  7) -0.2386 ( 14)
          -0.2405 ( 18)  0.1641 ( 20) -0.3762 ( 22) -0.1540 ( 24)  0.2321 ( 25)
           0.1076 ( 30)  0.1699 ( 31) -0.1018 ( 32)  0.1525 ( 34) -0.1016 ( 35)
          -0.1786 ( 36)  0.1191 ( 38) -0.1288 ( 52) -0.1489 ( 54) -0.3447 ( 58)
           0.1940 ( 67) -0.1004 ( 72) -0.1974 ( 73)
 CRD  4=  -0.1311 (  4) -0.1599 (  5) -0.1948 (  7) -0.2182 ( 14)  0.2990 ( 18)
          -0.1722 ( 19) -0.4094 ( 21) -0.1661 ( 22) -0.1405 ( 23)  0.1208 ( 24)
           0.1222 ( 25) -0.1971 ( 26)  0.1048 ( 28) -0.1157 ( 30) -0.3902 ( 31)
           0.1510 ( 32) -0.1345 ( 36) -0.1014 ( 37)  0.1260 ( 51)  0.1701 ( 60)
           0.1697 ( 62) -0.1154 ( 65) -0.1592 ( 69)
 CRD  5=  -0.1062 (  3) -0.2174 (  5) -0.1263 (  7) -0.1814 ( 18)  0.2007 ( 20)
           0.1502 ( 21) -0.2852 ( 27) -0.1318 ( 31) -0.1070 ( 32)  0.2054 ( 33)
          -0.1039 ( 35)  0.1223 ( 36)  0.2168 ( 38) -0.1069 ( 50) -0.1678 ( 53)
          -0.2566 ( 55) -0.2106 ( 56)  0.1437 ( 58) -0.2172 ( 60)  0.1164 ( 64)
           0.1003 ( 65)  0.1046 ( 66) -0.3668 ( 67) -0.1528 ( 69) -0.1865 ( 70)
          -0.2177 ( 71)
 CRD  6=   0.1139 (  3)  0.3153 (  5) -0.1004 (  7)  0.1605 ( 18) -0.1356 ( 20)
          -0.1493 ( 21)  0.1278 ( 24)  0.1597 ( 25)  0.1067 ( 27) -0.1722 ( 28)
          -0.2078 ( 34)  0.1103 ( 35) -0.2136 ( 36)  0.1234 ( 37)  0.1235 ( 49)
          -0.3102 ( 53) -0.2077 ( 55) -0.2657 ( 56) -0.2650 ( 58) -0.2342 ( 60)
          -0.1544 ( 61) -0.1167 ( 62) -0.1413 ( 67) -0.1090 ( 71) -0.2327 ( 72)
          -0.1574 ( 73)
 CRD  7=   0.1176 (  2)  0.2494 (  3)  0.2404 (  5)  0.4718 (  7) -0.1179 ( 14)
           0.1549 ( 20) -0.1369 ( 21) -0.1629 ( 22)  0.1115 ( 24)  0.1140 ( 25)
           0.1144 ( 27)  0.1226 ( 28)  0.1830 ( 29)  0.3025 ( 30)  0.1636 ( 36)
          -0.2578 ( 37) -0.1696 ( 41) -0.1281 ( 42)  0.1834 ( 58)  0.1117 ( 59)
           0.2002 ( 73)
 CRD  8=  -0.2473 (  5) -0.2693 (  7) -0.2738 ( 23) -0.2989 ( 24) -0.2496 ( 26)
           0.3278 ( 27) -0.3216 ( 28)  0.3551 ( 30)  0.2148 ( 40)  0.1997 ( 43)
           0.1666 ( 59)  0.1153 ( 63) -0.1058 ( 66) -0.1615 ( 68)
 CRD  9=   0.3949 (  3) -0.2024 (  4) -0.3299 (  5)  0.1226 (  7)  0.1144 ( 10)
           0.4291 ( 23) -0.1119 ( 24)  0.1241 ( 25) -0.1096 ( 27) -0.2145 ( 28)
           0.1644 ( 29) -0.1013 ( 30) -0.1006 ( 33) -0.1237 ( 34) -0.2527 ( 35)
           0.1503 ( 37)  0.1123 ( 41) -0.1408 ( 42)  0.1219 ( 44) -0.1031 ( 66)
          -0.1839 ( 72)
 CRD 10=   0.2569 (  3) -0.1476 (  4)  0.1719 (  5) -0.2375 (  7)  0.1073 ( 12)
          -0.2454 ( 23)  0.1137 ( 25)  0.4180 ( 26) -0.1888 ( 27)  0.1320 ( 29)
          -0.1152 ( 32) -0.1889 ( 35) -0.1645 ( 36)  0.2832 ( 37)  0.1146 ( 40)
          -0.1361 ( 43) -0.1117 ( 45)  0.1138 ( 47)  0.1893 ( 53)  0.2289 ( 55)
           0.1519 ( 56)  0.1049 ( 63)  0.1014 ( 64)  0.1485 ( 73)
 CRD 11=  -0.1424 (  3) -0.2982 (  4)  0.1369 (  5) -0.1430 ( 16)  0.1412 ( 22)
          -0.1984 ( 23)  0.1364 ( 24) -0.2682 ( 26)  0.2616 ( 27)  0.2911 ( 28)
          -0.4887 ( 35)  0.1569 ( 36)  0.2803 ( 37)  0.1150 ( 42) -0.1561 ( 44)
          -0.1205 ( 46)  0.1011 ( 47)
 CRD 12=   0.1009 (  3)  0.1064 (  5) -0.1804 (  7) -0.1213 ( 13) -0.4363 ( 24)
           0.3207 ( 26)  0.2166 ( 27)  0.1912 ( 28) -0.3410 ( 30)  0.3139 ( 36)
          -0.2874 ( 37)  0.1497 ( 42) -0.2148 ( 45) -0.1170 ( 53) -0.2086 ( 55)
          -0.1266 ( 56)
 CRD 13=   0.1773 (  2)  0.1715 (  3)  0.1114 (  4) -0.1293 (  8) -0.1387 ( 15)
          -0.1058 ( 18) -0.1163 ( 22) -0.1500 ( 24) -0.1768 ( 26)  0.2794 ( 27)
           0.2739 ( 28) -0.3044 ( 30)  0.2400 ( 35) -0.4061 ( 36)  0.1584 ( 37)
           0.1282 ( 38) -0.1508 ( 40)  0.1041 ( 42)  0.1368 ( 43) -0.1367 ( 48)
          -0.1176 ( 49) -0.1021 ( 50)  0.1194 ( 58) -0.1250 ( 60) -0.1141 ( 67)
          -0.1199 ( 71)
 CRD 14=  -0.1124 (  3)  0.1935 (  5) -0.1329 (  7)  0.1222 ( 10)  0.1093 ( 11)
          -0.1439 ( 19)  0.1522 ( 20)  0.3603 ( 23)  0.1730 ( 25) -0.1075 ( 26)
           0.2175 ( 27) -0.3244 ( 28) -0.2161 ( 29) -0.1736 ( 30)  0.1788 ( 33)
          -0.1096 ( 35)  0.2160 ( 41) -0.1540 ( 44)  0.1014 ( 49)  0.1027 ( 50)
          -0.1088 ( 52)  0.1649 ( 53)  0.1188 ( 55)  0.1428 ( 56) -0.1087 ( 57)
           0.1144 ( 65)  0.1156 ( 68)  0.2342 ( 72)  0.1888 ( 73)
 CRD 15=  -0.2280 (  1) -0.2025 (  3)  0.2244 (  7)  0.1035 (  8) -0.1064 ( 13)
           0.1512 ( 18) -0.1689 ( 19) -0.3483 ( 24)  0.1999 ( 26) -0.1413 ( 29)
           0.1962 ( 30) -0.1254 ( 31)  0.2115 ( 32) -0.1377 ( 34) -0.1420 ( 36)
           0.2460 ( 37)  0.1104 ( 38) -0.1353 ( 41) -0.1109 ( 42)  0.1343 ( 44)
          -0.1116 ( 45) -0.1256 ( 52) -0.1320 ( 54) -0.1115 ( 57) -0.1506 ( 59)
          -0.1365 ( 63) -0.1570 ( 64) -0.1268 ( 67) -0.1805 ( 71)  0.1411 ( 72)
 CRD 16=  -0.1348 (  1)  0.1029 (  5)  0.1210 ( 11)  0.1197 ( 23) -0.1190 ( 24)
          -0.4434 ( 25)  0.2146 ( 27) -0.1569 ( 28)  0.4072 ( 29) -0.1092 ( 31)
           0.1484 ( 33)  0.2727 ( 34) -0.2512 ( 38) -0.1236 ( 45)  0.1020 ( 58)
          -0.1167 ( 69) -0.1123 ( 70) -0.2387 ( 72) -0.2784 ( 73)
 CRD 17=   0.1164 (  1)  0.2331 (  6) -0.2760 ( 14)  0.2655 ( 15)  0.2879 ( 16)
           0.2596 ( 17)  0.1569 ( 21)  0.1248 ( 22) -0.1293 ( 29) -0.2306 ( 35)
          -0.2720 ( 36) -0.2899 ( 37)  0.3055 ( 46)  0.2357 ( 47)  0.2512 ( 48)
          -0.1197 ( 49) -0.1035 ( 50) -0.1069 ( 51)
 CRD 18=   0.1343 (  1)  0.6983 (  6) -0.1428 (  9) -0.1226 ( 12)  0.1332 ( 25)
           0.1347 ( 27)  0.1436 ( 30)  0.1353 ( 52)  0.1663 ( 54)  0.1580 ( 57)
           0.1039 ( 60)  0.1527 ( 61)  0.1508 ( 62)  0.1260 ( 65)  0.1482 ( 66)
           0.1543 ( 68)
 CRD 19=  -0.1639 (  1) -0.1941 (  6) -0.2005 (  8) -0.1354 (  9)  0.1883 ( 11)
           0.1186 ( 12)  0.2003 ( 13)  0.1575 ( 15)  0.1561 ( 16)  0.1481 ( 17)
          -0.1072 ( 24)  0.1074 ( 28) -0.1272 ( 34) -0.1125 ( 36) -0.1069 ( 40)
           0.1326 ( 47)  0.2059 ( 49)  0.1884 ( 50)  0.2057 ( 51)  0.1475 ( 52)
           0.1521 ( 54)  0.1587 ( 57)  0.1610 ( 59)  0.1722 ( 63)  0.1656 ( 64)
           0.1457 ( 65)  0.1455 ( 66)  0.1282 ( 68)  0.1240 ( 70)  0.1291 ( 75)
           0.1500 ( 76)  0.1580 ( 77)  0.1578 ( 78)  0.1405 ( 79)  0.1612 ( 80)
           0.1545 ( 81)
 CRD 20=  -0.1117 (  5) -0.1889 (  6) -0.1147 (  7) -0.3834 (  8) -0.3537 (  9)
          -0.3052 ( 10) -0.3750 ( 11) -0.3010 ( 12) -0.3387 ( 13)  0.1597 ( 23)
           0.1120 ( 24)  0.1557 ( 26)  0.1027 ( 27)  0.1148 ( 28)  0.1061 ( 30)
          -0.1441 ( 40) -0.1019 ( 41) -0.1346 ( 42) -0.1409 ( 43) -0.1301 ( 45)
 CRD 21=   0.1481 (  1)  0.1096 (  5)  0.1038 (  6) -0.1177 (  7) -0.3188 (  8)
          -0.2635 (  9) -0.3482 ( 10)  0.3217 ( 11)  0.3101 ( 12)  0.2342 ( 13)
          -0.1015 ( 15) -0.1019 ( 24) -0.1042 ( 26)  0.1087 ( 28)  0.1129 ( 30)
          -0.1028 ( 40) -0.1172 ( 41)  0.1086 ( 43) -0.1469 ( 47)  0.1230 ( 48)
           0.1447 ( 55) -0.1138 ( 61) -0.1218 ( 62) -0.1251 ( 69) -0.1331 ( 70)
 CRD 22=   0.2507 ( 15) -0.5172 ( 16)  0.2213 ( 17)  0.5246 ( 46) -0.2529 ( 47)
          -0.2844 ( 48)  0.2994 ( 53) -0.2904 ( 56)
 CRD 23=   0.4131 ( 15) -0.4630 ( 17)  0.4343 ( 47) -0.4289 ( 48)  0.1545 ( 53)
          -0.3353 ( 55)  0.1718 ( 56)
 CRD 24=  -0.3046 (  1) -0.3728 (  2) -0.1154 (  5) -0.1046 ( 10) -0.1866 ( 12)
          -0.1368 ( 13)  0.2919 ( 14)  0.2741 ( 15)  0.3148 ( 16)  0.2397 ( 17)
           0.1588 ( 25)  0.1759 ( 29) -0.1916 ( 39) -0.1196 ( 59) -0.1166 ( 62)
          -0.1053 ( 63) -0.1170 ( 64)  0.1021 ( 65)  0.1022 ( 68) -0.1307 ( 72)
           0.1533 ( 73)
 CRD 25=  -0.5002 (  1) -0.4999 (  2)  0.1249 ( 12) -0.2576 ( 14) -0.2665 ( 15)
          -0.2544 ( 17)  0.1890 ( 21) -0.1609 ( 39)  0.1438 ( 61)  0.1130 ( 69)
           0.1148 ( 74)
 CRD 26=   0.2119 (  1) -0.2900 (  2)  0.1216 (  7) -0.4126 (  8)  0.3488 (  9)
           0.3362 ( 10)  0.1612 ( 11) -0.1168 ( 12) -0.1503 ( 13)  0.1775 ( 40)
          -0.1107 ( 41) -0.1363 ( 42)  0.1110 ( 44) -0.1140 ( 49)  0.1072 ( 50)
           0.1514 ( 52)  0.1332 ( 59) -0.1586 ( 65) -0.1232 ( 69) -0.1288 ( 70)
          -0.1228 ( 74) -0.1283 ( 75)  0.1581 ( 76) -0.1362 ( 77)
 CRD 27=  -0.4791 (  9)  0.4170 ( 10)  0.1264 ( 11) -0.3627 ( 12)  0.2446 ( 13)
          -0.2296 ( 41)  0.2545 ( 42)  0.1868 ( 44) -0.1218 ( 45) -0.1715 ( 51)
          -0.1317 ( 57) -0.1379 ( 63) -0.1812 ( 66) -0.1812 ( 78) -0.1381 ( 80)
 CRD 28=   0.2455 (  9) -0.2092 ( 10) -0.2618 ( 11) -0.2996 ( 12)  0.5786 ( 13)
           0.1163 ( 41) -0.1381 ( 42)  0.1397 ( 43)  0.1642 ( 44) -0.3086 ( 45)
           0.1651 ( 54) -0.1589 ( 57) -0.1566 ( 63)  0.1674 ( 64) -0.1710 ( 80)
           0.1530 ( 81)
 CRD 29=   0.1658 (  8)  0.1323 (  9) -0.3248 ( 10)  0.4943 ( 11) -0.4153 ( 12)
          -0.1054 ( 13) -0.1171 ( 14)  0.1602 ( 41) -0.2719 ( 43)  0.2105 ( 44)
           0.1570 ( 52) -0.1344 ( 54)  0.1741 ( 59) -0.1173 ( 64) -0.1009 ( 68)
           0.1508 ( 76)  0.1105 ( 78) -0.1407 ( 81)
 CRD 30=  -0.2667 (  1)  0.3079 (  2)  0.1233 (  3) -0.1223 (  7) -0.4319 (  8)
           0.1115 (  9)  0.2985 ( 40) -0.1187 ( 41) -0.1309 ( 49)  0.1465 ( 50)
          -0.1088 ( 52) -0.1452 ( 54) -0.1084 ( 57) -0.1266 ( 59)  0.1224 ( 61)
           0.1247 ( 62) -0.1263 ( 63) -0.1631 ( 64)  0.2023 ( 68)  0.1379 ( 69)
           0.1401 ( 70)  0.1217 ( 74)  0.1239 ( 75) -0.1198 ( 76)  0.1850 ( 79)
          -0.1194 ( 80) -0.1562 ( 81)
 CRD 31=  -0.1372 (  1) -0.1668 (  3)  0.1299 (  5)  0.1611 ( 11)  0.2912 ( 14)
           0.2315 ( 15)  0.1481 ( 16)  0.2293 ( 17) -0.1668 ( 21) -0.1940 ( 22)
           0.1758 ( 38) -0.1120 ( 39) -0.1639 ( 43) -0.1957 ( 49) -0.1700 ( 50)
          -0.1529 ( 51)  0.1038 ( 52)  0.1487 ( 59)  0.1926 ( 61)  0.1161 ( 62)
          -0.1799 ( 65) -0.1371 ( 66) -0.1542 ( 68)  0.1509 ( 69)  0.1755 ( 74)
           0.1277 ( 76) -0.1930 ( 77) -0.1502 ( 78) -0.1673 ( 79)
 CRD 32=   0.6491 (  4) -0.2839 ( 16) -0.3101 ( 21)  0.1745 ( 34) -0.2960 ( 35)
           0.1056 ( 36)  0.1087 ( 37)  0.1577 ( 38) -0.2077 ( 39)  0.1260 ( 61)
          -0.1546 ( 62)  0.1298 ( 69) -0.1507 ( 70)  0.1153 ( 74) -0.1653 ( 75)
 CRD 33=   0.3715 (  1) -0.3394 (  2) -0.1679 (  6) -0.2819 ( 15)  0.2859 ( 17)
          -0.1204 ( 36)  0.1233 ( 37)  0.1575 ( 47) -0.1685 ( 48) -0.1832 ( 53)
          -0.1053 ( 54) -0.3085 ( 55) -0.1839 ( 56)  0.2219 ( 58)  0.1295 ( 60)
           0.1076 ( 61)  0.1072 ( 62)  0.1148 ( 67)  0.1146 ( 71)  0.1555 ( 72)
           0.1793 ( 73)
 CRD 34=   0.1056 (  4)  0.3181 (  5) -0.1202 (  7)  0.1570 (  9) -0.2418 ( 11)
          -0.2191 ( 12) -0.2385 ( 13) -0.2464 ( 24) -0.2401 ( 26) -0.2514 ( 27)
           0.1144 ( 28) -0.1158 ( 32)  0.1458 ( 33) -0.1344 ( 40) -0.1077 ( 41)
           0.2394 ( 43)  0.2571 ( 44)  0.2413 ( 45)  0.1758 ( 71)  0.1464 ( 74)
           0.2109 ( 75) -0.1139 ( 77) -0.1696 ( 78) -0.1556 ( 79)
 CRD 35=   0.1081 (  5)  0.2146 (  6)  0.3397 (  7) -0.2943 (  8) -0.1929 (  9)
          -0.2237 ( 10) -0.1539 ( 11) -0.1226 ( 19) -0.2460 ( 23) -0.1035 ( 27)
          -0.2357 ( 28) -0.2711 ( 30)  0.2047 ( 40)  0.2616 ( 41)  0.2865 ( 42)
           0.1458 ( 45) -0.1066 ( 74)  0.1506 ( 76)  0.1528 ( 80)
 CRD 36=  -0.1786 (  1) -0.1131 (  2)  0.2153 (  3) -0.1584 (  4)  0.1899 (  6)
          -0.1269 ( 11) -0.3145 ( 14)  0.1071 ( 15)  0.1064 ( 16)  0.2074 ( 17)
          -0.2360 ( 25) -0.2130 ( 29)  0.1922 ( 34)  0.1743 ( 35)  0.1532 ( 36)
           0.1334 ( 37)  0.1409 ( 38)  0.1911 ( 39)  0.1135 ( 44) -0.1755 ( 46)
          -0.1104 ( 47) -0.1750 ( 48)  0.2344 ( 72) -0.2035 ( 73)  0.1483 ( 77)
           0.1444 ( 78) -0.1388 ( 80) -0.1385 ( 81)
 CRD 37=  -0.1493 (  1) -0.1094 (  3) -0.1907 (  5)  0.3377 (  6) -0.1515 (  7)
          -0.1143 (  8)  0.1060 (  9)  0.1545 ( 10)  0.1694 ( 12)  0.1099 ( 13)
           0.3995 ( 14) -0.2353 ( 15) -0.1839 ( 16) -0.1263 ( 35) -0.1147 ( 36)
          -0.1929 ( 37) -0.1846 ( 40) -0.1933 ( 43)  0.1087 ( 46)  0.2498 ( 47)
           0.1106 ( 49) -0.1069 ( 54) -0.1292 ( 55)  0.1257 ( 59) -0.1125 ( 61)
          -0.1288 ( 68)  0.1163 ( 77) -0.1174 ( 81)
 CRD 38=  -0.1615 (  2)  0.1943 (  3) -0.2518 (  4)  0.1912 (  5) -0.1766 (  6)
           0.1791 (  7) -0.1338 (  9) -0.1280 ( 13)  0.4335 ( 14) -0.1984 ( 16)
          -0.2080 ( 17) -0.1384 ( 22) -0.1297 ( 25) -0.1280 ( 29)  0.1028 ( 34)
          -0.2059 ( 36) -0.1047 ( 37)  0.2136 ( 38)  0.1161 ( 40)  0.1135 ( 43)
           0.2476 ( 48)  0.1240 ( 55)  0.1363 ( 72) -0.1551 ( 73)  0.1056 ( 78)
          -0.1018 ( 80)
 CRD 39=   0.2983 ( 15) -0.5114 ( 16)  0.2711 ( 17)  0.2173 ( 21)  0.2822 ( 35)
          -0.1138 ( 36) -0.1007 ( 37) -0.3714 ( 46)  0.1429 ( 47)  0.1608 ( 48)
          -0.2974 ( 53)  0.2888 ( 56)
 CRD 40=   0.1417 (  1) -0.1965 (  2) -0.1956 (  3)  0.1879 (  4) -0.1386 (  5)
           0.1078 (  6)  0.1797 (  7) -0.1574 (  8)  0.1569 ( 12)  0.2905 ( 15)
          -0.2981 ( 17)  0.1127 ( 29) -0.1229 ( 32) -0.1683 ( 34) -0.1141 ( 36)
           0.1823 ( 37)  0.1053 ( 41) -0.2245 ( 47)  0.1637 ( 48)  0.2046 ( 55)
          -0.1491 ( 56) -0.1172 ( 57)  0.1805 ( 58)  0.1172 ( 62)  0.1423 ( 70)
           0.2272 ( 75) -0.1858 ( 80) -0.1368 ( 81)
 CRD 41=   0.1106 (  1)  0.1435 (  2) -0.3290 (  3)  0.2898 (  5) -0.2569 (  9)
           0.2379 ( 10) -0.1308 ( 11)  0.1298 ( 19)  0.1244 ( 21)  0.1008 ( 25)
           0.1035 ( 29) -0.1422 ( 33) -0.1863 ( 39)  0.1724 ( 41) -0.2142 ( 42)
           0.1477 ( 44) -0.1093 ( 49)  0.1695 ( 51)  0.1900 ( 66) -0.1135 ( 71)
          -0.1449 ( 72)  0.1360 ( 73) -0.1767 ( 75)  0.3449 ( 78)  0.1018 ( 79)
          -0.1167 ( 80)
 CRD 42=  -0.1037 (  3)  0.2865 (  7)  0.1773 ( 11)  0.1788 ( 12) -0.3177 ( 13)
          -0.1880 ( 15)  0.1893 ( 17)  0.1244 ( 19) -0.1250 ( 32)  0.1174 ( 36)
          -0.1000 ( 37)  0.1135 ( 43)  0.1145 ( 44) -0.2743 ( 45)  0.1188 ( 47)
          -0.1316 ( 48)  0.1339 ( 53)  0.2417 ( 54)  0.1238 ( 56) -0.1217 ( 57)
          -0.1779 ( 58) -0.1865 ( 63)  0.1769 ( 64)  0.1475 ( 71) -0.1110 ( 72)
           0.1493 ( 75) -0.1164 ( 76) -0.2983 ( 80)
 CRD 43=   0.1056 (  1)  0.1263 (  2) -0.2008 (  4)  0.2087 (  9) -0.2485 ( 10)
          -0.1737 ( 11)  0.2509 ( 12)  0.1254 ( 23) -0.1212 ( 26) -0.1827 ( 39)
          -0.2047 ( 41)  0.1528 ( 42) -0.1257 ( 43)  0.2051 ( 44)  0.1140 ( 49)
           0.1748 ( 50) -0.1409 ( 51)  0.1658 ( 52) -0.1492 ( 57)  0.2099 ( 59)
           0.1366 ( 61) -0.1123 ( 62) -0.1051 ( 63)  0.1280 ( 65) -0.1268 ( 66)
           0.1889 ( 68)  0.1194 ( 69) -0.1295 ( 70)  0.1118 ( 73)  0.1047 ( 74)
          -0.1442 ( 75)  0.2135 ( 76)  0.1187 ( 77) -0.1362 ( 78)  0.1795 ( 79)
          -0.1015 ( 80)
 CRD 44=  -0.1257 (  1) -0.1243 (  2)  0.2193 (  4)  0.3088 (  8) -0.1712 (  9)
          -0.1367 ( 10) -0.1714 ( 11)  0.1388 ( 12) -0.1099 ( 18) -0.1054 ( 22)
          -0.1379 ( 30)  0.1965 ( 39)  0.2388 ( 40) -0.1063 ( 41) -0.1335 ( 42)
          -0.1350 ( 43)  0.1057 ( 44) -0.2300 ( 49)  0.1474 ( 50)  0.1504 ( 52)
           0.1932 ( 59) -0.2147 ( 61) -0.1647 ( 65)  0.2128 ( 68) -0.1844 ( 69)
          -0.1597 ( 74)  0.1173 ( 75)  0.1423 ( 76) -0.2077 ( 77)  0.1698 ( 79)
 CRD 45=   0.2015 (  1) -0.1466 (  2)  0.1559 (  7) -0.1632 ( 11)  0.2009 ( 13)
          -0.1222 ( 15)  0.1253 ( 17) -0.1367 ( 24)  0.1031 ( 27) -0.1359 ( 31)
           0.1002 ( 33) -0.1367 ( 34)  0.1113 ( 36) -0.1155 ( 37)  0.1535 ( 38)
          -0.1276 ( 43)  0.1533 ( 45)  0.2485 ( 53) -0.1559 ( 54)  0.2536 ( 56)
           0.1178 ( 57) -0.1058 ( 58) -0.1191 ( 60)  0.1179 ( 61) -0.1885 ( 64)
          -0.2458 ( 67) -0.2788 ( 72) -0.2378 ( 73)  0.1551 ( 74)  0.1002 ( 75)
          -0.2710 ( 81)
 CRD 46=  -0.2256 (  3)  0.1393 (  4)  0.2482 (  5)  0.1528 (  9) -0.1446 ( 10)
          -0.1210 ( 12)  0.1784 ( 19)  0.1648 ( 20)  0.1457 ( 23) -0.1459 ( 28)
          -0.1474 ( 31) -0.1980 ( 33) -0.1143 ( 41)  0.1145 ( 42) -0.2640 ( 51)
           0.1070 ( 60)  0.1977 ( 62)  0.1634 ( 63)  0.1250 ( 64) -0.2572 ( 66)
           0.1093 ( 70) -0.1234 ( 71) -0.2188 ( 74) -0.1858 ( 76)  0.2985 ( 77)
           0.2911 ( 79)
 CRD 47=   0.1824 (  2) -0.1662 (  3) -0.1250 (  5)  0.2252 (  7)  0.1054 (  8)
          -0.1105 ( 12)  0.1158 ( 13)  0.1915 ( 18)  0.1108 ( 22) -0.1006 ( 24)
           0.1293 ( 26) -0.1252 ( 29) -0.1159 ( 30) -0.2212 ( 32)  0.1119 ( 34)
           0.1072 ( 40)  0.1588 ( 50) -0.1170 ( 53) -0.1087 ( 56)  0.2110 ( 57)
          -0.2204 ( 62)  0.2184 ( 63) -0.1735 ( 65) -0.1013 ( 66) -0.2130 ( 70)
           0.2678 ( 71)  0.1681 ( 73)  0.1881 ( 74) -0.2412 ( 76)  0.1051 ( 79)
          -0.2263 ( 81)
 CRD 48=   0.1751 (  1)  0.2315 (  6) -0.1069 (  7)  0.1235 (  8)  0.1327 ( 11)
          -0.1334 ( 19)  0.1289 ( 20) -0.1509 ( 25) -0.1289 ( 27) -0.1167 ( 30)
           0.1178 ( 31) -0.1178 ( 33)  0.1144 ( 38)  0.2291 ( 50)  0.1367 ( 51)
          -0.2553 ( 52)  0.1080 ( 53)  0.1121 ( 56) -0.1714 ( 57) -0.2496 ( 60)
          -0.1161 ( 62)  0.1150 ( 63)  0.2324 ( 64) -0.2198 ( 65) -0.1271 ( 66)
           0.2710 ( 69)  0.1634 ( 70) -0.1396 ( 71) -0.1487 ( 72) -0.1036 ( 73)
           0.1015 ( 74)  0.1251 ( 81)

 THE DETERMINANT OF THE G MATRIX IS 10**(   -18)


                     --------------------
                     INTERNAL COORDINATES
                     --------------------

                 - - ATOMS - -         COORDINATE      COORDINATE
 NO.   TYPE    I  J  K  L  M  N        (BOHR,RAD)       (ANG,DEG)
 ----------------------------------------------------------------
   1 STRETCH   1  8                     2.0597354       1.0899651
   2 STRETCH   1  7                     2.0597977       1.0899981
   3 STRETCH   1  2                     2.8912427       1.5299799
   4 STRETCH   1  5                     2.7004576       1.4290207
   5 STRETCH   2  4                     2.8913290       1.5300255
   6 STRETCH   2  9                     2.0598737       1.0900383
   7 STRETCH   2  3                     2.8913252       1.5300235
   8 STRETCH   3 11                     2.0598805       1.0900419
   9 STRETCH   3 10                     2.0596901       1.0899411
  10 STRETCH   3 12                     2.0598113       1.0900053
  11 STRETCH   4 15                     2.0596850       1.0899384
  12 STRETCH   4 14                     2.0598770       1.0900400
  13 STRETCH   4 13                     2.0598632       1.0900328
  14 STRETCH   5  6                     2.7003321       1.4289543
  15 STRETCH   6 16                     2.0599149       1.0900601
  16 STRETCH   6 18                     2.0597554       1.0899757
  17 STRETCH   6 17                     2.0597786       1.0899880
  18 BEND      1  2  4                  1.9105966     109.4691221
  19 BEND      1  2  9                  1.9106334     109.4712324
  20 BEND      1  2  3                  1.9106241     109.4706986
  21 BEND      1  5  6                  1.9897297     114.0031137
  22 BEND      2  1  5                  1.9106464     109.4719722
  23 BEND      2  3 12                  1.9105704     109.4676214
  24 BEND      2  4 13                  1.9106335     109.4712370
  25 BEND      2  1  8                  1.9106902     109.4744826
  26 BEND      2  4 14                  1.9105653     109.4673289
  27 BEND      2  4 15                  1.9106580     109.4726371
  28 BEND      2  3 10                  1.9106233     109.4706508
  29 BEND      2  1  7                  1.9106648     109.4730278
  30 BEND      2  3 11                  1.9105440     109.4661086
  31 BEND      3  2  4                  1.9106579     109.4726353
  32 BEND      3  2  9                  1.9106345     109.4712950
  33 BEND      4  2  9                  1.9106528     109.4723403
  34 BEND      5  1  8                  1.9106250     109.4707490
  35 BEND      5  6 18                  1.9107072     109.4754576
  36 BEND      5  6 16                  1.9105670     109.4674252
  37 BEND      5  6 17                  1.9106576     109.4726142
  38 BEND      5  1  7                  1.9104999     109.4635798
  39 BEND      7  1  8                  1.9106732     109.4735118
  40 BEND     10  3 12                  1.9106235     109.4706602
  41 BEND     10  3 11                  1.9107574     109.4783365
  42 BEND     11  3 12                  1.9106808     109.4739457
  43 BEND     13  4 14                  1.9106220     109.4705761
  44 BEND     13  4 15                  1.9106828     109.4740586
  45 BEND     14  4 15                  1.9106379     109.4714859
  46 BEND     16  6 17                  1.9105631     109.4672001
  47 BEND     16  6 18                  1.9106129     109.4700557
  48 BEND     17  6 18                  1.9106917     109.4745705
  49 TORSION   1  2  3 12               3.1415778     179.9991467
  50 TORSION   1  2  3 10              -1.0472690     -60.0040925
  51 TORSION   1  2  3 11               1.0472175      60.0011431
  52 TORSION   1  2  4 13               1.0472634      60.0037732
  53 TORSION   1  5  6 17               1.0470238      59.9900455
  54 TORSION   1  2  4 14              -3.1415820    -179.9993892
  55 TORSION   1  5  6 18               3.1415507     179.9975969
  56 TORSION   1  5  6 16              -1.0472597     -60.0035597
  57 TORSION   1  2  4 15              -1.0472077     -60.0005801
  58 TORSION   2  1  5  6              -3.1415531    -179.9977354
  59 TORSION   3  2  4 13              -3.1415453    -179.9972850
  60 TORSION   3  2  1  5               1.1345162      65.0029890
  61 TORSION   3  2  1  7              -3.0544100    -175.0048021
  62 TORSION   3  2  1  8              -0.9599117     -54.9988912
  63 TORSION   3  2  4 15               1.0471690      59.9983618
  64 TORSION   3  2  4 14              -1.0472054     -60.0004474
  65 TORSION   4  2  3 12               1.0472180      60.0011702
  66 TORSION   4  2  3 11              -1.0471423     -59.9968333
  67 TORSION   4  2  1  5              -3.0542718    -174.9968831
  68 TORSION   4  2  3 10               3.1415565     179.9979311
  69 TORSION   4  2  1  7              -0.9600127     -55.0046742
  70 TORSION   4  2  1  8               1.1344856      65.0012366
  71 TORSION   5  1  2  9              -0.9598751     -54.9967896
  72 TORSION   6  5  1  7               1.0472721      60.0042698
  73 TORSION   6  5  1  8              -1.0470853     -59.9935689
  74 TORSION   7  1  2  9               1.1343841      64.9954193
  75 TORSION   8  1  2  9              -3.0543030    -174.9986699
  76 TORSION   9  2  4 13              -1.0471215     -59.9956418
  77 TORSION   9  2  3 12              -1.0472170     -60.0011130
  78 TORSION   9  2  3 11              -3.1415772    -179.9991166
  79 TORSION   9  2  3 10               1.0471216      59.9956478
  80 TORSION   9  2  4 15              -3.1415927    -180.0000000
  81 TORSION   9  2  4 14               1.0472184      60.0011957

     ------------------------------------------
     THE POINT GROUP IS C1 , NAXIS= 1, ORDER= 1
     ------------------------------------------

     DIMENSIONS OF THE SYMMETRY SUBSPACES ARE
 A   =  186

 ..... DONE SETTING UP THE RUN .....
 STEP CPU TIME =     0.01 TOTAL CPU TIME =        0.0 (    0.0 MIN)
 TOTAL WALL CLOCK TIME=        0.0 SECONDS, CPU UTILIZATION IS  50.00%


          -----------------------------
          STATIONARY POINT LOCATION RUN
          -----------------------------

 OBTAINING INITIAL HESSIAN, HESS=GUESS   
 DIAGONAL GUESS HESSIAN IN INTERNAL COORDS IS
     1  0.3464     2  0.3464     3  0.3672     4  0.3608     5  0.3672
     6  0.3463     7  0.3672     8  0.3463     9  0.3464    10  0.3464
    11  0.3464    12  0.3463    13  0.3463    14  0.3608    15  0.3463
    16  0.3464    17  0.3464    18  0.2485    19  0.2241    20  0.2485
    21  0.2377    22  0.2430    23  0.2241    24  0.2241    25  0.2241
    26  0.2241    27  0.2241    28  0.2241    29  0.2241    30  0.2241
    31  0.2485    32  0.2241    33  0.2241    34  0.2194    35  0.2194
    36  0.2194    37  0.2194    38  0.2194    39  0.2034    40  0.2034
    41  0.2034    42  0.2034    43  0.2034    44  0.2034    45  0.2034
    46  0.2034    47  0.2034    48  0.2034    49  0.2500    50  0.2500
    51  0.2500    52  0.2500    53  0.2500    54  0.2500    55  0.2500
    56  0.2500    57  0.2500    58  0.2500    59  0.2500    60  0.2500
    61  0.2500    62  0.2500    63  0.2500    64  0.2500    65  0.2500
    66  0.2500    67  0.2500    68  0.2500    69  0.2500    70  0.2500
    71  0.2500    72  0.2500    73  0.2500    74  0.2500    75  0.2500
    76  0.2500    77  0.2500    78  0.2500    79  0.2500    80  0.2500
    81  0.2500
 TRANSFORMING HESSIAN TO SYMMETRY COORDINATES

          PARAMETERS CONTROLLING GEOMETRY SEARCH ARE
          METHOD =QA                  UPHESS =BFGS    
          NNEG   =         0          NFRZ   =         3
          NSTEP  =        50          IFOLOW =         1
          HESS   =GUESS               RESTAR =         F
          IHREP  =         0          HSSEND =         F
          NPRT   =         0          NPUN   =         0
          OPTTOL = 5.000E-04          RMIN   = 1.500E-03
          RMAX   = 1.000E-01          RLIM   = 7.000E-02
          DXMAX  = 3.000E-01          PURIFY =         F
          MOVIE  =         F          TRUPD  =         T
          TRMAX  = 5.000E-01          TRMIN  = 5.000E-02
          ITBMAT =         5          STPT   =         F
          STSTEP = 1.000E-02          PROJCT=          F
          FROZEN COORD(S)=   1   2   3


      ***** EQUILIBRIUM GEOMETRY LOCATED *****
            (SUBJECT TO   3 CONSTRAINT(S))
 COORDINATES OF ALL ATOMS ARE (ANGS)
   ATOM   CHARGE       X              Y              Z
 ------------------------------------------------------------
 C           6.0   0.3035111190  -0.5465030958  -0.1680882196
 C           6.0  -1.0308527700   0.0000417626   0.3295278301
 C           6.0  -1.2995465115   1.4146438813  -0.1896790776
 C           6.0  -2.1711570799  -0.9445623656  -0.0644024996
 O           8.0   1.3629997620   0.2365470140   0.3159148726
 C           6.0   2.6218130119  -0.1502706496  -0.1610688683
 H           1.0   0.4313694175  -1.5747913146   0.1695602222
 H           1.0   0.3194941646  -0.5521427731  -1.2588344184
 H           1.0  -0.9792018425   0.0367897821   1.4165728248
 H           1.0  -0.5165633965   2.1025121941   0.1086350741
 H           1.0  -1.3583694584   1.4182990706  -1.2765160249
 H           1.0  -2.2446054144   1.7889070700   0.1950421493
 H           1.0  -2.0216365622  -1.9447829591   0.3323758032
 H           1.0  -3.1190023471  -0.5738885048   0.3153109377
 H           1.0  -2.2573720225  -1.0209934592  -1.1464192032
 H           1.0   2.8520722727  -1.1786076565   0.1116577055
 H           1.0   2.6787639161  -0.0579112817  -1.2439787630
 H           1.0   3.3609508371   0.5028689141   0.2850608160


                     --------------------
                     INTERNAL COORDINATES
                     --------------------

                 - - ATOMS - -         COORDINATE      COORDINATE
 NO.   TYPE    I  J  K  L  M  N        (BOHR,RAD)       (ANG,DEG)
 ----------------------------------------------------------------
   1 STRETCH   1  8                     2.0614603       1.0908779
   2 STRETCH   1  7                     2.0594813       1.0898307
   3 STRETCH   1  2                     2.8825972       1.5254049
   4 STRETCH   1  5                     2.6523182       1.4035465
   5 STRETCH   2  4                     2.8955092       1.5322376
   6 STRETCH   2  9                     2.0577069       1.0888917
   7 STRETCH   2  3                     2.8924979       1.5306441
   8 STRETCH   3 11                     2.0568416       1.0884338
   9 STRETCH   3 10                     2.0486030       1.0840741
  10 STRETCH   3 12                     2.0538285       1.0868393
  11 STRETCH   4 15                     2.0562745       1.0881337
  12 STRETCH   4 14                     2.0527609       1.0862744
  13 STRETCH   4 13                     2.0529685       1.0863842
  14 STRETCH   5  6                     2.6467987       1.4006256
  15 STRETCH   6 16                     2.0570048       1.0885201
  16 STRETCH   6 18                     2.0457519       1.0825653
  17 STRETCH   6 17                     2.0566501       1.0883324
  18 BEND      1  2  4                  1.9243682     110.2581764
  19 BEND      1  2  9                  1.8715748     107.2333352
  20 BEND      1  2  3                  1.9541508     111.9645955
  21 BEND      1  5  6                  1.9898751     114.0114437
  22 BEND      2  1  5                  1.9261654     110.3611474
  23 BEND      2  3 12                  1.9292451     110.5376038
  24 BEND      2  4 13                  1.9511695     111.7937791
  25 BEND      2  1  8                  1.9186157     109.9285806
  26 BEND      2  4 14                  1.9274445     110.4344325
  27 BEND      2  4 15                  1.9368325     110.9723266
  28 BEND      2  3 10                  1.9458112     111.4867688
  29 BEND      2  1  7                  1.9173094     109.8537372
  30 BEND      2  3 11                  1.9297567     110.5669157
  31 BEND      3  2  4                  1.9303966     110.6035796
  32 BEND      3  2  9                  1.8920645     108.4073080
  33 BEND      4  2  9                  1.8888992     108.2259501
  34 BEND      5  1  8                  1.9141275     109.6714250
  35 BEND      5  6 18                  1.8824887     107.8586561
  36 BEND      5  6 16                  1.9451787     111.4505305
  37 BEND      5  6 17                  1.9416884     111.2505501
  38 BEND      5  1  7                  1.9081643     109.3297622
  39 BEND      7  1  8                  1.8788276     107.6488897
  40 BEND     10  3 12                  1.8882283     108.1875151
  41 BEND     10  3 11                  1.8877545     108.1603679
  42 BEND     11  3 12                  1.8810628     107.7769594
  43 BEND     13  4 14                  1.8824097     107.8541310
  44 BEND     13  4 15                  1.8853693     108.0237023
  45 BEND     14  4 15                  1.8780312     107.6032600
  46 BEND     16  6 17                  1.8948392     108.5662877
  47 BEND     16  6 18                  1.8989423     108.8013773
  48 BEND     17  6 18                  1.8998236     108.8518717
  49 TORSION   1  2  3 12              -3.1208993    -178.8143576
  50 TORSION   1  2  3 10              -1.0199341     -58.4379172
  51 TORSION   1  2  3 11               1.0807781      61.9240247
  52 TORSION   1  2  4 13               1.0148983      58.1493882
  53 TORSION   1  5  6 17               1.0766704      61.6886702
  54 TORSION   1  2  4 14               3.1108455     178.2383176
  55 TORSION   1  5  6 18              -3.1241501    -179.0006166
  56 TORSION   1  5  6 16              -1.0408079     -59.6338974
  57 TORSION   1  2  4 15              -1.0912381     -62.5233393
  58 TORSION   2  1  5  6              -3.0779543    -176.3537905
  59 TORSION   3  2  4 13              -3.0974267    -177.4694748
  60 TORSION   3  2  1  5               1.0975732      62.8863098
  61 TORSION   3  2  1  7              -3.0803486    -176.4909740
  62 TORSION   3  2  1  8              -1.0159652     -58.2105198
  63 TORSION   3  2  4 15               1.0796222      61.8577977
  64 TORSION   3  2  4 14              -1.0014794     -57.3805455
  65 TORSION   4  2  3 12               1.0085448      57.7853577
  66 TORSION   4  2  3 11              -1.0729631     -61.4762601
  67 TORSION   4  2  1  5              -3.0284777    -173.5189931
  68 TORSION   4  2  3 10               3.1095100     178.1617980
  69 TORSION   4  2  1  7              -0.9232142     -52.8962769
  70 TORSION   4  2  1  8               1.1411692      65.3841773
  71 TORSION   5  1  2  9              -0.9756911     -55.9029832
  72 TORSION   6  5  1  7               1.0945027      62.7103876
  73 TORSION   6  5  1  8              -0.9617450     -55.1039296
  74 TORSION   7  1  2  9               1.1295724      64.7197330
  75 TORSION   8  1  2  9              -3.0892295    -176.9998128
  76 TORSION   9  2  4 13              -1.0271609     -58.8519871
  77 TORSION   9  2  3 12              -1.0597961     -60.7218422
  78 TORSION   9  2  3 11              -3.1413040    -179.9834599
  79 TORSION   9  2  3 10               1.0411692      59.6545981
  80 TORSION   9  2  4 15              -3.1332974    -179.5247147
  81 TORSION   9  2  4 14               1.0687863      61.2369422

          INTERNUCLEAR DISTANCES (ANGS.)


 =====================================================
   GAMESS/COSab RESULTS
 =====================================================

   Dielectric Constant                  = INFTY
   Basic Grid Size                      =                 1082
   Number of Segments                   =                   92
   Number of Segments located on spheres=                  238
   Number of Segments of the cavity     =                  615
   Solvent Radius (rsolv)               = 1.40
   Outlying Charge Error Method         = double cavity

 =====================================================

  Total solvated Energy (a.u.)          =  -271.2524126578
  Total Energy corrected (a.u.)         =  -271.2522354197

  Outlying charge effect (a.u.)         =     0.0001772381
  Outlying charge effect (kcal/mol)     =     0.1112187102

  Dielectric Energy (a.u.)              =    -0.0060968522
  Dielectric energy corr. (a.u.)        =    -0.0059196140

  Sum of polarization charges           =     0.0259374757
  Sum of polarization charges(cor.)     =    -0.0259374757

  Total surface area of cavity (A**2)   =  145.83
  Total volume of cavity (A**3)         =  136.42

 =====================================================
 NPS=                   615
NR.  ATOM  (X, Y, Z)(a.u.)                  CHARGE(e)  AREA(A**2) SIGMA(e/A**2)
   1   1   1.251325  -2.141416   3.231399   0.000320   0.185824   0.001723
   2   1   1.950761  -3.606371  -2.718490   0.000910   0.371649   0.002449
   3   1   1.690267  -4.188789  -2.071680   0.000523   0.232280   0.002254
   4   1   1.762197  -2.636653   2.891538   0.000232   0.185824   0.001248
   5   1  -0.174031  -3.918968  -2.640384   0.000139   0.232280   0.000599
   6   1   0.738950  -3.971010  -2.689045   0.000975   0.371649   0.002623
   7   1   0.167699  -4.395960  -1.993459   0.000132   0.139368   0.000944
   8   1   0.737157  -2.674449   3.082690   0.000158   0.139368   0.001131
   9   2  -1.411551  -2.575138   3.336521   0.000052   0.092912   0.000561
  10   2  -4.331632   1.207642   3.295624   0.000087   0.092912   0.000937
  11   2  -4.399438   0.823539   3.378932   0.000051   0.046456   0.001094
  12   3  -5.099684   4.331120  -2.490495   0.002241   0.418105   0.005360
  13   3  -2.288418   4.022415   3.168046   0.000900   0.278737   0.003229
  14   3  -1.293890   5.303694  -2.811021   0.001902   0.418105   0.004550
  15   3  -3.561654   6.223923   0.315557   0.001481   0.371649   0.003984
  16   3  -5.528383   2.565416  -2.556575   0.001180   0.278737   0.004234
  17   3  -2.535446   6.302759   0.692659   0.001573   0.371649   0.004232
  18   3  -0.638653   5.478462  -2.122868   0.001207   0.278737   0.004332
  19   3  -1.673586   4.581006   2.809054   0.000551   0.185824   0.002968
  20   3  -5.339880   3.388277  -2.694049   0.001127   0.232280   0.004854
  21   3  -5.856963   3.241387  -1.905550   0.001224   0.278737   0.004392
  22   3   0.240259   3.685349  -2.806146   0.001054   0.232280   0.004536
  23   3  -0.340032   4.431347  -2.950158   0.001476   0.278737   0.005295
  24   3  -1.916955   6.081400  -1.900720   0.001484   0.464561   0.003194
  25   3  -2.936798   6.401746  -0.747585   0.001383   0.464561   0.002977
  26   3  -3.140344   5.820699   1.618786   0.001931   0.371649   0.005195
  27   3  -2.760014   4.656294   2.844587   0.000914   0.232280   0.003936
  28   3  -3.402838   3.680963   3.158940   0.001126   0.371649   0.003030
  29   3  -2.682165   5.538135  -2.813152   0.001277   0.418105   0.003055
  30   3  -4.083407   5.199809  -2.650114   0.001475   0.418105   0.003528
  31   3  -4.790071   5.305986  -1.738390   0.001631   0.464561   0.003511
  32   3  -4.145542   6.034096  -0.724405   0.000926   0.325193   0.002849
  33   3  -1.955873   6.388451  -0.839945   0.000798   0.278737   0.002863
  34   3   0.203815   4.464638  -2.358882   0.000846   0.185824   0.004554
  35   3  -1.255379   3.806199   3.041528   0.000599   0.232280   0.002580
  36   3  -2.307783   5.419762   2.233704   0.001479   0.325193   0.004548
  37   3  -4.028028   2.845756   3.074141   0.000152   0.092912   0.001640
  38   3  -3.408992   6.007868  -1.860501   0.001145   0.464561   0.002464
  39   3  -3.333819   4.953545   2.524916   0.001014   0.232280   0.004366
  40   4  -7.346812  -1.459592  -2.033614   0.002163   0.418105   0.005173
  41   4  -4.806425  -2.233241   3.564546   0.000518   0.185824   0.002786
  42   4  -7.082837  -3.697585   1.199714   0.001698   0.418105   0.004061
  43   4  -5.390924  -4.612200  -2.273898   0.001335   0.371649   0.003593
  44   4  -6.664168   0.226080  -2.039994   0.001519   0.325193   0.004672
  45   4  -4.840342  -5.210286  -1.538591   0.001467   0.371649   0.003947
  46   4  -6.403038  -4.332786   1.460151   0.001030   0.278737   0.003696
  47   4  -4.832853  -3.205282   3.303817   0.001103   0.325193   0.003391
  48   4  -7.184576  -0.416726  -1.829169   0.000739   0.185824   0.003976
  49   4  -6.763597  -0.605942  -2.533097   0.001044   0.232280   0.004494
  50   4  -3.889727  -2.996089   3.452099   0.000597   0.232280   0.002569
  51   4  -5.813256  -2.569111   3.156120   0.001294   0.325193   0.003978
  52   4  -6.514677  -3.365283   2.321703   0.001640   0.325193   0.005044
  53   4  -6.808087  -4.415782   0.090484   0.001329   0.464561   0.002861
  54   4  -6.222471  -4.664032  -1.347517   0.001229   0.464561   0.002646
  55   4  -3.985538  -4.860568  -2.315123   0.001841   0.371649   0.004954
  56   4  -2.611991  -4.642670  -2.095256   0.000870   0.232280   0.003746
  57   4  -5.296338  -1.603524   3.459794   0.000723   0.278737   0.002593
  58   4  -7.544031  -3.347474  -0.083640   0.001088   0.418105   0.002603
  59   4  -7.611416  -2.555178  -1.297004   0.001336   0.418105   0.003196
  60   4  -7.057319  -2.664828  -2.308360   0.001512   0.464561   0.003256
  61   4  -6.347546  -3.877080  -2.328246   0.000830   0.325193   0.002554
  62   4  -6.045066  -5.011302  -0.442613   0.000668   0.278737   0.002398
  63   4  -5.757290  -3.517384   2.801656   0.001224   0.278737   0.004391
  64   4  -3.035122  -3.198148   3.217021   0.000113   0.092912   0.001213
  65   4  -3.143651  -5.075071  -1.715207   0.001198   0.278737   0.004297
  66   4  -5.344234  -0.773590   3.301825   0.000243   0.139368   0.001742
  67   4  -7.122122  -3.774308  -1.222181   0.001020   0.464561   0.002196
  68   4  -2.826398  -4.249175  -2.687322   0.000600   0.185824   0.003229
  69   5   2.756057   0.973448   3.799334   0.005420   0.274871   0.019717
  70   5   3.776864   2.109581   3.118445   0.002945   0.206154   0.014287
  71   5   3.500314   1.506011   3.527567   0.003436   0.240512   0.014286
  72   5   3.723376   3.135148   2.018764   0.002375   0.171795   0.013826
  73   5   3.060557   3.283857   2.107588   0.004401   0.206154   0.021350
  74   5   2.633105   2.118535   3.383995   0.005289   0.274871   0.019241
  75   5   2.364263   2.810157   2.818596   0.003111   0.171795   0.018108
  76   5   3.305748   3.556152  -0.007118   0.001059   0.103077   0.010269
  77   5   3.402726   0.276300   3.735706   0.005563   0.309230   0.017991
  78   5   2.183353   1.453488   3.662565   0.003283   0.137436   0.023886
  79   5   2.357881  -0.643394   3.651204   0.002978   0.171795   0.017334
  80   5   2.434351   0.100385   3.825694   0.003914   0.240512   0.016274
  81   5   3.282182   2.726528   2.803655   0.004225   0.240512   0.017566
  82   5   3.373922   3.549384   1.147266   0.003789   0.206154   0.018381
  83   5   1.817250   2.253126   3.190712   0.003307   0.137436   0.024064
  84   5   2.996261  -1.014414   3.469620   0.003004   0.240512   0.012492
  85   6   4.431843   3.321712  -1.309443   0.000730   0.325193   0.002245
  86   6   7.717422   1.330128  -2.315681   0.000549   0.418105   0.001314
  87   6   5.800860  -0.861008   3.333606   0.000286   0.325193   0.000879
  88   6   6.787715  -2.471287  -2.782142   0.000156   0.418105   0.000373
  89   6   8.588391  -1.008504   0.440109  -0.000251   0.371649  -0.000676
  90   6   5.164454   3.486309  -0.463131   0.000218   0.325193   0.000670
  91   6   4.245734   2.798183  -2.373741   0.000626   0.371649   0.001685
  92   6   3.704897   2.241637  -2.823121   0.000028   0.092912   0.000300
  93   6   5.392420   3.117929  -1.891710   0.000352   0.371649   0.000948
  94   6   6.479876   2.679060  -2.087082   0.000937   0.371649   0.002522
  95   6   8.164170  -1.961745   0.776103   0.000002   0.371649   0.000005
  96   6   6.615064  -3.153032  -2.119685   0.000104   0.278737   0.000372
  97   6   4.430987  -3.592419  -2.054906   0.000189   0.139368   0.001355
  98   6   5.990848  -1.887387   2.957412   0.000575   0.371649   0.001548
  99   6   6.787938   2.051565  -2.642786   0.000335   0.232280   0.001441
 100   6   7.371263   2.230068  -1.761515   0.000380   0.278737   0.001362
 101   6   4.902428  -1.527281   3.264328   0.000512   0.371649   0.001377
 102   6   4.546051  -3.205924  -2.666499   0.000379   0.185824   0.002037
 103   6   5.651524  -2.936105  -2.905271   0.000510   0.232280   0.002197
 104   6   7.743756  -2.318942  -1.841684  -0.000733   0.464561  -0.001579
 105   6   8.477618  -1.608851  -0.646009  -0.000933   0.464561  -0.002009
 106   6   8.027114  -1.168101   1.710985   0.000657   0.418105   0.001570
 107   6   6.763792  -1.055184   2.922999   0.000419   0.232280   0.001802
 108   6   6.172853   0.113549   3.251159   0.000120   0.371649   0.000322
 109   6   5.155606   0.083136   3.451817   0.000342   0.325193   0.001053
 110   6   7.649234  -1.359097  -2.726545  -0.000704   0.418105  -0.001684
 111   6   8.007806   0.029757  -2.509667  -0.000472   0.418105  -0.001129
 112   6   8.411360   0.572873  -1.569424  -0.000525   0.464561  -0.001130
 113   6   8.725306  -0.305191  -0.559270  -0.000626   0.371649  -0.001685
 114   6   5.020410   3.445461   0.304943   0.000200   0.185824   0.001078
 115   6   5.185963   2.648187  -2.677814   0.000298   0.232280   0.001282
 116   6   6.073803   3.229760  -1.132139   0.000302   0.325193   0.000929
 117   6   8.005577  -2.463655  -0.777942  -0.000521   0.278737  -0.001869
 118   6   5.330149  -3.408707  -2.397030   0.000405   0.185824   0.002179
 119   6   4.384905  -2.261899   2.865407   0.000175   0.232280   0.000753
 120   6   7.239044  -1.794569   2.300088   0.000627   0.325193   0.001929
 121   6   5.358081   1.423716   3.043033   0.000095   0.232280   0.000409
 122   6   4.780740  -2.723655  -3.185702   0.000281   0.185824   0.001510
 123   6   8.381688  -0.971246  -1.741886  -0.001200   0.464561  -0.002584
 124   6   7.304631  -0.679912   2.628949   0.000384   0.232280   0.001654
 125   7   1.382184  -5.279553   0.958335  -0.001594   0.314043  -0.005075
 126   7   1.484192  -3.942158   2.477715  -0.001070   0.353299  -0.003028
 127   7   1.470975  -5.023307  -0.868397  -0.000763   0.314043  -0.002431
 128   7   0.539907  -4.447821   2.267950  -0.002185   0.451437  -0.004839
 129   7   1.742832  -4.776045   1.711155  -0.002119   0.392554  -0.005397
 130   7   1.836624  -5.201546   0.124489  -0.001780   0.333671  -0.005334
 131   7   0.547500  -5.296878  -0.438968  -0.001990   0.451437  -0.004409
 132   7   0.476094  -5.313988   0.993935  -0.002494   0.392554  -0.006352
 133   8   0.586792  -1.241377  -4.827437  -0.001606   0.333671  -0.004812
 134   8   0.568693  -2.851217  -4.041872  -0.000898   0.353299  -0.002543
 135   8   0.917339   0.240011  -4.449981  -0.002266   0.412182  -0.005498
 136   8  -0.229291  -0.805588  -4.677666  -0.002271   0.353299  -0.006427
 137   8   0.025229  -2.172264  -4.482668  -0.002031   0.372926  -0.005445
 138   8   1.497120  -2.326054  -4.274043  -0.001713   0.431809  -0.003967
 139   8   1.388479  -0.969015  -4.705591  -0.001998   0.353299  -0.005655
 140   9  -1.859965   0.096831   5.133408  -0.002020   0.451437  -0.004475
 141   9  -3.180471  -0.564524   4.642652  -0.000669   0.274788  -0.002436
 142   9  -3.145958   1.243021   4.403090  -0.000832   0.353299  -0.002354
 143   9  -0.984501   1.591320   4.400141  -0.000833   0.294415  -0.002830
 144   9  -1.486868  -1.670708   4.372366  -0.000836   0.372926  -0.002243
 145   9  -3.192203   0.338411   4.717139  -0.001432   0.451437  -0.003172
 146   9  -1.994476   1.387206   4.745287  -0.001474   0.451437  -0.003265
 147   9  -0.723512   0.554949   4.805206  -0.001765   0.431809  -0.004087
 148   9  -0.749023  -0.726009   4.723670  -0.001840   0.490692  -0.003750
 149   9  -2.262316  -1.078699   4.809306  -0.001470   0.431809  -0.003405
 150  10   0.746003   5.604749   0.843423  -0.003386   0.549575  -0.006162
 151  10  -0.650132   5.208789   2.303388  -0.000624   0.314043  -0.001987
 152  10  -0.906058   6.391620   0.631053  -0.000758   0.353299  -0.002146
 153  10   0.249056   5.751740  -0.965466  -0.000586   0.294415  -0.001991
 154  10   0.284002   4.956048   2.071040  -0.001855   0.431809  -0.004295
 155  10  -0.543646   5.992141   1.536367  -0.001691   0.490692  -0.003447
 156  10  -0.132891   6.252868  -0.151065  -0.001872   0.510320  -0.003668
 157  10   0.931200   5.254174  -0.664277  -0.001609   0.412182  -0.003902
 158  11  -2.775350   3.154563  -4.813642  -0.002330   0.471065  -0.004947
 159  11  -4.461454   2.645732  -3.975835  -0.000719   0.333671  -0.002154
 160  11  -1.145208   3.659498  -4.160029  -0.000620   0.353299  -0.001754
 161  11  -3.089963   4.412077  -4.074221  -0.000775   0.372926  -0.002078
 162  11  -3.647629   2.230004  -4.572020  -0.001864   0.392554  -0.004748
 163  11  -2.440048   1.910344  -4.741709  -0.002437   0.431809  -0.005643
 164  11  -1.429173   2.792233  -4.586657  -0.001852   0.412182  -0.004493
 165  11  -2.092877   4.181876  -4.297806  -0.001136   0.412182  -0.002755
 166  11  -3.959714   3.671168  -4.176705  -0.001289   0.490692  -0.002627
 167  12  -6.150364   4.604010   1.314749  -0.002519   0.471065  -0.005347
 168  12  -6.508220   3.517394  -0.569097  -0.000972   0.353299  -0.002752
 169  12  -5.934415   4.985965  -0.401127  -0.000981   0.392554  -0.002500
 170  12  -4.983711   5.431904   1.498390  -0.000904   0.372926  -0.002424
 171  12  -5.095069   3.705850   2.649158  -0.000954   0.392554  -0.002430
 172  12  -6.631630   3.581628   0.900445  -0.002327   0.412182  -0.005646
 173  12  -6.476374   4.309783  -0.053130  -0.001452   0.372926  -0.003892
 174  12  -5.450399   5.516321   0.480953  -0.001284   0.431809  -0.002973
 175  12  -5.118232   4.738225   2.218853  -0.001326   0.431809  -0.003070
 176  12  -5.973525   3.428249   2.110301  -0.002092   0.412182  -0.005076
 177  13  -3.810919  -5.951862   1.550799  -0.002492   0.451437  -0.005520
 178  13  -2.960405  -5.762290  -0.341082  -0.001084   0.353299  -0.003068
 179  13  -4.515787  -5.916362  -0.098690  -0.000861   0.353299  -0.002437
 180  13  -5.267387  -5.244707   1.843603  -0.000877   0.372926  -0.002351
 181  13  -3.673783  -4.509943   2.933880  -0.000821   0.372926  -0.002200
 182  13  -2.803127  -5.858612   1.110478  -0.002302   0.392554  -0.005864
 183  13  -3.609136  -6.079379   0.169864  -0.001312   0.333671  -0.003931
 184  13  -4.972289  -5.828920   0.891098  -0.001705   0.471065  -0.003620
 185  13  -4.427495  -5.188373   2.465607  -0.001757   0.471065  -0.003729
 186  13  -2.882907  -5.109845   2.388164  -0.002489   0.490692  -0.005072
 187  14  -8.170086  -0.709849   1.441111  -0.002408   0.431809  -0.005576
 188  14  -7.816446  -0.011188  -0.493888  -0.000989   0.392554  -0.002520
 189  14  -6.664021  -0.077067   2.699982  -0.001440   0.372926  -0.003860
 190  14  -7.533967  -1.854129   2.255220  -0.001042   0.392554  -0.002654
 191  14  -8.178515  -1.959709   0.371383  -0.000612   0.274788  -0.002226
 192  14  -7.941189   0.273559   0.602823  -0.002407   0.431809  -0.005574
 193  14  -7.553568   0.233159   1.838803  -0.002327   0.392554  -0.005928
 194  14  -7.247339  -0.923293   2.639813  -0.001637   0.451437  -0.003626
 195  14  -8.045137  -1.986069   1.367320  -0.001294   0.392554  -0.003295
 196  14  -8.284984  -1.020130   0.035098  -0.001787   0.510320  -0.003502
 197  15  -4.919365  -2.280506  -4.508357  -0.002099   0.412182  -0.005094
 198  15  -5.659240  -0.718392  -3.787206  -0.000772   0.274788  -0.002808
 199  15  -6.114136  -2.378236  -3.721202  -0.000890   0.372926  -0.002388
 200  15  -4.424661  -3.817389  -3.730168  -0.000693   0.333671  -0.002078
 201  15  -3.345932  -3.406181  -3.900770  -0.001121   0.353299  -0.003173
 202  15  -4.518569  -1.176991  -4.491305  -0.002337   0.431809  -0.005413
 203  15  -5.803636  -1.506963  -4.035044  -0.001113   0.353299  -0.003151
 204  15  -5.445925  -3.321856  -3.810643  -0.001296   0.431809  -0.003002
 205  15  -4.084152  -2.981523  -4.378904  -0.001513   0.333671  -0.004533
 206  15  -3.561165  -1.971480  -4.519453  -0.002153   0.353299  -0.006094
 207  16   6.127443  -4.355829   1.190735  -0.002766   0.471065  -0.005873
 208  16   6.007079  -3.335732   2.314593  -0.001181   0.392554  -0.003008
 209  16   7.445132  -3.481566   0.697571  -0.001593   0.392554  -0.004057
 210  16   6.199550  -4.178180  -1.043205  -0.001172   0.333671  -0.003512
 211  16   5.080347  -4.430792  -0.830076  -0.001465   0.353299  -0.004148
 212  16   5.090781  -3.878208   2.005459  -0.002359   0.471065  -0.005008
 213  16   6.961914  -3.379029   1.706475  -0.001575   0.412182  -0.003822
 214  16   6.734646  -4.282740   0.242929  -0.002016   0.353299  -0.005705
 215  16   5.698254  -4.639949  -0.133576  -0.001661   0.314043  -0.005289
 216  16   5.036603  -4.594756   0.763587  -0.002252   0.353299  -0.006375
 217  16   7.163838  -3.764824  -0.512331  -0.001202   0.314043  -0.003828
 218  17   5.668788   0.161727  -4.715833  -0.003116   0.510320  -0.006105
 219  17   6.146366   1.476450  -3.881933  -0.001376   0.392554  -0.003505
 220  17   4.193723   1.556136  -3.934067  -0.001311   0.353299  -0.003712
 221  17   5.202464  -1.735399  -4.186981  -0.001446   0.412182  -0.003507
 222  17   6.875292  -0.401428  -3.982414  -0.001505   0.372926  -0.004037
 223  17   5.191351   1.548773  -4.158731  -0.001685   0.412182  -0.004089
 224  17   4.404631   0.489661  -4.640722  -0.002801   0.471065  -0.005946
 225  17   4.772384  -0.858468  -4.672432  -0.002620   0.451437  -0.005803
 226  17   6.207746  -1.162316  -4.251850  -0.001771   0.412182  -0.004298
 227  17   6.699550   0.611793  -4.034145  -0.001522   0.372926  -0.004081
 228  18   8.036988   2.466639   1.484292  -0.004538   0.608459  -0.007459
 229  18   6.194379   3.008885   1.870108  -0.001901   0.392554  -0.004842
 230  18   7.112886   3.223815   0.003753  -0.001427   0.353299  -0.004038
 231  18   8.575341   1.729198  -0.155536  -0.001652   0.353299  -0.004677
 232  18   8.486344   0.551099   1.686389  -0.001658   0.372926  -0.004447
 233  18   7.031555   1.383213   2.859223  -0.001610   0.412182  -0.003905
 234  18   6.854330   3.307706   1.012651  -0.002684   0.490692  -0.005470
 235  18   8.058040   2.633710   0.001871  -0.002663   0.490692  -0.005427
 236  18   8.771238   1.258222   0.828615  -0.002944   0.510320  -0.005769
 237  18   8.002028   1.191623   2.341980  -0.002893   0.510320  -0.005670
 238  18   6.863627   2.408964   2.447840  -0.002973   0.490692  -0.006059
 239   1  -0.185378  -3.030096   2.809174  -0.000076   0.027596  -0.002762
 240   2  -0.621146  -2.827161   2.936779  -0.000057   0.027596  -0.002058
 241   7  -0.083131  -3.287776   2.682985  -0.000098   0.027596  -0.003564
 242   1  -0.269579  -2.384174   3.224862  -0.000020   0.030507  -0.000646
 243   2  -0.700233  -2.229571   3.420029  -0.000030   0.030507  -0.000978
 244   9  -0.768085  -2.023716   3.633574  -0.000046   0.030507  -0.001492
 245   2  -0.780378  -2.552590   3.231935   0.000018   0.072793   0.000247
 246   1  -0.114696  -2.743982   3.041739  -0.000001   0.072793  -0.000009
 247   1   1.533520   1.719102  -2.772323   0.000578   0.150569   0.003839
 248   3   0.949955   2.307566  -2.664092   0.000815   0.150569   0.005410
 249   6   2.298230   1.775327  -2.663239   0.000961   0.150569   0.006385
 250   1   1.036820   1.529902  -3.110640  -0.000075   0.067123  -0.001120
 251   3   0.467733   2.139067  -3.054128   0.000128   0.067123   0.001910
 252   8   0.973976   1.324707  -3.329764  -0.000206   0.067123  -0.003068
 253   3   0.424717   2.677263  -3.034802   0.000216   0.052165   0.004148
 254   1   1.157004   1.735239  -3.048608   0.000131   0.052165   0.002515
 255   1  -0.645377  -4.503813  -1.350437  -0.000190   0.068701  -0.002768
 256   4  -1.467906  -4.563735  -1.283900  -0.000072   0.068701  -0.001044
 257   7  -0.519942  -4.643668  -1.108367  -0.000301   0.068701  -0.004380
 258   1  -1.419849  -3.364019  -2.904684  -0.000157   0.063673  -0.002474
 259   4  -2.224870  -3.551303  -2.934409   0.000003   0.063673   0.000047
 260  15  -2.394405  -3.413667  -3.147547  -0.000121   0.063673  -0.001900
 261   4  -2.017462  -4.109711  -2.337610   0.000379   0.494721   0.000765
 262   1  -0.807333  -4.129137  -2.097903  -0.000570   0.494721  -0.001153
 263   1   2.613349  -2.129646   2.793780   0.000519   0.056594   0.009162
 264   5   2.955840  -1.832186   2.911608   0.000864   0.056594   0.015274
 265   6   3.377158  -1.999143   2.796169   0.000485   0.056594   0.008575
 266   1   1.040494  -1.140560   3.467819   0.000485   0.093406   0.005198
 267   5   1.398290  -0.837867   3.503952   0.001255   0.093406   0.013433
 268   9   0.436938  -0.846079   3.776405   0.000137   0.093406   0.001470
 269   5   2.221444  -1.239819   3.321277   0.002848   0.208698   0.013647
 270   1   1.902495  -1.862089   3.109130   0.001280   0.228314   0.005605
 271   1   2.484097  -2.842230   2.440944  -0.000051   0.060652  -0.000834
 272   6   3.236960  -2.673542   2.380550   0.000097   0.060652   0.001604
 273   7   2.403873  -3.118238   2.336259  -0.000202   0.060652  -0.003333
 274   1   2.507075  -2.807000  -3.087061  -0.000127   0.063193  -0.002012
 275   6   3.258763  -2.630480  -3.032625  -0.000164   0.063193  -0.002601
 276   8   2.377397  -2.643288  -3.311553  -0.000217   0.063193  -0.003426
 277   1   3.174973  -3.831215  -1.447390  -0.000155   0.060091  -0.002572
 278   6   3.945712  -3.768144  -1.476441  -0.000125   0.060091  -0.002081
 279  16   4.099619  -3.904021  -1.250568  -0.000231   0.060091  -0.003836
 280   1   2.292973   1.374592  -2.988617   0.000015   0.059352   0.000249
 281   6   3.043563   1.555204  -3.041411  -0.000081   0.059352  -0.001359
 282  17   3.204827   1.420036  -3.262309  -0.000236   0.059352  -0.003980
 283   6   3.598661  -2.316455   2.742540   0.000361   0.130900   0.002755
 284   1   2.524438  -2.588802   2.686660   0.000380   0.130900   0.002901
 285   6   3.796533  -3.386609  -2.200327  -0.000242   0.455756  -0.000532
 286   1   2.673087  -3.366874  -2.486921  -0.000268   0.455756  -0.000589
 287   6   2.928372   1.706931  -2.996332   0.000042   0.017044   0.002461
 288   1   1.837533   1.530715  -2.990954   0.000030   0.017044   0.001744
 289   1   2.718800  -4.094047  -1.201593  -0.000205   0.083792  -0.002452
 290   7   2.627779  -4.269557  -0.966158  -0.000297   0.083792  -0.003548
 291  16   3.630906  -4.038150  -0.950458  -0.000230   0.083792  -0.002739
 292   7   1.703673  -3.377544   2.550508  -0.000369   0.096543  -0.003825
 293   7   0.526870  -3.480013   2.684061  -0.000321   0.096543  -0.003328
 294   1   1.092077  -3.043968   2.708149  -0.000957   0.195435  -0.004899
 295   7   0.193866  -4.795509  -1.196075  -0.000300   0.079998  -0.003747
 296   7   1.453995  -4.653146  -1.239686  -0.000754   0.183520  -0.004108
 297   1   0.613387  -4.516527  -1.595144  -0.000474   0.170200  -0.002787
 298   1   1.996794  -4.317988  -1.514356  -0.000111   0.097735  -0.001131
 299   1  -0.939234  -3.119504  -3.170573  -0.000309   0.088965  -0.003478
 300   8  -0.843895  -2.932147  -3.395859  -0.000399   0.088965  -0.004491
 301  15  -1.935488  -3.063148  -3.288961  -0.000099   0.088965  -0.001112
 302   1   1.859420   1.160530  -3.202629  -0.000159   0.084904  -0.001877
 303   8   1.796647   0.966999  -3.433950  -0.000335   0.084904  -0.003944
 304  17   2.794778   1.114398  -3.378243  -0.000185   0.084904  -0.002182
 305   8   1.294256   1.030749  -3.551267  -0.000101   0.009205  -0.010991
 306   1   1.395393   1.290790  -3.212668  -0.000053   0.011246  -0.004707
 307   8   1.733566  -2.887027  -3.524583  -0.000224   0.082328  -0.002722
 308   8   0.451436  -3.105358  -3.542232  -0.000943   0.190235  -0.004958
 309   1   1.310754  -3.254790  -3.190413  -0.000459   0.174076  -0.002639
 310   1  -0.120562  -3.353742  -3.210865  -0.000309   0.100582  -0.003068
 311   9  -0.485649  -1.533368   3.907028  -0.000781   0.287883  -0.002714
 312   1   0.500798  -1.815966   3.431082   0.000274   0.405424   0.000677
 313  15  -2.473345  -3.369755  -3.402472   0.000024   0.037982   0.000637
 314   1  -1.015503  -3.404790  -3.131450   0.000102   0.053989   0.001889
 315  16   4.188936  -4.110227  -1.106052  -0.000039   0.039386  -0.000992
 316   1   2.837392  -4.103146  -1.471146   0.000139   0.055693   0.002500
 317  17   3.277985   1.389688  -3.492123  -0.000030   0.024496  -0.001228
 318   1   1.909597   1.417889  -3.165893   0.000108   0.034652   0.003120
 319   2  -3.811819   1.733070   3.428366  -0.000003   0.029304  -0.000118
 320   3  -3.877472   2.184132   3.224981   0.000052   0.029304   0.001780
 321   9  -3.627165   1.616448   3.640141  -0.000028   0.029304  -0.000952
 322   2  -4.300138   1.972049   3.009602   0.000006   0.026534   0.000217
 323   3  -4.410415   2.440210   2.876501  -0.000010   0.026534  -0.000394
 324  12  -4.640070   2.600777   2.760918  -0.000043   0.026534  -0.001630
 325   3  -4.218594   2.406995   3.037465   0.000093   0.054964   0.001688
 326   2  -4.038083   1.767115   3.309670   0.000072   0.054964   0.001315
 327   2  -2.222424  -2.454298   3.495055  -0.000007   0.029527  -0.000221
 328   4  -2.599957  -2.738532   3.332749   0.000048   0.029527   0.001615
 329   9  -2.193523  -2.234045   3.702914  -0.000029   0.029527  -0.000995
 330   2  -4.395054   0.162330   3.509804   0.000003   0.029527   0.000115
 331   4  -4.744747  -0.155434   3.347309   0.000046   0.029527   0.001568
 332   9  -4.172095   0.148866   3.716345  -0.000030   0.029527  -0.001002
 333   2  -2.248761  -2.989455   3.093008  -0.000003   0.024748  -0.000113
 334   4  -2.611306  -3.320566   3.001070  -0.000020   0.024748  -0.000816
 335  13  -2.662608  -3.600655   2.897983  -0.000050   0.024748  -0.002009
 336   2  -4.941933   0.271547   3.088816   0.000007   0.026640   0.000272
 337   4  -5.334329  -0.023430   2.996120  -0.000012   0.026640  -0.000436
 338  14  -5.616277  -0.005962   2.886944  -0.000046   0.026640  -0.001709
 339   4  -2.648990  -3.140657   3.158979   0.000077   0.051618   0.001483
 340   2  -2.155975  -2.664128   3.374691   0.000061   0.051618   0.001184
 341   4  -5.128855  -0.163729   3.199121   0.000094   0.057753   0.001635
 342   2  -4.626237   0.329036   3.348106   0.000077   0.057753   0.001338
 343   2  -1.359646  -3.230799   2.658534  -0.000215   0.169213  -0.001270
 344   7  -0.794236  -3.640869   2.366664  -0.000513   0.169213  -0.003032
 345  13  -1.828507  -3.796110   2.433847  -0.000318   0.169213  -0.001879
 346   7  -0.117817  -3.548751   2.596497  -0.000232   0.081258  -0.002859
 347   2  -0.992964  -2.962671   2.984536   0.000086   0.114594   0.000748
 348   9  -3.719320   0.972962   3.913472  -0.000282   0.112788  -0.002500
 349   2  -4.072253   0.824845   3.597727  -0.000180   0.137795  -0.001304
 350   9  -1.610099  -2.007325   3.914033  -0.000232   0.100897  -0.002301
 351   2  -1.369592  -2.254877   3.573454  -0.000174   0.123268  -0.001412
 352   2  -4.997392   1.231887   2.645096  -0.000060   0.169026  -0.000357
 353  12  -5.266745   1.885214   2.361951  -0.000199   0.169026  -0.001179
 354  14  -5.635646   0.888389   2.412708  -0.000279   0.169026  -0.001650
 355  12  -5.044233   2.525465   2.597686  -0.000231   0.121268  -0.001902
 356   2  -4.517958   1.636749   3.059881   0.000236   0.170926   0.001382
 357  13  -2.446426  -3.909342   2.731662  -0.000225   0.111725  -0.002011
 358   2  -1.866101  -3.006139   3.115584   0.000204   0.157423   0.001295
 359  14  -5.850036   0.190334   2.768898  -0.000233   0.116981  -0.001989
 360   2  -4.909951   0.753016   3.049642   0.000212   0.164892   0.001283
 361   3  -5.014842   1.665643  -3.004619   0.000140   0.064800   0.002157
 362   4  -5.246010   0.874950  -2.900389   0.000216   0.064800   0.003333
 363  11  -4.818331   1.720154  -3.231914  -0.000033   0.064800  -0.000508
 364   3  -6.268555   1.667318  -1.080984   0.000208   0.066438   0.003138
 365   4  -6.627917   0.918727  -1.068133   0.000103   0.066438   0.001543
 366  14  -6.794919   0.871993  -0.817838  -0.000078   0.066438  -0.001176
 367   4  -6.227442   0.812076  -1.908920   0.001181   0.563593   0.002095
 368   3  -5.611133   1.828716  -2.303431   0.001387   0.563593   0.002462
 369   3  -0.249229   2.683186   2.899411   0.000802   0.210526   0.003810
 370   5   0.664655   2.214729   2.960789   0.002854   0.210526   0.013556
 371   9  -0.258191   2.060741   3.325096   0.000485   0.210526   0.002305
 372   3  -0.040521   3.320065   2.584693   0.000198   0.089993   0.002200
 373   5   0.859612   2.834727   2.600658   0.001637   0.089993   0.018192
 374  10   0.132667   3.542915   2.468522   0.000077   0.089993   0.000861
 375   5   1.202529   2.543793   2.964713   0.001099   0.067936   0.016171
 376   3  -0.126048   3.161503   2.864210   0.000278   0.076013   0.003655
 377   3   1.110009   3.783566  -1.539651   0.000779   0.142667   0.005458
 378   6   2.368874   3.089566  -1.404879   0.004015   0.142667   0.028145
 379  10   1.191391   3.953195  -1.295459   0.000587   0.142667   0.004117
 380   6   2.904911   2.448330  -2.465935   0.004260   0.696034   0.006120
 381   3   1.018299   3.435871  -2.278793   0.003486   0.696034   0.005008
 382   3  -0.049600   2.418736  -3.346585   0.000072   0.088187   0.000819
 383   8   0.386769   1.534185  -3.492115   0.000023   0.088187   0.000263
 384  11  -0.269065   2.401557  -3.560523  -0.000107   0.088187  -0.001212
 385   8   0.925656   1.230924  -3.612168  -0.000037   0.056316  -0.000655
 386   3   0.267189   2.507399  -3.289946   0.000254   0.079984   0.003181
 387   9  -0.919463   2.121968   3.761317  -0.000144   0.167153  -0.000860
 388   9  -2.134964   2.101078   3.985815  -0.000739   0.339693  -0.002174
 389   9  -3.303095   1.709686   3.883047  -0.000155   0.167153  -0.000925
 390   3  -1.459829   3.088515   3.309579   0.000894   0.461103   0.001938
 391   3  -3.165283   2.793533   3.396675   0.000705   0.461103   0.001529
 392  10   0.677613   4.687556  -1.466949   0.000031   0.066468   0.000467
 393  10  -0.042935   5.486771  -1.418591  -0.000189   0.146609  -0.001287
 394  10  -0.913642   6.185349  -0.744035  -0.000213   0.146609  -0.001453
 395  10  -1.476073   6.318497   0.425200  -0.000255   0.146609  -0.001736
 396  10  -1.512205   5.834601   1.635863  -0.000107   0.146609  -0.000730
 397  10  -1.008030   4.921242   2.418647  -0.000261   0.146609  -0.001778
 398  10  -0.339313   4.091656   2.576365  -0.000089   0.066468  -0.001346
 399   3   0.227528   4.826698  -1.817881   0.000195   0.146610   0.001329
 400   3  -0.784706   5.826884  -1.467331   0.000003   0.146610   0.000020
 401   3  -1.631981   6.318603  -0.377279  -0.000034   0.146610  -0.000230
 402   3  -1.985853   6.111240   1.029722   0.000079   0.146610   0.000537
 403   3  -1.709145   5.285180   2.208253   0.000059   0.146610   0.000401
 404   3  -0.909122   4.160641   2.701459  -0.000111   0.146610  -0.000756
 405  11  -4.760853   2.379413  -3.473633  -0.000055   0.070742  -0.000779
 406  11  -4.555156   3.495376  -3.481013  -0.000164   0.157629  -0.001038
 407  11  -3.639903   4.514741  -3.527120  -0.000265   0.157629  -0.001681
 408  11  -2.291033   4.747658  -3.599341  -0.000264   0.157629  -0.001676
 409  11  -1.088035   4.094064  -3.666648  -0.000195   0.157629  -0.001238
 410  11  -0.521392   3.111465  -3.700621  -0.000093   0.070742  -0.001317
 411   3  -4.953032   2.834347  -3.124601   0.000028   0.154564   0.000183
 412   3  -4.356406   4.253414  -3.152119   0.000004   0.154564   0.000026
 413   3  -3.010528   4.997816  -3.222458  -0.000059   0.154564  -0.000385
 414   3  -1.493605   4.747750  -3.305398   0.000026   0.154564   0.000170
 415   3  -0.457324   3.610647  -3.365308   0.000083   0.154564   0.000536
 416   3  -6.219426   2.167638  -0.975555   0.000121   0.087888   0.001373
 417  12  -6.318219   2.336118  -0.739626  -0.000133   0.087888  -0.001508
 418  14  -6.613685   1.322197  -0.647518   0.000120   0.087888   0.001369
 419  12  -4.725084   3.125957   2.765458  -0.000113   0.066512  -0.001696
 420  12  -4.371865   4.133431   2.653021  -0.000240   0.146482  -0.001641
 421  12  -4.237538   5.209660   1.935994  -0.000117   0.146482  -0.000796
 422  12  -4.498712   5.740347   0.778152  -0.000241   0.146482  -0.001646
 423  12  -5.055217   5.521951  -0.376423  -0.000271   0.146482  -0.001850
 424  12  -5.693608   4.638236  -1.084904  -0.000205   0.146482  -0.001397
 425  12  -6.169035   3.428145  -1.075556  -0.000199   0.146482  -0.001362
 426   3  -4.199802   3.366466   2.874259  -0.000135   0.146947  -0.000917
 427   3  -3.837802   4.716777   2.449867  -0.000014   0.146947  -0.000094
 428   3  -3.912755   5.666285   1.342028   0.000142   0.146947   0.000968
 429   3  -4.395912   5.850815  -0.024354  -0.000044   0.146947  -0.000300
 430   3  -5.101962   5.199590  -1.125213  -0.000068   0.146947  -0.000463
 431   3  -5.760105   3.962384  -1.538322   0.000143   0.146947   0.000976
 432   3  -6.110545   2.851926  -1.318871   0.000118   0.081258   0.001447
 433   3  -6.333612   2.099894  -1.168328   0.000067   0.007626   0.008800
 434   4  -1.968861  -4.890058  -0.883040  -0.000061   0.085400  -0.000712
 435   7  -1.029486  -4.822992  -0.664285  -0.000211   0.085400  -0.002466
 436  13  -2.048230  -5.049239  -0.634168  -0.000201   0.085400  -0.002353
 437   7  -0.458465  -4.890841  -0.883658  -0.000149   0.076710  -0.001939
 438   4  -1.842324  -4.878392  -1.237610   0.000277   0.108636   0.002549
 439   9  -3.976926  -0.113089   3.979094  -0.000158   0.169015  -0.000932
 440   9  -3.330014  -1.167338   4.157019  -0.000815   0.343635  -0.002371
 441   9  -2.413671  -1.995809   3.968482  -0.000178   0.169015  -0.001052
 442   4  -4.587833  -1.070801   3.600806   0.000631   0.466031   0.001354
 443   4  -3.469454  -2.417731   3.593214   0.000682   0.466031   0.001464
 444   4  -5.351728   0.381271  -3.043239   0.000127   0.088706   0.001427
 445  11  -4.809227   1.195649  -3.262906   0.000185   0.088706   0.002086
 446  15  -5.252389   0.193007  -3.264251  -0.000113   0.088706  -0.001276
 447  11  -4.787195   1.777837  -3.448023   0.000025   0.006573   0.003750
 448   4  -5.518231   0.552507  -3.054538   0.000078   0.009342   0.008335
 449  13  -3.079664  -3.923927   2.958609  -0.000143   0.066915  -0.002138
 450  13  -4.149125  -4.075524   2.979495  -0.000345   0.147586  -0.002336
 451  13  -5.249640  -4.472212   2.394228  -0.000180   0.147586  -0.001221
 452  13  -5.731060  -4.982186   1.290057  -0.000323   0.147586  -0.002185
 453  13  -5.406176  -5.407131   0.096364  -0.000321   0.147586  -0.002177
 454  13  -4.401325  -5.581798  -0.722659  -0.000278   0.147586  -0.001885
 455  13  -3.107265  -5.438264  -0.848517  -0.000240   0.147586  -0.001625
 456   4  -3.521244  -3.565037   3.112296  -0.000216   0.147626  -0.001461
 457   4  -4.935721  -3.875958   2.861565  -0.000021   0.147626  -0.000141
 458   4  -5.871112  -4.412064   1.862607   0.000046   0.147626   0.000311
 459   4  -5.963672  -4.964878   0.503890  -0.000112   0.147626  -0.000756
 460   4  -5.177405  -5.319426  -0.686221  -0.000169   0.147626  -0.001146
 461   4  -3.818069  -5.337834  -1.244925  -0.000010   0.147626  -0.000065
 462   4  -2.649168  -5.123731  -1.145713  -0.000021   0.081752  -0.000252
 463  14  -7.259543   0.365350  -0.845277  -0.000107   0.066397  -0.001607
 464  14  -7.683509  -0.614721  -0.946860  -0.000214   0.146231  -0.001466
 465  14  -7.944870  -1.787997  -0.453938  -0.000291   0.146231  -0.001991
 466  14  -7.815731  -2.537073   0.599659  -0.000349   0.146231  -0.002384
 467  14  -7.345578  -2.574899   1.810189  -0.000208   0.146231  -0.001424
 468  14  -6.714576  -1.886982   2.713773  -0.000252   0.146231  -0.001726
 469  14  -6.164527  -0.736932   2.964154  -0.000367   0.146231  -0.002507
 470   4  -7.202914  -0.038748  -1.267781  -0.000039   0.146689  -0.000263
 471   4  -7.683325  -1.410229  -1.128173  -0.000052   0.146689  -0.000357
 472   4  -7.761450  -2.546075  -0.214393  -0.000117   0.146689  -0.000795
 473   4  -7.407350  -3.011026   1.123396  -0.000093   0.146689  -0.000636
 474   4  -6.756718  -2.626912   2.372547  -0.000048   0.146689  -0.000330
 475   4  -6.058879  -1.540925   3.054382  -0.000045   0.146689  -0.000307
 476   4  -5.621688  -0.440720   3.071703  -0.000039   0.081119  -0.000481
 477  15  -3.015291  -3.695724  -3.326016  -0.000121   0.071171  -0.001700
 478  15  -4.084504  -4.079945  -3.213685  -0.000264   0.158826  -0.001664
 479  15  -5.430319  -3.793904  -3.126658  -0.000353   0.158826  -0.002221
 480  15  -6.309910  -2.732346  -3.131556  -0.000387   0.158826  -0.002438
 481  15  -6.340435  -1.357314  -3.226247  -0.000206   0.158826  -0.001295
 482  15  -5.763679  -0.378758  -3.341321  -0.000075   0.071171  -0.001057
 483   4  -3.276257  -4.083447  -2.939550  -0.000027   0.155274  -0.000173
 484   4  -4.806328  -4.278528  -2.803858  -0.000023   0.155274  -0.000147
 485   4  -6.130168  -3.476875  -2.755001  -0.000141   0.155274  -0.000909
 486   4  -6.671573  -2.027408  -2.814245  -0.000073   0.155274  -0.000472
 487   4  -6.194898  -0.561008  -2.955802   0.000056   0.155274   0.000358
 488   5   2.717581   3.373729  -0.856694   0.000799   0.021027   0.037982
 489   6   3.132635   3.237599  -1.013199   0.000762   0.021027   0.036224
 490  10   1.826813   3.859943  -0.772103   0.000748   0.021027   0.035554
 491   5   4.481924   2.960048   1.760783   0.000167   0.009365   0.017851
 492   6   4.937717   2.946147   1.662528   0.000051   0.009365   0.005393
 493  18   5.237579   2.939108   1.683591  -0.000020   0.009365  -0.002087
 494   5   4.581044   2.308025   2.551134   0.000138   0.009365   0.014730
 495   6   5.041216   2.265309   2.487808   0.000020   0.009365   0.002128
 496  18   5.331545   2.320984   2.432852  -0.000043   0.009365  -0.004563
 497   6   3.936218   3.329524  -0.866975   0.001170   0.170472   0.006864
 498   6   4.506616   3.262498   0.692711   0.001772   0.334837   0.005292
 499   5   3.539954   3.395802  -0.029639   0.005275   0.321649   0.016401
 500   5   4.053464   3.209265   1.476836   0.001642   0.155796   0.010541
 501   6   4.880458   1.863095   2.814180   0.000717   0.190878   0.003755
 502   6   4.541795   0.124674   3.330213   0.002460   0.374618   0.006567
 503   6   3.923363  -1.597272   3.094550   0.001056   0.190878   0.005532
 504   5   4.122748   1.350130   3.167372   0.004638   0.364090   0.012740
 505   5   3.549305  -0.723146   3.335356   0.005231   0.364090   0.014367
 506   9   0.210327  -0.401988   4.194103   0.000041   0.287125   0.000144
 507   9   0.014629   1.043199   4.039942   0.000256   0.579974   0.000441
 508   5   1.531617   0.275910   3.772693   0.009415   0.706232   0.013332
 509   5   1.252816   1.818519   3.459372   0.004857   0.356497   0.013624
 510  10   0.452893   3.910510   2.400264   0.000486   0.257505   0.001887
 511  10   1.156608   4.517693   1.485128   0.000273   0.518339   0.000527
 512  10   1.462923   4.654778  -0.058352   0.000542   0.518339   0.001045
 513   5   1.860048   3.244575   2.366582   0.010392   0.636150   0.016337
 514   5   2.593159   3.820113   0.900043   0.010921   0.636150   0.017167
 515   5   2.649194   3.718974  -0.518488   0.005148   0.320585   0.016058
 516  18   5.425065   2.771431   2.023714  -0.000429   0.224061  -0.001913
 517   5   4.356742   2.683653   2.341586   0.002353   0.273163   0.008614
 518   6   3.787823  -2.898602   2.255210  -0.000170   0.083230  -0.002047
 519   7   2.930969  -3.264198   2.097224  -0.000166   0.083230  -0.001993
 520  16   3.951094  -3.132229   2.141760  -0.000346   0.083230  -0.004152
 521   7   2.405022  -3.400035   2.322271  -0.000066   0.047745  -0.001379
 522   6   3.643916  -2.783534   2.507207   0.000154   0.067498   0.002280
 523   6   3.753849  -2.194927  -3.408663  -0.000197   0.081048  -0.002429
 524   8   2.845176  -2.141869  -3.567897  -0.000230   0.081048  -0.002843
 525  17   3.842400  -1.985099  -3.613859  -0.000308   0.081048  -0.003805
 526   8   2.345236  -2.473986  -3.636068  -0.000126   0.090182  -0.001396
 527   6   3.661929  -2.573268  -3.281686   0.000176   0.127294   0.001384
 528  10   1.388488   4.382947  -1.078566   0.000708   0.177448   0.003990
 529   6   3.268020   3.343026  -1.523183   0.002026   0.271817   0.007453
 530  16   4.760734  -4.025254  -1.339211  -0.000248   0.070391  -0.003530
 531  16   5.858208  -3.826669  -1.517011  -0.000619   0.156668  -0.003951
 532  16   7.065007  -3.425303  -1.022509  -0.000879   0.156668  -0.005613
 533  16   7.665168  -2.987369   0.122049  -0.000918   0.156668  -0.005858
 534  16   7.403438  -2.699125   1.429872  -0.000645   0.156668  -0.004119
 535  16   6.391134  -2.683163   2.344736  -0.000574   0.156668  -0.003663
 536  16   5.058795  -2.946270   2.477542  -0.000673   0.156668  -0.004293
 537   6   5.055874  -3.715643  -1.764727  -0.000353   0.153963  -0.002292
 538   6   6.545273  -3.361878  -1.688305  -0.000579   0.153963  -0.003763
 539   6   7.618792  -2.863248  -0.714536  -0.000817   0.153963  -0.005304
 540   6   7.819855  -2.431824   0.742429  -0.000638   0.153963  -0.004143
 541   6   7.062949  -2.251095   2.062933  -0.000360   0.153963  -0.002341
 542   6   5.669991  -2.397924   2.685356  -0.000442   0.153963  -0.002874
 543   6   4.466839  -2.699771   2.563021  -0.000201   0.085998  -0.002341
 544  17   3.799550   1.689063  -3.447303  -0.000299   0.070459  -0.004247
 545  17   4.864183   2.059776  -3.359705  -0.000579   0.156874  -0.003689
 546  17   6.198975   1.772681  -3.314003  -0.000577   0.156874  -0.003675
 547  17   7.075205   0.725526  -3.357234  -0.000741   0.156874  -0.004723
 548  17   7.119182  -0.635105  -3.470962  -0.000900   0.156874  -0.005734
 549  17   6.312151  -1.728934  -3.606685  -0.000737   0.156874  -0.004698
 550  17   4.998290  -2.089470  -3.706520  -0.000680   0.156874  -0.004333
 551   6   4.070328   2.067257  -3.062602  -0.000481   0.154061  -0.003120
 552   6   5.590803   2.250453  -2.967027  -0.000328   0.154061  -0.002132
 553   6   6.904577   1.457651  -2.965559  -0.000454   0.154061  -0.002950
 554   6   7.451357   0.026962  -3.058823  -0.000775   0.154061  -0.005029
 555   6   6.997956  -1.431461  -3.207045  -0.000739   0.154061  -0.004799
 556   6   5.737737  -2.295634  -3.347011  -0.000412   0.154061  -0.002672
 557   6   4.494559  -2.377056  -3.419325  -0.000147   0.086081  -0.001704
 558  18   5.774984   2.177090   2.587862  -0.000279   0.067720  -0.004118
 559  18   6.349981   1.301009   2.917826  -0.000672   0.150079  -0.004478
 560  18   7.293350   0.395454   2.680638  -0.000620   0.150079  -0.004129
 561  18   8.184599   0.005275   1.775284  -0.000725   0.150079  -0.004830
 562  18   8.663051   0.288373   0.568150  -0.000873   0.150079  -0.005820
 563  18   8.535081   1.130180  -0.452249  -0.000930   0.150079  -0.006198
 564  18   7.852477   2.190028  -0.872970  -0.000652   0.150079  -0.004343
 565  18   6.891482   3.039007  -0.523752  -0.000648   0.150079  -0.004320
 566  18   6.040999   3.333545   0.454081  -0.000688   0.150079  -0.004584
 567  18   5.632322   3.115546   1.450311  -0.000221   0.067720  -0.003257
 568   6   5.608806   1.657267   2.818042  -0.000517   0.148680  -0.003478
 569   6   6.531393   0.495940   2.989737  -0.000484   0.148680  -0.003254
 570   6   7.618421  -0.271794   2.312771  -0.000426   0.148680  -0.002868
 571   6   8.429982  -0.335240   1.061103  -0.000680   0.148680  -0.004572
 572   6   8.637645   0.331276  -0.258730  -0.000833   0.148680  -0.005600
 573   6   8.157373   1.458024  -1.112607  -0.000667   0.148680  -0.004485
 574   6   7.183526   2.589021  -1.154973  -0.000478   0.148680  -0.003213
 575   6   6.110208   3.266565  -0.368684  -0.000515   0.148680  -0.003467
 576   6   5.371780   3.216462   0.928059  -0.000525   0.148680  -0.003533
 577  13  -2.000268  -5.385284  -0.316793   0.000026   0.253074   0.000104
 578  13  -1.914078  -5.446732   0.842142  -0.001046   0.506146  -0.002066
 579  13  -1.936398  -4.754719   2.078438  -0.000889   0.506146  -0.001757
 580   7  -0.491022  -5.217763   0.026610  -0.001228   0.506146  -0.002426
 581   7  -0.433158  -4.986735   1.423422  -0.001348   0.506146  -0.002662
 582   7  -0.491978  -4.214515   2.292070  -0.000258   0.253074  -0.001021
 583  16   4.051226  -3.580889   2.075394  -0.000177   0.252097  -0.000704
 584  16   4.148736  -4.310148   1.162187  -0.001295   0.504243  -0.002568
 585  16   4.139945  -4.463851  -0.256932  -0.001098   0.504243  -0.002177
 586   7   2.642172  -4.121572   1.780791  -0.001079   0.504243  -0.002139
 587   7   2.714255  -4.749091   0.500704  -0.001176   0.504243  -0.002331
 588   7   2.665468  -4.621236  -0.664005  -0.000101   0.252097  -0.000402
 589   8  -1.534755  -0.385541  -4.000743  -0.000893   0.328583  -0.002718
 590  11  -2.249884   0.453775  -4.010084  -0.000552   0.328583  -0.001679
 591  15  -2.633291  -0.585540  -3.951370  -0.000653   0.328583  -0.001986
 592  11  -0.459940   2.271630  -4.013678   0.000263   0.305482   0.000861
 593  11  -1.430317   1.441920  -4.394560  -0.000990   0.611208  -0.001620
 594   8   0.185762   0.772762  -4.190361  -0.000998   0.611208  -0.001633
 595   8  -0.809898  -0.077280  -4.437768  -0.000421   0.305482  -0.001379
 596  15  -2.742708  -1.384251  -4.311714  -0.000355   0.292571  -0.001214
 597  15  -2.509404  -2.589247  -3.989364  -0.000844   0.585146  -0.001443
 598   8  -1.098992  -1.574471  -4.292529  -0.001492   0.585146  -0.002550
 599   8  -0.867385  -2.741831  -3.852092  -0.000205   0.292571  -0.000702
 600  17   3.829476  -1.765340  -4.023418  -0.000149   0.251005  -0.000595
 601  17   3.602871  -0.671632  -4.421999  -0.001357   0.502132  -0.002703
 602  17   3.313063   0.701770  -4.088063  -0.001202   0.502132  -0.002394
 603   8   2.333140  -1.653316  -4.215323  -0.001052   0.502132  -0.002095
 604   8   2.040534  -0.251281  -4.389724  -0.001166   0.502132  -0.002321
 605   8   1.818992   0.790611  -3.868387  -0.000150   0.251005  -0.000600
 606  15  -5.092896   0.079313  -3.735842   0.000246   0.308658   0.000797
 607  15  -3.932324  -0.374440  -4.223737  -0.001017   0.617552  -0.001647
 608  11  -4.118912   1.377656  -4.042133  -0.000435   0.617552  -0.000705
 609  11  -2.914841   0.914892  -4.398396  -0.000230   0.308658  -0.000747
 610  14  -6.287736   0.886432   2.362831  -0.000127   0.256326  -0.000495
 611  14  -7.012628   1.109812   1.481146  -0.000983   0.512606  -0.001918
 612  14  -7.216944   1.114106   0.080057  -0.000492   0.512606  -0.000960
 613  12  -6.061633   2.400458   1.973940  -0.000682   0.512606  -0.001330
 614  12  -6.706326   2.575492   0.725522  -0.000735   0.512606  -0.001435
 615  12  -6.634948   2.490147  -0.432216   0.000195   0.256326   0.000759
 =====================================================


   1 warning(s) detected.
     A line exceeding 80 characters begins with "http://cactus.nci.ni".
 There may be a problem in your input file.

              3173552  WORDS OF DYNAMIC MEMORY USED
 EXECUTION OF GAMESS TERMINATED NORMALLY Thu Nov 24 19:47:03 2016
 DDI: 263640 bytes (0.3 MB / 0 MWords) used by master data server.

 ----------------------------------------
 CPU timing information for all processes
 ========================================
 0: 743.280 + 0.336 = 743.616
 ----------------------------------------
 ddikick.x: exited gracefully.
