----- GAMESS execution script -----

          ******************************************************
          *         GAMESS VERSION =  5 DEC 2014 (R1)          *
          *             FROM IOWA STATE UNIVERSITY             *
          * M.W.SCHMIDT, K.K.BALDRIDGE, J.A.BOATZ, S.T.ELBERT, *
          *   M.S.GORDON, J.H.JENSEN, S.KOSEKI, N.MATSUNAGA,   *
          *          K.A.NGUYEN, S.J.SU, T.L.WINDUS,           *
          *       TOGETHER WITH M.DUPUIS, J.A.MONTGOMERY       *
          *         J.COMPUT.CHEM.  14, 1347-1363(1993)        *
          **************** 64 BIT LINUX VERSION ****************

 EXECUTION OF GAMESS BEGUN Thu Nov 24 16:36:52 2016

            ECHO OF THE FIRST FEW INPUT CARDS -
 INPUT CARD>! SELECT RESTRICTED HARTREE-FOCK AS DEFAULT                                     
 INPUT CARD>$contrl scftyp=rhf $end                                                         
 INPUT CARD>                                                                                
 INPUT CARD>! THEORY: HF OR DFT                                                             
 INPUT CARD> $contrl mplevl=0 $end                                                          
 INPUT CARD>                                                                                
 INPUT CARD> $system timlim=10000 mwords=20 $end                                            
 INPUT CARD> $SCF DIRSCF=.TRUE. $end                                                        
 INPUT CARD>                                                                                
 INPUT CARD>                                                                                
 INPUT CARD>! BASIS SETS                                                                    
 INPUT CARD>! 6-311G(d,p)                                                                   
 INPUT CARD> $BASIS GBASIS=N311 NGAUSS=6 NDFUNC=1 NPFUNC=1 $END                             
 INPUT CARD>                                                                                
 INPUT CARD>! One of the following                                                          
 INPUT CARD> $guess guess=HUCKEL $end                                                       
 INPUT CARD>                                                                                
 INPUT CARD> $statpt projct=.FALSE. $end                                                    
 INPUT CARD> $STATPT IFREEZ(1)=1,2,3 $END                                                   
 INPUT CARD>                                                                                
 INPUT CARD>! Optimize the geometry with COSMO effects                                      
 INPUT CARD> $statpt opttol=0.0005 nstep=50 $end                                            
 INPUT CARD> $contrl nzvar=1 $end                                                           
 INPUT CARD> $zmat dlc=.t. auto=.t. $end                                                    
 INPUT CARD> $contrl runtyp=OPTIMIZE maxit=200 $end                                         
 INPUT CARD>                                                                                
 INPUT CARD>! Run COSMO on perfect conductor                                                
 INPUT CARD> $COSGMS PRFCND=.TRUE. $end                                                     
 INPUT CARD>                                                                                
 INPUT CARD>! Specifying RSOLV                                                              
 INPUT CARD> $COSGMS COSRAD = 1.4 $end                                                      
 INPUT CARD>                                                                                
 INPUT CARD>! available memory                                                              
 INPUT CARD> $SYSTEM MWORDS=40 $END                                                         
 INPUT CARD>                                                                                
 INPUT CARD> $DATA                                                                          
 INPUT CARD>Cyclohexane, methyl-, ID: C108872                                               
 INPUT CARD>C1                                                                              
 INPUT CARD>C      6.0      5.2093000000    2.1560000000    1.0595000000                    
 INPUT CARD>C      6.0      3.8868000000    2.2400000000    1.8005000000                    
 INPUT CARD>C      6.0      3.1600000000    0.8958000000    1.7596000000                    
 INPUT CARD>C      6.0      3.0005000000    3.3325000000    1.2030000000                    
 INPUT CARD>C      6.0      1.8277000000    0.9747000000    2.4883000000                    
 INPUT CARD>C      6.0      1.6679000000    3.4122000000    1.9306000000                    
 INPUT CARD>C      6.0      0.9506000000    2.0714000000    1.9050000000                    
 INPUT CARD>H      1.0      5.7493000000    3.1109000000    1.0988000000                    
 INPUT CARD>H      1.0      5.8621000000    1.3884000000    1.4948000000                    
 INPUT CARD>H      1.0      5.0666000000    1.9031000000    0.0000000000                    
 INPUT CARD>H      1.0      4.0917000000    2.4983000000    2.8691000000                    
 INPUT CARD>H      1.0      2.9995000000    0.5869000000    0.7071000000                    
   40000000 WORDS OF MEMORY AVAILABLE

     BASIS OPTIONS
     -------------
     GBASIS=N311         IGAUSS=       6      POLAR=POPN311 
     NDFUNC=       1     NFFUNC=       0     DIFFSP=       F
     NPFUNC=       1      DIFFS=       F     BASNAM=        


     RUN TITLE
     ---------
 Cyclohexane, methyl-, ID: C108872                                               

 THE POINT GROUP OF THE MOLECULE IS C1      
 THE ORDER OF THE PRINCIPAL AXIS IS     0

 ATOM      ATOMIC                      COORDINATES (BOHR)
           CHARGE         X                   Y                   Z
 C           6.0     9.8441495878        4.0742492295        2.0021646840
 C           6.0     7.3449869691        4.2329862125        3.4024516409
 C           6.0     5.9715341212        1.6928165398        3.3251618480
 C           6.0     5.6701228262        6.2975118541        2.2733403632
 C           6.0     3.4538521878        1.8419159202        4.7022051752
 C           6.0     3.1518739749        6.4481230153        3.6483049919
 C           6.0     1.7963735239        3.9143784110        3.5999280066
 H           1.0    10.8646016212        5.8787485752        2.0764309153
 H           1.0    11.0777627126        2.6236955614        2.8247624064
 H           1.0     9.5744856894        3.5963375272        0.0000000000
 H           1.0     7.7321918240        4.7211024351        5.4218128314
 H           1.0     5.6682331002        1.1090801822        1.3362252459
 H           1.0     7.1720770412        0.2074919135        4.1806408026
 H           1.0     6.6525913672        8.1428292811        2.3680156352
 H           1.0     5.3545385862        5.9218343277        0.2360267759
 H           1.0     2.4685490578        0.0000000000        4.5914672324
 H           1.0     3.7756725235        2.1968064607        6.7410305434
 H           1.0     3.4561198589        7.0558588930        5.6296826900
 H           1.0     1.9498192741        7.9224872309        2.7771413116
 H           1.0     1.2646046310        3.4298526677        1.6332901712
 H           1.0     0.0000000000        4.0400451892        4.6640327103

          INTERNUCLEAR DISTANCES (ANGS.)




     $CONTRL OPTIONS
     ---------------
 SCFTYP=RHF          RUNTYP=OPTIMIZE     EXETYP=RUN     
 MPLEVL=       0     CITYP =NONE         CCTYP =NONE         VBTYP =NONE    
 DFTTYP=NONE         TDDFT =NONE    
 MULT  =       1     ICHARG=       0     NZVAR =       1     COORD =UNIQUE  
 PP    =NONE         RELWFN=NONE         LOCAL =NONE         NUMGRD=       F
 ISPHER=      -1     NOSYM =       0     MAXIT =     200     UNITS =ANGS    
 PLTORB=       F     MOLPLT=       F     AIMPAC=       F     FRIEND=        
 NPRINT=       7     IREST =       0     GEOM  =INPUT   
 NORMF =       0     NORMP =       0     ITOL  =      20     ICUT  =       9
 INTTYP=BEST         GRDTYP=BEST         QMTTOL= 1.0E-06

     $SYSTEM OPTIONS
     ---------------
  REPLICATED MEMORY=    40000000 WORDS (ON EVERY NODE).
 DISTRIBUTED MEMDDI=           0 MILLION WORDS IN AGGREGATE,
 MEMDDI DISTRIBUTED OVER   1 PROCESSORS IS           0 WORDS/PROCESSOR.
 TOTAL MEMORY REQUESTED ON EACH PROCESSOR=    40000000 WORDS.
 TIMLIM=       10000.00 MINUTES, OR       6.9 DAYS.
 PARALL= F  BALTYP=  DLB     KDIAG=    0  COREFL= F
 MXSEQ2=     300 MXSEQ3=     150  mem10=         0

     $COSGMS OPTIONS
     ---------------
     EPSI  =   INFTY     NSPA  =      92     COSRAD=    1.40
     DISEX =   10.00     OUTCHG=DBLCAV       COSBUG=       F
     COSWRT=       F     DCOSMO=       F

     SYMMETRY COORDINATES WILL NOT BE USED FOR 
     THE COSMO CALCULATION, EVEN IF SPECIFIED:
         -- SWITCHING TO C1 POINT GROUP --


     DEFINITION OF CAVITY
     ---------------------------
     ATOM         COORDINATES           RADIUS 
     1    9.8441    4.0742    2.0022    2.0000
     2    7.3450    4.2330    3.4025    2.0000
     3    5.9715    1.6928    3.3252    2.0000
     4    5.6701    6.2975    2.2733    2.0000
     5    3.4539    1.8419    4.7022    2.0000
     6    3.1519    6.4481    3.6483    2.0000
     7    1.7964    3.9144    3.5999    2.0000
     8   10.8646    5.8787    2.0764    1.3000
     9   11.0778    2.6237    2.8248    1.3000
    10    9.5745    3.5963    0.0000    1.3000
    11    7.7322    4.7211    5.4218    1.3000
    12    5.6682    1.1091    1.3362    1.3000
    13    7.1721    0.2075    4.1806    1.3000
    14    6.6526    8.1428    2.3680    1.3000
    15    5.3545    5.9218    0.2360    1.3000
    16    2.4685    0.0000    4.5915    1.3000
    17    3.7757    2.1968    6.7410    1.3000
    18    3.4561    7.0559    5.6297    1.3000
    19    1.9498    7.9225    2.7771    1.3000
    20    1.2646    3.4299    1.6333    1.3000
    21    0.0000    4.0400    4.6640    1.3000

          ----------------
          PROPERTIES INPUT
          ----------------

     MOMENTS            FIELD           POTENTIAL          DENSITY
 IEMOM =       1   IEFLD =       0   IEPOT =       0   IEDEN =       0
 WHERE =COMASS     WHERE =NUCLEI     WHERE =NUCLEI     WHERE =NUCLEI  
 OUTPUT=BOTH       OUTPUT=BOTH       OUTPUT=BOTH       OUTPUT=BOTH    
 IEMINT=       0   IEFINT=       0                     IEDINT=       0
                                                       MORB  =       0
          EXTRAPOLATION IN EFFECT
          SOSCF IN EFFECT
 ORBITAL PRINTING OPTION: NPREO=     1   217     2     1

     -------------------------------
     INTEGRAL TRANSFORMATION OPTIONS
     -------------------------------
     NWORD  =            0
     CUTOFF = 1.0E-09     MPTRAN =       0
     DIRTRF =       T     AOINTS =DUP     

          ----------------------
          INTEGRAL INPUT OPTIONS
          ----------------------
 NOPK  =       1 NORDER=       0 SCHWRZ=       T


 -----------------------------------------------
  STATISTICS ON AUTOMATIC COORDINATE GENERATION 
 -----------------------------------------------
  NUMBER OF USER SPECIFIED BONDS                             0
  NUMBER OF BONDS                                           21
  NUMBER OF ANGLES                                          42
  NUMBER OF TORSIONS                                        63
  NUMBER OF EXTRA COORD.                                     0
  NUMBER OF EXTRA COORD. FOR CONSTRAINTS                     0
  NUMBER OF CONSTRAINED COORD.                               0

  TOTAL NUMBER OF PRIMITIVES                               126
 -----------------------------------------------

   --- ENCODED Z MATRIX ---
 COORD  TYPE   I   J   K   L   M   N
    1      1    1   9
    2      1    1  10
    3      1    1   2
    4      1    1   8
    5      1    2   3
    6      1    2   4
    7      1    2  11
    8      1    3  13
    9      1    3  12
   10      1    3   5
   11      1    4  14
   12      1    4  15
   13      1    4   6
   14      1    5   7
   15      1    5  17
   16      1    5  16
   17      1    6   7
   18      1    6  19
   19      1    6  18
   20      1    7  21
   21      1    7  20
   22      2    1   2   4
   23      2    1   2  11
   24      2    1   2   3
   25      2    2   3   5
   26      2    2   4   6
   27      2    2   1  10
   28      2    2   4  15
   29      2    2   3  13
   30      2    2   1   8
   31      2    2   1   9
   32      2    2   3  12
   33      2    2   4  14
   34      2    3   5  16
   35      2    3   2  11
   36      2    3   5  17
   37      2    3   2   4
   38      2    3   5   7
   39      2    4   6  18
   40      2    4   6  19
   41      2    4   6   7
   42      2    4   2  11
   43      2    5   3  12
   44      2    5   7  20
   45      2    5   7  21
   46      2    5   7   6
   47      2    5   3  13
   48      2    6   4  15
   49      2    6   4  14
   50      2    6   7  20
   51      2    6   7  21
   52      2    7   5  17
   53      2    7   6  18
   54      2    7   6  19
   55      2    7   5  16
   56      2    8   1   9
   57      2    8   1  10
   58      2    9   1  10
   59      2   12   3  13
   60      2   14   4  15
   61      2   16   5  17
   62      2   18   6  19
   63      2   20   7  21
   64      3    1   2   3   5
   65      3    1   2   3  12
   66      3    1   2   4   6
   67      3    1   2   4  15
   68      3    1   2   4  14
   69      3    1   2   3  13
   70      3    2   4   6  18
   71      3    2   4   6  19
   72      3    2   4   6   7
   73      3    2   3   5  16
   74      3    2   3   5  17
   75      3    2   3   5   7
   76      3    3   2   1   8
   77      3    3   2   4  14
   78      3    3   2   4   6
   79      3    3   2   1  10
   80      3    3   2   1   9
   81      3    3   5   7  20
   82      3    3   5   7  21
   83      3    3   5   7   6
   84      3    3   2   4  15
   85      3    4   2   1   9
   86      3    4   2   1   8
   87      3    4   2   1  10
   88      3    4   2   3  12
   89      3    4   6   7  20
   90      3    4   6   7  21
   91      3    4   6   7   5
   92      3    4   2   3  13
   93      3    4   2   3   5
   94      3    5   7   6  18
   95      3    5   7   6  19
   96      3    5   3   2  11
   97      3    6   7   5  16
   98      3    6   7   5  17
   99      3    6   4   2  11
  100      3    7   6   4  15
  101      3    7   6   4  14
  102      3    7   5   3  12
  103      3    7   5   3  13
  104      3    8   1   2  11
  105      3    9   1   2  11
  106      3   10   1   2  11
  107      3   11   2   4  14
  108      3   11   2   3  12
  109      3   11   2   3  13
  110      3   11   2   4  15
  111      3   12   3   5  17
  112      3   12   3   5  16
  113      3   13   3   5  17
  114      3   13   3   5  16
  115      3   14   4   6  19
  116      3   14   4   6  18
  117      3   15   4   6  19
  118      3   15   4   6  18
  119      3   16   5   7  21
  120      3   16   5   7  20
  121      3   17   5   7  21
  122      3   17   5   7  20
  123      3   18   6   7  21
  124      3   18   6   7  20
  125      3   19   6   7  21
  126      3   19   6   7  20

          INDEP./SYM. INTERNAL COORDINATES
          --------------------------------
 CRD  1=  -0.2263 (  5)  0.2263 (  6) -0.1435 ( 10)  0.1434 ( 13)  0.4270 ( 22)
          -0.4270 ( 24)  0.1933 ( 30) -0.1932 ( 31)  0.1442 ( 35) -0.1443 ( 42)
          -0.2106 ( 64) -0.1418 ( 65) -0.2102 ( 66) -0.1415 ( 67) -0.1799 ( 68)
          -0.1802 ( 69)  0.1100 ( 84)  0.1100 ( 88) -0.1261 (106)
 CRD  2=  -0.3113 (  3) -0.2293 (  5) -0.2292 (  6) -0.1590 ( 10) -0.1589 ( 13)
           0.1022 ( 14)  0.1024 ( 17) -0.1634 ( 22)  0.1980 ( 23) -0.1636 ( 24)
          -0.3077 ( 27)  0.1221 ( 36)  0.1555 ( 37) -0.1630 ( 38)  0.1221 ( 39)
          -0.1630 ( 41)  0.1198 ( 54)  0.1199 ( 55)  0.2293 ( 64)  0.1492 ( 65)
          -0.2296 ( 66) -0.1494 ( 67) -0.1300 ( 68)  0.1299 ( 69)
 CRD  3=   0.4796 (  3)  0.1898 ( 10)  0.1901 ( 13)  0.2325 ( 25)  0.2323 ( 26)
           0.1877 ( 30)  0.1876 ( 31)  0.1361 ( 36) -0.1851 ( 37) -0.1237 ( 38)
           0.1363 ( 39) -0.1239 ( 41) -0.1723 ( 43) -0.1724 ( 48) -0.1585 ( 56)
          -0.1106 ( 57) -0.1107 ( 58)  0.1498 ( 64) -0.1500 ( 66) -0.1654 ( 78)
           0.1654 ( 93)
 CRD  4=  -0.1513 (  5) -0.1508 (  6)  0.1341 ( 10)  0.1338 ( 13)  0.1286 ( 23)
          -0.1070 ( 25) -0.1065 ( 26)  0.1396 ( 28) -0.1276 ( 29)  0.1400 ( 32)
          -0.1274 ( 33)  0.1495 ( 37)  0.2247 ( 38)  0.2243 ( 41)  0.1653 ( 44)
          -0.3850 ( 46)  0.1484 ( 47)  0.1479 ( 49)  0.1656 ( 50) -0.1571 ( 52)
          -0.1570 ( 53) -0.1253 ( 63) -0.1344 ( 70) -0.1109 ( 71)  0.1110 ( 73)
           0.1345 ( 74) -0.1151 ( 78) -0.1081 ( 84)  0.1082 ( 88)  0.1155 ( 93)
 CRD  5=  -0.2248 (  5)  0.2254 (  6)  0.2790 ( 14) -0.1024 ( 16) -0.2790 ( 17)
           0.1025 ( 18) -0.2434 ( 25)  0.2434 ( 26) -0.1170 ( 28) -0.1214 ( 30)
           0.1214 ( 31)  0.1168 ( 32) -0.1236 ( 34)  0.1650 ( 38)  0.1238 ( 40)
          -0.1657 ( 41)  0.1936 ( 45)  0.1959 ( 47) -0.1963 ( 49) -0.1940 ( 51)
          -0.1084 ( 81) -0.1493 ( 83) -0.1083 ( 89) -0.1493 ( 91) -0.1154 ( 94)
          -0.1154 ( 98)
 CRD  6=   0.1190 (  3)  0.3979 (  5)  0.3977 (  6)  0.1520 (  8)  0.1522 ( 11)
           0.2841 ( 14)  0.2845 ( 17) -0.1375 ( 25) -0.1378 ( 26)  0.1031 ( 28)
           0.1386 ( 29)  0.1030 ( 32)  0.1387 ( 33)  0.2063 ( 37)  0.1190 ( 54)
           0.1190 ( 55)  0.1027 ( 72) -0.1026 ( 75)  0.1443 (100) -0.1443 (102)
          -0.1061 (111)  0.1062 (118)
 CRD  7=  -0.1145 ( 28) -0.1192 ( 29)  0.1647 ( 30) -0.1642 ( 31)  0.1145 ( 32)
           0.1194 ( 33) -0.1351 ( 35) -0.1148 ( 38)  0.1147 ( 41)  0.1351 ( 42)
          -0.2259 ( 44)  0.2259 ( 50)  0.1742 ( 52) -0.1744 ( 53) -0.1385 ( 64)
          -0.1385 ( 66)  0.1366 ( 70)  0.1488 ( 71)  0.2493 ( 72)  0.1486 ( 73)
           0.1367 ( 74)  0.2494 ( 75)  0.1398 ( 76) -0.1504 ( 78)  0.1399 ( 80)
           0.1399 ( 85)  0.1398 ( 86) -0.1504 ( 93)  0.1082 (100)  0.1010 (101)
           0.1083 (102)  0.1011 (103)
 CRD  8=   0.1045 (  2) -0.1860 ( 10) -0.1870 ( 13) -0.1035 ( 20)  0.5072 ( 27)
           0.1080 ( 28) -0.2288 ( 30) -0.2301 ( 31)  0.1076 ( 32) -0.1186 ( 34)
           0.1555 ( 36)  0.1556 ( 39) -0.1192 ( 40) -0.1422 ( 43) -0.1427 ( 48)
           0.1451 ( 54)  0.1450 ( 55)  0.1679 ( 56) -0.1097 ( 57) -0.1093 ( 58)
           0.1012 ( 76) -0.1151 ( 81) -0.1499 ( 83) -0.1013 ( 85)  0.1152 ( 89)
           0.1500 ( 91)
 CRD  9=  -0.1092 (  3) -0.1112 (  5) -0.1110 (  6)  0.2356 ( 10)  0.2357 ( 13)
           0.4318 ( 14)  0.1196 ( 16)  0.4319 ( 17)  0.1198 ( 18)  0.1779 ( 20)
           0.1016 ( 25)  0.1019 ( 26)  0.1929 ( 27) -0.1209 ( 29) -0.1426 ( 30)
          -0.1433 ( 31) -0.1207 ( 33)  0.1137 ( 56)  0.1007 ( 83) -0.1010 ( 91)
 CRD 10=   0.1619 (  5) -0.1614 (  6)  0.3666 ( 10) -0.3665 ( 13)  0.1765 ( 14)
           0.1026 ( 16) -0.1759 ( 17) -0.1024 ( 18)  0.3213 ( 30) -0.3202 ( 31)
           0.1362 ( 34) -0.1138 ( 38) -0.1362 ( 40)  0.1141 ( 41)  0.1199 ( 45)
          -0.1196 ( 51) -0.1308 ( 57)  0.1313 ( 58)  0.1108 ( 82)  0.1106 ( 90)
 CRD 11=  -0.1219 (  1)  0.1217 (  4)  0.2241 (  5) -0.2236 (  6) -0.2804 ( 10)
           0.2826 ( 13) -0.1306 ( 28)  0.1276 ( 29)  0.3314 ( 30) -0.3319 ( 31)
           0.1302 ( 32) -0.1276 ( 33) -0.1655 ( 34)  0.1052 ( 38)  0.1661 ( 40)
          -0.1056 ( 41) -0.1544 ( 57)  0.1546 ( 58) -0.1027 (111) -0.1033 (118)
 CRD 12=   0.1168 (  3) -0.1102 (  8) -0.3752 ( 10) -0.1104 ( 11) -0.3731 ( 13)
           0.1798 ( 14)  0.1804 ( 17)  0.1063 ( 21) -0.1500 ( 27)  0.1304 ( 30)
           0.1286 ( 31) -0.1003 ( 34) -0.1752 ( 36) -0.1009 ( 37) -0.1752 ( 39)
          -0.1158 ( 43) -0.1672 ( 46) -0.1152 ( 48)  0.1392 ( 52)  0.1398 ( 53)
          -0.1300 ( 56) -0.1230 ( 71)  0.1231 ( 73) -0.1144 ( 95)  0.1144 ( 97)
 CRD 13=   0.1224 ( 10) -0.1217 ( 13) -0.3538 ( 14) -0.1013 ( 15)  0.3531 ( 17)
           0.1015 ( 19) -0.1298 ( 25)  0.1297 ( 26)  0.1074 ( 30) -0.1075 ( 31)
           0.1073 ( 36)  0.1455 ( 38) -0.1068 ( 39) -0.1458 ( 41) -0.1515 ( 44)
          -0.1327 ( 45)  0.1365 ( 47) -0.1365 ( 49)  0.1513 ( 50)  0.1324 ( 51)
          -0.1963 ( 52)  0.1961 ( 53)  0.1274 ( 54) -0.1275 ( 55)  0.1043 ( 78)
          -0.1322 ( 82) -0.1322 ( 90)  0.1043 ( 93) -0.1302 (119)  0.1327 (122)
           0.1326 (124) -0.1301 (125)
 CRD 14=  -0.1214 (  2) -0.4012 (  3)  0.2199 (  5)  0.2022 (  6) -0.2445 ( 23)
          -0.2500 ( 27)  0.1642 ( 28)  0.1520 ( 32) -0.1207 ( 33)  0.1139 ( 35)
          -0.1489 ( 37) -0.2052 ( 43)  0.1038 ( 47) -0.2193 ( 48)  0.1170 ( 49)
           0.1897 ( 57)  0.1798 ( 58) -0.1277 ( 65)  0.1286 ( 67)  0.1143 ( 68)
          -0.1122 ( 69)  0.1661 ( 96) -0.1772 ( 99)
 CRD 15=   0.1305 (  5) -0.1568 (  6)  0.1723 ( 29) -0.1708 ( 30)  0.1801 ( 31)
          -0.1069 ( 32) -0.1586 ( 33)  0.1124 ( 34)  0.1596 ( 35) -0.1757 ( 36)
           0.1673 ( 39) -0.1095 ( 40) -0.1725 ( 42)  0.1245 ( 43) -0.2356 ( 44)
           0.1321 ( 45) -0.1136 ( 47)  0.2323 ( 50) -0.1334 ( 51)  0.1596 ( 52)
          -0.1542 ( 53)  0.1578 ( 54) -0.1553 ( 55) -0.1007 ( 74) -0.1515 ( 76)
          -0.1303 ( 79) -0.1498 ( 80)  0.1035 ( 81) -0.1535 ( 85) -0.1553 ( 86)
          -0.1341 ( 87) -0.1223 ( 94) -0.1015 ( 96) -0.1230 ( 98)  0.1166 (101)
           0.1106 (103)
 CRD 16=  -0.1751 (  2) -0.1125 (  5) -0.1123 (  6) -0.2288 (  7) -0.1705 (  8)
           0.1901 (  9) -0.1709 ( 11)  0.1905 ( 12) -0.1314 ( 21) -0.2464 ( 27)
           0.1710 ( 30)  0.1712 ( 31)  0.1640 ( 36)  0.1642 ( 39) -0.1095 ( 52)
          -0.1098 ( 53)  0.1953 ( 54)  0.1949 ( 55) -0.2017 ( 56) -0.1825 ( 64)
           0.1827 ( 66)  0.1046 ( 68) -0.1043 ( 69) -0.1228 ( 71)  0.1223 ( 73)
          -0.1344 ( 96)  0.1346 ( 99)  0.1097 (101) -0.1094 (103)
 CRD 17=  -0.2109 (  5)  0.2109 (  6)  0.1242 (  8) -0.2237 (  9) -0.1239 ( 11)
           0.2231 ( 12) -0.1108 ( 22)  0.1106 ( 24)  0.2133 ( 28)  0.1195 ( 29)
           0.1842 ( 30) -0.1844 ( 31) -0.2134 ( 32) -0.1194 ( 33) -0.1111 ( 35)
           0.1111 ( 42)  0.1093 ( 43) -0.1095 ( 48)  0.1067 ( 52) -0.1064 ( 53)
           0.1607 ( 54) -0.1611 ( 55) -0.1043 ( 57)  0.1042 ( 58)  0.1098 ( 65)
           0.1095 ( 67) -0.1281 ( 70) -0.1459 ( 71) -0.1462 ( 73) -0.1284 ( 74)
           0.1457 (100)  0.1459 (102)  0.1128 (108)  0.1129 (110)
 CRD 18=   0.2186 ( 16)  0.2186 ( 18) -0.3291 ( 20)  0.1934 ( 21) -0.1739 ( 29)
          -0.1743 ( 33)  0.2175 ( 34) -0.1092 ( 36) -0.1096 ( 39)  0.2178 ( 40)
          -0.1090 ( 45)  0.1457 ( 47)  0.1461 ( 49) -0.1088 ( 51)  0.1282 ( 81)
           0.1451 ( 82) -0.1283 ( 89) -0.1453 ( 90)  0.1604 ( 94)  0.2075 ( 95)
          -0.2074 ( 97) -0.1602 ( 98)  0.1360 (101) -0.1357 (103) -0.1045 (114)
           0.1048 (115)
 CRD 19=   0.1839 (  9) -0.1837 ( 12)  0.3597 ( 15) -0.1954 ( 16)  0.1949 ( 18)
          -0.3590 ( 19)  0.1079 ( 29) -0.1074 ( 33)  0.1769 ( 44) -0.2358 ( 45)
          -0.1768 ( 50)  0.2360 ( 51) -0.1590 ( 81) -0.1929 ( 82) -0.1588 ( 89)
          -0.1925 ( 90)  0.1490 (101)  0.1496 (103)
 CRD 20=   0.2577 (  7) -0.3335 ( 15)  0.1009 ( 16)  0.1013 ( 18) -0.3340 ( 19)
           0.1818 ( 20) -0.4699 ( 21)  0.1075 ( 47)  0.1078 ( 49) -0.1313 ( 52)
          -0.1312 ( 53)  0.1480 ( 83) -0.1481 ( 91) -0.1110 ( 94) -0.1485 ( 95)
           0.1486 ( 97)  0.1110 ( 98)  0.1079 (100)  0.1211 (101) -0.1079 (102)
          -0.1210 (103)
 CRD 21=  -0.2010 (  9)  0.1972 ( 12) -0.1024 ( 28) -0.1125 ( 29)  0.1015 ( 32)
           0.1126 ( 33)  0.1057 ( 34) -0.1049 ( 40) -0.1960 ( 43)  0.1692 ( 47)
           0.1958 ( 48) -0.1700 ( 49)  0.1039 ( 52) -0.1045 ( 53)  0.1382 ( 54)
          -0.1378 ( 55) -0.1429 ( 65) -0.1427 ( 67) -0.1249 ( 68) -0.1248 ( 69)
          -0.1036 ( 71) -0.1036 ( 73) -0.1269 ( 76) -0.1436 ( 77) -0.1308 ( 79)
          -0.1270 ( 80) -0.1613 ( 84) -0.1276 ( 85) -0.1276 ( 86) -0.1314 ( 87)
          -0.1599 ( 88) -0.1417 ( 92) -0.1324 (104) -0.1325 (105) -0.1363 (106)
          -0.1314 (107) -0.1487 (108) -0.1306 (109) -0.1492 (110) -0.1105 (112)
          -0.1191 (114) -0.1192 (115) -0.1109 (117)
 CRD 22=   0.2188 (  1)  0.1671 (  2)  0.2191 (  4) -0.5903 (  7) -0.2664 (  9)
          -0.2697 ( 12) -0.1721 ( 15)  0.1379 ( 16)  0.1374 ( 18) -0.1728 ( 19)
          -0.1090 ( 21) -0.1542 ( 27)  0.1308 ( 57)  0.1306 ( 58) -0.1297 ( 77)
          -0.1121 ( 78)  0.1005 ( 88)  0.1318 ( 92)  0.1120 ( 93)
 CRD 23=   0.4041 (  1)  0.4833 (  2)  0.1731 (  3)  0.4041 (  4)  0.3843 (  7)
          -0.1112 (  8)  0.1398 (  9) -0.1113 ( 11)  0.1399 ( 12) -0.1198 ( 27)
          -0.1631 ( 30) -0.1632 ( 31)  0.1840 ( 56)  0.1466 ( 57)  0.1468 ( 58)
 CRD 24=   0.1987 (  1)  0.1661 (  3)  0.1983 (  4) -0.1635 (  7)  0.2213 (  8)
           0.2211 ( 11) -0.2602 ( 16) -0.2601 ( 18)  0.2078 ( 20)  0.1549 ( 47)
           0.1545 ( 49) -0.1123 ( 65)  0.1119 ( 67)  0.1355 ( 68) -0.1359 ( 69)
           0.1145 ( 70)  0.1053 ( 71) -0.1055 ( 73) -0.1148 ( 74)  0.1524 ( 77)
           0.1288 ( 84) -0.1293 ( 88) -0.1528 ( 92)  0.1622 (107) -0.1390 (108)
          -0.1626 (109)  0.1385 (110) -0.1012 (111) -0.1251 (113) -0.1159 (114)
           0.1158 (115)  0.1250 (116)  0.1010 (118)
 CRD 25=  -0.1157 (  5)  0.1157 (  6) -0.1069 (  8) -0.1495 (  9)  0.1065 ( 11)
           0.1501 ( 12)  0.1193 ( 15) -0.1250 ( 16)  0.1250 ( 18) -0.1191 ( 19)
          -0.1080 ( 34)  0.1236 ( 36) -0.1236 ( 39)  0.1080 ( 40) -0.1305 ( 44)
           0.1087 ( 45)  0.1304 ( 50) -0.1086 ( 51) -0.1911 ( 76) -0.1426 ( 79)
          -0.1909 ( 80) -0.1909 ( 85) -0.1911 ( 86) -0.1426 ( 87)  0.1002 ( 94)
           0.1002 ( 98) -0.2064 (104) -0.2062 (105) -0.1580 (106)  0.1535 (119)
           0.1666 (120)  0.1635 (121)  0.1765 (122)  0.1636 (123)  0.1767 (124)
           0.1537 (125)  0.1668 (126)
 CRD 26=   0.4292 (  1) -0.4262 (  4) -0.2525 (  8)  0.2530 ( 11) -0.2653 ( 57)
           0.2636 ( 58) -0.1340 ( 76)  0.1357 ( 79) -0.1322 ( 80) -0.1321 ( 85)
          -0.1339 ( 86)  0.1358 ( 87) -0.1313 (104) -0.1295 (105)  0.1384 (106)
 CRD 27=   0.3145 (  1) -0.6246 (  2)  0.3223 (  4)  0.3392 ( 56) -0.1686 ( 57)
          -0.1723 ( 58) -0.1902 ( 76)  0.1766 ( 80)  0.1913 ( 85) -0.1754 ( 86)
          -0.1830 (104)  0.1837 (105)
 CRD 28=  -0.3523 (  1)  0.3494 (  4) -0.4369 (  8)  0.4375 ( 11)  0.1147 ( 57)
          -0.1130 ( 58)  0.1135 ( 65)  0.1138 ( 67) -0.1909 ( 79) -0.1910 ( 87)
          -0.2161 (106)  0.1161 (108)  0.1164 (110)
 CRD 29=   0.1088 (  8)  0.1771 (  9) -0.1065 ( 12) -0.1330 ( 15) -0.2177 ( 16)
           0.4497 ( 18)  0.4756 ( 19) -0.2927 ( 20) -0.3456 ( 21)  0.1834 ( 62)
          -0.1273 ( 63)  0.1046 (117)  0.1461 (123) -0.1323 (126)
 CRD 30=   0.1125 ( 11)  0.1577 ( 12)  0.4582 ( 15)  0.4141 ( 16) -0.1295 ( 18)
          -0.3597 ( 20) -0.4248 ( 21)  0.1739 ( 61) -0.1565 ( 63)  0.1381 (120)
          -0.1556 (121)
 CRD 31=  -0.3471 (  8) -0.3214 (  9) -0.3455 ( 11) -0.3192 ( 12)  0.2715 ( 15)
           0.1786 ( 16)  0.1799 ( 18)  0.2727 ( 19)  0.2728 ( 20) -0.1395 ( 59)
          -0.1386 ( 60) -0.1456 (112)  0.1455 (117)
 CRD 32=   0.1465 (  5) -0.1445 (  6) -0.2368 (  8) -0.4210 (  9)  0.2255 ( 11)
           0.4112 ( 12) -0.2122 ( 16)  0.1938 ( 18) -0.1632 ( 59)  0.1584 ( 60)
           0.1035 ( 79)  0.1033 ( 87)  0.1386 (104)  0.1386 (105)  0.1468 (106)
          -0.1053 (111)  0.1010 (114) -0.1003 (118)
 CRD 33=   0.2570 (  8)  0.1906 (  9)  0.2688 ( 11)  0.2127 ( 12)  0.1806 ( 15)
           0.3364 ( 16)  0.3465 ( 18)  0.1837 ( 19)  0.3588 ( 20)  0.2399 ( 21)
           0.1028 ( 59)  0.1113 ( 60)  0.1151 ( 61)  0.1181 ( 62)  0.1337 ( 63)
           0.1111 (111) -0.1165 (118)  0.1005 (119) -0.1215 (122)  0.1235 (124)
          -0.1015 (125)
 CRD 34=  -0.2194 (  8)  0.2862 (  9) -0.2190 ( 11)  0.2875 ( 12)  0.2662 ( 20)
          -0.2435 ( 21)  0.1103 ( 34)  0.1102 ( 40) -0.1240 ( 68)  0.1237 ( 69)
          -0.1451 ( 77)  0.1450 ( 92) -0.1085 (107)  0.1082 (109) -0.1422 (111)
          -0.1204 (112) -0.1369 (113) -0.1151 (114)  0.1154 (115)  0.1372 (116)
           0.1202 (117)  0.1419 (118) -0.1352 (119) -0.1433 (120) -0.1027 (121)
          -0.1108 (122)  0.1024 (123)  0.1105 (124)  0.1348 (125)  0.1430 (126)
 CRD 35=  -0.1598 (  8)  0.1611 (  9)  0.1594 ( 11) -0.1611 ( 12)  0.2487 ( 15)
          -0.2393 ( 16)  0.2392 ( 18) -0.2485 ( 19) -0.1119 ( 70) -0.1359 ( 71)
          -0.1359 ( 73) -0.1120 ( 74) -0.1193 (100) -0.1438 (101) -0.1194 (102)
          -0.1438 (103) -0.1621 (111) -0.1860 (112) -0.1865 (113) -0.2105 (114)
          -0.2104 (115) -0.1864 (116) -0.1859 (117) -0.1618 (118)  0.1100 (119)
           0.1047 (121)  0.1050 (123)  0.1104 (125)
 CRD 36=   0.1190 (  7)  0.1036 (  8)  0.1035 ( 11) -0.1463 ( 15)  0.1553 ( 16)
           0.1551 ( 18) -0.1459 ( 19)  0.1957 ( 20) -0.1891 ( 21) -0.1180 ( 81)
          -0.1646 ( 82) -0.1126 ( 83)  0.1180 ( 89)  0.1645 ( 90)  0.1126 ( 91)
           0.1226 ( 94)  0.1713 ( 95) -0.1713 ( 97) -0.1226 ( 98) -0.1024 (100)
          -0.1311 (101)  0.1025 (102)  0.1312 (103)  0.1055 (111)  0.1265 (112)
           0.1342 (113)  0.1552 (114) -0.1551 (115) -0.1341 (116) -0.1264 (117)
          -0.1054 (118) -0.2232 (119) -0.1767 (120) -0.1745 (121) -0.1280 (122)
           0.1745 (123)  0.1280 (124)  0.2232 (125)  0.1767 (126)
 CRD 37=   0.1939 (  1)  0.2657 (  2) -0.1728 (  3)  0.1939 (  4) -0.2795 (  7)
           0.1545 (  9) -0.1002 ( 10)  0.1547 ( 12) -0.1003 ( 13) -0.1252 ( 23)
           0.2345 ( 27)  0.1920 ( 30)  0.1919 ( 31)  0.1004 ( 35)  0.1004 ( 42)
           0.1185 ( 47)  0.1186 ( 49) -0.1883 ( 56) -0.2366 ( 57) -0.2365 ( 58)
           0.1362 ( 77) -0.1361 ( 92)  0.1655 ( 96) -0.1654 ( 99)  0.1950 (108)
          -0.1947 (110)
 CRD 38=   0.1199 (  1)  0.1197 (  4)  0.2915 (  7)  0.1347 (  8) -0.2083 (  9)
           0.1349 ( 11) -0.2083 ( 12)  0.2151 ( 15) -0.1705 ( 16) -0.1706 ( 18)
           0.2152 ( 19) -0.2166 ( 21) -0.1611 ( 23) -0.1025 ( 29) -0.1027 ( 33)
          -0.1502 ( 56)  0.1155 ( 63) -0.1094 ( 84)  0.1092 ( 88)  0.1475 (101)
          -0.1474 (103) -0.1623 (107)  0.1807 (108)  0.1624 (109) -0.1807 (110)
          -0.1018 (113)  0.1018 (116)
 CRD 39=   0.1664 (  3)  0.1519 ( 10)  0.1507 ( 13) -0.1436 ( 14) -0.1466 ( 17)
          -0.2772 ( 20)  0.1326 ( 21) -0.1808 ( 34) -0.1609 ( 36) -0.1617 ( 39)
          -0.1803 ( 40)  0.1340 ( 52)  0.1327 ( 53)  0.1188 ( 54)  0.1194 ( 55)
           0.1363 ( 63) -0.1637 ( 81) -0.1159 ( 84)  0.1157 ( 88)  0.1654 ( 89)
           0.1080 ( 94) -0.1139 ( 95)  0.1142 ( 97) -0.1063 ( 98)  0.1141 (108)
          -0.1141 (110) -0.1055 (111)  0.1020 (118) -0.1320 (121) -0.2566 (122)
           0.1321 (123)  0.2600 (124)
 CRD 40=  -0.1097 (  5)  0.1097 (  6)  0.1728 ( 14)  0.2239 ( 16) -0.1705 ( 17)
          -0.2241 ( 18) -0.1025 ( 28)  0.1026 ( 32) -0.1886 ( 44) -0.1996 ( 45)
           0.1898 ( 50)  0.1995 ( 51)  0.1097 ( 52) -0.1118 ( 53) -0.1409 ( 61)
           0.1402 ( 62) -0.1721 ( 70) -0.1710 ( 74)  0.1150 ( 81) -0.1130 ( 82)
           0.1126 ( 89) -0.1135 ( 90)  0.1072 ( 94)  0.1088 ( 98) -0.2405 (111)
          -0.1045 (113) -0.1058 (116) -0.2421 (118)  0.1493 (120)  0.2208 (122)
           0.2169 (124)  0.1486 (126)
 CRD 41=   0.1235 (  5) -0.1242 (  6)  0.1160 (  8) -0.1154 ( 11) -0.1263 ( 14)
           0.1258 ( 17) -0.1691 ( 29)  0.1693 ( 33) -0.1703 ( 34) -0.1500 ( 36)
           0.1497 ( 39)  0.1699 ( 40)  0.1386 ( 43) -0.1197 ( 45)  0.1534 ( 47)
          -0.1388 ( 48) -0.1539 ( 49)  0.1198 ( 51)  0.1262 ( 52) -0.1258 ( 53)
          -0.2035 ( 54)  0.2039 ( 55)  0.1497 ( 65)  0.1497 ( 67)  0.1256 ( 71)
           0.1260 ( 73)  0.1217 ( 84)  0.1218 ( 88) -0.1042 ( 94)  0.1002 ( 95)
           0.1004 ( 97) -0.1042 ( 98) -0.1041 (101) -0.1042 (103) -0.1032 (107)
           0.1120 (108) -0.1030 (109)  0.1121 (110)  0.1262 (112) -0.1495 (113)
          -0.1490 (116)  0.1263 (117)  0.1317 (120) -0.1740 (121) -0.1739 (123)
           0.1320 (126)
 CRD 42=   0.1616 (  1)  0.1075 (  2) -0.4063 (  3)  0.1611 (  4) -0.1730 (  5)
          -0.1727 (  6)  0.1656 (  7)  0.2298 ( 10)  0.2301 ( 13)  0.1015 ( 16)
           0.1011 ( 18)  0.1309 ( 27)  0.1305 ( 28)  0.1546 ( 30)  0.1547 ( 31)
           0.1308 ( 32) -0.1361 ( 47) -0.1356 ( 49) -0.1832 ( 56) -0.1437 ( 57)
          -0.1441 ( 58) -0.1888 (111)  0.1889 (118)
 CRD 43=  -0.1708 (  1)  0.1711 (  4) -0.1702 (  8)  0.1702 ( 11)  0.1955 ( 14)
          -0.1954 ( 17)  0.1046 ( 28) -0.1046 ( 32)  0.1664 ( 35) -0.1663 ( 42)
          -0.1275 ( 57)  0.1276 ( 58)  0.1151 ( 79)  0.1150 ( 87) -0.1015 ( 96)
          -0.1017 ( 99)  0.1359 (100)  0.1359 (102)  0.1938 (104)  0.1935 (105)
           0.3508 (106) -0.1707 (107) -0.1757 (108) -0.1707 (109) -0.1758 (110)
           0.1287 (111)  0.1044 (112)  0.1045 (117)  0.1286 (118)
 CRD 44=  -0.1212 (  1)  0.2909 (  2) -0.1209 (  4) -0.2434 (  7)  0.1718 ( 15)
           0.1720 ( 19) -0.2152 ( 21) -0.1073 ( 37)  0.1892 ( 56) -0.1221 ( 57)
          -0.1219 ( 58)  0.1380 ( 63) -0.1835 ( 71)  0.1834 ( 73) -0.2150 ( 76)
           0.1567 ( 82)  0.2150 ( 85) -0.1569 ( 90) -0.1457 (104)  0.1455 (105)
           0.1326 (112)  0.1660 (114) -0.1661 (115) -0.1327 (117)
 CRD 45=   0.2302 (  1) -0.2303 (  4)  0.2444 (  5) -0.2444 (  6) -0.2104 ( 10)
           0.2103 ( 13)  0.2406 ( 14) -0.2404 ( 17)  0.1280 ( 28) -0.1283 ( 32)
          -0.1138 ( 35)  0.1137 ( 42)  0.1011 ( 43) -0.1010 ( 48)  0.1724 ( 57)
          -0.1723 ( 58)  0.1166 ( 76) -0.1455 ( 79)  0.1166 ( 80)  0.1165 ( 85)
           0.1165 ( 86) -0.1456 ( 87) -0.2573 (106)  0.1051 (111) -0.1139 (114)
          -0.1136 (115)  0.1046 (118)
 CRD 46=  -0.2179 (  3)  0.1483 (  5)  0.1486 (  6) -0.1660 (  8)  0.1332 ( 10)
          -0.1658 ( 11)  0.1330 ( 13)  0.1478 ( 14) -0.1676 ( 16)  0.1480 ( 17)
          -0.1675 ( 18) -0.1831 ( 20)  0.1145 ( 23)  0.1572 ( 59)  0.1571 ( 60)
           0.1616 ( 61)  0.1616 ( 62)  0.1103 ( 63) -0.1939 (108)  0.1936 (110)
           0.2154 (111) -0.1014 (114)  0.1016 (115) -0.2152 (118) -0.1047 (121)
          -0.2006 (122)  0.1046 (123)  0.2005 (124)
 CRD 47=  -0.2072 (  9)  0.2070 ( 12)  0.2199 ( 15) -0.2199 ( 19)  0.1060 ( 34)
          -0.1058 ( 40) -0.1268 ( 44)  0.1268 ( 50) -0.1112 ( 52)  0.1112 ( 53)
           0.1098 ( 59) -0.1096 ( 60) -0.1389 ( 61)  0.1388 ( 62)  0.1207 ( 68)
           0.1208 ( 69)  0.1391 ( 71)  0.1391 ( 73)  0.1510 ( 77)  0.1510 ( 92)
          -0.2152 ( 95) -0.2153 ( 97) -0.1751 (101) -0.1751 (103)  0.1255 (107)
           0.1255 (109) -0.2242 (119) -0.1410 (120) -0.2242 (125) -0.1409 (126)
 CRD 48=  -0.2377 (  2)  0.1248 (  3) -0.1373 (  5) -0.1370 (  6)  0.1375 (  9)
           0.1377 ( 12)  0.1161 ( 14)  0.1163 ( 17) -0.2076 ( 21)  0.1005 ( 27)
           0.1227 ( 29)  0.1225 ( 33) -0.1040 ( 43) -0.1036 ( 48) -0.1512 ( 56)
           0.2052 ( 63)  0.1136 ( 64) -0.1133 ( 66)  0.1448 ( 76) -0.1448 ( 80)
           0.1977 ( 82) -0.1444 ( 85)  0.1453 ( 86) -0.1977 ( 90)  0.1049 ( 96)
          -0.1048 ( 99) -0.1419 (101)  0.1418 (103)  0.1452 (104) -0.1444 (105)
           0.1626 (113)  0.1449 (114) -0.1447 (115) -0.1627 (116)  0.1393 (119)
           0.1245 (121) -0.1249 (123) -0.1393 (125)
 CRD 49=  -0.1675 (  1)  0.1679 (  4)  0.1605 (  8) -0.2692 ( 10) -0.1608 ( 11)
           0.2696 ( 13)  0.1080 ( 43) -0.1083 ( 48) -0.1252 ( 57)  0.1257 ( 58)
          -0.1813 ( 59)  0.1812 ( 60) -0.1507 ( 68) -0.1505 ( 69) -0.1400 ( 77)
           0.1596 ( 79)  0.1083 ( 84)  0.1595 ( 87)  0.1079 ( 88) -0.1402 ( 92)
          -0.1537 (104) -0.1544 (105) -0.1025 (107)  0.1460 (108) -0.1021 (109)
           0.1459 (110) -0.1324 (112) -0.1322 (117)  0.1187 (121)  0.1184 (123)
 CRD 50=  -0.1006 (  1)  0.1615 (  2)  0.1445 (  3) -0.1001 (  4) -0.1614 (  5)
          -0.1619 (  6)  0.1174 (  8)  0.1176 ( 11)  0.1900 ( 14)  0.1897 ( 17)
          -0.1656 ( 20) -0.1637 ( 23) -0.1237 ( 27) -0.1221 ( 47) -0.1220 ( 49)
          -0.1032 ( 52) -0.1031 ( 53)  0.1449 ( 56)  0.1046 ( 63) -0.1403 ( 64)
           0.1403 ( 66) -0.1398 ( 70)  0.1399 ( 74) -0.1015 ( 76)  0.1137 ( 78)
           0.1359 ( 80)  0.1013 ( 85) -0.1361 ( 86) -0.1137 ( 93)  0.1187 (100)
          -0.1186 (102) -0.1189 (104)  0.1185 (105) -0.1188 (107)  0.1120 (108)
           0.1192 (109) -0.1120 (110) -0.1953 (112)  0.1341 (113) -0.1339 (116)
           0.1952 (117) -0.1140 (120) -0.1025 (122)  0.1024 (124)  0.1143 (126)
 CRD 51=  -0.1420 (  1)  0.1423 (  4)  0.1021 (  5) -0.1018 (  6)  0.1350 ( 10)
          -0.1349 ( 13)  0.2059 ( 14) -0.1418 ( 16) -0.2062 ( 17)  0.1419 ( 18)
           0.1201 ( 22) -0.1202 ( 24) -0.1127 ( 30)  0.1125 ( 31) -0.1168 ( 38)
           0.1171 ( 41) -0.1197 ( 45)  0.1197 ( 51) -0.1053 ( 57)  0.1055 ( 58)
           0.1794 ( 61) -0.1796 ( 62) -0.1019 ( 64) -0.1023 ( 66)  0.1129 ( 70)
           0.1125 ( 74)  0.1743 ( 79)  0.1743 ( 87)  0.1112 ( 95)  0.1111 ( 97)
          -0.1997 (104) -0.2002 (105)  0.1013 (107)  0.1014 (109) -0.1220 (112)
          -0.1090 (114) -0.1091 (115)  0.1002 (116) -0.1225 (117)  0.1456 (120)
          -0.1564 (121) -0.1565 (123)  0.1455 (126)
 CRD 52=  -0.2162 (  3)  0.1323 (  8)  0.1322 ( 11)  0.1007 ( 20)  0.1034 ( 22)
           0.1193 ( 23)  0.1032 ( 24)  0.1655 ( 25)  0.1655 ( 26) -0.1413 ( 37)
          -0.1112 ( 38) -0.1111 ( 41) -0.1537 ( 59) -0.1536 ( 60)  0.1436 ( 65)
          -0.1437 ( 67) -0.1061 ( 70)  0.1063 ( 74) -0.2475 ( 84)  0.2476 ( 88)
           0.1260 ( 94) -0.1735 ( 96) -0.1261 ( 98)  0.1733 ( 99)  0.1078 (100)
          -0.1079 (102)  0.2352 (107) -0.2353 (109) -0.1503 (112)  0.1408 (113)
          -0.1408 (116)  0.1501 (117)  0.1153 (120) -0.1152 (126)
 CRD 53=   0.1245 (  3)  0.2101 ( 10)  0.2099 ( 13) -0.1082 ( 14) -0.1358 ( 16)
          -0.1080 ( 17) -0.1359 ( 18)  0.1974 ( 20) -0.1161 ( 38) -0.1163 ( 41)
           0.1957 ( 46)  0.1211 ( 54)  0.1211 ( 55)  0.1071 ( 61)  0.1072 ( 62)
          -0.1860 ( 63)  0.2084 ( 81)  0.1240 ( 84) -0.1242 ( 88) -0.2085 ( 89)
           0.2113 ( 94) -0.2111 ( 98) -0.1282 (107)  0.1286 (109)  0.2212 (120)
          -0.2162 (121)  0.2164 (123) -0.2212 (126)
 CRD 54=   0.1935 (  5) -0.1933 (  6) -0.1226 (  9)  0.1227 ( 12) -0.1088 ( 14)
          -0.1110 ( 15)  0.1533 ( 16)  0.1090 ( 17) -0.1531 ( 18)  0.1108 ( 19)
          -0.1358 ( 25)  0.1357 ( 26) -0.1288 ( 34)  0.1287 ( 40)  0.1329 ( 59)
          -0.1328 ( 60)  0.1145 ( 72)  0.1146 ( 75) -0.1692 ( 81) -0.1123 ( 83)
          -0.1688 ( 89) -0.1121 ( 91)  0.1936 (100)  0.1940 (102) -0.1062 (104)
          -0.1064 (105)  0.1156 (107)  0.1155 (109) -0.2269 (113) -0.1671 (114)
          -0.1669 (115) -0.2268 (116)  0.1017 (119)  0.1265 (121)  0.1261 (123)
           0.1013 (125)
 CRD 55=   0.1357 (  5) -0.1497 (  6) -0.1560 (  8)  0.1311 (  9)  0.1341 ( 11)
          -0.1199 ( 12) -0.1303 ( 19)  0.1032 ( 29) -0.1036 ( 32) -0.1469 ( 35)
           0.1323 ( 42)  0.1092 ( 47)  0.1022 ( 48) -0.1017 ( 49) -0.1713 ( 65)
          -0.1245 ( 67) -0.1075 ( 68) -0.1495 ( 69) -0.1368 ( 70) -0.1649 ( 72)
          -0.1705 ( 74) -0.1516 ( 75)  0.1962 ( 79)  0.1650 ( 87)  0.1179 ( 93)
           0.2002 ( 96)  0.1841 ( 99) -0.1765 (104) -0.1485 (105)  0.1796 (112)
           0.1510 (114)  0.1690 (115)  0.1812 (117) -0.1014 (125)
 CRD 56=  -0.1081 (  2) -0.1507 (  7)  0.1422 ( 15)  0.1061 ( 19)  0.1990 ( 21)
           0.1092 ( 23)  0.1050 ( 27) -0.1159 ( 44)  0.1084 ( 45) -0.1079 ( 50)
           0.1019 ( 51) -0.1285 ( 52) -0.1273 ( 53)  0.1173 ( 65) -0.1662 ( 67)
          -0.1476 ( 68)  0.1051 ( 69) -0.1262 ( 70) -0.1168 ( 71)  0.1111 ( 73)
          -0.1695 ( 80)  0.2107 ( 83)  0.1895 ( 86)  0.1240 ( 87) -0.1975 ( 91)
          -0.1321 ( 94)  0.1275 ( 98)  0.1561 (100)  0.1021 (101) -0.1431 (102)
          -0.1120 (105) -0.2364 (119) -0.1364 (120) -0.1312 (121)  0.1303 (123)
           0.2153 (125)  0.1162 (126)
 CRD 57=  -0.1652 (  7) -0.1327 (  9) -0.1331 ( 12) -0.1040 ( 15) -0.1042 ( 19)
          -0.1061 ( 37)  0.1223 ( 65) -0.1230 ( 67) -0.1864 ( 68)  0.1858 ( 69)
          -0.1168 ( 70) -0.1977 ( 72)  0.1164 ( 74)  0.1971 ( 75)  0.2109 ( 78)
          -0.1144 ( 79) -0.1736 ( 80) -0.1626 ( 83)  0.1739 ( 86)  0.1149 ( 87)
           0.1628 ( 91) -0.2105 ( 93) -0.1184 ( 96)  0.1189 ( 99) -0.1569 (114)
           0.1573 (115)  0.1291 (119) -0.1292 (125)

 THE DETERMINANT OF THE G MATRIX IS 10**(   -13)


                     --------------------
                     INTERNAL COORDINATES
                     --------------------

                 - - ATOMS - -         COORDINATE      COORDINATE
 NO.   TYPE    I  J  K  L  M  N        (BOHR,RAD)       (ANG,DEG)
 ----------------------------------------------------------------
   1 STRETCH   1  9                     2.0742648       1.0976537
   2 STRETCH   1 10                     2.0760014       1.0985727
   3 STRETCH   1  2                     2.8691139       1.5182698
   4 STRETCH   1  8                     2.0743808       1.0977151
   5 STRETCH   2  3                     2.8887382       1.5286545
   6 STRETCH   2  4                     2.8883089       1.5284274
   7 STRETCH   2 11                     2.1132924       1.1183062
   8 STRETCH   3 13                     2.0926865       1.1074021
   9 STRETCH   3 12                     2.0949006       1.1085737
  10 STRETCH   3  5                     2.8735346       1.5206092
  11 STRETCH   4 14                     2.0927026       1.1074106
  12 STRETCH   4 15                     2.0955605       1.1089229
  13 STRETCH   4  6                     2.8731148       1.5203870
  14 STRETCH   5  7                     2.8735607       1.5206230
  15 STRETCH   5 17                     2.0943554       1.1082852
  16 STRETCH   5 16                     2.0918268       1.1069472
  17 STRETCH   6  7                     2.8739491       1.5208285
  18 STRETCH   6 19                     2.0922742       1.1071839
  19 STRETCH   6 18                     2.0946995       1.1084673
  20 STRETCH   7 21                     2.0916665       1.1068623
  21 STRETCH   7 20                     2.0940888       1.1081441
  22 BEND      1  2  4                  1.9324908     110.7235681
  23 BEND      1  2 11                  1.8960438     108.6353070
  24 BEND      1  2  3                  1.9309697     110.6364119
  25 BEND      2  3  5                  1.9370543     110.9850338
  26 BEND      2  4  6                  1.9376099     111.0168719
  27 BEND      2  1 10                  1.9501141     111.7333052
  28 BEND      2  4 15                  1.9169097     109.8308368
  29 BEND      2  3 13                  1.9181691     109.9029962
  30 BEND      2  1  8                  1.9421731     111.2783243
  31 BEND      2  1  9                  1.9424731     111.2955124
  32 BEND      2  3 12                  1.9169284     109.8319080
  33 BEND      2  4 14                  1.9181035     109.8992380
  34 BEND      3  5 16                  1.9194548     109.9766608
  35 BEND      3  2 11                  1.8920791     108.4081474
  36 BEND      3  5 17                  1.9184262     109.9177242
  37 BEND      3  2  4                  1.9202399     110.0216420
  38 BEND      3  5  7                  1.9379616     111.0370212
  39 BEND      4  6 18                  1.9183252     109.9119357
  40 BEND      4  6 19                  1.9190318     109.9524220
  41 BEND      4  6  7                  1.9381263     111.0464597
  42 BEND      4  2 11                  1.8909355     108.3426224
  43 BEND      5  3 12                  1.9204613     110.0343273
  44 BEND      5  7 20                  1.9175484     109.8674294
  45 BEND      5  7 21                  1.9214968     110.0936558
  46 BEND      5  7  6                  1.9362110     110.9367181
  47 BEND      5  3 13                  1.9215099     110.0944093
  48 BEND      6  4 15                  1.9205455     110.0391528
  49 BEND      6  4 14                  1.9215579     110.0971595
  50 BEND      6  7 20                  1.9172528     109.8504941
  51 BEND      6  7 21                  1.9214734     110.0923179
  52 BEND      7  5 17                  1.9175465     109.8673193
  53 BEND      7  6 18                  1.9179403     109.8898862
  54 BEND      7  6 19                  1.9211960     110.0764197
  55 BEND      7  5 16                  1.9209669     110.0632954
  56 BEND      8  1  9                  1.8771325     107.5517714
  57 BEND      8  1 10                  1.8741111     107.3786576
  58 BEND      9  1 10                  1.8741619     107.3815681
  59 BEND     12  3 13                  1.8477232     105.8667398
  60 BEND     14  4 15                  1.8470621     105.8288613
  61 BEND     16  5 17                  1.8474307     105.8499808
  62 BEND     18  6 19                  1.8471469     105.8337201
  63 BEND     20  7 21                  1.8479152     105.8777408
  64 TORSION   1  2  3  5              -3.1320838    -179.4551846
  65 TORSION   1  2  3 12              -1.0045896     -57.5587416
  66 TORSION   1  2  4  6               3.1307923     179.3811855
  67 TORSION   1  2  4 15               1.0028356      57.4582499
  68 TORSION   1  2  4 14              -1.0223492     -58.5762968
  69 TORSION   1  2  3 13               1.0214445      58.5244578
  70 TORSION   2  4  6 18               1.1371714      65.1551221
  71 TORSION   2  4  6 19              -3.1193665    -178.7265341
  72 TORSION   2  4  6  7              -0.9888028     -56.6542249
  73 TORSION   2  3  5 16               3.1203268     178.7815556
  74 TORSION   2  3  5 17              -1.1355620     -65.0629089
  75 TORSION   2  3  5  7               0.9898745      56.7156298
  76 TORSION   3  2  1  8              -3.1225270    -178.9076169
  77 TORSION   3  2  4 14               3.1208836     178.8134607
  78 TORSION   3  2  4  6               0.9908399      56.7709430
  79 TORSION   3  2  1 10               1.0659084      61.0720504
  80 TORSION   3  2  1  9              -1.0291120     -58.9637736
  81 TORSION   3  5  7 20               1.1462654      65.6761697
  82 TORSION   3  5  7 21              -3.1083587    -178.0958365
  83 TORSION   3  5  7  6              -0.9770494     -55.9808047
  84 TORSION   3  2  4 15              -1.1371168     -65.1519925
  85 TORSION   4  2  1  9               3.1203774     178.7844566
  86 TORSION   4  2  1  8               1.0269624      58.8406133
  87 TORSION   4  2  1 10              -1.0677875     -61.1797195
  88 TORSION   4  2  3 12               1.1362595      65.1028723
  89 TORSION   4  6  7 20              -1.1470605     -65.7217233
  90 TORSION   4  6  7 21               3.1077504     178.0609812
  91 TORSION   4  6  7  5               0.9764274      55.9451696
  92 TORSION   4  2  3 13              -3.1208918    -178.8139284
  93 TORSION   4  2  3  5              -0.9912348     -56.7935707
  94 TORSION   5  7  6 18              -1.1497713     -65.8770434
  95 TORSION   5  7  6 19               3.1057313     177.9452983
  96 TORSION   5  3  2 11               1.0737085      61.5189667
  97 TORSION   6  7  5 16              -3.1066214    -177.9962930
  98 TORSION   6  7  5 17               1.1489006      65.8271580
  99 TORSION   6  4  2 11              -1.0748080     -61.5819629
 100 TORSION   7  6  4 15               1.1370323      65.1471503
 101 TORSION   7  6  4 14              -3.1168334    -178.5814017
 102 TORSION   7  5  3 12              -1.1355564     -65.0625916
 103 TORSION   7  5  3 13               3.1175830     178.6243484
 104 TORSION   8  1  2 11              -1.0475345     -60.0193034
 105 TORSION   9  1  2 11               1.0458805      59.9245399
 106 TORSION  10  1  2 11               3.1409009     179.9603639
 107 TORSION  11  2  4 14               1.0552357      60.4605548
 108 TORSION  11  2  3 12              -3.0819825    -176.5845904
 109 TORSION  11  2  3 13              -1.0559485     -60.5013910
 110 TORSION  11  2  4 15               3.0804206     176.4951015
 111 TORSION  12  3  5 17               3.0221924     173.1588698
 112 TORSION  12  3  5 16               0.9948959      57.0033342
 113 TORSION  13  3  5 17               0.9921465      56.8458098
 114 TORSION  13  3  5 16              -1.0351500     -59.3097258
 115 TORSION  14  4  6 19               1.0357881      59.3462891
 116 TORSION  14  4  6 18              -0.9908593     -56.7720547
 117 TORSION  15  4  6 19              -0.9935315     -56.9251589
 118 TORSION  15  4  6 18              -3.0201789    -173.0435027
 119 TORSION  16  5  7 21               1.0452546      59.8886752
 120 TORSION  16  5  7 20              -0.9833066     -56.3393186
 121 TORSION  17  5  7 21              -0.9824087     -56.2878738
 122 TORSION  17  5  7 20              -3.0109699    -172.5158676
 123 TORSION  18  6  7 21               0.9815517      56.2387681
 124 TORSION  18  6  7 20               3.0099261     172.4560636
 125 TORSION  19  6  7 21              -1.0461310     -59.9388901
 126 TORSION  19  6  7 20               0.9822435      56.2784053

     ------------------------------------------
     THE POINT GROUP IS C1 , NAXIS= 1, ORDER= 1
     ------------------------------------------

     DIMENSIONS OF THE SYMMETRY SUBSPACES ARE
 A   =  217

 ..... DONE SETTING UP THE RUN .....
 STEP CPU TIME =     0.01 TOTAL CPU TIME =        0.0 (    0.0 MIN)
 TOTAL WALL CLOCK TIME=        0.0 SECONDS, CPU UTILIZATION IS  50.00%


          -----------------------------
          STATIONARY POINT LOCATION RUN
          -----------------------------

 OBTAINING INITIAL HESSIAN, HESS=GUESS   
 DIAGONAL GUESS HESSIAN IN INTERNAL COORDS IS
     1  0.3413     2  0.3406     3  0.3756     4  0.3412     5  0.3681
     6  0.3683     7  0.3278     8  0.3348     9  0.3341    10  0.3739
    11  0.3348    12  0.3339    13  0.3741    14  0.3739    15  0.3343
    16  0.3351    17  0.3738    18  0.3350    19  0.3342    20  0.3352
    21  0.3344    22  0.2494    23  0.2231    24  0.2494    25  0.2492
    26  0.2493    27  0.2243    28  0.2230    29  0.2231    30  0.2243
    31  0.2243    32  0.2231    33  0.2231    34  0.2236    35  0.2225
    36  0.2235    37  0.2487    38  0.2498    39  0.2236    40  0.2236
    41  0.2498    42  0.2225    43  0.2235    44  0.2236    45  0.2236
    46  0.2498    47  0.2236    48  0.2235    49  0.2236    50  0.2235
    51  0.2236    52  0.2235    53  0.2235    54  0.2236    55  0.2236
    56  0.2026    57  0.2026    58  0.2026    59  0.2016    60  0.2016
    61  0.2016    62  0.2016    63  0.2017    64  0.2500    65  0.2500
    66  0.2500    67  0.2500    68  0.2500    69  0.2500    70  0.2500
    71  0.2500    72  0.2500    73  0.2500    74  0.2500    75  0.2500
    76  0.2500    77  0.2500    78  0.2500    79  0.2500    80  0.2500
    81  0.2500    82  0.2500    83  0.2500    84  0.2500    85  0.2500
    86  0.2500    87  0.2500    88  0.2500    89  0.2500    90  0.2500
    91  0.2500    92  0.2500    93  0.2500    94  0.2500    95  0.2500
    96  0.2500    97  0.2500    98  0.2500    99  0.2500   100  0.2500
   101  0.2500   102  0.2500   103  0.2500   104  0.2500   105  0.2500
   106  0.2500   107  0.2500   108  0.2500   109  0.2500   110  0.2500
   111  0.2500   112  0.2500   113  0.2500   114  0.2500   115  0.2500
   116  0.2500   117  0.2500   118  0.2500   119  0.2500   120  0.2500
   121  0.2500   122  0.2500   123  0.2500   124  0.2500   125  0.2500
   126  0.2500
 TRANSFORMING HESSIAN TO SYMMETRY COORDINATES

          PARAMETERS CONTROLLING GEOMETRY SEARCH ARE
          METHOD =QA                  UPHESS =BFGS    
          NNEG   =         0          NFRZ   =         3
          NSTEP  =        50          IFOLOW =         1
          HESS   =GUESS               RESTAR =         F
          IHREP  =         0          HSSEND =         F
          NPRT   =         0          NPUN   =         0
          OPTTOL = 5.000E-04          RMIN   = 1.500E-03
          RMAX   = 1.000E-01          RLIM   = 7.000E-02
          DXMAX  = 3.000E-01          PURIFY =         F
          MOVIE  =         F          TRUPD  =         T
          TRMAX  = 5.000E-01          TRMIN  = 5.000E-02
          ITBMAT =         5          STPT   =         F
          STSTEP = 1.000E-02          PROJCT=          F
          FROZEN COORD(S)=   1   2   3


      ***** EQUILIBRIUM GEOMETRY LOCATED *****
            (SUBJECT TO   3 CONSTRAINT(S))
 COORDINATES OF ALL ATOMS ARE (ANGS)
   ATOM   CHARGE       X              Y              Z
 ------------------------------------------------------------
 C           6.0   5.2241120172   2.1566017952   1.0570878578
 C           6.0   3.8923263392   2.2380359751   1.7909643769
 C           6.0   3.1649104544   0.8899973432   1.7659664420
 C           6.0   3.0046769358   3.3410805436   1.2057125422
 C           6.0   1.8198511386   0.9611022254   2.4879741127
 C           6.0   1.6584731175   3.4231565669   1.9246757276
 C           6.0   0.9368400854   2.0724046957   1.9129940688
 H           1.0   5.7497216879   3.1062624653   1.0996622594
 H           1.0   5.8612988074   1.3926999093   1.4934755203
 H           1.0   5.0605910807   1.9055588062   0.0113623702
 H           1.0   4.0850808250   2.4893931339   2.8350909902
 H           1.0   3.0069237190   0.5924705199   0.7283258154
 H           1.0   3.7934410531   0.1246261617   2.2169464665
 H           1.0   3.5203579423   4.2976134711   1.2637599200
 H           1.0   2.8408622884   3.1388583795   0.1462530639
 H           1.0   1.3114855330   0.0021872659   2.4266461746
 H           1.0   1.9981013654   1.1556392405   3.5453318656
 H           1.0   1.8287761532   3.7298614971   2.9564510035
 H           1.0   1.0369939874   4.1893565705   1.4681183291
 H           1.0   0.6699816283   1.8201019882   0.8867501972
 H           1.0   0.0081528727   2.1397002734   2.4733196841


                     --------------------
                     INTERNAL COORDINATES
                     --------------------

                 - - ATOMS - -         COORDINATE      COORDINATE
 NO.   TYPE    I  J  K  L  M  N        (BOHR,RAD)       (ANG,DEG)
 ----------------------------------------------------------------
   1 STRETCH   1  9                     2.0527568       1.0862722
   2 STRETCH   1 10                     2.0556393       1.0877975
   3 STRETCH   1  2                     2.8776372       1.5227801
   4 STRETCH   1  8                     2.0527100       1.0862474
   5 STRETCH   2  3                     2.8950250       1.5319814
   6 STRETCH   2  4                     2.8951370       1.5320406
   7 STRETCH   2 11                     2.0619111       1.0911164
   8 STRETCH   3 13                     2.0564411       1.0882218
   9 STRETCH   3 12                     2.0616037       1.0909538
  10 STRETCH   3  5                     2.8879660       1.5282459
  11 STRETCH   4 14                     2.0564627       1.0882333
  12 STRETCH   4 15                     2.0616065       1.0909553
  13 STRETCH   4  6                     2.8881970       1.5283682
  14 STRETCH   5  7                     2.8939991       1.5314385
  15 STRETCH   5 17                     2.0593880       1.0897813
  16 STRETCH   5 16                     2.0542587       1.0870670
  17 STRETCH   6  7                     2.8940716       1.5314768
  18 STRETCH   6 19                     2.0542837       1.0870802
  19 STRETCH   6 18                     2.0593950       1.0897850
  20 STRETCH   7 21                     2.0535970       1.0867168
  21 STRETCH   7 20                     2.0597550       1.0899755
  22 BEND      1  2  4                  1.9402663     111.1690692
  23 BEND      1  2 11                  1.8954662     108.6022121
  24 BEND      1  2  3                  1.9394349     111.1214354
  25 BEND      2  3  5                  1.9490038     111.6696927
  26 BEND      2  4  6                  1.9490483     111.6722392
  27 BEND      2  1 10                  1.9221461     110.1308617
  28 BEND      2  4 15                  1.9013016     108.9365600
  29 BEND      2  3 13                  1.9154480     109.7470872
  30 BEND      2  1  8                  1.9364337     110.9494774
  31 BEND      2  1  9                  1.9358612     110.9166786
  32 BEND      2  3 12                  1.9010232     108.9206068
  33 BEND      2  4 14                  1.9154998     109.7500543
  34 BEND      3  5 16                  1.9218609     110.1145190
  35 BEND      3  2 11                  1.8777988     107.5899454
  36 BEND      3  5 17                  1.8994112     108.8282468
  37 BEND      3  2  4                  1.9307136     110.6217432
  38 BEND      3  5  7                  1.9432040     111.3373903
  39 BEND      4  6 18                  1.8995243     108.8347282
  40 BEND      4  6 19                  1.9217997     110.1110110
  41 BEND      4  6  7                  1.9434478     111.3513554
  42 BEND      4  2 11                  1.8776387     107.5807726
  43 BEND      5  3 12                  1.9119632     109.5474207
  44 BEND      5  7 20                  1.9035977     109.0681114
  45 BEND      5  7 21                  1.9220673     110.1263459
  46 BEND      5  7  6                  1.9449375     111.4367092
  47 BEND      5  3 13                  1.9233312     110.1987615
  48 BEND      6  4 15                  1.9118983     109.5437038
  49 BEND      6  4 14                  1.9231364     110.1875992
  50 BEND      6  7 20                  1.9036120     109.0689359
  51 BEND      6  7 21                  1.9221064     110.1285858
  52 BEND      7  5 17                  1.9060967     109.2112945
  53 BEND      7  6 18                  1.9061276     109.2130655
  54 BEND      7  6 19                  1.9273670     110.4299949
  55 BEND      7  5 16                  1.9276097     110.4438984
  56 BEND      8  1  9                  1.8914937     108.3746061
  57 BEND      8  1 10                  1.8882811     108.1905389
  58 BEND      9  1 10                  1.8881738     108.1843880
  59 BEND     12  3 13                  1.8608437     106.6184880
  60 BEND     14  4 15                  1.8607266     106.6117807
  61 BEND     16  5 17                  1.8636593     106.7798125
  62 BEND     18  6 19                  1.8635671     106.7745319
  63 BEND     20  7 21                  1.8656214     106.8922321
  64 TORSION   1  2  3  5              -3.1321260    -179.4576008
  65 TORSION   1  2  3 12              -1.0182288     -58.3402148
  66 TORSION   1  2  4  6               3.1311489     179.4016191
  67 TORSION   1  2  4 15               1.0171177      58.2765486
  68 TORSION   1  2  4 14              -1.0140891     -58.1030267
  69 TORSION   1  2  3 13               1.0129306      58.0366486
  70 TORSION   2  4  6 18               1.1381039      65.2085508
  71 TORSION   2  4  6 19              -3.1079287    -178.0711990
  72 TORSION   2  4  6  7              -0.9640060     -55.2334755
  73 TORSION   2  3  5 16               3.1089916     178.1320980
  74 TORSION   2  3  5 17              -1.1369610     -65.1430668
  75 TORSION   2  3  5  7               0.9648842      55.2837931
  76 TORSION   3  2  1  8              -3.1147312    -178.4609509
  77 TORSION   3  2  4 14               3.1055987     177.9377009
  78 TORSION   3  2  4  6               0.9676515      55.4423468
  79 TORSION   3  2  1 10               1.0782537      61.7793871
  80 TORSION   3  2  1  9              -1.0114459     -57.9515835
  81 TORSION   3  5  7 20               1.1507903      65.9354275
  82 TORSION   3  5  7 21              -3.0902267    -177.0569457
  83 TORSION   3  5  7  6              -0.9517993     -54.5340842
  84 TORSION   3  2  4 15              -1.1463798     -65.6827238
  85 TORSION   4  2  1  9               3.1132061     178.3735724
  86 TORSION   4  2  1  8               1.0099209      57.8642051
  87 TORSION   4  2  1 10              -1.0802795     -61.8954570
  88 TORSION   4  2  3 12               1.1457458      65.6463995
  89 TORSION   4  6  7 20              -1.1511652     -65.9569080
  90 TORSION   4  6  7 21               3.0898208     177.0336934
  91 TORSION   4  6  7  5               0.9514160      54.5121193
  92 TORSION   4  2  3 13              -3.1062801    -177.9767371
  93 TORSION   4  2  3  5              -0.9681514     -55.4709865
  94 TORSION   5  7  6 18              -1.1468025     -65.7069435
  95 TORSION   5  7  6 19               3.0921416     177.1666606
  96 TORSION   5  3  2 11               1.0782289      61.7779651
  97 TORSION   6  7  5 16              -3.0926048    -177.1932037
  98 TORSION   6  7  5 17               1.1461043      65.6669389
  99 TORSION   6  4  2 11              -1.0788273     -61.8122491
 100 TORSION   7  6  4 15               1.1438574      65.5381998
 101 TORSION   7  6  4 14              -3.0975758    -177.4780198
 102 TORSION   7  5  3 12              -1.1426440     -65.4686794
 103 TORSION   7  5  3 13               3.0984942     177.5306403
 104 TORSION   8  1  2 11              -1.0525520     -60.3067870
 105 TORSION   9  1  2 11               1.0507332      60.2025803
 106 TORSION  10  1  2 11               3.1404329     179.9335509
 107 TORSION  11  2  4 14               1.0591200      60.6831051
 108 TORSION  11  2  3 12              -3.0910592    -177.1046489
 109 TORSION  11  2  3 13              -1.0598998     -60.7277855
 110 TORSION  11  2  4 15               3.0903268     177.0626804
 111 TORSION  12  3  5 17               3.0386961     174.1044606
 112 TORSION  12  3  5 16               1.0014634      57.3796255
 113 TORSION  13  3  5 17               0.9966490      57.1037804
 114 TORSION  13  3  5 16              -1.0405837     -59.6210548
 115 TORSION  14  4  6 19               1.0416868      59.6842567
 116 TORSION  14  4  6 18              -0.9954659     -57.0359935
 117 TORSION  15  4  6 19              -1.0000653     -57.2995237
 118 TORSION  15  4  6 18              -3.0372180    -174.0197739
 119 TORSION  16  5  7 21               1.0521531      60.2839348
 120 TORSION  16  5  7 20              -0.9900152     -56.7236920
 121 TORSION  17  5  7 21              -0.9923230     -56.8559226
 122 TORSION  17  5  7 20              -3.0344914    -173.8635493
 123 TORSION  18  6  7 21               0.9916024      56.8146306
 124 TORSION  18  6  7 20               3.0338016     173.8240292
 125 TORSION  19  6  7 21              -1.0526389     -60.3117653
 126 TORSION  19  6  7 20               0.9895604      56.6976333

          INTERNUCLEAR DISTANCES (ANGS.)


 =====================================================
   GAMESS/COSab RESULTS
 =====================================================

   Dielectric Constant                  = INFTY
   Basic Grid Size                      =                 1082
   Number of Segments                   =                   92
   Number of Segments located on spheres=                  230
   Number of Segments of the cavity     =                  669
   Solvent Radius (rsolv)               = 1.40
   Outlying Charge Error Method         = double cavity

 =====================================================

  Total solvated Energy (a.u.)          =  -273.3099240125
  Total Energy corrected (a.u.)         =  -273.3098280793

  Outlying charge effect (a.u.)         =     0.0000959333
  Outlying charge effect (kcal/mol)     =     0.0601990791

  Dielectric Energy (a.u.)              =    -0.0010681583
  Dielectric energy corr. (a.u.)        =    -0.0009722251

  Sum of polarization charges           =     0.0296174714
  Sum of polarization charges(cor.)     =    -0.0296174714

  Total surface area of cavity (A**2)   =  149.11
  Total volume of cavity (A**3)         =  149.14

 =====================================================
 NPS=                   669
NR.  ATOM  (X, Y, Z)(a.u.)                  CHARGE(e)  AREA(A**2) SIGMA(e/A**2)
   1   1  11.890547   1.433502   0.200155   0.002043   0.371649   0.005497
   2   1  11.609324   4.990615   5.226965   0.000758   0.232280   0.003264
   3   1  13.623617   4.075557   2.456650   0.001966   0.418105   0.004701
   4   1  11.950195   4.936970  -1.039447   0.001574   0.371649   0.004234
   5   1  10.262352   0.535766   0.731451   0.001224   0.278737   0.004390
   6   1  12.013690   5.902429  -0.524296   0.001688   0.371649   0.004543
   7   1  13.491560   5.030615   2.518782   0.001219   0.278737   0.004374
   8   1  11.908587   5.743231   4.709689   0.000804   0.232280   0.003463
   9   1  11.095742   0.700965   0.814217   0.001077   0.232280   0.004639
  10   1  11.011149   1.163526  -0.125616   0.001401   0.278737   0.005025
  11   1  11.059838   6.176795   4.905811   0.000621   0.232280   0.002675
  12   1  12.315473   4.729160   4.805975   0.001464   0.325193   0.004502
  13   1  13.277206   4.507423   3.579738   0.001529   0.278737   0.005485
  14   1  13.536507   4.517046   1.184179   0.001573   0.464561   0.003387
  15   1  12.863741   4.705472  -0.224474   0.001452   0.464561   0.003126
  16   1  10.952919   5.957091  -1.096809   0.002076   0.371649   0.005587
  17   1   9.704934   6.335010  -1.027360   0.001220   0.278737   0.004376
  18   1  11.576386   4.098072   5.370921   0.000819   0.278737   0.002938
  19   1  13.495278   3.218931   1.346699   0.001348   0.418105   0.003223
  20   1  12.824799   2.277470   0.469980   0.001569   0.418105   0.003754
  21   1  12.202060   2.445497  -0.492230   0.001791   0.464561   0.003855
  22   1  12.297536   3.790421  -0.886937   0.001039   0.325193   0.003195
  23   1  10.060767   0.880525  -0.012770   0.000804   0.185824   0.004326
  24   1  13.127799   5.297721   0.517439   0.000844   0.278737   0.003028
  25   1  12.843755   5.122281   4.085132   0.001359   0.278737   0.004877
  26   1  10.461869   6.795143  -0.559623   0.001598   0.325193   0.004914
  27   1  11.119883   3.397396   5.500132   0.000326   0.139368   0.002339
  28   1  12.823940   4.104347   4.357752   0.000731   0.185824   0.003934
  29   1  13.122921   3.518902   0.151777   0.001210   0.464561   0.002604
  30   2   9.298330   2.597287   6.185508   0.000199   0.092912   0.002140
  31   2   9.028789   7.095136   5.192996   0.000280   0.185824   0.001509
  32   3   6.540793  -1.909456   2.301220   0.001851   0.371649   0.004979
  33   3   7.386628   1.299028   6.824514   0.000208   0.092912   0.002237
  34   3   6.411145  -1.572375   1.463928   0.001401   0.278737   0.005027
  35   3   8.342889  -0.744773   1.658995   0.001093   0.232280   0.004707
  36   3   7.580964  -1.339544   1.726304   0.001891   0.325193   0.005815
  37   3   5.234467  -1.853194   2.227807   0.001655   0.464561   0.003562
  38   3   5.690645  -2.086267   3.374787   0.001145   0.325193   0.003521
  39   3   7.236776   0.931706   6.822035   0.000114   0.046456   0.002464
  40   3   4.496083  -1.329769   1.602249   0.000531   0.185824   0.002858
  41   3   7.756290  -0.711671   1.012760   0.000614   0.139368   0.004403
  42   4   5.557791   8.699291  -0.650499   0.001854   0.371649   0.004989
  43   4   6.165689   9.164283  -0.154784   0.001377   0.278737   0.004942
  44   4   6.712808   8.613026   5.093911   0.000322   0.139368   0.002307
  45   4   7.545174   7.668467  -0.715288   0.001107   0.232280   0.004766
  46   4   6.812022   8.301798  -0.729154   0.001899   0.325193   0.005840
  47   4   4.902353   9.315149   0.116511   0.001376   0.371649   0.003701
  48   4   4.387064   9.497600   0.703459   0.000343   0.139368   0.002463
  49   4   4.211560   8.447632  -0.474748   0.001180   0.325193   0.003627
  50   4   4.922692   9.844999   1.163182   0.000477   0.185824   0.002568
  51   4   7.626756   8.379794  -0.215116   0.000619   0.139368   0.004439
  52   4   7.207838   8.349214   5.071444   0.000119   0.046456   0.002570
  53   5   4.577424  -1.096020   6.824583   0.001141   0.325193   0.003509
  54   5   1.625889   0.477242   7.735389   0.001622   0.325193   0.004987
  55   5   1.588014  -0.318310   7.211926   0.001365   0.278737   0.004897
  56   5   4.014718  -1.588165   6.238773   0.000853   0.278737   0.003060
  57   5   1.846636  -0.178558   1.914228   0.000334   0.139368   0.002394
  58   5   3.887046  -0.717231   7.470184   0.001352   0.278737   0.004852
  59   5   2.594883  -0.292772   7.722155   0.001885   0.325193   0.005796
  60   5   0.735442   0.654468   7.073350   0.001384   0.371649   0.003724
  61   5   0.242399   1.008888   6.549314   0.000350   0.139368   0.002513
  62   5   5.002384  -0.217827   7.476976   0.000905   0.278737   0.003248
  63   5   1.124383   1.680349   7.686261   0.001205   0.325193   0.003705
  64   5   0.209317   0.396221   6.056898   0.000495   0.185824   0.002664
  65   5   3.159434  -0.959052   7.251865   0.001383   0.278737   0.004960
  66   5   2.341764  -0.440246   1.875179   0.000125   0.046456   0.002680
  67   6   3.947795  10.067271   4.457673   0.001140   0.325193   0.003504
  68   6   0.770834   8.933820   5.256731   0.001616   0.325193   0.004970
  69   6   1.717326   6.838770   0.152815   0.000219   0.092912   0.002360
  70   6   1.443407   8.950826   5.931793   0.001398   0.278737   0.005014
  71   6   4.180802   9.697013   5.300665   0.000889   0.278737   0.003190
  72   6   2.936160  10.129598   4.555724   0.001342   0.278737   0.004814
  73   6   1.760226   9.664115   5.115941   0.001869   0.325193   0.005746
  74   6   0.467151   7.905522   5.897127   0.001672   0.464561   0.003599
  75   6   3.403368  10.233052   3.431249   0.000896   0.278737   0.003215
  76   6  -0.089309   8.074863   4.783726   0.001170   0.325193   0.003599
  77   6   1.364659   6.896878   0.324968   0.000121   0.046456   0.002600
  78   6   0.931490   7.214571   6.616491   0.000537   0.185824   0.002889
  79   6   2.721726   9.851592   5.271468   0.001394   0.278737   0.005001
  80   7  -0.735805   1.158613   2.983635   0.000883   0.278737   0.003169
  81   7  -1.734510   4.610014   2.382651   0.001613   0.325193   0.004960
  82   7   1.042920   4.690401   7.242122   0.000213   0.092912   0.002297
  83   7  -1.449878   4.080090   1.643383   0.001388   0.278737   0.004979
  84   7  -0.511091   1.356019   2.026226   0.000925   0.278737   0.003317
  85   7  -1.394252   1.972933   2.913000   0.001716   0.371649   0.004618
  86   7  -1.787048   3.375718   2.458826   0.001888   0.325193   0.005807
  87   7  -1.135709   5.401836   1.709245   0.001560   0.418105   0.003732
  88   7  -1.191518   1.599088   3.992032   0.000934   0.278737   0.003351
  89   7  -1.442046   5.772979   2.895841   0.001172   0.325193   0.003605
  90   7   0.784496   4.961244   7.110790   0.000116   0.046456   0.002503
  91   7  -0.355363   5.504834   0.923944   0.000522   0.185824   0.002811
  92   7  -1.433576   2.481698   2.214685   0.001416   0.278737   0.005080
  93   8  12.412605   7.768377   2.271256  -0.002409   0.471065  -0.005113
  94   8  11.065368   7.746223   0.504911  -0.000896   0.372926  -0.002403
  95   8  12.505860   7.029747   0.664245  -0.000860   0.392554  -0.002190
  96   8  13.130733   6.591964   2.696177  -0.000804   0.372926  -0.002156
  97   8  11.619975   7.268633   3.951430  -0.000877   0.392554  -0.002234
  98   8  11.396017   8.258007   1.852518  -0.002223   0.412182  -0.005393
  99   8  11.951157   7.739279   0.911050  -0.001349   0.372926  -0.003618
 100   8  13.109266   6.739209   1.583540  -0.001162   0.431809  -0.002692
 101   8  12.572057   7.021036   3.418764  -0.001219   0.431809  -0.002824
 102   8  11.358553   7.992664   3.212138  -0.001997   0.412182  -0.004845
 103   9  12.815471   1.090799   3.619391  -0.002284   0.451437  -0.005060
 104   9  11.542114   0.294902   2.224908  -0.000813   0.353299  -0.002302
 105   9  11.638689   1.941721   5.111912  -0.001100   0.353299  -0.003115
 106   9  13.177162   2.707355   4.093303  -0.000680   0.372926  -0.001823
 107   9  13.318140   1.793736   2.268532  -0.000839   0.412182  -0.002036
 108   9  11.928255   0.371778   3.270969  -0.001953   0.392554  -0.004974
 109   9  11.873250   0.938763   4.413927  -0.002110   0.392554  -0.005374
 110   9  12.538840   2.143751   4.734771  -0.001393   0.431809  -0.003225
 111   9  13.424239   2.109417   3.321377  -0.001370   0.431809  -0.003172
 112   9  12.600459   0.847063   2.096668  -0.001364   0.510320  -0.002672
 113  10   9.665665   3.230230  -2.404879  -0.002247   0.471065  -0.004770
 114  10   9.656398   1.494053  -1.238400  -0.000674   0.294415  -0.002290
 115  10  10.865218   2.483541  -1.736667  -0.000824   0.392554  -0.002100
 116  10  10.276634   4.534115  -2.136150  -0.000701   0.372926  -0.001880
 117  10   8.891523   2.270816  -1.931661  -0.001971   0.392554  -0.005020
 118  10  10.138252   1.986902  -1.738961  -0.000979   0.333671  -0.002934
 119  10  10.876906   3.572450  -2.054183  -0.000990   0.412182  -0.002401
 120  10   9.273694   4.652789  -2.179678  -0.001373   0.431809  -0.003179
 121  10   8.487874   3.366178  -2.174846  -0.002352   0.412182  -0.005705
 122  11   8.581136   5.041194   7.633395  -0.001187   0.353299  -0.003360
 123  11   8.179575   6.751831   6.634680  -0.000652   0.294415  -0.002213
 124  11   9.496794   5.571343   6.815333  -0.000542   0.274788  -0.001973
 125  11   8.956165   3.528127   7.124726  -0.000393   0.333671  -0.001178
 126  11   7.458446   5.066127   7.773314  -0.001521   0.353299  -0.004305
 127  11   7.708985   6.050061   7.412743  -0.001201   0.314043  -0.003824
 128  11   8.733586   5.983399   7.193553  -0.000798   0.274788  -0.002906
 129  11   9.472169   4.501234   7.067128  -0.000717   0.353299  -0.002030
 130  11   8.152756   3.940979   7.652097  -0.001307   0.412182  -0.003171
 131  11   9.104042   6.453414   6.386681  -0.000288   0.255160  -0.001131
 132  12   5.350048   0.227469  -0.888347  -0.001240   0.333671  -0.003715
 133  12   4.153437  -0.412528   0.214296  -0.000694   0.294415  -0.002356
 134  12   6.206628  -0.862674   0.023322  -0.000471   0.372926  -0.001263
 135  12   4.891136   1.304271  -0.942092  -0.001744   0.372926  -0.004677
 136  12   4.300435   0.308550  -0.485874  -0.001312   0.333671  -0.003933
 137  12   5.170775  -0.561979  -0.339971  -0.000921   0.294415  -0.003127
 138  12   6.716067  -0.177367  -0.435888  -0.001156   0.412182  -0.002804
 139  12   6.028417   0.869773  -1.042926  -0.001639   0.333671  -0.004912
 140  12   5.058383  -1.051549   0.410978  -0.000244   0.274788  -0.000888
 141  13   8.366684  -1.598330   5.301464  -0.001947   0.431809  -0.004510
 142  13   7.236167  -1.172097   6.201667  -0.000709   0.294415  -0.002408
 143  13   8.538173   0.180491   6.228105  -0.000752   0.333671  -0.002255
 144  13   8.461954  -1.633105   3.256381  -0.000570   0.372926  -0.001528
 145  13   6.829867  -2.183649   4.450263  -0.000526   0.353299  -0.001490
 146  13   7.945511  -0.615562   6.359007  -0.001123   0.412182  -0.002725
 147  13   9.023406  -0.678378   5.515875  -0.001878   0.412182  -0.004557
 148  13   9.006323  -1.393248   4.259576  -0.001780   0.412182  -0.004318
 149  13   7.825475  -2.125247   4.015037  -0.001163   0.451437  -0.002577
 150  13   7.149615  -1.900343   5.403030  -0.001221   0.451437  -0.002704
 151  14   7.509356  10.423501   2.359975  -0.002142   0.471065  -0.004546
 152  14   7.138317   9.749477   4.162465  -0.000806   0.412182  -0.001955
 153  14   6.073611  10.501832   2.206350  -0.001084   0.431809  -0.002511
 154  14   7.286424   9.864174   0.777063  -0.000537   0.353299  -0.001520
 155  14   8.100040   9.512788   3.803623  -0.001774   0.510320  -0.003476
 156  14   6.602942  10.395594   3.315658  -0.001321   0.471065  -0.002805
 157  14   6.594868  10.321500   1.296879  -0.000785   0.372926  -0.002104
 158  14   8.109517   9.598670   1.073019  -0.001182   0.392554  -0.003011
 159  14   8.390449   9.853987   2.499825  -0.002136   0.431809  -0.004947
 160  15   4.961897   5.944965  -2.146352  -0.001473   0.392554  -0.003752
 161  15   6.206677   6.963694  -1.789346  -0.000529   0.392554  -0.001348
 162  15   4.042700   7.040500  -1.469418  -0.000676   0.412182  -0.001641
 163  15   4.375067   4.892428  -1.715712  -0.001710   0.372926  -0.004585
 164  15   5.384941   4.796541  -1.902262  -0.001561   0.333671  -0.004678
 165  15   6.053259   5.934652  -2.082881  -0.001394   0.372926  -0.003738
 166  15   5.089668   7.190788  -1.814504  -0.000671   0.392554  -0.001709
 167  15   3.805568   6.016854  -1.617092  -0.001340   0.392554  -0.003412
 168  16   1.300639  -2.150300   4.505050  -0.002888   0.588831  -0.004905
 169  16   2.559534  -2.140445   3.390154  -0.000896   0.333671  -0.002685
 170  16   1.192270  -1.126790   2.824411  -0.000609   0.333671  -0.001825
 171  16   0.154214  -0.749209   4.842456  -0.000804   0.353299  -0.002275
 172  16   1.459820  -1.478617   6.258748  -0.000465   0.372926  -0.001248
 173  16   3.150267  -2.230749   5.353115  -0.000533   0.353299  -0.001510
 174  16   1.799923  -1.767218   3.024551  -0.001289   0.431809  -0.002985
 175  16   0.488210  -1.204231   3.801935  -0.001461   0.490692  -0.002977
 176  16   0.634428  -1.312690   5.534897  -0.001292   0.471065  -0.002743
 177  16   2.114883  -2.123674   5.758474  -0.001314   0.471065  -0.002789
 178  16   2.753708  -2.426938   4.363916  -0.001416   0.490692  -0.002885
 179  17   3.796769   2.427620   9.144143  -0.001712   0.431809  -0.003964
 180  17   5.436429   1.498428   8.375368  -0.000733   0.294415  -0.002490
 181  17   3.504774   0.912904   8.784504  -0.000503   0.372926  -0.001349
 182  17   2.297873   2.493378   8.637456  -0.000575   0.372926  -0.001543
 183  17   4.347077   3.400701   8.755935  -0.001912   0.412182  -0.004639
 184  17   5.151180   2.510985   8.708834  -0.001377   0.333671  -0.004126
 185  17   4.484040   1.569777   8.970509  -0.001038   0.314043  -0.003304
 186  17   2.783533   1.599822   8.869811  -0.000688   0.392554  -0.001752
 187  17   2.914986   3.356005   8.679618  -0.001413   0.431809  -0.003272
 188  17   4.665019   0.751998   8.486984  -0.000298   0.294415  -0.001011
 189  18   3.787764   8.130547   7.767240  -0.001535   0.392554  -0.003910
 190  18   2.252819   6.847374   7.719322  -0.000851   0.333671  -0.002551
 191  18   2.610837   8.835777   7.045087  -0.000505   0.372926  -0.001353
 192  18   4.631044   8.964577   6.578074  -0.000643   0.392554  -0.001637
 193  18   4.410241   7.081225   7.850335  -0.002017   0.431809  -0.004672
 194  18   3.267384   6.868601   8.029671  -0.001329   0.333671  -0.003982
 195  18   2.758570   7.907063   7.780414  -0.001031   0.314043  -0.003284
 196  18   3.555915   9.125165   6.895409  -0.000685   0.392554  -0.001746
 197  18   4.866280   8.201882   7.234734  -0.001388   0.392554  -0.003535
 198  18   1.914875   7.883435   7.308259  -0.000272   0.294415  -0.000926
 199  19   0.583940   9.693321   1.781229  -0.002891   0.588831  -0.004910
 200  19  -0.067436   8.187290   1.413141  -0.000880   0.333671  -0.002637
 201  19   1.413772   8.499255   0.451023  -0.000609   0.333671  -0.001824
 202  19   2.314165  10.149772   1.813645  -0.000927   0.372926  -0.002485
 203  19   1.238159  10.154103   3.487578  -0.000472   0.372926  -0.001266
 204  19  -0.270039   8.755530   3.374363  -0.000498   0.353299  -0.001411
 205  19   0.583355   8.417080   0.801881  -0.001284   0.431809  -0.002973
 206  19   1.740990   9.548266   0.950776  -0.001453   0.490692  -0.002962
 207  19   1.683509  10.346357   2.538217  -0.001185   0.431809  -0.002745
 208  19   0.329217   9.690556   3.254280  -0.001303   0.471065  -0.002767
 209  19  -0.336813   8.647922   2.298155  -0.001420   0.490692  -0.002895
 210  20   0.328097   2.658383  -0.456215  -0.001626   0.412182  -0.003946
 211  20   0.559530   4.672449  -0.328203  -0.000862   0.333671  -0.002584
 212  20  -0.829762   3.236792   0.410224  -0.000507   0.372926  -0.001359
 213  20   0.232285   1.475566   0.622461  -0.000745   0.431809  -0.001725
 214  20   1.535510   2.790184  -0.678186  -0.001928   0.412182  -0.004679
[...]
 410   6   4.295384   9.962637   2.388727   0.000109   0.027079   0.004030
 411  14   5.017392  10.064715   2.194516   0.000016   0.027079   0.000592
 412   4   3.214783   7.385507  -0.391314   0.000043   0.028093   0.001527
 413   6   2.795586   7.397796  -0.122126   0.000068   0.028093   0.002417
 414  15   3.343245   7.203149  -0.599538   0.000014   0.028093   0.000481
 415   4   5.786929   8.869271   5.204289   0.000063   0.028852   0.002197
 416   6   5.364446   8.926636   5.462324   0.000039   0.028852   0.001338
 417  18   5.259965   8.838312   5.734495   0.000006   0.028852   0.000199
 418   4   4.080121   9.838187   1.907391   0.000107   0.027089   0.003964
 419   6   3.639967   9.906359   2.130846   0.000053   0.027089   0.001962
 420  19   3.346746   9.928626   2.056748   0.000015   0.027089   0.000570
 421   4   2.901996   7.712692  -0.055923   0.000071   0.027089   0.002611
 422   6   2.446137   7.752530   0.141360   0.000048   0.027089   0.001781
 423  19   2.260007   7.968002   0.245725   0.000026   0.027089   0.000969
 424   6   2.509570   7.611369   0.026734   0.000076   0.024454   0.003109
 425   4   3.132964   7.545253  -0.316951   0.000074   0.024454   0.003008
 426   6   5.432519   9.029730   5.337847   0.000043   0.014041   0.003074
 427   4   6.056583   9.003157   4.990904   0.000044   0.014041   0.003107
 428   6   3.885638   9.995053   2.331209   0.000196   0.059669   0.003288
 429   4   4.481176   9.940491   1.934046   0.000181   0.059669   0.003026
 430   4   8.534744   8.159251   0.477979   0.000189   0.088750   0.002131
 431   8   9.460416   7.845586   0.663945   0.000193   0.088750   0.002176
 432  14   8.550547   8.398884   0.669219   0.000011   0.088750   0.000120
 433   4   6.612374   7.702644   5.748012   0.000225   0.163841   0.001373
 434  11   6.961026   7.173801   6.144797   0.000019   0.163841   0.000116
 435  18   6.007837   7.697197   6.195640   0.000062   0.163841   0.000381
 436  11   7.942935   7.104823   5.993355  -0.000128   0.184151  -0.000697
 437   4   7.313987   7.849522   5.442019   0.000574   0.259651   0.002210
 438  14   6.832881   9.231849   4.567251  -0.000055   0.075078  -0.000738
 439  14   7.656905   8.790280   4.523094  -0.000060   0.075078  -0.000795
 440   4   7.089284   8.699054   4.761399  -0.000182   0.161919  -0.001122
 441  14   7.993765   8.854991   0.463975   0.000019   0.067924   0.000284
 442  14   7.037729   9.376023   0.371488  -0.000058   0.150087  -0.000388
 443  14   5.971764   9.916353   0.937618  -0.000166   0.150087  -0.001108
 444  14   5.406006  10.166708   1.838325  -0.000049   0.067924  -0.000715
 445   4   7.518138   8.749199   0.125027   0.000243   0.149597   0.001627
 446   4   6.215512   9.440473   0.306294   0.000182   0.149597   0.001219
 447   4   5.244852   9.901512   1.332361  -0.000013   0.149597  -0.000089
 448  15   3.740511   7.313213  -0.941908  -0.000032   0.067476  -0.000478
 449  15   4.708196   7.737958  -1.172600  -0.000118   0.148657  -0.000796
 450  15   5.998819   7.596441  -1.345143  -0.000029   0.148657  -0.000195
 451  15   6.879773   6.968993  -1.361595  -0.000022   0.067476  -0.000332
 452   4   4.018650   7.789774  -0.727324  -0.000040   0.149057  -0.000269
 453   4   5.433692   8.086113  -1.002678   0.000238   0.149057   0.001594
 454   4   6.774968   7.487543  -1.095815   0.000240   0.149057   0.001607
 455  18   5.470711   8.372901   6.189750  -0.000241   0.208144  -0.001158
 456   4   6.230344   8.569211   5.376788   0.000644   0.293291   0.002196
 457  19   3.071295   9.850132   1.673206  -0.000143   0.209731  -0.000683
 458  19   2.517407   8.877105   0.665265  -0.000917   0.430657  -0.002128
 459   4   3.908823   9.353397   0.894559   0.001047   0.573135   0.001826
 460   4   3.251292   8.143200  -0.123864   0.000857   0.295411   0.002902
 461   5   1.133507   0.060422   2.263991   0.000042   0.026683   0.001576
 462   7   0.865542   0.449990   2.103537   0.000067   0.026683   0.002511
 463  16   1.106220  -0.179689   2.447169   0.000021   0.026683   0.000789
 464   5  -0.104299   0.536225   5.084509   0.000056   0.026683   0.002095
 465   7  -0.355830   0.919476   4.886608   0.000114   0.026683   0.004254
 466  16  -0.020422   0.253383   5.014385   0.000017   0.026683   0.000625
 467   5   1.442762   3.100309   7.653124   0.000045   0.028441   0.001575
 468   7   1.174384   3.456508   7.428494   0.000068   0.028441   0.002377
 469  17   1.684759   3.087167   7.837637   0.000014   0.028441   0.000507
 470   5   1.095888   0.467987   1.908756   0.000068   0.028625   0.002387
 471   7   0.789300   0.800744   1.697464   0.000042   0.028625   0.001467
 472  20   0.775536   0.952812   1.433787   0.000011   0.028625   0.000382
 473   5  -0.323513   1.171706   5.438894   0.000112   0.027070   0.004148
 474   7  -0.645434   1.511460   5.264942   0.000060   0.027070   0.002217
 475  21  -0.816970   1.738723   5.368796   0.000019   0.027070   0.000712
 476   5   0.995286   3.223040   7.378292   0.000069   0.027070   0.002534
 477   7   0.691014   3.590247   7.230294   0.000049   0.027070   0.001828
 478  21   0.399563   3.630986   7.157803   0.000026   0.027070   0.000947
 479   7   0.748211   0.677596   1.826054   0.000055   0.018172   0.003019
 480   5   1.146062   0.154410   2.110268   0.000055   0.018172   0.003047
 481   7  -0.604374   1.249891   5.009333   0.000236   0.071411   0.003311
 482   5  -0.190611   0.770470   5.353698   0.000215   0.071411   0.003007
 483   7   0.842542   3.598308   7.326165   0.000058   0.017399   0.003312
 484   5   1.269849   3.093002   7.599701   0.000055   0.017399   0.003147
 485   5   2.502866   0.473996   1.216947   0.000235   0.166176   0.001413
 486  12   3.113769   0.487081   0.771518   0.000035   0.166176   0.000208
 487  20   2.125047   1.006254   0.838397   0.000086   0.166176   0.000520
 488  12   3.743684  -0.348416   0.844824  -0.000174   0.203581  -0.000854
 489   5   2.807895  -0.238275   1.476742   0.000649   0.286802   0.002263
 490  13   6.848898  -0.293831   6.598959  -0.000089   0.209568  -0.000426
 491  13   6.273382  -1.364811   5.713527  -0.000906   0.430248  -0.002106
 492   5   5.626407  -0.499510   6.737044   0.001172   0.572743   0.002047
 493   5   4.998133  -1.614218   5.602402   0.000821   0.295167   0.002782
 494  16   1.435080  -0.645537   2.465842  -0.000068   0.077452  -0.000873
 495  16   2.288673  -1.094066   2.403435  -0.000055   0.077452  -0.000714
 496   5   2.011684  -0.555237   2.222853  -0.000205   0.165688  -0.001239
 497  16   3.730230  -2.033349   5.140383  -0.000058   0.071568  -0.000812
 498  16   3.113548  -1.766059   6.072761  -0.000204   0.160026  -0.001274
 499  16   1.966023  -1.191423   6.599785  -0.000101   0.160026  -0.000633
 500  16   0.800930  -0.548649   6.207136  -0.000180   0.160026  -0.001124
 501  16   0.150032  -0.148658   5.348410  -0.000054   0.071568  -0.000754
 502   5   3.867806  -1.759431   5.665474  -0.000065   0.155840  -0.000416
 503   5   2.813782  -1.266947   6.701936   0.000220   0.155840   0.001409
 504   5   1.436844  -0.542099   6.781943   0.000172   0.155840   0.001106
 505   5   0.345601   0.094731   5.870132  -0.000029   0.155840  -0.000183
 506  17   1.850064   2.666806   8.145721  -0.000034   0.070269  -0.000480
 507  17   2.094583   1.579702   8.304501  -0.000122   0.156211  -0.000783
 508  17   3.025391   0.588222   8.329996  -0.000047   0.156211  -0.000298
 509  17   4.353568   0.357823   8.148483  -0.000179   0.156211  -0.001147
 510  17   5.375586   0.759860   7.902228  -0.000060   0.070269  -0.000852
 511   5   1.604137   2.159233   7.932595  -0.000049   0.153884  -0.000316
 512   5   2.240597   0.778001   8.079415   0.000243   0.153884   0.001580
 513   5   3.582016   0.052431   7.986769   0.000251   0.153884   0.001630
 514   5   5.062849   0.288425   7.693717  -0.000016   0.153884  -0.000107
 515  20   1.246979   1.071776   0.927690  -0.000238   0.215538  -0.001104
 516   5   1.584725   0.283681   1.669972   0.000672   0.303633   0.002215
 517  21  -0.863232   1.991045   5.771566  -0.000126   0.209426  -0.000600
 518  21  -0.256036   2.936811   6.768881  -0.000888   0.429918  -0.002066
 519   5   0.089544   1.529417   6.431363   0.001077   0.572389   0.001882
 520   5   0.837391   2.691476   7.436044   0.000858   0.294963   0.002908
 521   6   1.227646   6.353952   6.907849   0.000050   0.028440   0.001744
 522   7   1.012041   5.905337   6.867365   0.000095   0.028440   0.003330
 523  18   1.460713   6.475682   7.061616   0.000021   0.028440   0.000728
 524   6  -0.550134   7.337675   3.527756   0.000048   0.026703   0.001791
 525   7  -0.746461   6.878588   3.522585   0.000074   0.026703   0.002758
 526  19  -0.500057   7.570121   3.339567   0.000027   0.026703   0.001014
 527   6   0.700493   6.693597   0.744456   0.000060   0.026703   0.002236
 528   7   0.487565   6.243059   0.776231   0.000109   0.026703   0.004065
 529  19   0.638259   6.983883   0.806219   0.000025   0.026703   0.000948
 530   6   0.722000   6.172233   0.603629   0.000097   0.028626   0.003392
 531   7   0.465183   5.745594   0.566081   0.000047   0.028626   0.001637
 532  20   0.477884   5.493932   0.394778   0.000020   0.028626   0.000692
 533   6   0.808692   6.068814   6.727139   0.000109   0.027069   0.004023
 534   7   0.556649   5.639118   6.761471   0.000058   0.027069   0.002130
 535  21   0.274689   5.535169   6.722087   0.000023   0.027069   0.000858
 536   6  -0.698752   6.896620   4.129252   0.000075   0.027069   0.002753
 537   7  -0.970970   6.478003   4.128815   0.000046   0.027069   0.001717
 538  21  -1.115860   6.298782   4.325653   0.000025   0.027069   0.000921
 539   7   0.720219   5.684158   6.856385   0.000071   0.017008   0.004178
 540   6   1.041763   6.323967   6.852050   0.000072   0.017008   0.004220
 541   7  -0.951585   6.603138   3.869219   0.000198   0.071538   0.002764
 542   6  -0.618177   7.237263   3.789111   0.000201   0.071538   0.002807
 543   7   0.391027   5.913759   0.641507   0.000072   0.017717   0.004072
 544   6   0.743555   6.537037   0.634566   0.000075   0.017717   0.004240
 545  14   5.289824  10.194877   2.565447  -0.000124   0.209674  -0.000593
 546  14   5.926311   9.833343   3.880182  -0.000884   0.430481  -0.002052
 547   6   4.494676   9.993124   3.505201   0.001130   0.573019   0.001972
 548   6   5.261534   9.437302   4.930145   0.000839   0.295317   0.002842
 549   6   2.138938   6.041790  -0.057140   0.000237   0.166172   0.001424
 550  15   2.759435   5.913608  -0.469887   0.000102   0.166172   0.000612
 551  20   1.840919   5.355773  -0.156813   0.000019   0.166172   0.000113
 552  15   3.215782   6.575388  -0.793886  -0.000183   0.204440  -0.000893
 553   6   2.404020   7.008911  -0.130114   0.000688   0.288008   0.002390
 554  18   4.831313   9.039284   6.008270  -0.000049   0.070268  -0.000704
 555  18   3.760678   9.377952   6.084308  -0.000150   0.156207  -0.000962
 556  18   2.466622   9.086052   6.384666  -0.000037   0.156207  -0.000240
 557  18   1.666971   8.074451   6.817360  -0.000191   0.156207  -0.001225
 558  18   1.563703   7.004934   7.152332  -0.000046   0.070268  -0.000661
 559   6   4.468739   9.330902   5.624828  -0.000022   0.153882  -0.000141
 560   6   2.962252   9.484675   5.827767   0.000256   0.153882   0.001662
 561   6   1.718982   8.710640   6.263063   0.000216   0.153882   0.001404
 562   6   1.263064   7.335111   6.747205  -0.000001   0.153882  -0.000008
 563  19  -0.390374   8.094892   3.461318  -0.000044   0.071552  -0.000618
 564  19   0.181014   8.904805   4.042726  -0.000180   0.159980  -0.001125
 565  19   1.245399   9.793217   4.084783  -0.000108   0.159980  -0.000678
 566  19   2.327156  10.220219   3.328852  -0.000181   0.159980  -0.001132
 567  19   2.932378  10.131473   2.356067  -0.000060   0.071552  -0.000844
 568   6  -0.181087   8.128051   4.031140  -0.000073   0.155812  -0.000466
 569   6   0.796037   9.226979   4.545269   0.000211   0.155812   0.001357
 570   6   2.073819  10.010157   4.120239   0.000199   0.155812   0.001278
 571   6   3.087746  10.131585   2.943825  -0.000054   0.155812  -0.000348
 572  19   1.698287   7.927926   0.337947  -0.000057   0.077406  -0.000738
 573  19   0.905996   7.448652   0.612125  -0.000055   0.077406  -0.000711
 574   6   1.495929   7.334347   0.416320  -0.000169   0.165614  -0.001020
 575  20   0.787446   5.277883   0.076702  -0.000202   0.215733  -0.000938
 576   6   1.362077   6.247390   0.203690   0.000651   0.303907   0.002141
 577  21  -0.135691   5.689635   6.533088  -0.000087   0.209413  -0.000417
 578  21  -0.896237   6.149782   5.321800  -0.000890   0.429886  -0.002069
 579   6   0.239819   6.776772   6.050006   0.001137   0.572354   0.001986
 580   6  -0.554434   7.174220   4.590654   0.000836   0.294943   0.002835
 581  16  -0.010765  -0.022164   4.631681  -0.000087   0.206853  -0.000421
 582  16   0.506396  -0.267986   3.263706  -0.000817   0.424191  -0.001927
 583   7  -0.378925   0.804772   3.774856   0.001119   0.565757   0.001977
 584   7   0.354845   0.565560   2.275530   0.000860   0.291317   0.002953
 585   7   1.948008   4.784990   7.361118   0.000235   0.166095   0.001416
 586  17   2.435525   4.319661   7.701919   0.000096   0.166095   0.000575
 587  18   2.363894   5.408709   7.452783   0.000027   0.166095   0.000161
 588  17   2.163388   3.546728   8.012001  -0.000170   0.210079  -0.000809
 589   7   1.288639   4.007731   7.456416   0.000694   0.295950   0.002346
 590  18   1.836224   6.328823   7.329729  -0.000183   0.210552  -0.000871
 591   7   1.332288   5.321349   7.196816   0.000638   0.296615   0.002150
 592  19   0.309796   7.227264   1.042053  -0.000069   0.206981  -0.000334
 593  19  -0.356582   7.530055   2.332866  -0.000819   0.424472  -0.001929
 594   7  -0.331760   6.280015   1.536880   0.001208   0.566088   0.002135
 595   7  -0.942084   6.631134   3.070281   0.000832   0.291498   0.002854
 596  20   0.343843   1.209705   1.217060  -0.000040   0.070319  -0.000563
 597  20  -0.538577   1.906668   1.275181  -0.000144   0.156326  -0.000924
 598  20  -1.048147   3.156194   1.100499  -0.000034   0.156326  -0.000220
 599  20  -0.702702   4.410617   0.702274  -0.000193   0.156326  -0.001237
 600  20   0.087722   5.117159   0.323029  -0.000049   0.070319  -0.000701
 601   7  -0.057938   1.322085   1.652639  -0.000010   0.153990  -0.000064
 602   7  -1.043225   2.490184   1.621682   0.000258   0.153990   0.001674
 603   7  -1.140688   3.977115   1.281471   0.000215   0.153990   0.001396
 604   7  -0.309213   5.155618   0.775521  -0.000005   0.153990  -0.000034
 605  21  -1.501740   5.920607   4.225131  -0.000046   0.071307  -0.000643
 606  21  -1.916601   5.023301   3.645316  -0.000171   0.159351  -0.001076
 607  21  -2.069741   3.651130   3.556318  -0.000102   0.159351  -0.000638
 608  21  -1.750130   2.483562   4.226288  -0.000162   0.159351  -0.001017
 609  21  -1.243771   1.984953   5.125423  -0.000053   0.071307  -0.000737
 610   7  -1.473213   5.754707   3.641997  -0.000075   0.155352  -0.000485
 611   7  -1.896835   4.358454   3.107592   0.000218   0.155352   0.001401
 612   7  -1.797750   2.846776   3.453393   0.000220   0.155352   0.001417
 613   7  -1.219510   1.884121   4.527404  -0.000036   0.155352  -0.000233
 614  21   0.115538   4.120540   7.121842  -0.000057   0.076281  -0.000749
 615  21   0.054753   5.047286   6.909781  -0.000058   0.076281  -0.000758
 616   7   0.491711   4.615101   7.035571  -0.000169   0.163720  -0.001034
 617  14   8.915135   8.704603   3.697082   0.000142   0.255580   0.000554
 618  14   9.060917   9.124370   2.630092  -0.000411   0.511093  -0.000805
 619  14   8.863224   8.944781   1.248110   0.000051   0.511093   0.000100
 620   8  10.324850   8.174059   3.202416  -0.000438   0.511093  -0.000857
 621   8  10.358365   8.427429   1.818259  -0.000527   0.511093  -0.001031
 622   8  10.086159   8.064475   0.755200   0.000244   0.255580   0.000956
 623  13   9.369866  -0.758061   3.032602   0.000322   0.255779   0.001258
 624  13   9.654455  -0.589413   4.141635  -0.000297   0.511496  -0.000581
 625  13   9.549539   0.232179   5.281830  -0.000241   0.511496  -0.000472
 626   9  10.737531   0.041869   3.021632  -0.000123   0.511496  -0.000240
 627   9  10.916082   0.503507   4.341130  -0.000592   0.511496  -0.001157
 628   9  10.688191   1.322915   5.126002   0.000027   0.255779   0.000105
 629  10   7.138022   3.170294  -1.182030  -0.000269   0.316810  -0.000850
 630  12   6.266269   2.612603  -0.870162  -0.000090   0.316810  -0.000284
 631  15   6.195541   3.697430  -1.117936  -0.000077   0.316810  -0.000242
 632  12   6.381213   1.833694  -1.115197  -0.000014   0.229792  -0.000061
 633  12   6.982407   1.002485  -0.915452  -0.000120   0.459420  -0.000262
 634  12   7.588136   0.361010  -0.355234   0.000301   0.229792   0.001309
 635  10   7.841387   2.298743  -1.493849  -0.000409   0.459420  -0.000891
 636  10   8.594782   1.379452  -1.019459   0.000041   0.459420   0.000089
 637  15   7.169974   6.011267  -1.691751   0.000339   0.305618   0.001109
 638  15   6.510718   4.833217  -1.769440  -0.000582   0.611642  -0.000951
 639  10   8.249285   4.818580  -1.846113  -0.000353   0.611642  -0.000578
 640  10   7.596211   3.636234  -1.782797  -0.000189   0.305618  -0.000618
 641  11   5.878745   5.045432   7.372434   0.000059   0.327169   0.000181
 642  17   4.989140   4.475080   7.668642   0.000129   0.327169   0.000394
 643  18   4.916892   5.572991   7.417378   0.000132   0.327169   0.000404
 644  17   6.108883   2.431871   8.002252   0.000178   0.268961   0.000660
 645  17   5.519928   3.453021   8.189264  -0.000260   0.537853  -0.000483
 646  11   7.150209   3.625999   7.677988  -0.000054   0.537853  -0.000101
 647  11   6.529450   4.641981   7.761842   0.000067   0.268961   0.000251
 648  18   5.104620   6.401230   7.603132   0.000083   0.268711   0.000308
 649  18   5.596398   7.347800   7.070825  -0.000144   0.537349  -0.000268
 650  11   6.659527   6.029271   7.356037  -0.000194   0.537349  -0.000360
 651  11   7.122126   6.931968   6.729674   0.000226   0.268711   0.000840
 652  12   4.147005   2.580000  -0.405654   0.000171   0.338760   0.000505
 653  15   4.076209   3.666229  -0.653828   0.000124   0.338760   0.000366
 654  20   3.150003   3.104286  -0.335241   0.000170   0.338760   0.000503
 655  15   5.442192   3.821791  -1.402018   0.000028   0.235487   0.000117
 656  15   4.666513   3.809787  -1.233239   0.000066   0.235487   0.000281
 657  12   5.159000   2.285690  -0.945518  -0.000129   0.470743  -0.000274
 658  20   2.550063   2.501339  -0.501958   0.000099   0.265220   0.000375
 659  20   2.096020   1.571326   0.007020   0.000003   0.530235   0.000006
 660  12   3.779109   1.393406  -0.431010  -0.000078   0.530235  -0.000147
 661  12   3.352389   0.503986   0.166466   0.000260   0.265220   0.000981
 662  20   1.705109   4.870714  -0.567365   0.000235   0.264937   0.000885
 663  20   2.255190   3.872411  -0.732607  -0.000117   0.529666  -0.000220
 664  15   3.215941   5.284643  -1.107095   0.000043   0.529666   0.000082
 665  15   3.795558   4.291774  -1.176069   0.000118   0.264937   0.000445
 666  18   2.725790   5.768240   7.846854   0.000240   0.258467   0.000929
 667  18   3.846139   5.857306   7.914062  -0.000085   0.516706  -0.000165
 668  17   3.253511   4.254864   8.256903   0.000039   0.516706   0.000076
 669  17   4.377046   4.322715   8.230455   0.000104   0.258467   0.000401
 =====================================================

              4277631  WORDS OF DYNAMIC MEMORY USED
 EXECUTION OF GAMESS TERMINATED NORMALLY Thu Nov 24 16:49:22 2016
 DDI: 263640 bytes (0.3 MB / 0 MWords) used by master data server.

 ----------------------------------------
 CPU timing information for all processes
 ========================================
 0: 750.08 + 0.248 = 750.256
 ----------------------------------------
 ddikick.x: exited gracefully.
