----- GAMESS execution script -----

          ******************************************************
          *         GAMESS VERSION =  5 DEC 2014 (R1)          *
          *             FROM IOWA STATE UNIVERSITY             *
          * M.W.SCHMIDT, K.K.BALDRIDGE, J.A.BOATZ, S.T.ELBERT, *
          *   M.S.GORDON, J.H.JENSEN, S.KOSEKI, N.MATSUNAGA,   *
          *          K.A.NGUYEN, S.J.SU, T.L.WINDUS,           *
          *       TOGETHER WITH M.DUPUIS, J.A.MONTGOMERY       *
          *         J.COMPUT.CHEM.  14, 1347-1363(1993)        *
          **************** 64 BIT LINUX VERSION ****************

 EXECUTION OF GAMESS BEGUN Thu Nov 24 18:53:53 2016

            ECHO OF THE FIRST FEW INPUT CARDS -
 INPUT CARD>! SELECT RESTRICTED HARTREE-FOCK AS DEFAULT                                     
 INPUT CARD>$contrl scftyp=rhf $end                                                         
 INPUT CARD>                                                                                
 INPUT CARD>! THEORY: HF OR DFT                                                             
 INPUT CARD> $contrl mplevl=0 $end                                                          
 INPUT CARD>                                                                                
 INPUT CARD> $system timlim=10000 mwords=20 $end                                            
 INPUT CARD> $SCF DIRSCF=.TRUE. $end                                                        
 INPUT CARD>                                                                                
 INPUT CARD>                                                                                
 INPUT CARD>! BASIS SETS                                                                    
 INPUT CARD>! 6-311G(d,p)                                                                   
 INPUT CARD> $BASIS GBASIS=N311 NGAUSS=6 NDFUNC=1 NPFUNC=1 $END                             
 INPUT CARD>                                                                                
 INPUT CARD>! One of the following                                                          
 INPUT CARD> $guess guess=HUCKEL $end                                                       
 INPUT CARD>                                                                                
 INPUT CARD> $statpt projct=.FALSE. $end                                                    
 INPUT CARD> $STATPT IFREEZ(1)=1,2,3 $END                                                   
 INPUT CARD>                                                                                
 INPUT CARD>! Optimize the geometry with COSMO effects                                      
 INPUT CARD> $statpt opttol=0.0005 nstep=50 $end                                            
 INPUT CARD> $contrl nzvar=1 $end                                                           
 INPUT CARD> $zmat dlc=.t. auto=.t. $end                                                    
 INPUT CARD> $contrl runtyp=OPTIMIZE maxit=200 $end                                         
 INPUT CARD>                                                                                
 INPUT CARD>! Run COSMO on perfect conductor                                                
 INPUT CARD> $COSGMS PRFCND=.TRUE. $end                                                     
 INPUT CARD>                                                                                
 INPUT CARD>! Specifying RSOLV                                                              
 INPUT CARD> $COSGMS COSRAD = 1.4 $end                                                      
 INPUT CARD>                                                                                
 INPUT CARD>! available memory                                                              
 INPUT CARD> $SYSTEM MWORDS=40 $END                                                         
 INPUT CARD>                                                                                
 INPUT CARD> $DATA                                                                          
 INPUT CARD>Acetic acid, methyl ester, ID: C79209                                           
 INPUT CARD>C1                                                                              
 INPUT CARD>O      8.0      2.3901000000    2.4629000000    0.9805000000                    
 INPUT CARD>C      6.0      1.9535000000    1.1657000000    0.9546000000                    
 INPUT CARD>C      6.0      0.4578000000    1.0499000000    1.0129000000                    
 INPUT CARD>O      8.0      2.7695000000    0.2680000000    0.8892000000                    
 INPUT CARD>C      6.0      3.7779000000    2.7123000000    0.9277000000                    
 INPUT CARD>H      1.0      0.0537000000    1.5754000000    1.8880000000                    
 INPUT CARD>H      1.0      0.0000000000    1.4906000000    0.1175000000                    
 INPUT CARD>H      1.0      0.1442000000    0.0000000000    1.0721000000                    
 INPUT CARD>H      1.0      4.2240000000    2.3380000000    0.0000000000                    
 INPUT CARD>H      1.0      4.3011000000    2.2827000000    1.7882000000                    
 INPUT CARD>H      1.0      3.8221000000    3.8037000000    0.9596000000                    
 INPUT CARD> $END                                                                           
   40000000 WORDS OF MEMORY AVAILABLE

     BASIS OPTIONS
     -------------
     GBASIS=N311         IGAUSS=       6      POLAR=POPN311 
     NDFUNC=       1     NFFUNC=       0     DIFFSP=       F
     NPFUNC=       1      DIFFS=       F     BASNAM=        


     RUN TITLE
     ---------
 Acetic acid, methyl ester, ID: C79209                                           

 THE POINT GROUP OF THE MOLECULE IS C1      
 THE ORDER OF THE PRINCIPAL AXIS IS     0

 ATOM      ATOMIC                      COORDINATES (BOHR)
           CHARGE         X                   Y                   Z
 O           8.0     4.5166340833        4.6542061352        1.8528763310
 C           6.0     3.6915797170        2.2028535839        1.8039324279
 C           6.0     0.8651165572        1.9840233145        1.9141034530
 O           8.0     5.2335961230        0.5064465647        1.6803443483
 C           6.0     7.1391958090        5.1255037965        1.7530987988
 H           1.0     0.1014782855        2.9770743211        3.5678026648
 H           1.0     0.0000000000        2.8168255573        0.2220428036
 H           1.0     0.2724984874        0.0000000000        2.0259752314
 H           1.0     7.9822025721        4.4181793593        0.0000000000
 H           1.0     8.1279004458        4.3136775122        3.3792080112
 H           1.0     7.2227216977        7.1879507395        1.8133810578

          INTERNUCLEAR DISTANCES (ANGS.)




     $CONTRL OPTIONS
     ---------------
 SCFTYP=RHF          RUNTYP=OPTIMIZE     EXETYP=RUN     
 MPLEVL=       0     CITYP =NONE         CCTYP =NONE         VBTYP =NONE    
 DFTTYP=NONE         TDDFT =NONE    
 MULT  =       1     ICHARG=       0     NZVAR =       1     COORD =UNIQUE  
 PP    =NONE         RELWFN=NONE         LOCAL =NONE         NUMGRD=       F
 ISPHER=      -1     NOSYM =       0     MAXIT =     200     UNITS =ANGS    
 PLTORB=       F     MOLPLT=       F     AIMPAC=       F     FRIEND=        
 NPRINT=       7     IREST =       0     GEOM  =INPUT   
 NORMF =       0     NORMP =       0     ITOL  =      20     ICUT  =       9
 INTTYP=BEST         GRDTYP=BEST         QMTTOL= 1.0E-06

     $SYSTEM OPTIONS
     ---------------
  REPLICATED MEMORY=    40000000 WORDS (ON EVERY NODE).
 DISTRIBUTED MEMDDI=           0 MILLION WORDS IN AGGREGATE,
 MEMDDI DISTRIBUTED OVER   1 PROCESSORS IS           0 WORDS/PROCESSOR.
 TOTAL MEMORY REQUESTED ON EACH PROCESSOR=    40000000 WORDS.
 TIMLIM=       10000.00 MINUTES, OR       6.9 DAYS.
 PARALL= F  BALTYP=  DLB     KDIAG=    0  COREFL= F
 MXSEQ2=     300 MXSEQ3=     150  mem10=         0

     $COSGMS OPTIONS
     ---------------
     EPSI  =   INFTY     NSPA  =      92     COSRAD=    1.40
     DISEX =   10.00     OUTCHG=DBLCAV       COSBUG=       F
     COSWRT=       F     DCOSMO=       F

     SYMMETRY COORDINATES WILL NOT BE USED FOR 
     THE COSMO CALCULATION, EVEN IF SPECIFIED:
         -- SWITCHING TO C1 POINT GROUP --


     DEFINITION OF CAVITY
     ---------------------------
     ATOM         COORDINATES           RADIUS 
     1    4.5166    4.6542    1.8529    1.7200
     2    3.6916    2.2029    1.8039    2.0000
     3    0.8651    1.9840    1.9141    2.0000
     4    5.2336    0.5064    1.6803    1.7200
     5    7.1392    5.1255    1.7531    2.0000
     6    0.1015    2.9771    3.5678    1.3000
     7    0.0000    2.8168    0.2220    1.3000
     8    0.2725    0.0000    2.0260    1.3000
     9    7.9822    4.4182    0.0000    1.3000
    10    8.1279    4.3137    3.3792    1.3000
    11    7.2227    7.1880    1.8134    1.3000

          ----------------
          PROPERTIES INPUT
          ----------------

     MOMENTS            FIELD           POTENTIAL          DENSITY
 IEMOM =       1   IEFLD =       0   IEPOT =       0   IEDEN =       0
 WHERE =COMASS     WHERE =NUCLEI     WHERE =NUCLEI     WHERE =NUCLEI  
 OUTPUT=BOTH       OUTPUT=BOTH       OUTPUT=BOTH       OUTPUT=BOTH    
 IEMINT=       0   IEFINT=       0                     IEDINT=       0
                                                       MORB  =       0
          EXTRAPOLATION IN EFFECT
          SOSCF IN EFFECT
 ORBITAL PRINTING OPTION: NPREO=     1   131     2     1

     -------------------------------
     INTEGRAL TRANSFORMATION OPTIONS
     -------------------------------
     NWORD  =            0
     CUTOFF = 1.0E-09     MPTRAN =       0
     DIRTRF =       T     AOINTS =DUP     

          ----------------------
          INTEGRAL INPUT OPTIONS
          ----------------------
 NOPK  =       1 NORDER=       0 SCHWRZ=       T


 -----------------------------------------------
  STATISTICS ON AUTOMATIC COORDINATE GENERATION 
 -----------------------------------------------
  NUMBER OF USER SPECIFIED BONDS                             0
  NUMBER OF BONDS                                           10
  NUMBER OF ANGLES                                          16
  NUMBER OF TORSIONS                                        11
  NUMBER OF EXTRA COORD.                                     0
  NUMBER OF EXTRA COORD. FOR CONSTRAINTS                     0
  NUMBER OF CONSTRAINED COORD.                               0

  TOTAL NUMBER OF PRIMITIVES                                37
 -----------------------------------------------

   --- ENCODED Z MATRIX ---
 COORD  TYPE   I   J   K   L   M   N
    1      1    1   2
    2      1    1   5
    3      1    2   4
    4      1    2   3
    5      1    3   7
    6      1    3   8
    7      1    3   6
    8      1    5  11
    9      1    5  10
   10      1    5   9
   11      2    1   5   9
   12      2    1   5  10
   13      2    1   5  11
   14      2    1   2   4
   15      2    1   2   3
   16      2    2   3   6
   17      2    2   3   8
   18      2    2   3   7
   19      2    2   1   5
   20      2    3   2   4
   21      2    6   3   8
   22      2    6   3   7
   23      2    7   3   8
   24      2    9   5  11
   25      2    9   5  10
   26      2   10   5  11
   27      3    1   2   3   8
   28      3    1   2   3   7
   29      3    1   2   3   6
   30      3    2   1   5  11
   31      3    2   1   5   9
   32      3    2   1   5  10
   33      3    3   2   1   5
   34      3    4   2   3   7
   35      3    4   2   3   8
   36      3    4   2   3   6
   37      3    4   2   1   5

          INDEP./SYM. INTERNAL COORDINATES
          --------------------------------
 CRD  1=   0.1076 ( 11)  0.1062 ( 12) -0.1906 ( 13)  0.3274 ( 14) -0.4379 ( 15)
           0.1441 ( 17)  0.7530 ( 19)  0.1105 ( 20)
 CRD  2=   0.3216 (  1)  0.4265 (  2)  0.3523 (  4)  0.1380 ( 11)  0.1339 ( 12)
          -0.1577 ( 14)  0.4432 ( 15)  0.1620 ( 16)  0.1459 ( 18)  0.3386 ( 19)
          -0.2855 ( 20) -0.1163 ( 24) -0.1082 ( 25) -0.1164 ( 26)
 CRD  3=  -0.2837 ( 11)  0.2866 ( 12)  0.2135 ( 16) -0.2326 ( 18) -0.1281 ( 27)
           0.2107 ( 31)  0.2093 ( 32)  0.6025 ( 33)  0.1026 ( 34)  0.1128 ( 36)
           0.4854 ( 37)
 CRD  4=  -0.2741 ( 11)  0.2757 ( 12)  0.1743 ( 16) -0.1914 ( 18) -0.3227 ( 27)
          -0.2674 ( 28) -0.2609 ( 29) -0.4532 ( 30) -0.3614 ( 31) -0.3620 ( 32)
          -0.2348 ( 37)
 CRD  5=   0.1172 (  3)  0.4720 (  4) -0.3562 ( 14) -0.1092 ( 15)  0.5292 ( 17)
          -0.1081 ( 19)  0.4654 ( 20) -0.1903 ( 21) -0.2066 ( 23)
 CRD  6=   0.3805 (  1)  0.1682 (  8) -0.2375 ( 11) -0.2334 ( 12)  0.6074 ( 13)
           0.2316 ( 14) -0.1944 ( 16)  0.2626 ( 17) -0.1513 ( 18) -0.1492 ( 20)
           0.1422 ( 22) -0.1212 ( 24)  0.1218 ( 25) -0.1224 ( 26)
 CRD  7=  -0.1309 (  5)  0.1185 (  7) -0.1130 (  9)  0.1126 ( 10)  0.4251 ( 11)
          -0.4258 ( 12)  0.4396 ( 16) -0.4872 ( 18) -0.1797 ( 21)  0.1614 ( 23)
          -0.1090 ( 24)  0.1076 ( 26) -0.1727 ( 27)
 CRD  8=  -0.1615 (  2)  0.3960 (  3)  0.3211 (  4) -0.1644 (  6) -0.1872 ( 11)
          -0.1878 ( 12)  0.2106 ( 13)  0.1010 ( 14) -0.2208 ( 15)  0.3689 ( 16)
          -0.3301 ( 17)  0.3038 ( 18)  0.1198 ( 20) -0.3250 ( 22)  0.1535 ( 25)
 CRD  9=   0.1226 (  5) -0.1127 (  7) -0.1281 (  9)  0.1272 ( 10)  0.2568 ( 11)
          -0.2556 ( 12) -0.2860 ( 16)  0.3158 ( 18)  0.1697 ( 21) -0.1535 ( 23)
          -0.1671 ( 24)  0.1649 ( 26) -0.3179 ( 27) -0.3158 ( 28) -0.3150 ( 29)
           0.3331 ( 33) -0.1459 ( 34) -0.1480 ( 35) -0.1451 ( 36)  0.1796 ( 37)
 CRD 10=   0.1442 (  1) -0.2709 (  2)  0.1025 (  4) -0.1236 (  5) -0.1350 (  7)
           0.2664 (  8)  0.2790 (  9)  0.2798 ( 10) -0.2420 ( 11) -0.2440 ( 12)
          -0.3311 ( 13)  0.1779 ( 15)  0.2110 ( 17) -0.2486 ( 20) -0.1357 ( 21)
          -0.1477 ( 23)  0.2611 ( 24)  0.2697 ( 25)  0.2622 ( 26)
 CRD 11=  -0.1279 (  4) -0.4534 (  5) -0.4427 (  6) -0.4575 (  7) -0.1387 (  8)
          -0.1947 (  9) -0.1947 ( 10)  0.1046 ( 14)  0.1640 ( 16)  0.2068 ( 17)
           0.1666 ( 18) -0.2001 ( 21) -0.1661 ( 22) -0.2003 ( 23) -0.1494 ( 25)
 CRD 12=  -0.4574 (  9)  0.4511 ( 10)  0.4521 ( 24) -0.4441 ( 26)  0.3442 ( 30)
          -0.1703 ( 31) -0.1618 ( 32)
 CRD 13=   0.5132 (  8) -0.2242 (  9) -0.2375 ( 10) -0.1068 ( 13)  0.2624 ( 24)
          -0.5171 ( 25)  0.2757 ( 26) -0.2843 ( 31)  0.2893 ( 32)
 CRD 14=  -0.1039 (  1)  0.2433 (  2) -0.1106 (  3) -0.1344 (  4) -0.2857 (  5)
           0.3093 (  6) -0.3625 (  7)  0.2884 (  8)  0.2085 (  9)  0.2063 ( 10)
          -0.1060 ( 14) -0.1237 ( 17)  0.1772 ( 20)  0.1564 ( 21) -0.3530 ( 22)
           0.2201 ( 23) -0.1994 ( 28)  0.1780 ( 29) -0.2003 ( 34)  0.1771 ( 36)
 CRD 15=  -0.5512 (  5)  0.4903 (  7)  0.3601 ( 21) -0.3255 ( 23) -0.2552 ( 27)
           0.1191 ( 28)  0.1572 ( 29)  0.1318 ( 34) -0.2425 ( 35)  0.1699 ( 36)
 CRD 16=  -0.1559 (  1)  0.3422 (  2) -0.1667 (  4) -0.5631 (  6)  0.1010 (  7)
           0.3663 (  8)  0.2823 (  9)  0.2829 ( 10)  0.1295 ( 13) -0.1087 ( 14)
           0.2028 ( 20)  0.2026 ( 22)  0.1287 ( 28) -0.1229 ( 29)  0.1287 ( 34)
          -0.1228 ( 36)
 CRD 17=   0.3047 (  1)  0.2222 (  2)  0.5228 (  3) -0.1313 (  8)  0.2702 (  9)
           0.2709 ( 10)  0.1843 ( 11)  0.1830 ( 12) -0.2124 ( 13)  0.2738 ( 14)
          -0.1606 ( 15) -0.4054 ( 19) -0.1132 ( 20) -0.1435 ( 25)
 CRD 18=   0.1459 (  5) -0.1305 (  7) -0.2401 (  9)  0.2410 ( 10)  0.1070 ( 11)
          -0.1061 ( 12)  0.1012 ( 21) -0.1381 ( 24)  0.1362 ( 26)  0.1205 ( 27)
           0.2231 ( 28)  0.2331 ( 29) -0.3115 ( 30) -0.2000 ( 31) -0.2003 ( 32)
           0.1887 ( 33)  0.4074 ( 34)  0.3048 ( 35)  0.4174 ( 36)
 CRD 19=  -0.3631 (  1) -0.3388 (  3)  0.2053 (  5)  0.2532 (  6)  0.2054 (  7)
           0.1275 (  9)  0.1239 ( 10)  0.1389 ( 13)  0.3820 ( 14) -0.1586 ( 15)
           0.1851 ( 16)  0.2136 ( 17)  0.1871 ( 18) -0.1543 ( 19) -0.2234 ( 20)
          -0.2164 ( 21) -0.1846 ( 22) -0.2165 ( 23) -0.1010 ( 24) -0.1214 ( 25)
          -0.1032 ( 26)
 CRD 20=   0.5384 (  1)  0.1524 (  2) -0.5218 (  3)  0.1604 (  5) -0.1783 (  6)
           0.1956 (  7) -0.2386 (  8) -0.1078 ( 13) -0.1955 ( 15) -0.1418 ( 19)
           0.1937 ( 20) -0.2211 ( 22)  0.1373 ( 24)  0.1375 ( 26)
 CRD 21=  -0.2690 (  1)  0.6235 (  2)  0.1885 (  3) -0.2174 (  4)  0.1635 (  6)
          -0.1751 (  8) -0.1833 (  9) -0.1906 ( 10) -0.2326 ( 11) -0.2349 ( 12)
          -0.1665 ( 13) -0.1109 ( 21) -0.1227 ( 23)  0.2083 ( 24)  0.2085 ( 25)
           0.2036 ( 26)
 CRD 22=  -0.2988 (  5)  0.2706 (  7) -0.3655 (  9)  0.3605 ( 10) -0.1379 ( 11)
           0.1326 ( 12) -0.2091 ( 21)  0.1912 ( 23) -0.2361 ( 24)  0.2405 ( 26)
           0.2934 ( 27) -0.2964 ( 30) -0.2377 ( 34) -0.2650 ( 36)  0.1598 ( 37)
 CRD 23=   0.2308 (  1) -0.1849 (  2)  0.2058 (  3) -0.5891 (  4)  0.1583 (  5)
           0.1304 (  6)  0.1652 (  7)  0.2769 (  8)  0.1006 ( 12) -0.2398 ( 14)
           0.1204 ( 15)  0.1608 ( 16)  0.1628 ( 17)  0.1609 ( 18)  0.1195 ( 20)
          -0.1658 ( 21) -0.1840 ( 22) -0.1610 ( 23) -0.1276 ( 24)  0.1090 ( 25)
          -0.1253 ( 26)  0.1460 ( 31) -0.1453 ( 32)
 CRD 24=  -0.1838 (  2)  0.1423 (  3) -0.2527 (  4)  0.1382 (  6) -0.4457 (  8)
           0.2600 (  9)  0.2652 ( 10)  0.2696 ( 13) -0.1508 ( 14)  0.2757 ( 19)
           0.1248 ( 24) -0.3430 ( 25)  0.1284 ( 26) -0.2718 ( 31)  0.2738 ( 32)
 CRD 25=  -0.2003 (  1)  0.1790 (  3)  0.1645 (  5) -0.4171 (  6)  0.2637 (  7)
           0.2312 ( 15) -0.1530 ( 16)  0.2579 ( 17) -0.2379 ( 20)  0.1090 ( 21)
          -0.2993 ( 22)  0.1784 ( 23) -0.2888 ( 28)  0.2505 ( 29) -0.2806 ( 34)
           0.2587 ( 36)
 CRD 26=   0.3099 (  5) -0.2529 (  7) -0.2543 (  9)  0.2558 ( 10) -0.1806 ( 11)
           0.1788 ( 12)  0.1208 ( 16) -0.1514 ( 18)  0.2162 ( 21) -0.1778 ( 23)
          -0.1719 ( 24)  0.1731 ( 26) -0.2424 ( 27)  0.1331 ( 29)  0.2528 ( 31)
           0.2553 ( 32) -0.2995 ( 33) -0.3422 ( 35) -0.2094 ( 37)
 CRD 27=   0.1263 (  5) -0.1139 (  7)  0.1326 ( 16) -0.1462 ( 18)  0.2843 ( 28)
           0.3049 ( 29) -0.1687 ( 30) -0.2839 ( 31) -0.2832 ( 32) -0.2441 ( 34)
          -0.4335 ( 35) -0.2234 ( 36)  0.4547 ( 37)

 THE DETERMINANT OF THE G MATRIX IS 10**(   -13)


                     --------------------
                     INTERNAL COORDINATES
                     --------------------

                 - - ATOMS - -         COORDINATE      COORDINATE
 NO.   TYPE    I  J  K  L  M  N        (BOHR,RAD)       (ANG,DEG)
 ----------------------------------------------------------------
   1 STRETCH   1  2                     2.5869363       1.3689478
   2 STRETCH   1  5                     2.6664409       1.4110199
   3 STRETCH   2  4                     2.2958409       1.2149068
   4 STRETCH   2  3                     2.8370616       1.5013084
   5 STRETCH   3  7                     2.0748628       1.0979702
   6 STRETCH   3  8                     2.0736586       1.0973330
   7 STRETCH   3  6                     2.0746120       1.0978375
   8 STRETCH   5 11                     2.0650177       1.0927604
   9 STRETCH   5 10                     2.0690167       1.0948765
  10 STRETCH   5  9                     2.0698608       1.0953232
  11 BEND      1  5  9                  1.9518163     111.8308373
  12 BEND      1  5 10                  1.9511365     111.7918884
  13 BEND      1  5 11                  1.7877151     102.4285284
  14 BEND      1  2  4                  2.0794297     119.1425478
  15 BEND      1  2  3                  1.9715312     112.9604141
  16 BEND      2  3  6                  1.9398632     111.1459766
  17 BEND      2  3  8                  1.9397179     111.1376512
  18 BEND      2  3  7                  1.9313218     110.6565886
  19 BEND      2  1  5                  2.0719785     118.7156205
  20 BEND      3  2  4                  2.2322240     127.8970146
  21 BEND      6  3  8                  1.8857588     108.0460181
  22 BEND      6  3  7                  1.8801554     107.7249719
  23 BEND      7  3  8                  1.8847958     107.9908424
  24 BEND      9  5 11                  1.9278885     110.4598759
  25 BEND      9  5 10                  1.9144736     109.6912555
  26 BEND     10  5 11                  1.9279542     110.4636401
  27 TORSION   1  2  3  8              -3.0616843    -175.4215910
  28 TORSION   1  2  3  7               1.1275042      64.6012300
  29 TORSION   1  2  3  6              -0.9607552     -55.0472169
  30 TORSION   2  1  5 11               3.1376534     179.7742997
  31 TORSION   2  1  5  9               1.0731678      61.4879883
  32 TORSION   2  1  5 10              -1.0812857     -61.9531047
  33 TORSION   3  2  1  5              -3.1387458    -179.8368889
  34 TORSION   4  2  3  7              -2.0130965    -115.3419338
  35 TORSION   4  2  3  8               0.0809003       4.6352451
  36 TORSION   4  2  3  6               2.1818295     125.0096193
  37 TORSION   4  2  1  5               0.0019506       0.1117603

     ------------------------------------------
     THE POINT GROUP IS C1 , NAXIS= 1, ORDER= 1
     ------------------------------------------

     DIMENSIONS OF THE SYMMETRY SUBSPACES ARE
 A   =  131

 ..... DONE SETTING UP THE RUN .....
 STEP CPU TIME =     0.01 TOTAL CPU TIME =        0.0 (    0.0 MIN)
 TOTAL WALL CLOCK TIME=        0.0 SECONDS, CPU UTILIZATION IS  33.33%


          -----------------------------
          STATIONARY POINT LOCATION RUN
          -----------------------------

 OBTAINING INITIAL HESSIAN, HESS=GUESS   
 DIAGONAL GUESS HESSIAN IN INTERNAL COORDS IS
     1  0.4055     2  0.3736     3  0.5470     4  0.3882     5  0.3410
     6  0.3415     7  0.3411     8  0.3445     9  0.3431    10  0.3428
    11  0.2201    12  0.2202    13  0.2203    14  0.2567    15  0.2491
    16  0.2253    17  0.2254    18  0.2253    19  0.2429    20  0.2604
    21  0.2026    22  0.2026    23  0.2026    24  0.2030    25  0.2029
    26  0.2030    27  0.2500    28  0.2500    29  0.2500    30  0.2500
    31  0.2500    32  0.2500    33  0.2500    34  0.2500    35  0.2500
    36  0.2500    37  0.2500
 TRANSFORMING HESSIAN TO SYMMETRY COORDINATES

          PARAMETERS CONTROLLING GEOMETRY SEARCH ARE
          METHOD =QA                  UPHESS =BFGS    
          NNEG   =         0          NFRZ   =         3
          NSTEP  =        50          IFOLOW =         1
          HESS   =GUESS               RESTAR =         F
          IHREP  =         0          HSSEND =         F
          NPRT   =         0          NPUN   =         0
          OPTTOL = 5.000E-04          RMIN   = 1.500E-03
          RMAX   = 1.000E-01          RLIM   = 7.000E-02
          DXMAX  = 3.000E-01          PURIFY =         F
          MOVIE  =         F          TRUPD  =         T
          TRMAX  = 5.000E-01          TRMIN  = 5.000E-02
          ITBMAT =         5          STPT   =         F
          STSTEP = 1.000E-02          PROJCT=          F
          FROZEN COORD(S)=   1   2   3


      ***** EQUILIBRIUM GEOMETRY LOCATED *****
            (SUBJECT TO   3 CONSTRAINT(S))
 COORDINATES OF ALL ATOMS ARE (ANGS)
   ATOM   CHARGE       X              Y              Z
 ------------------------------------------------------------
 O           8.0   2.3833071196   2.4396706979   0.9799528218
 C           6.0   1.9782889701   1.1836239525   0.9552704291
 C           6.0   0.4773184991   1.0456748312   1.0120407449
 O           8.0   2.7289825464   0.2613435255   0.8903461331
 C           6.0   3.7829829985   2.7347201104   0.9279804890
 H           1.0   0.0795421105   1.5648156530   1.8764330801
 H           1.0   0.0313716579   1.4816867764   0.1243410765
 H           1.0   0.2164078472  -0.0025261823   1.0654208636
 H           1.0   4.2258212648   2.3658799931   0.0123904552
 H           1.0   4.3013403301   2.3129645191   1.7788559030
 H           1.0   3.8533820732   3.8118265847   0.9573613589


                     --------------------
                     INTERNAL COORDINATES
                     --------------------

                 - - ATOMS - -         COORDINATE      COORDINATE
 NO.   TYPE    I  J  K  L  M  N        (BOHR,RAD)       (ANG,DEG)
 ----------------------------------------------------------------
   1 STRETCH   1  2                     2.4943684       1.3199630
   2 STRETCH   1  5                     2.7049154       1.4313797
   3 STRETCH   2  4                     2.2505654       1.1909480
   4 STRETCH   2  3                     2.8503967       1.5083651
   5 STRETCH   3  7                     2.0501443       1.0848897
   6 STRETCH   3  8                     2.0437447       1.0815032
   7 STRETCH   3  6                     2.0483334       1.0839314
   8 STRETCH   5 11                     2.0405345       1.0798044
   9 STRETCH   5 10                     2.0445412       1.0819247
  10 STRETCH   5  9                     2.0444476       1.0818752
  11 BEND      1  5  9                  1.9398275     111.1439308
  12 BEND      1  5 10                  1.9386208     111.0747909
  13 BEND      1  5 11                  1.8425057     105.5678006
  14 BEND      1  2  4                  2.1466099     122.9916881
  15 BEND      1  2  3                  1.9732314     113.0578285
  16 BEND      2  3  6                  1.9298499     110.5722566
  17 BEND      2  3  8                  1.9076964     109.3029520
  18 BEND      2  3  7                  1.9192935     109.9674188
  19 BEND      2  1  5                  2.0892221     119.7036067
  20 BEND      3  2  4                  2.1633366     123.9500576
  21 BEND      6  3  8                  1.9137837     109.6517282
  22 BEND      6  3  7                  1.8851297     108.0099772
  23 BEND      7  3  8                  1.9078842     109.3137113
  24 BEND      9  5 11                  1.9139046     109.6586546
  25 BEND      9  5 10                  1.9140561     109.6673357
  26 BEND     10  5 11                  1.9136872     109.6461998
  27 TORSION   1  2  3  8              -3.0660626    -175.6724465
  28 TORSION   1  2  3  7               1.1226004      64.3202666
  29 TORSION   1  2  3  6              -0.9576817     -54.8711199
  30 TORSION   2  1  5 11               3.1377068     179.7773558
  31 TORSION   2  1  5  9               1.0637647      60.9492295
  32 TORSION   2  1  5 10              -1.0724362     -61.4460695
  33 TORSION   3  2  1  5              -3.1379824    -179.7931500
  34 TORSION   4  2  3  7              -2.0149507    -115.4481729
  35 TORSION   4  2  3  8               0.0795715       4.5591140
  36 TORSION   4  2  3  6               2.1879524     125.3604406
  37 TORSION   4  2  1  5              -0.0003868      -0.0221637

          INTERNUCLEAR DISTANCES (ANGS.)


 =====================================================
   GAMESS/COSab RESULTS
 =====================================================

   Dielectric Constant                  = INFTY
   Basic Grid Size                      =                 1082
   Number of Segments                   =                   92
   Number of Segments located on spheres=                  217
   Number of Segments of the cavity     =                  439
   Solvent Radius (rsolv)               = 1.40
   Outlying Charge Error Method         = double cavity

 =====================================================

  Total solvated Energy (a.u.)          =  -266.9190256774
  Total Energy corrected (a.u.)         =  -266.9188171041

  Outlying charge effect (a.u.)         =     0.0002085733
  Outlying charge effect (kcal/mol)     =     0.1308818226

  Dielectric Energy (a.u.)              =    -0.0133091484
  Dielectric energy corr. (a.u.)        =    -0.0131005751

  Sum of polarization charges           =     0.0160763624
  Sum of polarization charges(cor.)     =    -0.0160763624

  Total surface area of cavity (A**2)   =  112.85
  Total volume of cavity (A**3)         =   96.69

 =====================================================
 NPS=                   439
NR.  ATOM  (X, Y, Z)(a.u.)                  CHARGE(e)  AREA(A**2) SIGMA(e/A**2)
   1   1   3.271496   6.344248   4.309371   0.002990   0.206154   0.014505
   2   1   2.383451   6.975223   1.161983   0.003993   0.274871   0.014528
   3   1   3.718334   7.150718   3.721048   0.003744   0.343589   0.010896
   4   1   3.589104   7.722926   1.652980   0.001884   0.171795   0.010968
   5   1   3.089083   7.491531   1.340241   0.003372   0.240512   0.014022
   6   1   2.852394   7.051236   3.222720   0.002970   0.206154   0.014406
   7   1   2.460229   7.119506   2.155710   0.003853   0.274871   0.014017
   8   1   3.029582   6.905408   0.084405   0.003248   0.240512   0.013504
   9   1   3.762709   6.535518  -0.659932   0.003013   0.240512   0.012527
  10   1   4.106598   6.164482   4.678738   0.002434   0.206154   0.011809
  11   1   2.758783   6.577338   3.762413   0.002890   0.171795   0.016824
  12   1   2.428384   6.559755   0.284380   0.002994   0.171795   0.017425
  13   1   3.444434   5.489781  -1.092465   0.002089   0.171795   0.012158
  14   1   4.014183   5.542182  -1.223311   0.001173   0.171795   0.006827
  15   1   3.868643   5.177764   4.988582   0.001360   0.137436   0.009897
  16   1   3.428546   5.781139   4.686900   0.002175   0.171795   0.012659
  17   1   3.427014   7.577105   2.628523   0.004470   0.343589   0.013011
  18   1   3.490562   7.346171   0.419003   0.002766   0.240512   0.011500
  19   1   2.236815   6.719094   2.840975   0.002432   0.137436   0.017696
  20   1   2.986759   6.189242  -0.550284   0.003084   0.240512   0.012823
  21   1   4.408278   5.069516   5.068141   0.000950   0.137436   0.006914
  22   2   3.128314   3.668746  -1.638830  -0.000829   0.139368  -0.005945
  23   2   3.206805   0.403238  -1.456706  -0.000011   0.139368  -0.000077
  24   2   4.869469   1.261337   5.277029  -0.000258   0.139368  -0.001848
  25   2   3.325339   3.477404   5.351222  -0.001191   0.185824  -0.006407
  26   2   3.826770   1.149042  -1.813288  -0.000721   0.232280  -0.003103
  27   2   4.748313   1.770598  -1.806885  -0.000595   0.232280  -0.002562
  28   2   5.339139   1.758165   5.195322  -0.000371   0.139368  -0.002663
  29   2   3.314738  -0.062060   4.775107  -0.000178   0.092912  -0.001913
  30   2   3.123616   1.308798  -1.806624  -0.001019   0.185824  -0.005482
  31   2   3.267026   2.442987  -1.939066  -0.002650   0.278737  -0.009509
  32   2   3.857198   3.296545  -1.820672  -0.002479   0.325193  -0.007624
  33   2   4.551300   2.605083  -1.867379  -0.001292   0.185824  -0.006952
  34   2   4.302154   2.982817   5.467134  -0.001906   0.232280  -0.008205
  35   2   4.589628   1.964084   5.477440  -0.001842   0.278737  -0.006610
  36   2   3.693544   0.990625   5.373038  -0.001321   0.464561  -0.002843
  37   2   3.546486   2.423496   5.575146  -0.003978   0.418105  -0.009514
  38   2   3.956064   1.985723  -1.959628  -0.001104   0.185824  -0.005940
  39   3   1.479533  -0.098420  -1.193536  -0.000370   0.232280  -0.001592
  40   3  -1.812579   0.470904  -0.243888   0.000718   0.418105   0.001718
  41   3   1.401363   0.243328   5.234025  -0.000122   0.325193  -0.000376
  42   3  -2.305176   3.943239   1.554149   0.000328   0.418105   0.000785
  43   3  -2.402955   0.897965   3.395501   0.000044   0.325193   0.000134
  44   3   1.307464  -0.800576  -0.619375  -0.000246   0.232280  -0.001059
  45   3   1.363326   1.011441  -1.712567  -0.000419   0.185824  -0.002255
  46   3   0.660430   0.064696  -1.339085   0.000102   0.232280   0.000441
  47   3  -0.267158   0.144059  -1.179638   0.000344   0.232280   0.001480
  48   3  -1.937169   1.219782   4.289772   0.000045   0.325193   0.000139
  49   3  -2.099372   4.206635   2.460626  -0.000056   0.278737  -0.000200
  50   3  -0.009530   5.583569   2.575087  -0.000036   0.185824  -0.000195
  51   3   0.729488   1.019874   5.564917   0.000142   0.325193   0.000436
  52   3  -0.914306   0.528708  -1.069221   0.000182   0.232280   0.000784
  53   3  -0.961721  -0.309119  -0.451603   0.000374   0.325193   0.001149
  54   3   1.772015   1.045145   5.470682  -0.000320   0.139368  -0.002297
  55   3  -0.243015   5.554851   1.505972   0.000098   0.325193   0.000301
  56   3  -1.446555   4.919712   1.591058   0.000579   0.325193   0.001781
  57   3  -2.730764   2.928829   2.336154  -0.000096   0.464561  -0.000206
  58   3  -2.759540   1.526805   2.734444  -0.000207   0.325193  -0.000636
  59   3  -1.261993   0.221154   4.466270   0.000675   0.418105   0.001615
  60   3   0.344031   0.137798   5.167301   0.000244   0.232280   0.001052
  61   3   1.084772  -0.602767   4.669412  -0.000087   0.232280  -0.000373
  62   3   1.812851  -0.546118   4.575821  -0.000342   0.185824  -0.001842
  63   3   0.238022   5.562306   0.921514  -0.000181   0.139368  -0.001299
  64   3  -2.707180   2.692014   1.049073  -0.000379   0.418105  -0.000905
  65   3  -2.525722   1.392041   0.431278  -0.000202   0.418105  -0.000482
  66   3  -2.353403   0.345895   0.897938  -0.000038   0.464561  -0.000082
  67   3  -2.495897   0.359194   2.265230  -0.000196   0.371649  -0.000528
  68   3  -1.978808   0.150393   3.541066   0.000045   0.232280   0.000195
  69   3   0.647455   0.850338  -1.686444  -0.000132   0.232280  -0.000568
  70   3   0.239250  -0.590415  -0.781655   0.000155   0.278737   0.000557
  71   3  -2.579035   2.299928   3.348375  -0.000423   0.325193  -0.001301
  72   3  -0.851353   5.315491   2.153390   0.000237   0.278737   0.000852
  73   3   1.441764   1.657673   5.639622  -0.000282   0.139368  -0.002026
  74   3  -0.530836   0.765875   5.193761   0.000380   0.325193   0.001168
  75   3  -2.850776   1.586020   1.691435  -0.000361   0.464561  -0.000778
  76   3  -0.131212  -0.249087   4.787479   0.000280   0.232280   0.001205
  77   4   7.132906  -2.081953   1.522355   0.005103   0.377948   0.013502
  78   4   4.738690  -1.823791  -0.557590   0.004108   0.274871   0.014945
  79   4   4.102209  -2.434079   2.620140   0.004926   0.274871   0.017921
  80   4   6.313101  -0.720648   4.466952   0.004426   0.343589   0.012882
  81   4   7.077751   0.108529  -0.911114   0.004448   0.274871   0.016181
  82   4   6.449755  -2.262826   0.544933   0.005708   0.412307   0.013844
  83   4   5.469208  -2.223620  -0.073164   0.005110   0.343589   0.014871
  84   4   6.128307  -2.600650   1.895096   0.006005   0.412307   0.014564
  85   4   5.032887  -2.703988   2.250798   0.005679   0.343589   0.016529
  86   4   7.099514  -1.897168   2.719003   0.005588   0.412307   0.013552
  87   4   6.977985  -1.279113   3.708664   0.005075   0.377948   0.013428
  88   4   7.900084  -1.239862   1.868016   0.005420   0.377948   0.014339
  89   4   8.288239  -0.270982   2.100972   0.006337   0.343589   0.018443
  90   4   7.580421  -1.382932   0.601142   0.006779   0.481025   0.014092
  91   4   7.488733  -0.719944  -0.229131   0.003901   0.274871   0.014192
  92   4   4.330463  -2.337879   0.317732   0.004595   0.274871   0.016717
  93   4   4.155144  -2.595820   1.561268   0.005916   0.309230   0.019133
  94   4   4.858553  -2.234327   3.423928   0.005369   0.343589   0.015625
  95   4   5.611672  -1.525620   4.188431   0.005678   0.412307   0.013771
  96   4   7.252051  -0.179621   4.074567   0.004844   0.309230   0.015663
  97   4   7.973100  -0.122252   3.184094   0.004045   0.240512   0.016818
  98   4   7.822356  -0.002682  -0.110258   0.003333   0.206154   0.016170
  99   4   6.514936  -0.580368  -1.068246   0.004531   0.343589   0.013187
 100   4   5.537918  -1.259639  -1.027602   0.005592   0.412307   0.013564
 101   4   3.768958  -1.684690  -0.290246   0.004356   0.274871   0.015847
 102   4   3.985164  -1.935806   3.495825   0.003106   0.171795   0.018078
 103   4   4.781825  -0.707608   4.679238   0.001833   0.206154   0.008894
 104   4   5.453592  -0.319086   4.815536   0.002884   0.240512   0.011990
 105   4   6.322929   0.333447   4.712298   0.003830   0.309230   0.012385
 106   4   5.978901   0.454249  -1.461932   0.003312   0.274871   0.012051
 107   4   4.261222  -0.904710  -1.111431   0.004756   0.377948   0.012585
 108   4   5.257178  -2.681031   0.993595   0.006629   0.412307   0.016079
 109   4   6.029780  -2.248614   3.193054   0.006918   0.481025   0.014381
 110   4   7.770328  -0.908444   3.012471   0.003915   0.274871   0.014244
 111   4   8.228428  -0.259521   0.931862   0.006190   0.377948   0.016379
 112   4   6.585519  -1.534645  -0.417279   0.005105   0.377948   0.013508
 113   4   3.748663  -2.309525   0.832725   0.002567   0.137436   0.018676
 114   4   4.344169  -1.409122   4.189019   0.005093   0.343589   0.014824
 115   4   5.219523  -0.213769  -1.489227   0.004640   0.377948   0.012277
 116   5   5.823553   6.557756   5.008815  -0.000445   0.278737  -0.001597
 117   5   5.631310   5.749172  -1.658639  -0.000226   0.185824  -0.001215
 118   5   8.410846   7.668739  -0.783535  -0.000090   0.278737  -0.000323
 119   5  10.914201   5.461984   1.613932  -0.001475   0.371649  -0.003969
 120   5   9.805510   2.491496   2.004846   0.000024   0.185824   0.000128
 121   5   5.589608   7.396030   4.378232  -0.000295   0.232280  -0.001269
 122   5   5.273110   7.835519   3.664065  -0.000168   0.092912  -0.001810
 123   5   6.750442   7.410880   4.769344  -0.000046   0.418105  -0.000109
 124   5   7.960378   7.658000   4.478500  -0.000100   0.278737  -0.000358
 125   5   6.674343   5.964652   5.417550  -0.000333   0.325193  -0.001024
 126   5   7.359021   6.373105   5.329592  -0.000017   0.278737  -0.000062
 127   5   5.941476   5.566313   5.312827  -0.000225   0.185824  -0.001211
 128   5   9.640997   2.417655   1.039863  -0.000008   0.185824  -0.000044
 129   5  10.744494   4.966113   0.607101  -0.001641   0.418105  -0.003924
 130   5   8.437495   6.933543  -1.329543  -0.000014   0.371649  -0.000038
 131   5   6.132086   5.235570  -1.885870  -0.000550   0.278737  -0.001973
 132   5   9.178247   7.350534   4.077771  -0.000160   0.464561  -0.000344
 133   5   9.225135   6.655167   4.539501  -0.000162   0.232280  -0.000699
 134   5   6.083345   6.576092  -1.587927  -0.000422   0.325193  -0.001299
 135   5   7.241124   7.521600  -1.201998   0.000072   0.371649   0.000195
 136   5   9.503732   7.399924  -0.184548  -0.000582   0.511017  -0.001139
 137   5  10.567013   6.365929   0.674392  -0.001537   0.418105  -0.003677
 138   5  10.803168   4.231662   1.522665  -0.000739   0.325193  -0.002273
 139   5  10.229595   2.978792   1.724518   0.000032   0.278737   0.000115
 140   5   5.515494   7.188631  -0.991026  -0.000335   0.278737  -0.001202
 141   5   5.344959   7.905771  -0.126363  -0.000457   0.232280  -0.001967
 142   5   9.948715   7.462615   2.839416  -0.001371   0.511017  -0.002682
 143   5  10.654108   6.516683   2.175307  -0.002206   0.557473  -0.003958
 144   5  10.815065   5.161541   2.671627  -0.001515   0.371649  -0.004077
 145   5   6.172517   7.776250   4.308536  -0.000330   0.139368  -0.002366
 146   5   8.091151   6.889610   4.983473   0.000161   0.371649   0.000432
 147   5   6.298772   4.776149   5.415359  -0.000418   0.185824  -0.002248
 148   5  10.470741   3.477143   1.128833  -0.000419   0.232280  -0.001805
 149   5  10.063050   6.433242  -0.293383  -0.001045   0.371649  -0.002811
 150   5   7.064408   6.540309  -1.766820  -0.000034   0.371649  -0.000092
 151   5  10.300911   6.350538   3.471122  -0.001147   0.418105  -0.002743
 152   5   6.254089   7.685259  -0.919674  -0.000315   0.278737  -0.001131
 153   5  10.131550   7.418088   1.184394  -0.001624   0.464561  -0.003496
 154   5  10.666937   3.906654   2.316014  -0.000604   0.232280  -0.002600
 155   6  -0.772234   3.892256   5.621851  -0.004540   0.510320  -0.008896
 156   6   0.749998   3.959723   5.706996  -0.003140   0.392554  -0.007998
 157   6  -0.146086   2.287135   5.890806  -0.001757   0.333671  -0.005265
 158   6  -1.824543   2.780622   4.996406  -0.002643   0.431809  -0.006121
 159   6  -1.518935   4.731509   3.862267  -0.002139   0.392554  -0.005450
 160   6  -0.275089   5.321132   4.061070  -0.002434   0.392554  -0.006201
 161   6   0.519278   3.064201   5.972351  -0.002588   0.412182  -0.006279
 162   6  -1.050601   2.532511   5.646560  -0.002900   0.431809  -0.006715
 163   6  -2.001591   3.745277   4.430869  -0.003270   0.490692  -0.006664
 164   6  -0.978415   4.739257   4.804855  -0.003376   0.412182  -0.008190
 165   6   0.292446   4.818010   5.143378  -0.003556   0.431809  -0.008235
 166   7  -1.016126   3.778274  -1.745313  -0.005386   0.588831  -0.009147
 167   7  -1.046766   1.807934  -1.721459  -0.001915   0.372926  -0.005134
 168   7   0.639922   2.767773  -2.151856  -0.002484   0.353299  -0.007030
 169   7   0.177796   4.632159  -1.397254  -0.002925   0.333671  -0.008767
 170   7  -1.384934   4.731786  -0.231319  -0.002144   0.372926  -0.005750
 171   7  -2.247634   2.970623  -0.592130  -0.002105   0.372926  -0.005645
 172   7  -0.304807   2.479318  -2.173292  -0.003310   0.471065  -0.007026
 173   7   0.367783   3.852570  -1.963206  -0.003208   0.392554  -0.008171
 174   7  -0.501554   4.989423  -0.727769  -0.003266   0.451437  -0.007235
 175   7  -1.960336   3.970533  -0.530546  -0.003288   0.471065  -0.006980
 176   7  -1.754874   2.533448  -1.399928  -0.003550   0.490692  -0.007235
 177   8  -0.447263  -2.301240   2.181482  -0.004253   0.510320  -0.008333
 178   8   0.384603  -1.820643   0.358935  -0.002417   0.412182  -0.005864
 179   8  -1.551612  -1.308869   1.312886  -0.001871   0.353299  -0.005295
 180   8  -1.121893  -1.279509   3.450965  -0.001825   0.353299  -0.005166
 181   8   0.798772  -1.727061   3.721246  -0.002042   0.353299  -0.005780
 182   8   0.685113  -2.358247   1.365287  -0.003946   0.490692  -0.008041
 183   8  -0.748624  -1.792416   0.788829  -0.003204   0.510320  -0.006278
 184   8  -1.512002  -1.488916   2.390724  -0.003079   0.471065  -0.006537
 185   8  -0.262198  -1.791406   3.560175  -0.002832   0.451437  -0.006272
 186   8   0.768497  -2.341175   2.681989  -0.003633   0.451437  -0.008048
 187   9   9.053178   3.789402  -2.081594  -0.003930   0.471065  -0.008343
 188   9   8.825365   5.613280  -1.982796  -0.001715   0.333671  -0.005139
 189   9   7.204069   4.365890  -2.303218  -0.002280   0.372926  -0.006113
 190   9   9.680903   2.778771  -0.522458  -0.002226   0.353299  -0.006300
 191   9  10.223307   4.661665  -0.972356  -0.002226   0.372926  -0.005969
 192   9   8.141969   4.863093  -2.396673  -0.003041   0.471065  -0.006455
 193   9   7.851882   3.323721  -2.144821  -0.003740   0.451437  -0.008284
 194   9   8.980370   2.762358  -1.434868  -0.003407   0.412182  -0.008267
 195   9  10.105605   3.629488  -0.889235  -0.003149   0.471065  -0.006685
 196   9   9.607264   4.966911  -1.754054  -0.003291   0.471065  -0.006986
 197  10   9.684026   3.766897   5.164382  -0.003555   0.431809  -0.008232
 198  10   7.620737   3.745496   5.682386  -0.002924   0.392554  -0.007447
 199  10   8.168166   4.956240   5.747092  -0.001812   0.372926  -0.004859
 200  10  10.147594   4.926885   4.645540  -0.002320   0.372926  -0.006221
 201  10  10.096262   2.917043   3.582615  -0.002129   0.353299  -0.006027
 202  10   8.701252   3.994244   5.720577  -0.002787   0.372926  -0.007473
 203  10   9.320141   5.194610   5.345530  -0.002612   0.431809  -0.006048
 204  10  10.434211   3.947709   4.095782  -0.003093   0.471065  -0.006565
 205  10   9.519059   2.587825   4.321660  -0.003637   0.451437  -0.008058
 206  10   8.680536   2.888991   5.241500  -0.003728   0.431809  -0.008635
 207  11   7.445116   9.654330   1.838917  -0.005453   0.608459  -0.008963
 208  11   8.093379   8.831303   3.460245  -0.002214   0.392554  -0.005640
 209  11   6.031430   8.927024   3.034053  -0.002172   0.353299  -0.006148
 210  11   5.878744   9.025191   0.944776  -0.002179   0.353299  -0.006169
 211  11   7.913883   8.901350   0.150171  -0.002153   0.372926  -0.005775
 212  11   9.175599   8.767197   1.754677  -0.002480   0.412182  -0.006016
 213  11   7.020534   9.145979   3.289974  -0.003408   0.490692  -0.006946
 214  11   6.015973   9.301303   1.985461  -0.004066   0.510320  -0.007968
 215  11   6.865725   9.229088   0.483211  -0.003505   0.510320  -0.006868
 216  11   8.543764   9.129881   0.954225  -0.003457   0.471065  -0.007340
 217  11   8.602105   9.110337   2.618592  -0.003585   0.471065  -0.007610
 218   1   4.599590   4.575996  -1.413568   0.000141   0.051718   0.002724
 219   2   4.467202   4.162393  -1.479021  -0.000135   0.051718  -0.002611
 220   5   5.062403   4.673033  -1.484767  -0.000039   0.051718  -0.000747
 221   1   4.887397   4.355477   5.086199   0.000152   0.051718   0.002941
 222   2   4.760067   3.937999   5.134955  -0.000146   0.051718  -0.002823
 223   5   5.354977   4.448861   5.122660  -0.000024   0.051718  -0.000456
 224   1   2.992885   4.497994   4.881400   0.000152   0.085844   0.001766
 225   2   2.826374   4.107658   4.999053  -0.000535   0.085844  -0.006230
 226   6   2.080418   4.102421   5.058176  -0.000805   0.085844  -0.009373
 227   1   2.770093   4.656437  -1.066376   0.000097   0.081409   0.001190
 228   2   2.593191   4.276297  -1.199794  -0.000661   0.081409  -0.008122
 229   7   1.851456   4.212224  -1.233792  -0.000809   0.081409  -0.009936
 230   2   3.434973   4.191780  -1.401330  -0.000589   0.203226  -0.002899
 231   1   3.898286   4.687124  -1.325745   0.000859   0.190459   0.004512
 232   2   3.952931   3.895500   5.177185  -0.000716   0.209649  -0.003415
 233   1   3.898812   4.562149   5.025995   0.000941   0.196479   0.004787
 234   1   1.499510   5.912922   3.068916   0.000479   0.056892   0.008413
 235   3   0.767816   5.581544   3.137063  -0.000123   0.056892  -0.002162
 236   6   0.643579   5.491398   3.397931  -0.000306   0.056892  -0.005384
 237   1   1.539778   5.770596   0.394847   0.000481   0.051061   0.009428
 238   3   0.809573   5.436222   0.328519  -0.000156   0.051061  -0.003051
 239   7   0.661087   5.319230   0.092088  -0.000276   0.051061  -0.005404
 240   3   0.740995   5.800998   2.503695   0.000145   0.368782   0.000394
 241   3   0.773962   5.719574   0.924902   0.000116   0.368782   0.000315
 242   1   1.797454   6.284024   1.709003   0.008045   0.680891   0.011815
 243   1   4.455032   7.881023   1.069920   0.000129   0.016560   0.007768
 244   5   4.875346   8.101541   1.019306  -0.000063   0.016560  -0.003834
 245  11   5.089589   8.294452   1.100365  -0.000115   0.016560  -0.006924
 246   1   4.531560   7.828004   2.830101   0.000107   0.016560   0.006438
 247   5   4.955254   8.046180   2.857234  -0.000079   0.016560  -0.004799
 248  11   5.162165   8.244171   2.769638  -0.000125   0.016560  -0.007524
 249   5   5.222984   5.343596  -1.514530  -0.000023   0.177176  -0.000131
 250   5   4.942307   6.812507  -0.734071   0.000395   0.348229   0.001134
 251   5   4.766467   7.875275   0.564082   0.000033   0.177176   0.000188
 252   1   4.464995   5.735548  -1.104508   0.002178   0.334347   0.006513
 253   1   4.191329   7.253203   0.141549   0.002573   0.334347   0.007696
 254   5   4.886080   7.791118   3.307910   0.000024   0.178249   0.000134
 255   5   5.173205   6.643148   4.523384   0.000438   0.350314   0.001252
 256   5   5.519007   5.118881   5.182688  -0.000018   0.178249  -0.000099
 257   1   4.348873   7.140038   3.742348   0.002325   0.336539   0.006908
 258   1   4.728280   5.538172   4.866178   0.002222   0.336539   0.006604
 259   6   1.572129   4.452424   5.147975  -0.001314   0.265990  -0.004939
 260   6   0.923669   5.257470   4.267193  -0.002460   0.536035  -0.004588
 261   1   2.597522   5.416975   4.513542   0.004357   0.655705   0.006645
 262   1   1.895278   6.190040   3.463335   0.002906   0.330649   0.008788
 263   7   0.717512   5.239197  -0.409697  -0.001319   0.316343  -0.004170
 264   7   1.293401   4.563694  -1.236398  -0.001675   0.316343  -0.005295
 265   1   2.288662   5.558251  -0.465832   0.004791   0.780809   0.006136
 266  11   5.126005   8.487126   1.442172  -0.000914   0.193929  -0.004712
 267  11   5.169308   8.457126   2.438156  -0.000900   0.193929  -0.004638
 268   1   4.228875   7.885001   1.962425   0.001933   0.466702   0.004142
 269   2   2.920350  -0.215039  -0.963956  -0.000006   0.038120  -0.000167
 270   3   2.432055  -0.233278  -0.907984  -0.000179   0.038120  -0.004697
 271   4   3.215602  -0.461091  -0.880466   0.000372   0.038120   0.009749
 272   2   3.143245  -0.414307   4.444586   0.000001   0.038120   0.000014
 273   3   2.651949  -0.429863   4.427739  -0.000181   0.038120  -0.004739
 274   4   3.429891  -0.652666   4.319268   0.000258   0.038120   0.006777
 275   2   2.428131   2.619323   5.442972  -0.000489   0.026077  -0.018759
 276   3   1.941900   2.577963   5.503355  -0.000316   0.026077  -0.012114
 277   6   1.700249   2.751067   5.555113  -0.000260   0.026077  -0.009962
 278   2   2.194839   2.216694  -1.759778  -0.000516   0.026917  -0.019184
 279   3   1.705827   2.170562  -1.783001  -0.000338   0.026917  -0.012563
 280   7   1.464537   2.344138  -1.837660  -0.000275   0.026917  -0.010204
 281   3   1.876417   1.603916  -1.730467  -0.001355   0.203307  -0.006665
 282   3   2.020376   0.231217  -1.259882  -0.000843   0.203307  -0.004148
 283   2   2.650122   0.995462  -1.482620  -0.003571   0.412528  -0.008656
 284   3   2.262039   0.134622   4.894290  -0.001111   0.259807  -0.004276
 285   3   2.123348   1.879151   5.466437  -0.001738   0.259807  -0.006689
 286   2   2.889874   1.091913   5.090110  -0.006073   0.539733  -0.011252
 287   2   5.830612   1.985534  -1.421731   0.000019   0.113098   0.000170
 288   4   6.052703   1.666013  -1.341410   0.000906   0.113098   0.008012
 289   9   6.636289   2.535026  -1.467133  -0.000300   0.113098  -0.002654
 290   2   6.106895   1.774084   4.809990   0.000075   0.113229   0.000659
 291   4   6.319938   1.461501   4.688430   0.000838   0.113229   0.007401
 292  10   6.913838   2.325036   4.822959  -0.000367   0.113229  -0.003243
 293   4   5.781564   0.784911   4.858342   0.001194   0.135114   0.008835
 294   4   4.530787  -0.221742   4.696093   0.002394   0.284723   0.008409
 295   2   4.959769   0.815525   4.989369   0.000716   0.281054   0.002547
 296   2   3.678257  -0.206463   4.689577   0.000474   0.144171   0.003284
 297   4   3.974016  -0.260177  -1.196290   0.001702   0.200732   0.008480
 298   4   5.344778   0.876334  -1.491452   0.001724   0.200732   0.008587
 299   2   4.306061   0.730290  -1.359088   0.001038   0.423595   0.002449
 300   2   5.326177   3.590780  -1.600477  -0.000500   0.056932  -0.008781
 301   5   5.911892   4.103032  -1.688898  -0.000381   0.056932  -0.006688
 302   9   6.189041   4.014191  -1.768742  -0.000516   0.056932  -0.009072
 303   2   5.611807   3.377944   5.143318  -0.000529   0.056773  -0.009315
 304   5   6.204255   3.885128   5.214305  -0.000404   0.056773  -0.007112
 305  10   6.487288   3.793425   5.264982  -0.000407   0.056773  -0.007172
 306   5   5.552391   4.372261  -1.711880  -0.000436   0.202592  -0.002150
 307   2   4.603965   3.760486  -1.676222  -0.000714   0.202592  -0.003524
 308   5   5.755094   4.259407   5.279446  -0.000340   0.197162  -0.001724
 309   2   5.005897   3.415540   5.298474  -0.000891   0.197162  -0.004519
 310   6   1.593268   3.292242   5.514232  -0.002151   0.253223  -0.008496
 311   2   2.706430   3.423332   5.322478  -0.002364   0.356583  -0.006629
 312   7   1.403716   3.778272  -1.624303  -0.001638   0.183984  -0.008904
 313   7   1.363048   2.768535  -1.891219  -0.001438   0.183984  -0.007819
 314   2   2.468328   3.200958  -1.649007  -0.004457   0.505501  -0.008818
 315   9   6.713097   3.327334  -1.837688  -0.002134   0.346702  -0.006156
 316   2   5.340336   2.843354  -1.733667  -0.001752   0.490641  -0.003570
 317  10   6.887780   3.327648   5.298900  -0.002216   0.352310  -0.006290
 318   2   5.763485   2.403446   5.169147  -0.001689   0.498596  -0.003387
 319   3   2.092228  -1.117578   3.806228  -0.000166   0.064847  -0.002559
 320   4   2.880623  -1.260758   3.653065   0.000503   0.064847   0.007749
 321   8   1.909535  -1.302092   3.651684  -0.000312   0.064847  -0.004810
 322   3   1.847104  -1.245545   0.095467  -0.000135   0.064847  -0.002086
 323   4   2.649429  -1.381453   0.153175   0.000630   0.064847   0.009722
 324   8   1.687137  -1.418195   0.284963  -0.000276   0.064847  -0.004249
 325   4   3.459544  -1.058041   4.133846   0.001660   0.212581   0.007809
 326   3   2.291362  -0.883730   4.190466  -0.000118   0.234718  -0.000504
 327   4   3.172977  -1.177470  -0.398753   0.003034   0.335563   0.009041
 328   3   2.093127  -0.706159  -0.621959  -0.000305   0.370462  -0.000824
 329   6  -0.039540   5.403953   3.478669  -0.000444   0.070441  -0.006302
 330   6  -1.076136   4.997098   3.246009  -0.000906   0.157287  -0.005758
 331   6  -2.006160   4.000485   3.416599  -0.001079   0.157287  -0.006858
 332   6  -2.188786   2.797780   4.054900  -0.001098   0.157287  -0.006978
 333   6  -1.544681   1.911435   4.883637  -0.000957   0.157287  -0.006083
 334   6  -0.353644   1.726478   5.542806  -0.000919   0.157287  -0.005842
 335   6   0.866940   2.323254   5.746066  -0.001143   0.157287  -0.007264
 336   3  -0.346299   5.329128   2.964566  -0.000794   0.153554  -0.005172
 337   3  -1.656928   4.523634   2.845225  -0.000719   0.153554  -0.004683
 338   3  -2.318742   3.215460   3.326360  -0.000877   0.153554  -0.005709
 339   3  -2.044250   1.972874   4.198968  -0.000873   0.153554  -0.005683
 340   3  -0.952691   1.335654   5.083988  -0.000694   0.153554  -0.004522
 341   3   0.481763   1.580608   5.596968  -0.000855   0.153554  -0.005566
 342   3   1.503767   2.309144   5.629712  -0.000519   0.086059  -0.006035
 343   7   0.957323   2.187412  -1.966105  -0.000427   0.071031  -0.006010
 344   7   0.020750   1.547692  -1.809824  -0.001000   0.158795  -0.006299
 345   7  -1.233020   1.421671  -1.241884  -0.001005   0.158795  -0.006328
 346   7  -2.132885   2.111165  -0.451176  -0.001072   0.158795  -0.006749
 347   7  -2.283197   3.313023   0.214648  -0.001082   0.158795  -0.006816
 348   7  -1.617869   4.498821   0.462843  -0.000957   0.158795  -0.006024
 349   7  -0.429427   5.147195   0.184285  -0.001052   0.158795  -0.006622
 350   3   0.872309   1.611681  -1.798032  -0.001060   0.154675  -0.006854
 351   3  -0.502768   1.009230  -1.403161  -0.000743   0.154675  -0.004804
 352   3  -1.784654   1.344621  -0.594466  -0.000831   0.154675  -0.005370
 353   3  -2.409741   2.470392   0.272491  -0.000943   0.154675  -0.006096
 354   3  -2.103193   3.891572   0.816533  -0.000854   0.154675  -0.005519
 355   3  -0.999792   4.983308   0.798460  -0.000808   0.154675  -0.005222
 356   3   0.141926   5.360479   0.410168  -0.000407   0.086780  -0.004694
 357   8   1.269852  -1.355740   3.877681  -0.000373   0.065817  -0.005669
 358   8   0.269945  -1.092574   4.157947  -0.000744   0.145121  -0.005128
 359   8  -0.952488  -0.804881   3.832211  -0.000787   0.145121  -0.005425
 360   8  -1.762113  -0.654411   2.829673  -0.000853   0.145121  -0.005876
 361   8  -1.847578  -0.699028   1.535873  -0.000916   0.145121  -0.006310
 362   8  -1.176018  -0.921575   0.448356  -0.000719   0.145121  -0.004954
 363   8  -0.005688  -1.236469  -0.014661  -0.000714   0.145121  -0.004919
 364   8   1.023556  -1.484319   0.149187  -0.000391   0.065817  -0.005935
 365   3   1.065566  -0.944502   4.239544  -0.000718   0.145206  -0.004948
 366   3  -0.345410  -0.588757   4.328539  -0.000532   0.145206  -0.003666
 367   3  -1.546288  -0.329817   3.543574  -0.000671   0.145206  -0.004622
 368   3  -2.075256  -0.267261   2.186516  -0.000776   0.145206  -0.005341
 369   3  -1.728894  -0.425146   0.779237  -0.000684   0.145206  -0.004708
 370   3  -0.640398  -0.742756  -0.137077  -0.000559   0.145206  -0.003849
 371   3   0.771636  -1.097949  -0.210045  -0.000692   0.145206  -0.004763
 372   4   8.445276   1.241476   0.610404   0.001521   0.077459   0.019634
 373   5   8.961681   2.007281   0.568704   0.000260   0.077459   0.003351
 374   9   8.966257   2.094792   0.278566  -0.000152   0.077459  -0.001963
 375   4   8.522115   1.180895   2.537117   0.001739   0.077236   0.022520
 376   5   9.042500   1.943488   2.586947   0.000190   0.077236   0.002466
 377  10   9.072202   2.014164   2.880171  -0.000154   0.077236  -0.002000
 378   5   9.111291   1.830017   1.739680   0.002342   0.560955   0.004174
 379   4   8.451019   0.683328   1.382644   0.008603   0.504873   0.017040
 380   8   1.631497  -1.772647   0.532688  -0.000438   0.218805  -0.002000
 381   8   1.747412  -2.143979   1.636561  -0.001316   0.440061  -0.002990
 382   8   1.816260  -1.871626   3.035125  -0.001322   0.440061  -0.003005
 383   4   3.066524  -2.003585   0.752123   0.006296   0.538138   0.011699
 384   4   3.194847  -2.196473   2.303024   0.006667   0.538138   0.012389
 385   4   3.226768  -1.716691   3.484267   0.002714   0.271008   0.010015
 386   9   8.967083   2.032753  -0.171941  -0.000092   0.238097  -0.000385
 387   9   8.236392   2.166146  -1.097950  -0.001272   0.478310  -0.002658
 388   9   7.296682   2.588494  -1.687667  -0.000665   0.238097  -0.002791
 389   4   8.023053   0.759155  -0.159045   0.007445   0.590883   0.012599
 390   4   6.878594   1.139916  -1.197530   0.005814   0.590883   0.009839
 391  10   7.589131   2.368476   4.990123  -0.000893   0.236081  -0.003784
 392  10   8.465972   1.994544   4.301827  -0.001296   0.474187  -0.002733
 393  10   9.111335   1.924484   3.321509  -0.000085   0.236081  -0.000361
 394   4   7.123479   0.953203   4.442175   0.005555   0.586102   0.009477
 395   4   8.166562   0.648959   3.298765   0.007552   0.586102   0.012886
 396   9   6.641062   4.456230  -2.030445  -0.000517   0.070368  -0.007342
 397   9   7.300102   5.384663  -2.085705  -0.000988   0.157310  -0.006281
 398   9   8.488289   5.996842  -1.757634  -0.001020   0.157310  -0.006485
 399   9   9.670177   5.763696  -1.092076  -0.001192   0.157310  -0.007577
 400   9  10.328811   4.787205  -0.380145  -0.001291   0.157310  -0.008206
 401   9  10.176108   3.494480   0.066764  -0.001098   0.157310  -0.006979
 402   9   9.524591   2.561103   0.127653  -0.000437   0.070368  -0.006209
 403   5   6.539685   5.040805  -1.923017  -0.000970   0.153202  -0.006331
 404   5   7.648228   6.113021  -1.818790  -0.000799   0.153202  -0.005214
 405   5   9.058524   6.338562  -1.227539  -0.000912   0.153202  -0.005956
 406   5  10.153712   5.618776  -0.407875  -0.001239   0.153202  -0.008087
 407   5  10.454763   4.268496   0.281684  -0.001146   0.153202  -0.007482
 408   5   9.829997   2.878330   0.539527  -0.000834   0.153202  -0.005446
 409  10   9.643697   2.471263   3.013338  -0.000374   0.070512  -0.005308
 410  10  10.303071   3.401765   3.072871  -0.001229   0.157698  -0.007792
 411  10  10.497946   4.668145   3.581874  -0.001343   0.157698  -0.008518
 412  10   9.903349   5.599876   4.405956  -0.001234   0.157698  -0.007823
 413  10   8.780336   5.787885   5.183306  -0.001036   0.157698  -0.006570
 414  10   7.621962   5.149627   5.572633  -0.001034   0.157698  -0.006558
 415  10   6.960196   4.220684   5.515329  -0.000501   0.070512  -0.007102
 416   5   9.914367   2.813153   2.596078  -0.000873   0.153454  -0.005692
 417   5  10.565283   4.188837   2.881434  -0.001189   0.153454  -0.007748
 418   5  10.327380   5.497090   3.674848  -0.001281   0.153454  -0.008346
 419   5   9.305108   6.163527   4.627974  -0.000891   0.153454  -0.005809
 420   5   7.947292   5.895552   5.322346  -0.000818   0.153454  -0.005332
 421   5   6.850076   4.810818   5.453103  -0.001003   0.153454  -0.006539
 422  11   5.552718   8.484712   2.994282  -0.000408   0.067091  -0.006076
 423  11   6.393038   8.410809   3.690063  -0.000990   0.148661  -0.006662
 424  11   7.696225   8.319937   3.898951  -0.000965   0.148661  -0.006488
 425  11   8.864141   8.260478   3.280385  -0.001091   0.148661  -0.007337
 426  11   9.427023   8.256349   2.083166  -0.001172   0.148661  -0.007885
 427  11   9.158467   8.309210   0.788843  -0.001167   0.148661  -0.007850
 428  11   8.166493   8.397800  -0.081976  -0.001016   0.148661  -0.006832
 429  11   6.850095   8.486485  -0.179028  -0.000948   0.148661  -0.006376
 430  11   5.738760   8.539594   0.536723  -0.001113   0.148661  -0.007488
 431   5   5.651442   8.134624   3.458270  -0.000995   0.147296  -0.006754
 432   5   6.964893   8.030015   4.146078  -0.000851   0.147296  -0.005777
 433   5   8.428575   7.940971   3.903418  -0.000821   0.147296  -0.005576
 434   5   9.453760   7.903307   2.827893  -0.001029   0.147296  -0.006986
 435   5   9.628096   7.932172   1.352104  -0.001179   0.147296  -0.008001
 436   5   8.881459   8.015956   0.069649  -0.000939   0.147296  -0.006373
 437   5   7.514166   8.120960  -0.503640  -0.000814   0.147296  -0.005523
 438   5   6.076172   8.204947  -0.137172  -0.000926   0.147296  -0.006287
 439   5   5.208682   8.238772   0.701272  -0.000420   0.081966  -0.005130
 =====================================================

              1562570  WORDS OF DYNAMIC MEMORY USED
 EXECUTION OF GAMESS TERMINATED NORMALLY Thu Nov 24 18:56:21 2016
 DDI: 263640 bytes (0.3 MB / 0 MWords) used by master data server.

 ----------------------------------------
 CPU timing information for all processes
 ========================================
 0: 148.300 + 0.148 = 148.448
 ----------------------------------------
 ddikick.x: exited gracefully.
