----- GAMESS execution script -----

          ******************************************************
          *         GAMESS VERSION =  5 DEC 2014 (R1)          *
          *             FROM IOWA STATE UNIVERSITY             *
          * M.W.SCHMIDT, K.K.BALDRIDGE, J.A.BOATZ, S.T.ELBERT, *
          *   M.S.GORDON, J.H.JENSEN, S.KOSEKI, N.MATSUNAGA,   *
          *          K.A.NGUYEN, S.J.SU, T.L.WINDUS,           *
          *       TOGETHER WITH M.DUPUIS, J.A.MONTGOMERY       *
          *         J.COMPUT.CHEM.  14, 1347-1363(1993)        *
          **************** 64 BIT LINUX VERSION ****************

 EXECUTION OF GAMESS BEGUN Thu Nov 24 16:59:21 2016

            ECHO OF THE FIRST FEW INPUT CARDS -
 INPUT CARD>! SELECT RESTRICTED HARTREE-FOCK AS DEFAULT                                     
 INPUT CARD>$contrl scftyp=rhf $end                                                         
 INPUT CARD>                                                                                
 INPUT CARD>! THEORY: HF OR DFT                                                             
 INPUT CARD> $contrl mplevl=0 $end                                                          
 INPUT CARD>                                                                                
 INPUT CARD> $system timlim=10000 mwords=20 $end                                            
 INPUT CARD> $SCF DIRSCF=.TRUE. $end                                                        
 INPUT CARD>                                                                                
 INPUT CARD>                                                                                
 INPUT CARD>! BASIS SETS                                                                    
 INPUT CARD>! 6-311G(d,p)                                                                   
 INPUT CARD> $BASIS GBASIS=N311 NGAUSS=6 NDFUNC=1 NPFUNC=1 $END                             
 INPUT CARD>                                                                                
 INPUT CARD>! One of the following                                                          
 INPUT CARD> $guess guess=HUCKEL $end                                                       
 INPUT CARD>                                                                                
 INPUT CARD> $statpt projct=.FALSE. $end                                                    
 INPUT CARD> $STATPT IFREEZ(1)=1,2,3 $END                                                   
 INPUT CARD>                                                                                
 INPUT CARD>! Optimize the geometry with COSMO effects                                      
 INPUT CARD> $statpt opttol=0.0005 nstep=50 $end                                            
 INPUT CARD> $contrl nzvar=1 $end                                                           
 INPUT CARD> $zmat dlc=.t. auto=.t. $end                                                    
 INPUT CARD> $contrl runtyp=OPTIMIZE maxit=200 $end                                         
 INPUT CARD>                                                                                
 INPUT CARD>! Run COSMO on perfect conductor                                                
 INPUT CARD> $COSGMS PRFCND=.TRUE. $end                                                     
 INPUT CARD>                                                                                
 INPUT CARD>! Specifying RSOLV                                                              
 INPUT CARD> $COSGMS COSRAD = 1.4 $end                                                      
 INPUT CARD>                                                                                
 INPUT CARD>! available memory                                                              
 INPUT CARD> $SYSTEM MWORDS=40 $END                                                         
 INPUT CARD>                                                                                
 INPUT CARD> $DATA                                                                          
 INPUT CARD>file:/home/renata/glycerol/METHYLPALMITATE.mol                                  
 INPUT CARD>C1                                                                              
 INPUT CARD>C      6.0     -0.1794000000   -0.1604000000   -0.2938000000                    
 INPUT CARD>O      8.0     -0.2265000000    0.7387000000   -1.1235000000                    
 INPUT CARD>O      8.0     -1.2635000000   -0.7311000000    0.2986000000                    
 INPUT CARD>C      6.0      1.1101000000   -0.7233000000    0.2556000000                    
 INPUT CARD>C      6.0     -2.5163000000   -0.2332000000   -0.1718000000                    
 INPUT CARD>H      1.0     -3.3118000000   -0.8028000000    0.3167000000                    
 INPUT CARD>H      1.0     -2.6069000000   -0.3736000000   -1.2538000000                    
 INPUT CARD>H      1.0     -2.6304000000    0.8221000000    0.0942000000                    
 INPUT CARD>H      1.0      1.3101000000   -0.2458000000    1.2209000000                    
 INPUT CARD>H      1.0      1.9121000000   -0.4360000000   -0.4348000000                    
 INPUT CARD>C      6.0      1.0813000000   -2.2437000000    0.3937000000                    
 INPUT CARD>H      1.0      0.7344000000   -2.6933000000   -0.5453000000                    
   40000000 WORDS OF MEMORY AVAILABLE

     BASIS OPTIONS
     -------------
     GBASIS=N311         IGAUSS=       6      POLAR=POPN311 
     NDFUNC=       1     NFFUNC=       0     DIFFSP=       F
     NPFUNC=       1      DIFFS=       F     BASNAM=        


     RUN TITLE
     ---------
 file:/home/renata/glycerol/METHYLPALMITATE.mol                                  

 THE POINT GROUP OF THE MOLECULE IS C1      
 THE ORDER OF THE PRINCIPAL AXIS IS     0

 ATOM      ATOMIC                      COORDINATES (BOHR)
           CHARGE         X                   Y                   Z
 C           6.0    -0.3390168422       -0.3031120484       -0.5552014952
 O           8.0    -0.4280229362        1.3959405871       -2.1231071472
 O           8.0    -2.3876687855       -1.3815786696        0.5642721799
 C           6.0     2.0977848190       -1.3668388069        0.4830139625
 C           6.0    -4.7551175029       -0.4406841003       -0.3246549247
 H           1.0    -6.2583945261       -1.5170720229        0.5984762203
 H           1.0    -4.9263266774       -0.7060016290       -2.3693384434
 H           1.0    -4.9707352381        1.5535437345        0.1780121880
 H           1.0     2.4757300165       -0.4644946478        2.3071664584
 H           1.0     3.6133450611       -0.8239205306       -0.8216528595
 C           6.0     2.0433607105       -4.2399781987        0.7439851214
 H           1.0     1.3878147654       -5.0895990027       -1.0304675811
 H           1.0     0.6740652598       -4.7823295571        2.2030425565
 C           6.0     4.6430567518       -5.3027600941        1.4276879837
 H           1.0     5.3244919430       -4.4185573045        3.1737947964
 H           1.0     5.9998800110       -4.8365646930       -0.0678411630
 C           6.0     4.5207914804       -8.1687185271        1.7748306477
 H           1.0     3.7688695099       -9.0427167964        0.0517784921
 H           1.0     3.2023296588       -8.6199850930        3.3096660949
 C           6.0     7.1151962890       -9.2970739144        2.3680156352
 H           1.0     7.8884721631       -8.4187292753        4.0782176541
 H           1.0     8.4255322889       -8.8826570053        0.8169285445
 C           6.0     6.9207434848      -12.1558513886        2.7444490520
 H           1.0     6.0900199406      -13.0198341102        1.0527663478
 H           1.0     5.6372415940      -12.5559063802        4.3225592243
 C           6.0     9.4960620609      -13.3584730072        3.2677141780
 H           1.0    10.3394467692      -12.5028050800        4.9561843480
 H           1.0    10.7763514176      -12.9826065082        1.6822340743
 C           6.0     9.2280989158      -16.2112033583        3.6500057453
 H           1.0     8.3471086604      -17.0526983406        1.9726849586
 H           1.0     7.9600927781      -16.5755425287        5.2490918761
 C           6.0    11.7777172185      -17.4824220302        4.1339645707
 H           1.0    12.6668332957      -16.6503756778        5.8109074122
 H           1.0    13.0447784932      -17.1369801197        2.5309100154
 C           6.0    11.4455033898      -20.3285383403        4.5177679188
 H           1.0    10.5378679979      -21.1503801724        2.8447935019
 H           1.0    10.1786310877      -20.6650985387        6.1236570632
 C           6.0    13.9707442272      -21.6511575591        4.9890655802
 H           1.0    14.8838598245      -20.8347959324        6.6609061615
 H           1.0    15.2364826938      -21.3297151686        3.3799639016
 C           6.0    13.5927990297      -24.4914157187        5.3770263255
 H           1.0    12.6734473367      -25.3024861126        3.7055636893
 H           1.0    12.3225252207      -24.8071889312        6.9844272506
 C           6.0    16.1019771962      -25.8438926081        5.8500247402
 H           1.0    17.0245414234      -25.0343339949        7.5201645681
 H           1.0    17.3714951147      -25.5370011077        4.2407340890
 C           6.0    15.7011663142      -28.6779146719        6.2423318552
 H           1.0    14.7850271553      -29.4965439698        4.5742707259
 H           1.0    14.4361837380      -28.9933099392        7.8523783968
 C           6.0    18.1854000976      -30.0402181364        6.7160861604
 H           1.0    19.1215703520      -29.3075713710        8.4089027002
 H           1.0    19.4719255501      -29.8151517713        5.1120867420
 H           1.0    17.8511075704      -32.0626028885        6.9921751272

          INTERNUCLEAR DISTANCES (ANGS.)




     $CONTRL OPTIONS
     ---------------
 SCFTYP=RHF          RUNTYP=OPTIMIZE     EXETYP=RUN     
 MPLEVL=       0     CITYP =NONE         CCTYP =NONE         VBTYP =NONE    
 DFTTYP=NONE         TDDFT =NONE    
 MULT  =       1     ICHARG=       0     NZVAR =       1     COORD =UNIQUE  
 PP    =NONE         RELWFN=NONE         LOCAL =NONE         NUMGRD=       F
 ISPHER=      -1     NOSYM =       0     MAXIT =     200     UNITS =ANGS    
 PLTORB=       F     MOLPLT=       F     AIMPAC=       F     FRIEND=        
 NPRINT=       7     IREST =       0     GEOM  =INPUT   
 NORMF =       0     NORMP =       0     ITOL  =      20     ICUT  =       9
 INTTYP=BEST         GRDTYP=BEST         QMTTOL= 1.0E-06

     $SYSTEM OPTIONS
     ---------------
  REPLICATED MEMORY=    40000000 WORDS (ON EVERY NODE).
 DISTRIBUTED MEMDDI=           0 MILLION WORDS IN AGGREGATE,
 MEMDDI DISTRIBUTED OVER   1 PROCESSORS IS           0 WORDS/PROCESSOR.
 TOTAL MEMORY REQUESTED ON EACH PROCESSOR=    40000000 WORDS.
 TIMLIM=       10000.00 MINUTES, OR       6.9 DAYS.
 PARALL= F  BALTYP=  DLB     KDIAG=    0  COREFL= F
 MXSEQ2=     300 MXSEQ3=     150  mem10=         0

     $COSGMS OPTIONS
     ---------------
     EPSI  =   INFTY     NSPA  =      92     COSRAD=    1.40
     DISEX =   10.00     OUTCHG=DBLCAV       COSBUG=       F
     COSWRT=       F     DCOSMO=       F

     SYMMETRY COORDINATES WILL NOT BE USED FOR 
     THE COSMO CALCULATION, EVEN IF SPECIFIED:
         -- SWITCHING TO C1 POINT GROUP --


     DEFINITION OF CAVITY
     ---------------------------
     ATOM         COORDINATES           RADIUS 
     1   -0.3390   -0.3031   -0.5552    2.0000
     2   -0.4280    1.3959   -2.1231    1.7200
     3   -2.3877   -1.3816    0.5643    1.7200
     4    2.0978   -1.3668    0.4830    2.0000
     5   -4.7551   -0.4407   -0.3247    2.0000
     6   -6.2584   -1.5171    0.5985    1.3000
     7   -4.9263   -0.7060   -2.3693    1.3000
     8   -4.9707    1.5535    0.1780    1.3000
     9    2.4757   -0.4645    2.3072    1.3000
    10    3.6133   -0.8239   -0.8217    1.3000
    11    2.0434   -4.2400    0.7440    2.0000
    12    1.3878   -5.0896   -1.0305    1.3000
    13    0.6741   -4.7823    2.2030    1.3000
    14    4.6431   -5.3028    1.4277    2.0000
    15    5.3245   -4.4186    3.1738    1.3000
    16    5.9999   -4.8366   -0.0678    1.3000
    17    4.5208   -8.1687    1.7748    2.0000
    18    3.7689   -9.0427    0.0518    1.3000
    19    3.2023   -8.6200    3.3097    1.3000
    20    7.1152   -9.2971    2.3680    2.0000
    21    7.8885   -8.4187    4.0782    1.3000
    22    8.4255   -8.8827    0.8169    1.3000
    23    6.9207  -12.1559    2.7444    2.0000
    24    6.0900  -13.0198    1.0528    1.3000
    25    5.6372  -12.5559    4.3226    1.3000
    26    9.4961  -13.3585    3.2677    2.0000
    27   10.3394  -12.5028    4.9562    1.3000
    28   10.7764  -12.9826    1.6822    1.3000
    29    9.2281  -16.2112    3.6500    2.0000
    30    8.3471  -17.0527    1.9727    1.3000
    31    7.9601  -16.5755    5.2491    1.3000
    32   11.7777  -17.4824    4.1340    2.0000
    33   12.6668  -16.6504    5.8109    1.3000
    34   13.0448  -17.1370    2.5309    1.3000
    35   11.4455  -20.3285    4.5178    2.0000
    36   10.5379  -21.1504    2.8448    1.3000
    37   10.1786  -20.6651    6.1237    1.3000
    38   13.9707  -21.6512    4.9891    2.0000
    39   14.8839  -20.8348    6.6609    1.3000
    40   15.2365  -21.3297    3.3800    1.3000
    41   13.5928  -24.4914    5.3770    2.0000
    42   12.6734  -25.3025    3.7056    1.3000
    43   12.3225  -24.8072    6.9844    1.3000
    44   16.1020  -25.8439    5.8500    2.0000
    45   17.0245  -25.0343    7.5202    1.3000
    46   17.3715  -25.5370    4.2407    1.3000
    47   15.7012  -28.6779    6.2423    2.0000
    48   14.7850  -29.4965    4.5743    1.3000
    49   14.4362  -28.9933    7.8524    1.3000
    50   18.1854  -30.0402    6.7161    2.0000
    51   19.1216  -29.3076    8.4089    1.3000
    52   19.4719  -29.8152    5.1121    1.3000
    53   17.8511  -32.0626    6.9922    1.3000

          ----------------
          PROPERTIES INPUT
          ----------------

     MOMENTS            FIELD           POTENTIAL          DENSITY
 IEMOM =       1   IEFLD =       0   IEPOT =       0   IEDEN =       0
 WHERE =COMASS     WHERE =NUCLEI     WHERE =NUCLEI     WHERE =NUCLEI  
 OUTPUT=BOTH       OUTPUT=BOTH       OUTPUT=BOTH       OUTPUT=BOTH    
 IEMINT=       0   IEFINT=       0                     IEDINT=       0
                                                       MORB  =       0
          EXTRAPOLATION IN EFFECT
          SOSCF IN EFFECT
 ORBITAL PRINTING OPTION: NPREO=     1   565     2     1

     -------------------------------
     INTEGRAL TRANSFORMATION OPTIONS
     -------------------------------
     NWORD  =            0
     CUTOFF = 1.0E-09     MPTRAN =       0
     DIRTRF =       T     AOINTS =DUP     

          ----------------------
          INTEGRAL INPUT OPTIONS
          ----------------------
 NOPK  =       1 NORDER=       0 SCHWRZ=       T


 -----------------------------------------------
  STATISTICS ON AUTOMATIC COORDINATE GENERATION 
 -----------------------------------------------
  NUMBER OF USER SPECIFIED BONDS                             0
  NUMBER OF BONDS                                           52
  NUMBER OF ANGLES                                         100
  NUMBER OF TORSIONS                                       137
  NUMBER OF EXTRA COORD.                                     0
  NUMBER OF EXTRA COORD. FOR CONSTRAINTS                     0
  NUMBER OF CONSTRAINED COORD.                               0

  TOTAL NUMBER OF PRIMITIVES                               289
 -----------------------------------------------

   --- ENCODED Z MATRIX ---
 COORD  TYPE   I   J   K   L   M   N
    1      1    1   4
    2      1    1   2
    3      1    1   3
    4      1    3   5
    5      1    4  11
    6      1    4   9
    7      1    4  10
    8      1    5   8
    9      1    5   7
   10      1    5   6
   11      1   11  14
   12      1   11  13
   13      1   11  12
   14      1   14  16
   15      1   14  15
   16      1   14  17
   17      1   17  20
   18      1   17  19
   19      1   17  18
   20      1   20  23
   21      1   20  22
   22      1   20  21
   23      1   23  26
   24      1   23  25
   25      1   23  24
   26      1   26  29
   27      1   26  28
   28      1   26  27
   29      1   29  32
   30      1   29  31
   31      1   29  30
   32      1   32  35
   33      1   32  34
   34      1   32  33
   35      1   35  38
   36      1   35  37
   37      1   35  36
   38      1   38  41
   39      1   38  40
   40      1   38  39
   41      1   41  44
   42      1   41  43
   43      1   41  42
   44      1   44  47
   45      1   44  46
   46      1   44  45
   47      1   47  50
   48      1   47  49
   49      1   47  48
   50      1   50  53
   51      1   50  52
   52      1   50  51
   53      2    1   4  11
   54      2    1   3   5
   55      2    1   4  10
   56      2    1   4   9
   57      2    2   1   3
   58      2    2   1   4
   59      2    3   5   6
   60      2    3   5   8
   61      2    3   5   7
   62      2    3   1   4
   63      2    4  11  13
   64      2    4  11  14
   65      2    4  11  12
   66      2    6   5   8
   67      2    6   5   7
   68      2    7   5   8
   69      2    9   4  10
   70      2    9   4  11
   71      2   10   4  11
   72      2   11  14  17
   73      2   11  14  15
   74      2   11  14  16
   75      2   12  11  13
   76      2   12  11  14
   77      2   13  11  14
   78      2   14  17  19
   79      2   14  17  20
   80      2   14  17  18
   81      2   15  14  17
   82      2   15  14  16
   83      2   16  14  17
   84      2   17  20  21
   85      2   17  20  22
   86      2   17  20  23
   87      2   18  17  19
   88      2   18  17  20
   89      2   19  17  20
   90      2   20  23  24
   91      2   20  23  25
   92      2   20  23  26
   93      2   21  20  22
   94      2   21  20  23
   95      2   22  20  23
   96      2   23  26  27
   97      2   23  26  28
   98      2   23  26  29
   99      2   24  23  25
  100      2   24  23  26
  101      2   25  23  26
  102      2   26  29  30
  103      2   26  29  31
  104      2   26  29  32
  105      2   27  26  28
  106      2   27  26  29
  107      2   28  26  29
  108      2   29  32  33
  109      2   29  32  34
  110      2   29  32  35
  111      2   30  29  31
  112      2   30  29  32
  113      2   31  29  32
  114      2   32  35  36
  115      2   32  35  37
  116      2   32  35  38
  117      2   33  32  35
  118      2   33  32  34
  119      2   34  32  35
  120      2   35  38  39
  121      2   35  38  40
  122      2   35  38  41
  123      2   36  35  37
  124      2   36  35  38
  125      2   37  35  38
  126      2   38  41  42
  127      2   38  41  43
  128      2   38  41  44
  129      2   39  38  40
  130      2   39  38  41
  131      2   40  38  41
  132      2   41  44  45
  133      2   41  44  46
  134      2   41  44  47
  135      2   42  41  43
  136      2   42  41  44
  137      2   43  41  44
  138      2   44  47  48
  139      2   44  47  49
  140      2   44  47  50
  141      2   45  44  46
  142      2   45  44  47
  143      2   46  44  47
  144      2   47  50  51
  145      2   47  50  52
  146      2   47  50  53
  147      2   48  47  49
  148      2   48  47  50
  149      2   49  47  50
  150      2   51  50  52
  151      2   51  50  53
  152      2   52  50  53
  153      3    1   3   5   8
  154      3    1   4  11  12
  155      3    1   3   5   6
  156      3    1   3   5   7
  157      3    1   4  11  14
  158      3    1   4  11  13
  159      3    2   1   3   5
  160      3    2   1   4   9
  161      3    2   1   4  10
  162      3    2   1   4  11
  163      3    3   1   4   9
  164      3    3   1   4  10
  165      3    3   1   4  11
  166      3    4   1   3   5
  167      3    4  11  14  17
  168      3    4  11  14  15
  169      3    4  11  14  16
  170      3    9   4  11  14
  171      3    9   4  11  12
  172      3    9   4  11  13
  173      3   10   4  11  14
  174      3   10   4  11  13
  175      3   10   4  11  12
  176      3   11  14  17  18
  177      3   11  14  17  19
  178      3   11  14  17  20
  179      3   12  11  14  16
  180      3   12  11  14  15
  181      3   12  11  14  17
  182      3   13  11  14  16
  183      3   13  11  14  15
  184      3   13  11  14  17
  185      3   14  17  20  21
  186      3   14  17  20  22
  187      3   14  17  20  23
  188      3   15  14  17  18
  189      3   15  14  17  20
  190      3   15  14  17  19
  191      3   16  14  17  19
  192      3   16  14  17  18
  193      3   16  14  17  20
  194      3   17  20  23  24
  195      3   17  20  23  25
  196      3   17  20  23  26
  197      3   18  17  20  23
  198      3   18  17  20  22
  199      3   18  17  20  21
  200      3   19  17  20  23
  201      3   19  17  20  22
  202      3   19  17  20  21
  203      3   20  23  26  27
  204      3   20  23  26  28
  205      3   20  23  26  29
  206      3   21  20  23  26
  207      3   21  20  23  25
  208      3   21  20  23  24
  209      3   22  20  23  26
  210      3   22  20  23  25
  211      3   22  20  23  24
  212      3   23  26  29  30
  213      3   23  26  29  31
  214      3   23  26  29  32
  215      3   24  23  26  29
  216      3   24  23  26  28
  217      3   24  23  26  27
  218      3   25  23  26  29
  219      3   25  23  26  28
  220      3   25  23  26  27
  221      3   26  29  32  33
  222      3   26  29  32  34
  223      3   26  29  32  35
  224      3   27  26  29  32
  225      3   27  26  29  31
  226      3   27  26  29  30
  227      3   28  26  29  32
  228      3   28  26  29  31
  229      3   28  26  29  30
  230      3   29  32  35  36
  231      3   29  32  35  37
  232      3   29  32  35  38
  233      3   30  29  32  35
  234      3   30  29  32  34
  235      3   30  29  32  33
  236      3   31  29  32  35
  237      3   31  29  32  34
  238      3   31  29  32  33
  239      3   32  35  38  39
  240      3   32  35  38  40
  241      3   32  35  38  41
  242      3   33  32  35  38
  243      3   33  32  35  37
  244      3   33  32  35  36
  245      3   34  32  35  38
  246      3   34  32  35  37
  247      3   34  32  35  36
  248      3   35  38  41  42
  249      3   35  38  41  43
  250      3   35  38  41  44
  251      3   36  35  38  41
  252      3   36  35  38  40
  253      3   36  35  38  39
  254      3   37  35  38  41
  255      3   37  35  38  40
  256      3   37  35  38  39
  257      3   38  41  44  45
  258      3   38  41  44  46
  259      3   38  41  44  47
  260      3   39  38  41  44
  261      3   39  38  41  43
  262      3   39  38  41  42
  263      3   40  38  41  44
  264      3   40  38  41  43
  265      3   40  38  41  42
  266      3   41  44  47  48
  267      3   41  44  47  49
  268      3   41  44  47  50
  269      3   42  41  44  47
  270      3   42  41  44  46
  271      3   42  41  44  45
  272      3   43  41  44  47
  273      3   43  41  44  46
  274      3   43  41  44  45
  275      3   44  47  50  51
  276      3   44  47  50  52
  277      3   44  47  50  53
  278      3   45  44  47  50
  279      3   45  44  47  49
  280      3   45  44  47  48
  281      3   46  44  47  50
  282      3   46  44  47  49
  283      3   46  44  47  48
  284      3   48  47  50  53
  285      3   48  47  50  52
  286      3   48  47  50  51
  287      3   49  47  50  53
  288      3   49  47  50  52
  289      3   49  47  50  51

          INDEP./SYM. INTERNAL COORDINATES
          --------------------------------
 CRD  1=  -0.1161 ( 53)  0.1536 ( 64) -0.2134 ( 72)  0.2452 ( 79) -0.2882 ( 86)
           0.2972 ( 92) -0.3108 ( 98)  0.2906 (104) -0.2723 (110)  0.2273 (116)
          -0.1855 (122)  0.1298 (128)
 CRD  2=   0.1042 (157)  0.1845 (178) -0.1779 (187)  0.1086 (194)  0.1062 (195)
           0.2450 (196) -0.2192 (205)  0.1175 (206)  0.1091 (209)  0.1161 (212)
           0.1226 (213)  0.2601 (214) -0.2093 (223)  0.1139 (224)  0.1152 (227)
           0.1020 (230)  0.1133 (231)  0.2231 (232) -0.1545 (241)  0.1466 (250)
 CRD  3=   0.2574 ( 53) -0.1320 ( 54)  0.1566 ( 62) -0.2466 ( 64)  0.2952 ( 72)
          -0.1069 ( 74) -0.2139 ( 79)  0.1827 ( 86)  0.1578 (104) -0.2070 (110)
           0.2730 (116) -0.2524 (122) -0.1017 (124)  0.2333 (128) -0.1527 (134)
 CRD  4=   0.1296 ( 11)  0.1319 ( 17)  0.1193 ( 26)  0.1160 ( 32)  0.3247 ( 53)
          -0.1533 ( 54) -0.1178 ( 55) -0.1282 ( 57) -0.1163 ( 58)  0.2427 ( 62)
          -0.1267 ( 64)  0.1414 ( 72)  0.1352 ( 79) -0.1041 ( 86) -0.1025 ( 91)
           0.3002 ( 92) -0.1398 ( 98)  0.1855 (104)  0.2728 (122) -0.2135 (128)
           0.2348 (134) -0.1008 (140)
 CRD  5=   0.1619 ( 54) -0.1181 ( 56) -0.1713 ( 62) -0.1231 ( 73)  0.1293 ( 76)
           0.1109 ( 88) -0.1132 (102)  0.1020 (106)  0.1010 (117)  0.1107 (154)
           0.2088 (157)  0.1059 (164) -0.1725 (166)  0.1247 (170)  0.1121 (173)
           0.1233 (176)  0.1168 (177)  0.2134 (178)  0.1136 (189)  0.1052 (193)
           0.1315 (196)  0.1412 (205)  0.1107 (221)  0.1054 (222)  0.2129 (223)
           0.1165 (233)  0.1114 (236)  0.1096 (239)  0.1152 (240)  0.2098 (241)
           0.1005 (254)  0.1315 (259)
 CRD  6=  -0.1300 ( 11) -0.1755 ( 16) -0.1707 ( 17) -0.2290 ( 20) -0.2120 ( 23)
          -0.2270 ( 26) -0.2370 ( 29) -0.1927 ( 32) -0.2134 ( 35) -0.1545 ( 38)
          -0.1395 ( 41) -0.1064 ( 44) -0.2093 ( 64) -0.2045 ( 79) -0.1377 ( 86)
          -0.2846 ( 98) -0.2244 (110) -0.1515 (116) -0.2495 (128) -0.1620 (140)
 CRD  7=  -0.1151 ( 80)  0.1069 ( 81)  0.1296 ( 94) -0.1140 (108)  0.1165 (121)
           0.1088 (124) -0.1051 (137)  0.2086 (167) -0.1084 (178)  0.1204 (181)
           0.1164 (184)  0.1332 (185)  0.1218 (186)  0.2580 (187)  0.1356 (197)
           0.1269 (200)  0.1083 (203)  0.1069 (204)  0.1761 (205)  0.1142 (230)
           0.1079 (231)  0.2287 (232)  0.1274 (242)  0.1241 (245)  0.1318 (248)
           0.1368 (249)  0.2517 (250)  0.1128 (260)  0.1200 (263)  0.1457 (268)
 CRD  8=   0.1069 ( 23)  0.1115 ( 32)  0.1058 ( 38) -0.2737 ( 53)  0.1349 ( 54)
           0.1067 ( 57) -0.1962 ( 62) -0.2073 ( 79) -0.1002 ( 85)  0.2573 ( 86)
           0.2843 (104) -0.1769 (110)  0.1833 (116)  0.1210 (122) -0.1752 (128)
          -0.1058 (132)  0.3026 (134) -0.1674 (140) -0.1052 (142)
 CRD  9=  -0.1471 (  1) -0.1031 (  5) -0.1484 ( 11) -0.1451 ( 16)  0.1164 ( 32)
           0.1490 ( 35)  0.1136 ( 38)  0.1606 ( 41)  0.1074 ( 44) -0.1052 ( 53)
           0.1347 ( 57) -0.2132 ( 62) -0.2583 ( 64)  0.1082 ( 72) -0.1865 ( 79)
          -0.1474 ( 86)  0.1665 ( 92) -0.1781 ( 98)  0.2134 (110) -0.1152 (116)
           0.2078 (122)  0.1781 (128) -0.1195 (134)  0.2806 (140)
 CRD 10=   0.1216 ( 11)  0.1084 ( 16)  0.1025 ( 17) -0.1021 ( 35) -0.1132 ( 38)
          -0.1107 ( 41)  0.1336 ( 53)  0.3615 ( 54) -0.1283 ( 56)  0.1047 ( 57)
           0.1038 ( 61) -0.1802 ( 62)  0.1140 (114) -0.1015 (122)  0.1038 (126)
           0.1161 (131)  0.1548 (157)  0.1007 (158) -0.1953 (166) -0.1444 (196)
          -0.1551 (214) -0.1026 (240) -0.1926 (241) -0.1106 (251) -0.1086 (254)
          -0.1046 (257) -0.1109 (258) -0.1847 (259)
 CRD 11=  -0.1127 (  5) -0.1162 ( 11) -0.1697 ( 16) -0.1718 ( 17) -0.1038 ( 20)
           0.1365 ( 35)  0.1856 ( 38)  0.1314 ( 41)  0.1207 ( 44)  0.1502 ( 53)
          -0.1428 ( 64) -0.2503 ( 72)  0.1002 ( 74) -0.1839 ( 86) -0.1920 ( 92)
           0.1700 ( 98) -0.1356 (115)  0.2978 (116) -0.1068 (124)  0.3042 (134)
          -0.1135 (140) -0.1326 (142) -0.1588 (166)
 CRD 12=  -0.1308 ( 65)  0.1315 ( 70) -0.1071 ( 71)  0.1333 ( 81) -0.1093 ( 83)
          -0.1301 (121)  0.1132 (132) -0.1061 (136)  0.1100 (137)  0.1426 (162)
           0.1961 (165)  0.2526 (167)  0.1372 (168)  0.1253 (169)  0.1428 (181)
           0.1311 (184)  0.1057 (185)  0.1067 (186)  0.1393 (187)  0.1095 (214)
          -0.1597 (223) -0.1063 (248) -0.1099 (249) -0.2172 (250) -0.1264 (260)
          -0.1306 (263) -0.1325 (266) -0.1195 (267) -0.1973 (268)
 CRD 13=  -0.1580 (  1) -0.1227 (  4)  0.1041 ( 20)  0.1030 ( 23)  0.1289 ( 26)
          -0.1402 ( 41) -0.1043 ( 44) -0.1096 ( 47) -0.1415 ( 53) -0.1414 ( 62)
          -0.2366 ( 64)  0.1563 ( 72)  0.1004 ( 77) -0.1492 ( 86)  0.2562 ( 92)
           0.1501 ( 98) -0.1352 (104)  0.1853 (110)  0.1165 (120) -0.2642 (122)
          -0.3306 (140)  0.1236 (149)
 CRD 14=   0.1635 (  1)  0.1412 (  3)  0.1880 (  4) -0.1138 ( 23)  0.1006 ( 41)
           0.5628 ( 54) -0.1072 ( 59)  0.1326 ( 60)  0.1132 ( 61)  0.1375 ( 72)
          -0.1370 ( 86) -0.1656 (104) -0.1020 (126)  0.1060 (128)  0.1656 (134)
          -0.1040 (143) -0.1011 (157) -0.1352 (178)  0.1348 (259)
 CRD 15=  -0.1317 (  5) -0.1282 ( 11) -0.1083 ( 16)  0.1159 ( 23)  0.1339 ( 26)
           0.1172 ( 29) -0.1023 ( 38) -0.1287 ( 41) -0.1336 ( 44)  0.1118 ( 53)
           0.1894 ( 54)  0.1093 ( 57) -0.2248 ( 64) -0.2073 ( 72)  0.1044 ( 79)
           0.2131 ( 98)  0.2156 (104) -0.1117 (113)  0.1119 (122)  0.1454 (127)
          -0.2055 (128) -0.1016 (131) -0.2217 (134)  0.1323 (142) -0.1247 (166)
          -0.1276 (178)  0.1343 (259)
 CRD 16=   0.1248 (  1)  0.1063 (  3)  0.1438 (  4) -0.1448 ( 16) -0.1357 ( 17)
           0.1415 ( 29)  0.1397 ( 32) -0.1027 ( 41) -0.1334 ( 44) -0.1576 ( 47)
           0.1246 ( 54)  0.1527 ( 62)  0.1288 ( 64) -0.2077 ( 72)  0.1011 ( 74)
          -0.2658 ( 79)  0.1082 ( 88) -0.1572 ( 98)  0.1784 (104)  0.2905 (110)
          -0.1006 (117) -0.1046 (119)  0.1436 (128) -0.1298 (134) -0.3268 (140)
           0.1102 (148)  0.1083 (149)
 CRD 17=   0.1180 (  3)  0.1623 (  4)  0.2389 ( 54) -0.1404 ( 58)  0.2024 ( 60)
           0.1438 ( 62) -0.1329 ( 64)  0.1038 ( 85) -0.1499 ( 86)  0.1704 ( 98)
           0.1047 (116)  0.1335 (126) -0.1653 (128)  0.1036 (143)  0.1392 (156)
           0.2363 (159)  0.1016 (162)  0.3154 (166)  0.1197 (178)  0.1262 (196)
           0.1163 (223) -0.1094 (232) -0.1679 (259)
 CRD 18=   0.1014 ( 63)  0.1553 ( 70) -0.1420 ( 71)  0.1117 ( 90)  0.1093 (107)
          -0.1111 (132)  0.1156 (133) -0.1096 (137) -0.1060 (144)  0.1788 (153)
           0.1636 (155)  0.1705 (156)  0.1553 (159)  0.1653 (162)  0.1345 (163)
           0.1296 (164)  0.2642 (165)  0.1213 (167)  0.1016 (168)  0.1023 (169)
          -0.1018 (187) -0.1024 (203) -0.1035 (204) -0.1677 (205) -0.1228 (214)
           0.1014 (241)  0.1039 (250)  0.1181 (266)  0.1132 (267)  0.1817 (268)
 CRD 19=  -0.1613 (  5) -0.1414 ( 11)  0.1138 ( 17)  0.1601 ( 20)  0.1082 ( 23)
          -0.1598 ( 32) -0.1347 ( 35)  0.1199 ( 41)  0.1524 ( 44)  0.1322 ( 54)
          -0.2397 ( 64) -0.2316 ( 72) -0.1010 ( 78)  0.1359 ( 79)  0.1058 ( 81)
           0.1184 ( 83) -0.1077 ( 84)  0.2760 ( 86) -0.2928 (116) -0.1473 (122)
           0.1032 (125) -0.1321 (127)  0.2042 (128)  0.1114 (131)  0.2009 (134)
 CRD 20=  -0.1292 ( 16)  0.1241 ( 23) -0.1122 ( 35) -0.1287 ( 38)  0.1412 ( 47)
           0.1188 ( 64) -0.1282 ( 72) -0.3024 ( 79)  0.1148 ( 88)  0.1198 ( 89)
          -0.1164 ( 91)  0.3047 ( 92) -0.1231 (104)  0.1032 (121) -0.2459 (122)
          -0.2496 (128) -0.1096 (132)  0.1625 (134)  0.1294 (136)  0.1076 (137)
           0.2820 (140)
 CRD 21=  -0.1068 ( 17)  0.1493 ( 23)  0.1158 ( 26) -0.1554 ( 32)  0.1204 ( 64)
          -0.2131 ( 79) -0.2181 ( 86)  0.1428 ( 92)  0.1117 ( 94)  0.1060 ( 95)
          -0.1092 ( 97)  0.3488 ( 98) -0.1269 (106) -0.1114 (107)  0.1325 (108)
           0.1251 (109) -0.3023 (110) -0.2410 (116)  0.1238 (122)  0.1159 (124)
           0.1101 (125)  0.2264 (128) -0.1176 (140)
 CRD 22=   0.1511 ( 20) -0.1382 ( 26) -0.1686 ( 29)  0.1430 ( 35)  0.1342 ( 38)
          -0.1042 ( 47) -0.1403 ( 72)  0.2080 ( 86)  0.2654 ( 92) -0.1108 (100)
          -0.1245 (101)  0.1192 (102)  0.1245 (103) -0.3501 (104) -0.1827 (110)
          -0.1176 (114) -0.1135 (115)  0.2002 (116)  0.1162 (117)  0.1106 (119)
           0.2844 (122) -0.1002 (130) -0.1663 (134) -0.1070 (140)
 CRD 23=  -0.1522 ( 60)  0.1611 ( 61) -0.1595 (144)  0.1628 (145) -0.1457 (153)
          -0.1337 (156) -0.1386 (157) -0.2496 (159) -0.2334 (166)  0.1705 (167)
          -0.1096 (170) -0.1150 (178)  0.1777 (196) -0.1417 (205)  0.1137 (206)
           0.1109 (209) -0.2012 (232)  0.1017 (241) -0.1148 (242) -0.1197 (245)
          -0.1338 (259)  0.2113 (268) -0.1169 (277)  0.1105 (278)  0.1111 (281)
 CRD 24=   0.1111 (  4) -0.1105 (  5) -0.1243 ( 53)  0.1397 ( 56)  0.1361 ( 62)
          -0.1072 ( 73) -0.1254 ( 80) -0.1254 ( 89) -0.1071 ( 95) -0.1026 (103)
          -0.1176 (117)  0.1092 (119) -0.1061 (138)  0.1043 (139)  0.1182 (142)
          -0.1171 (143) -0.1259 (153) -0.1447 (155) -0.1339 (156) -0.1092 (163)
          -0.1482 (164) -0.1951 (165)  0.1327 (178)  0.1483 (187) -0.1712 (223)
          -0.1141 (233) -0.1079 (236)  0.1724 (259)  0.1161 (269)  0.1167 (272)
 CRD 25=   0.1012 (  2) -0.2353 (  3) -0.2084 (  4)  0.3029 (  5)  0.3611 ( 53)
          -0.2009 ( 55) -0.1193 ( 56)  0.1391 ( 58) -0.2251 ( 59)  0.2040 ( 60)
          -0.1594 ( 61) -0.2121 ( 62) -0.1359 ( 70) -0.1629 ( 72) -0.1137 ( 76)
           0.1857 (159)  0.2241 (166)
 CRD 26=   0.1009 ( 55)  0.1085 ( 59) -0.1252 ( 81)  0.1049 ( 83) -0.1089 ( 96)
           0.1117 ( 97)  0.1180 (120) -0.1185 (121) -0.1028 (124)  0.1033 (125)
          -0.2124 (144)  0.2125 (145)  0.1243 (148) -0.1243 (149)  0.1456 (153)
           0.1530 (155)  0.1139 (156)  0.1259 (163)  0.1041 (164)  0.1014 (165)
          -0.1546 (167) -0.1032 (178) -0.1199 (181)  0.1250 (205)  0.1497 (214)
          -0.1199 (248) -0.1198 (249) -0.1463 (250)  0.1344 (268)  0.1174 (278)
           0.1173 (281)
 CRD 27=   0.1586 (  1) -0.1238 ( 57)  0.1210 ( 58)  0.1959 ( 60) -0.2240 ( 61)
           0.1186 ( 76) -0.1842 (144)  0.1845 (145) -0.1498 (155)  0.1832 (157)
          -0.1261 (165)  0.1227 (166)  0.1443 (170)  0.1162 (187) -0.1425 (196)
          -0.1060 (205)  0.1197 (214)  0.1006 (239)  0.1006 (240)  0.1604 (241)
          -0.1199 (250) -0.1035 (275) -0.1036 (276) -0.1494 (277)
 CRD 28=  -0.1184 ( 16)  0.1344 ( 17) -0.1557 ( 20)  0.1747 ( 23) -0.1905 ( 26)
           0.2020 ( 29) -0.1995 ( 32)  0.2125 ( 35) -0.2323 ( 38)  0.1533 ( 41)
          -0.1684 ( 44)  0.3922 ( 47)  0.2258 (146)  0.1294 (148)  0.1328 (149)
          -0.1435 (151) -0.1261 (152)
 CRD 29=   0.3739 (  1) -0.1404 (  3) -0.1185 ( 16) -0.2553 ( 47)  0.1557 ( 55)
          -0.3345 ( 57)  0.3884 ( 58) -0.1793 ( 59)  0.1342 ( 60) -0.1016 ( 71)
          -0.1135 (145) -0.1884 (146)  0.1322 (152)
 CRD 30=   0.1562 (  1) -0.1019 ( 11)  0.1001 ( 16) -0.1454 ( 17)  0.1742 ( 20)
          -0.1855 ( 23)  0.1859 ( 26) -0.1725 ( 29)  0.1651 ( 32) -0.1241 ( 35)
           0.3890 ( 47) -0.1423 ( 57)  0.1497 ( 58) -0.1177 (134)  0.3576 (146)
           0.1234 (148) -0.1787 (151) -0.1491 (152)
 CRD 31=   0.1454 (  1) -0.1066 (  3) -0.1558 ( 57)  0.1685 ( 58) -0.1306 ( 59)
          -0.2006 ( 60)  0.3245 ( 61) -0.1114 ( 63) -0.1307 ( 70) -0.1098 ( 95)
           0.1094 (102)  0.1128 (130)  0.1114 (138) -0.1119 (139)  0.1092 (143)
           0.1629 (153)  0.2501 (155)  0.1956 (156)  0.1069 (163) -0.1184 (167)
           0.1115 (187)  0.1042 (200) -0.1023 (221)  0.1236 (241) -0.1030 (275)
 CRD 32=   0.1919 ( 11) -0.2122 ( 16)  0.2357 ( 17) -0.2250 ( 20)  0.1670 ( 23)
          -0.1766 ( 35)  0.1924 ( 38) -0.2621 ( 41)  0.3044 ( 44)  0.1112 ( 57)
          -0.1570 ( 61)  0.1232 (142)  0.1005 (143) -0.1089 (145)  0.2425 (146)
 CRD 33=  -0.1806 (  3) -0.1102 ( 55) -0.2842 ( 59)  0.3188 ( 61)  0.1012 ( 66)
           0.1149 (101) -0.1025 (108)  0.1118 (109) -0.1065 (136) -0.2449 (144)
           0.2101 (145) -0.1020 (149) -0.1038 (154) -0.1039 (158)  0.1489 (178)
          -0.1003 (209)  0.1094 (230)  0.1065 (231)  0.1381 (232) -0.1275 (250)
 CRD 34=  -0.1421 (  5)  0.2689 ( 11) -0.2471 ( 16)  0.1743 ( 17)  0.2117 ( 26)
          -0.2610 ( 29)  0.2214 ( 32) -0.1103 ( 35)  0.1663 ( 41) -0.3350 ( 44)
           0.1078 (144)  0.1579 (145) -0.1885 (146) -0.1232 (150)
 CRD 35=   0.1951 (  5) -0.2891 ( 11)  0.1591 ( 16) -0.1972 ( 20)  0.2662 ( 23)
          -0.1863 ( 26)  0.1807 ( 32) -0.2575 ( 35)  0.2242 ( 38) -0.2524 ( 44)
           0.1263 ( 47)  0.1549 (144)  0.1191 (145) -0.1597 (146) -0.1294 (150)
 CRD 36=  -0.1040 ( 55)  0.1388 ( 59) -0.2559 ( 60)  0.1157 ( 61) -0.1797 ( 70)
           0.1366 ( 71)  0.2402 (144) -0.2633 (145) -0.1052 (151)  0.1050 (152)
           0.1472 (153)  0.1597 (155)  0.1093 (156)  0.1313 (159) -0.1433 (162)
          -0.1291 (165)  0.1142 (166)  0.1001 (186) -0.1190 (205)  0.1015 (214)
           0.1012 (277)
 CRD 37=   0.2605 (  5) -0.2408 ( 11)  0.2300 ( 17) -0.2395 ( 20)  0.1752 ( 26)
          -0.2558 ( 29)  0.1261 ( 32)  0.1168 ( 35) -0.2795 ( 38)  0.1744 ( 41)
           0.1387 ( 44) -0.1161 ( 47)  0.1228 ( 59) -0.1656 (144)  0.1357 (146)
           0.1147 (150)
 CRD 38=   0.1974 (  1)  0.1984 (  2)  0.1382 (  3)  0.1431 ( 58)  0.3110 ( 59)
          -0.1709 ( 60) -0.1397 ( 61) -0.1627 ( 62)  0.1139 ( 65)  0.1024 ( 68)
          -0.1176 ( 76)  0.1359 ( 77) -0.1297 ( 84) -0.1028 (119)  0.1117 (126)
          -0.1183 (136) -0.1260 (138)  0.1151 (139)  0.1303 (145)  0.1084 (148)
          -0.1355 (173)  0.1119 (194) -0.1168 (214)
 CRD 39=   0.2618 (  5) -0.2013 ( 16)  0.2165 ( 17) -0.2359 ( 23)  0.1705 ( 26)
           0.1062 ( 29) -0.2483 ( 32)  0.1799 ( 38) -0.2213 ( 41)  0.1209 ( 59)
          -0.1480 ( 60)  0.1213 ( 63) -0.1117 ( 96)  0.1209 (106) -0.1013 (115)
          -0.1166 (117)  0.1097 (127) -0.1007 (137)  0.1555 (145) -0.1115 (146)
 CRD 40=   0.1113 (  1)  0.1596 (  2)  0.1635 ( 11) -0.1704 ( 17)  0.1377 ( 20)
          -0.1847 ( 26)  0.1628 ( 32) -0.1363 ( 35)  0.1770 ( 41)  0.1963 ( 59)
          -0.2275 ( 60) -0.1035 ( 62)  0.1030 ( 74) -0.1152 ( 85)  0.1337 ( 95)
           0.1031 ( 97) -0.1403 (107)  0.1151 (114)  0.1137 (119) -0.1092 (126)
          -0.2068 (144)
 CRD 41=  -0.1930 (  5)  0.2473 ( 16) -0.1542 ( 17) -0.2054 ( 20)  0.2139 ( 23)
           0.1353 ( 26) -0.2632 ( 29)  0.2910 ( 35) -0.2706 ( 41) -0.1178 ( 70)
           0.1780 (145) -0.1242 (146)
 CRD 42=  -0.1255 ( 63)  0.1535 ( 65)  0.1079 ( 70) -0.1759 ( 76)  0.1656 ( 77)
          -0.1127 ( 80)  0.1302 ( 88) -0.1323 ( 89)  0.1258 ( 90) -0.1121 ( 91)
          -0.1448 (100)  0.1528 (101) -0.1229 (102)  0.1149 (103)  0.1330 (112)
          -0.1442 (113)  0.1345 (114) -0.1294 (115) -0.1309 (124)  0.1439 (125)
          -0.1168 (126)  0.1126 (127) -0.1014 (132)  0.1058 (136) -0.1189 (137)
           0.1719 (138) -0.1640 (139) -0.1468 (148)  0.1488 (149) -0.1196 (170)
          -0.1290 (173)  0.1037 (189)  0.1042 (193) -0.1145 (206) -0.1081 (209)
           0.1007 (224) -0.1146 (275) -0.1170 (276) -0.1049 (277)
 CRD 43=  -0.2215 (  5)  0.2789 ( 16)  0.1011 ( 17) -0.2614 ( 20) -0.1510 ( 23)
           0.2267 ( 26)  0.1935 ( 29)  0.1051 ( 30) -0.1865 ( 32) -0.2244 ( 35)
          -0.1018 ( 36)  0.1380 ( 38)  0.2214 ( 41) -0.1060 ( 70) -0.1530 (144)
           0.1190 (146)
 CRD 44=   0.1544 (  5)  0.1571 ( 11) -0.2324 ( 17)  0.2150 ( 23)  0.1841 ( 26)
           0.1156 ( 28) -0.1146 ( 29) -0.2412 ( 32) -0.1116 ( 34)  0.2087 ( 38)
           0.1332 ( 41)  0.1129 ( 42)  0.1393 ( 63)  0.1284 ( 76)  0.1061 ( 96)
          -0.1130 (119)  0.1388 (133) -0.1052 (139) -0.1389 (145)  0.1141 (146)
 CRD 45=   0.1190 ( 16)  0.1154 ( 17) -0.1535 ( 23)  0.1120 ( 29)  0.1439 ( 32)
          -0.1435 ( 38) -0.1083 ( 43)  0.1384 ( 63) -0.1738 ( 65)  0.1364 ( 76)
          -0.1476 ( 77)  0.1168 ( 83) -0.1328 ( 97) -0.1002 (101) -0.1120 (106)
          -0.1020 (108)  0.1491 (109)  0.1451 (117) -0.1034 (130) -0.1673 (132)
           0.1205 (133)  0.1622 (138) -0.1051 (139)  0.1397 (142) -0.1133 (143)
          -0.1311 (148)  0.1383 (149)  0.1192 (169)
 CRD 46=  -0.1318 ( 73)  0.1342 ( 74) -0.1200 ( 78)  0.1245 ( 80)  0.1249 ( 81)
          -0.1206 ( 83) -0.1207 ( 88)  0.1182 ( 89)  0.1162 ( 90) -0.1198 ( 91)
          -0.1645 ( 96)  0.1633 ( 97) -0.1157 (100)  0.1135 (101)  0.1766 (102)
          -0.1749 (103)  0.1600 (106) -0.1594 (107) -0.1239 (108)  0.1265 (109)
          -0.1749 (112)  0.1769 (113)  0.1313 (117) -0.1281 (119) -0.1079 (120)
           0.1073 (121)  0.1283 (126) -0.1316 (127)  0.1096 (130) -0.1124 (131)
          -0.1356 (136)  0.1343 (137)  0.1045 (142) -0.1033 (143)  0.1000 (213)
          -0.1039 (221) -0.1027 (222) -0.1014 (224) -0.1012 (227)
 CRD 47=   0.1751 ( 73) -0.1847 ( 74)  0.1927 ( 78) -0.2035 ( 80) -0.1640 ( 81)
           0.1541 ( 83)  0.1073 ( 84) -0.1035 ( 85)  0.1984 ( 88) -0.1936 ( 89)
          -0.1252 ( 94)  0.1321 ( 95)  0.1359 (114) -0.1417 (115) -0.1990 (120)
           0.2042 (121) -0.1116 (124)  0.1172 (125)  0.1672 (126) -0.1560 (127)
           0.1919 (130) -0.1816 (131) -0.1743 (136)  0.1774 (137) -0.1233 (176)
          -0.1194 (177)  0.1174 (185)  0.1203 (186)  0.1079 (189)  0.1120 (193)
           0.1309 (248)  0.1311 (249)  0.1024 (254) -0.1084 (260) -0.1098 (263)
 CRD 48=   0.1029 ( 39)  0.1132 ( 63) -0.1257 ( 65) -0.1061 ( 74)  0.1228 ( 76)
          -0.1412 ( 77) -0.1208 ( 81) -0.1627 ( 84)  0.1740 ( 85)  0.1490 ( 90)
          -0.1230 ( 91)  0.1667 ( 94) -0.1445 ( 95) -0.1226 (100)  0.1303 (101)
           0.1264 (114) -0.1373 (115) -0.1301 (124)  0.1393 (125) -0.1180 (126)
           0.1393 (127)  0.1763 (132) -0.1677 (133)  0.1133 (136) -0.1070 (137)
          -0.1569 (142)  0.1481 (143)  0.1109 (194)  0.1110 (195) -0.1210 (266)
          -0.1201 (267)
 CRD 49=   0.1263 (  5)  0.1772 ( 11) -0.1466 ( 17) -0.2050 ( 20) -0.1240 ( 21)
          -0.1190 ( 25)  0.1421 ( 26)  0.1991 ( 29)  0.1457 ( 31)  0.1068 ( 33)
          -0.1397 ( 35) -0.2048 ( 38) -0.1374 ( 39)  0.1332 ( 44)  0.1014 ( 63)
          -0.1069 ( 64)  0.1088 ( 73)  0.1100 ( 83)  0.1098 ( 86) -0.1202 ( 91)
          -0.1126 (100) -0.1081 (104)  0.1047 (122)  0.1176 (139)  0.1001 (143)
           0.1990 (144) -0.1235 (146)
 CRD 50=  -0.1475 ( 78)  0.1488 ( 80) -0.1297 ( 84)  0.1262 ( 85) -0.1423 ( 88)
           0.1393 ( 89)  0.1464 ( 94) -0.1490 ( 95)  0.1627 ( 96) -0.1657 ( 97)
          -0.2165 (102)  0.2216 (103) -0.1315 (106)  0.1388 (107)  0.1154 (108)
          -0.1066 (109)  0.2273 (112) -0.2175 (113) -0.1430 (117)  0.1442 (119)
          -0.1562 (120)  0.1492 (121)  0.1230 (126) -0.1323 (127)  0.1340 (130)
          -0.1428 (131) -0.1381 (136)  0.1359 (137) -0.1163 (212) -0.1122 (213)
           0.1264 (221)  0.1260 (222)  0.1308 (224)  0.1338 (227) -0.1030 (233)
          -0.1044 (236)
 CRD 51=  -0.1175 ( 74) -0.1107 ( 81)  0.1057 ( 83)  0.1234 ( 85)  0.2043 ( 90)
          -0.1811 ( 91) -0.1259 ( 96)  0.1231 ( 97) -0.1819 (100)  0.1815 (101)
           0.1429 (106) -0.1607 (107)  0.1567 (108) -0.1782 (109) -0.1716 (114)
           0.1698 (115) -0.1451 (117)  0.1415 (119)  0.1961 (124) -0.1765 (125)
          -0.1084 (132)  0.1128 (133)  0.1078 (142) -0.1200 (143) -0.1166 (203)
          -0.1247 (204) -0.1028 (209)  0.1107 (215)  0.1004 (218) -0.1182 (230)
          -0.1090 (231)  0.1147 (242)  0.1243 (245)
 CRD 52=   0.1045 (  1)  0.1352 (  2) -0.1050 ( 13)  0.1191 ( 16)  0.1516 ( 17)
           0.1533 ( 19) -0.1516 ( 26) -0.1023 ( 27) -0.1048 ( 29) -0.1328 ( 30)
           0.1443 ( 35)  0.1368 ( 38)  0.1602 ( 40) -0.1163 ( 44) -0.1292 ( 46)
          -0.1001 ( 48) -0.1127 ( 51) -0.1191 ( 71) -0.1071 (138) -0.1106 (142)
           0.1013 (144) -0.2410 (145) -0.1097 (149) -0.1059 (151)  0.1083 (268)
          -0.1077 (272)  0.1004 (278)
 CRD 53=   0.1568 (  5)  0.2099 ( 11)  0.1419 ( 13) -0.1898 ( 20) -0.2029 ( 23)
          -0.1373 ( 24) -0.1091 ( 28)  0.1888 ( 32)  0.1042 ( 34)  0.2045 ( 35)
           0.1077 ( 36)  0.1140 ( 37)  0.1024 ( 38)  0.1191 ( 39) -0.1945 ( 44)
          -0.1069 ( 45) -0.1122 ( 49) -0.1033 ( 53) -0.1418 ( 64) -0.1110 ( 72)
           0.1015 ( 86)  0.1544 ( 92)  0.1173 ( 98) -0.1001 (110) -0.1538 (116)
          -0.1179 (122)  0.1270 (140) -0.1548 (144)  0.1495 (146)  0.1012 (150)
 CRD 54=  -0.1173 (  5) -0.1978 ( 11) -0.1206 ( 13) -0.1275 ( 14) -0.1085 ( 15)
          -0.1871 ( 16) -0.1149 ( 17) -0.1075 ( 18)  0.1047 ( 23)  0.1784 ( 26)
           0.1039 ( 28)  0.1957 ( 29)  0.1121 ( 30)  0.1190 ( 31)  0.1508 ( 32)
           0.1248 ( 33) -0.1675 ( 41) -0.2045 ( 44) -0.1285 ( 46) -0.1121 ( 48)
           0.1399 ( 64)  0.1651 ( 72)  0.1329 ( 79) -0.1242 ( 98) -0.1652 (104)
          -0.1524 (110)  0.1477 (134)  0.1432 (140) -0.1206 (145)  0.1415 (146)
 CRD 55=  -0.1426 ( 11) -0.1144 ( 14) -0.1759 ( 16) -0.1843 ( 17) -0.1258 ( 18)
          -0.1132 ( 19) -0.1656 ( 20) -0.1061 ( 21) -0.1262 ( 22) -0.1220 ( 23)
           0.1325 ( 35)  0.1711 ( 38)  0.1113 ( 40)  0.1928 ( 41)  0.1257 ( 42)
           0.1127 ( 43)  0.1753 ( 44)  0.1303 ( 45)  0.1128 ( 46)  0.1048 ( 64)
           0.1498 ( 72)  0.1715 ( 79)  0.1666 ( 86)  0.1373 ( 92) -0.1454 (122)
          -0.1706 (128) -0.1642 (134) -0.1289 (140) -0.1130 (146)
 CRD 56=  -0.1011 ( 16) -0.1268 ( 17) -0.1466 ( 20) -0.1012 ( 22) -0.1623 ( 23)
          -0.1065 ( 24) -0.1083 ( 25) -0.1719 ( 26) -0.1230 ( 27) -0.1091 ( 28)
          -0.1751 ( 29) -0.1197 ( 30) -0.1217 ( 31) -0.1720 ( 32) -0.1144 ( 33)
          -0.1267 ( 34) -0.1619 ( 35) -0.1189 ( 36) -0.1135 ( 37) -0.1475 ( 38)
          -0.1130 ( 39) -0.1019 ( 40) -0.1310 ( 41) -0.1039 ( 44)  0.1136 ( 79)
           0.1364 ( 86)  0.1542 ( 92)  0.1666 ( 98)  0.1731 (104)  0.1731 (110)
           0.1668 (116)  0.1548 (122)  0.1373 (128)  0.1112 (134)
 CRD 57=  -0.1142 (  2) -0.1417 (  6)  0.1563 (  7) -0.1382 ( 14)  0.1711 ( 15)
           0.1514 ( 21) -0.1405 ( 22) -0.1312 ( 27)  0.1333 ( 28)  0.1166 ( 33)
          -0.1152 ( 34) -0.1071 ( 36)  0.1090 ( 37)  0.1205 ( 42) -0.1207 ( 43)
          -0.1298 ( 48)  0.1299 ( 49)  0.1522 ( 71)  0.1229 (144) -0.1228 (145)
           0.1035 (157)  0.1122 (158) -0.1356 (162) -0.1002 (176) -0.1003 (177)
          -0.1169 (178)  0.1020 (181)  0.1221 (196) -0.1238 (214)  0.1231 (232)
          -0.1205 (250)  0.1227 (268)
 CRD 58=  -0.1180 (  2) -0.1041 (  8)  0.1001 (  9)  0.2533 ( 55) -0.3333 ( 56)
          -0.1904 ( 60)  0.2429 ( 61)  0.1395 ( 66) -0.1517 ( 67)  0.2700 ( 70)
          -0.3379 ( 71)  0.1173 (154)  0.1180 (157)  0.1043 (158)  0.1546 (159)
          -0.1732 (160) -0.1953 (161) -0.2828 (163) -0.3048 (164) -0.1135 (165)
           0.2660 (166)
 CRD 59=  -0.1756 (  6)  0.1394 (  7) -0.1487 ( 14)  0.1594 ( 15)  0.1327 ( 21)
          -0.1373 ( 22)  0.1296 ( 24) -0.1260 ( 25) -0.1058 ( 27)  0.1094 ( 28)
          -0.1583 ( 30)  0.1569 ( 31)  0.1780 ( 36) -0.1778 ( 37) -0.1870 ( 42)
           0.1872 ( 43)  0.1788 ( 48) -0.1788 ( 49)  0.1017 (158) -0.1091 (162)
           0.1015 (205) -0.1001 (257) -0.1002 (258) -0.1021 (278) -0.1022 (281)
 CRD 60=   0.1029 (  1) -0.1309 (  4)  0.1750 (  6)  0.1137 (  8)  0.1175 (  9)
           0.1246 ( 10) -0.1386 ( 12)  0.1281 ( 13)  0.1841 ( 18) -0.1836 ( 19)
          -0.1563 ( 24)  0.1581 ( 25) -0.1343 ( 27)  0.1328 ( 28)  0.1747 ( 33)
          -0.1749 ( 34) -0.1478 ( 39)  0.1481 ( 40) -0.1386 ( 42)  0.1385 ( 43)
           0.1700 ( 48) -0.1701 ( 49) -0.1363 ( 59) -0.1277 ( 60)  0.1311 ( 66)
           0.1177 ( 67)  0.1139 ( 68)
 CRD 61=  -0.1353 (  1) -0.1213 (  3)  0.1942 (  4) -0.1603 (  7) -0.2769 (  8)
          -0.2821 (  9) -0.3011 ( 10) -0.1037 ( 15) -0.1021 ( 24)  0.1011 ( 25)
          -0.1001 ( 39)  0.1001 ( 40)  0.1382 ( 58)  0.2839 ( 59)  0.2184 ( 60)
           0.2108 ( 61) -0.1483 ( 62) -0.2563 ( 66) -0.2512 ( 67) -0.2118 ( 68)
 CRD 62=  -0.1551 (  6)  0.1763 (  7)  0.1602 ( 12) -0.1414 ( 13) -0.1806 ( 18)
           0.1834 ( 19) -0.1685 ( 21)  0.1668 ( 22)  0.1669 ( 27) -0.1689 ( 28)
           0.1823 ( 30) -0.1810 ( 31) -0.1609 ( 36)  0.1615 ( 37) -0.1866 ( 39)
           0.1863 ( 40)  0.1444 ( 45) -0.1445 ( 46)  0.1790 ( 48) -0.1790 ( 49)
 CRD 63=   0.1450 (  6) -0.1418 (  7) -0.1946 ( 12)  0.1831 ( 13) -0.1009 ( 14)
           0.1845 ( 21) -0.1871 ( 22)  0.2022 ( 24) -0.2001 ( 25) -0.1899 ( 33)
           0.1904 ( 34) -0.1970 ( 36)  0.1966 ( 37)  0.1923 ( 45) -0.1922 ( 46)
           0.1714 ( 48) -0.1714 ( 49)
 CRD 64=  -0.1762 ( 47) -0.4815 ( 50) -0.5070 ( 51) -0.5070 ( 52)  0.1754 (144)
           0.1754 (145)  0.1907 (146) -0.1829 (150) -0.1917 (151) -0.1917 (152)
 CRD 65=  -0.1275 (  6)  0.1184 (  7)  0.1984 ( 12) -0.1908 ( 13)  0.1783 ( 14)
          -0.1739 ( 15) -0.1365 ( 24)  0.1374 ( 25) -0.2013 ( 27)  0.2023 ( 28)
          -0.2060 ( 30)  0.2049 ( 31) -0.1413 ( 33)  0.1407 ( 34)  0.1763 ( 42)
          -0.1765 ( 43)  0.2075 ( 45) -0.2073 ( 46)  0.1530 ( 48) -0.1530 ( 49)
 CRD 66=   0.2360 (  8)  0.3259 (  9) -0.4629 ( 10) -0.2963 ( 66) -0.2025 ( 67)
           0.5361 ( 68) -0.3084 (153)  0.2738 (156)
 CRD 67=  -0.4634 (  8)  0.4005 (  9) -0.4155 ( 66)  0.4669 ( 67) -0.1201 (153)
           0.3545 (155) -0.1826 (156)
 CRD 68=   0.1115 (  6) -0.1019 (  7) -0.1869 ( 12)  0.1813 ( 13) -0.2067 ( 14)
           0.2044 ( 15) -0.1912 ( 18)  0.1884 ( 19) -0.1481 ( 21)  0.1470 ( 22)
           0.1169 ( 33) -0.1173 ( 34)  0.1700 ( 36) -0.1701 ( 37)  0.2020 ( 39)
          -0.2018 ( 40)  0.2110 ( 42) -0.2110 ( 43)  0.1923 ( 45) -0.1920 ( 46)
           0.1299 ( 48) -0.1299 ( 49)
 CRD 69=   0.1530 ( 12) -0.1485 ( 13)  0.1803 ( 14) -0.1790 ( 15)  0.1941 ( 18)
          -0.1925 ( 19)  0.2002 ( 21) -0.2007 ( 22)  0.2055 ( 24) -0.2039 ( 25)
           0.2040 ( 27) -0.2043 ( 28)  0.2017 ( 30) -0.2006 ( 31)  0.1937 ( 33)
          -0.1936 ( 34)  0.1837 ( 36) -0.1834 ( 37)  0.1697 ( 39) -0.1693 ( 40)
           0.1523 ( 42) -0.1523 ( 43)  0.1300 ( 45) -0.1298 ( 46)
 CRD 70=  -0.1004 (207) -0.1004 (208) -0.1002 (210) -0.1002 (211) -0.1097 (216)
          -0.1096 (217) -0.1094 (219) -0.1092 (220) -0.1151 (225) -0.1151 (226)
          -0.1151 (228) -0.1150 (229) -0.1170 (234) -0.1169 (235) -0.1168 (237)
          -0.1167 (238) -0.1144 (243) -0.1144 (244) -0.1144 (246) -0.1144 (247)
          -0.1084 (252) -0.1084 (253) -0.1084 (255) -0.1084 (256)
 CRD 71=  -0.1139 ( 27)  0.1144 ( 28) -0.1268 ( 30)  0.1264 ( 31) -0.1207 ( 33)
           0.1207 ( 34) -0.1141 (188) -0.1140 (190) -0.1130 (191) -0.1131 (192)
          -0.1183 (198) -0.1180 (199) -0.1178 (201) -0.1175 (202) -0.1038 (207)
          -0.1037 (208) -0.1037 (210) -0.1036 (211)  0.1150 (261)  0.1150 (262)
           0.1150 (264)  0.1150 (265)  0.1170 (270)  0.1170 (271)  0.1170 (273)
           0.1170 (274)  0.1003 (279)  0.1003 (280)  0.1003 (282)  0.1003 (283)
 CRD 72=  -0.2043 (  1) -0.1902 (  3)  0.4136 (  4) -0.1790 (  6) -0.4065 (  7)
           0.3102 (  8)  0.3097 (  9)  0.4455 ( 10) -0.1204 ( 57)  0.2328 ( 58)
           0.1540 ( 59) -0.1118 ( 62)
 CRD 73=   0.1259 (  7) -0.1175 ( 21)  0.1186 ( 22) -0.1182 ( 24)  0.1174 ( 25)
           0.1142 ( 36) -0.1143 ( 37)  0.1211 ( 39) -0.1210 ( 40) -0.1166 (179)
          -0.1167 (180) -0.1139 (182) -0.1140 (183) -0.1163 (188) -0.1163 (190)
          -0.1152 (191) -0.1152 (192)  0.1140 (225)  0.1139 (226)  0.1140 (228)
           0.1139 (229)  0.1178 (234)  0.1177 (235)  0.1175 (237)  0.1174 (238)
          -0.1120 (270) -0.1120 (271) -0.1120 (273) -0.1120 (274) -0.1198 (279)
          -0.1198 (280) -0.1197 (282) -0.1197 (283)
 CRD 74=   0.1127 ( 18) -0.1142 ( 19) -0.1154 ( 30)  0.1157 ( 31)  0.1160 ( 42)
          -0.1161 ( 43)  0.1282 (179)  0.1279 (180)  0.1233 (182)  0.1231 (183)
          -0.1092 (207) -0.1088 (208) -0.1092 (210) -0.1088 (211) -0.1209 (216)
          -0.1207 (217) -0.1203 (219) -0.1201 (220)  0.1191 (243)  0.1189 (244)
           0.1191 (246)  0.1190 (247)  0.1106 (252)  0.1107 (253)  0.1104 (255)
           0.1104 (256) -0.1274 (279) -0.1275 (280) -0.1274 (282) -0.1274 (283)
 CRD 75=  -0.1834 ( 48) -0.1835 ( 49)  0.6341 ( 50) -0.2883 ( 51) -0.2913 ( 52)
          -0.3271 (150)  0.1572 (151)  0.1587 (152) -0.1690 (275)  0.1695 (276)
           0.1876 (285) -0.1509 (286)  0.1515 (288) -0.1870 (289)
 CRD 76=   0.5462 ( 51) -0.5446 ( 52) -0.2963 (151)  0.2954 (152) -0.2246 (277)
          -0.2146 (284)  0.1007 (285)  0.1017 (286) -0.2145 (287)  0.1008 (288)
           0.1018 (289)
 CRD 77=  -0.1594 (  1) -0.1390 (  3)  0.1789 (  4)  0.5992 (  6)  0.4823 (  7)
           0.1133 (  8)  0.1076 (  9)  0.1711 ( 10)  0.2665 ( 69)  0.1061 (160)
          -0.1340 (161)  0.1046 (163) -0.1354 (164) -0.1018 (170) -0.1072 (171)
           0.1097 (173)  0.1195 (174)  0.1043 (175)
 CRD 78=  -0.1082 ( 14) -0.1076 ( 15)  0.1485 ( 18)  0.1490 ( 19) -0.2028 ( 21)
          -0.2022 ( 22)  0.2164 ( 24)  0.2173 ( 25) -0.2535 ( 27) -0.2529 ( 28)
           0.2389 ( 30)  0.2399 ( 31) -0.2477 ( 33) -0.2473 ( 34)  0.2121 ( 36)
           0.2123 ( 37) -0.1897 ( 39) -0.1899 ( 40)  0.1421 ( 42)  0.1418 ( 43)
 CRD 79=   0.1928 ( 14)  0.1918 ( 15) -0.2282 ( 18) -0.2293 ( 19)  0.2496 ( 21)
           0.2494 ( 22) -0.1821 ( 24) -0.1831 ( 25)  0.1057 ( 27)  0.1060 ( 28)
          -0.1221 ( 33) -0.1224 ( 34)  0.1956 ( 36)  0.1954 ( 37) -0.2500 ( 39)
          -0.2500 ( 40)  0.2319 ( 42)  0.2322 ( 43) -0.1820 ( 45) -0.1819 ( 46)
 CRD 80=  -0.1296 ( 12) -0.1292 ( 13)  0.2433 ( 14)  0.2426 ( 15) -0.2128 ( 18)
          -0.2145 ( 19)  0.1168 ( 21)  0.1182 ( 22) -0.2020 ( 27) -0.2012 ( 28)
           0.2317 ( 30)  0.2320 ( 31) -0.1904 ( 33) -0.1912 ( 34)  0.1262 ( 39)
           0.1265 ( 40) -0.2237 ( 42) -0.2230 ( 43)  0.2344 ( 45)  0.2350 ( 46)
          -0.1311 ( 48) -0.1311 ( 49)
 CRD 81=  -0.1609 ( 12) -0.1607 ( 13)  0.2512 ( 14)  0.2512 ( 15) -0.1097 ( 18)
          -0.1123 ( 19) -0.1002 ( 21)  0.2165 ( 24)  0.2181 ( 25) -0.2014 ( 27)
          -0.2014 ( 28)  0.2055 ( 33)  0.2042 ( 34) -0.2204 ( 36) -0.2212 ( 37)
           0.1171 ( 42)  0.1180 ( 43) -0.2437 ( 45) -0.2432 ( 46)  0.1700 ( 48)
           0.1698 ( 49)
 CRD 82=  -0.1828 ( 12) -0.1831 ( 13)  0.2180 ( 14)  0.2187 ( 15) -0.2497 ( 21)
          -0.2481 ( 22)  0.1375 ( 24)  0.1407 ( 25)  0.1091 ( 27)  0.1088 ( 28)
          -0.2125 ( 30) -0.2137 ( 31)  0.1038 ( 33)  0.1029 ( 34)  0.1408 ( 36)
           0.1398 ( 37) -0.2382 ( 39) -0.2379 ( 40)  0.2032 ( 45)  0.2042 ( 46)
          -0.1997 ( 48) -0.1998 ( 49)
 CRD 83=  -0.1700 ( 12) -0.1709 ( 13)  0.1385 ( 14)  0.1399 ( 15)  0.1312 ( 18)
           0.1291 ( 19) -0.2171 ( 21) -0.2170 ( 22)  0.2588 ( 27)  0.2592 ( 28)
          -0.2546 ( 33) -0.2557 ( 34)  0.2057 ( 39)  0.2061 ( 40) -0.1596 ( 42)
          -0.1586 ( 43) -0.1241 ( 45) -0.1232 ( 46)  0.2056 ( 48)  0.2054 ( 49)
           0.1003 (105)
 CRD 84=   0.1857 ( 12)  0.1879 ( 13) -0.2039 ( 18) -0.2033 ( 19)  0.2176 ( 24)
           0.2157 ( 25) -0.2316 ( 30) -0.2305 ( 31)  0.2442 ( 36)  0.2453 ( 37)
          -0.2537 ( 42) -0.2556 ( 43)  0.2484 ( 48)  0.2486 ( 49) -0.1028 (135)
 CRD 85=   0.2639 ( 12)  0.2680 ( 13) -0.2528 ( 18) -0.2521 ( 19) -0.1185 ( 21)
          -0.1186 ( 22)  0.1729 ( 24)  0.1700 ( 25)  0.1766 ( 27)  0.1734 ( 28)
          -0.1944 ( 33) -0.1898 ( 34)  0.1640 ( 39)  0.1628 ( 40)  0.1770 ( 42)
           0.1726 ( 43) -0.2135 ( 48) -0.2130 ( 49)  0.1083 ( 75) -0.1050 ( 87)
 CRD 86=   0.2303 ( 12)  0.2351 ( 13)  0.1197 ( 14)  0.1224 ( 15) -0.1075 ( 18)
          -0.1067 ( 19) -0.2033 ( 21) -0.2062 ( 22) -0.1172 ( 24) -0.1218 ( 25)
           0.1163 ( 27)  0.1135 ( 28)  0.2462 ( 30)  0.2483 ( 31) -0.1696 ( 36)
          -0.1656 ( 37) -0.2069 ( 39) -0.2086 ( 40)  0.1676 ( 45)  0.1629 ( 46)
           0.1973 ( 48)  0.1980 ( 49)  0.1077 (111)
 CRD 87=   0.2084 ( 12)  0.2140 ( 13)  0.1832 ( 14)  0.1876 ( 15) -0.1230 ( 21)
          -0.1281 ( 22) -0.2359 ( 24) -0.2423 ( 25) -0.1411 ( 27) -0.1445 ( 28)
           0.1698 ( 33)  0.1774 ( 34)  0.2237 ( 36)  0.2283 ( 37) -0.1014 ( 43)
          -0.2061 ( 45) -0.2115 ( 46) -0.1729 ( 48) -0.1722 ( 49) -0.1086 ( 99)
           0.1032 (123)
 CRD 88=  -0.1759 ( 12) -0.1815 ( 13) -0.2061 ( 14) -0.2114 ( 15) -0.1835 ( 18)
          -0.1844 ( 19)  0.1732 ( 27)  0.1775 ( 28)  0.2318 ( 30)  0.2294 ( 31)
           0.1589 ( 33)  0.1523 ( 34) -0.2019 ( 42) -0.1963 ( 43) -0.2137 ( 45)
          -0.2090 ( 46) -0.1397 ( 48) -0.1404 ( 49) -0.1019 ( 82)  0.1088 (111)
          -0.1019 (141)
 CRD 89=   0.1285 ( 12)  0.1333 ( 13)  0.1779 ( 14)  0.1835 ( 15)  0.2228 ( 18)
           0.2249 ( 19)  0.1930 ( 21)  0.1905 ( 22)  0.1639 ( 24)  0.1581 ( 25)
          -0.1784 ( 36) -0.1750 ( 37) -0.2028 ( 39) -0.2037 ( 40) -0.2135 ( 42)
          -0.2180 ( 43) -0.1711 ( 45) -0.1746 ( 46) -0.1006 ( 48) -0.1002 ( 49)
           0.1087 ( 87) -0.1017 (129) -0.1058 (135)
 CRD 90=   0.1038 ( 14)  0.1074 ( 15)  0.1509 ( 18)  0.1525 ( 19)  0.1672 ( 21)
           0.1667 ( 22)  0.2075 ( 24)  0.2044 ( 25)  0.1997 ( 27)  0.1979 ( 28)
           0.2213 ( 30)  0.2217 ( 31)  0.1959 ( 33)  0.1985 ( 34)  0.1958 ( 36)
           0.1975 ( 37)  0.1624 ( 39)  0.1617 ( 40)  0.1392 ( 42)  0.1367 ( 43)
           0.1016 ( 99)  0.1022 (105)  0.1094 (111)  0.1011 (118)
 CRD 91=   0.1141 ( 14)  0.1009 ( 28)  0.1044 ( 33) -0.1034 ( 34) -0.1003 ( 42)
           0.1174 (171)  0.1024 (172)  0.1063 (174)  0.1213 (175)  0.1061 (179)
           0.1126 (180)  0.1130 (182)  0.1195 (183) -0.1122 (198) -0.1124 (199)
          -0.1104 (201) -0.1106 (202) -0.1089 (207) -0.1098 (208) -0.1094 (210)
          -0.1102 (211)  0.1144 (225)  0.1151 (226)  0.1146 (228)  0.1153 (229)
           0.1108 (234)  0.1109 (235)  0.1114 (237)  0.1115 (238) -0.1144 (252)
          -0.1145 (253) -0.1146 (255) -0.1146 (256) -0.1074 (261) -0.1075 (262)
          -0.1075 (264) -0.1076 (265)  0.1176 (279)  0.1175 (280)  0.1175 (282)
           0.1174 (283)
 CRD 92=   0.5391 (  2)  0.3411 (  3)  0.2193 (  4)  0.2609 (  8)  0.2822 (  9)
          -0.1063 ( 10) -0.3853 ( 54)  0.2497 ( 57) -0.1001 ( 58) -0.1999 ( 59)
           0.1713 ( 60)  0.1907 ( 61) -0.1502 ( 62) -0.1483 ( 68)
 CRD 93=   0.1189 ( 14) -0.1173 ( 15) -0.1022 ( 21)  0.1019 ( 22)  0.1038 ( 30)
          -0.1033 ( 31)  0.1111 ( 45) -0.1110 ( 46)  0.1294 (171)  0.1231 (172)
           0.1259 (174)  0.1322 (175) -0.1241 (198) -0.1239 (199) -0.1241 (201)
          -0.1239 (202)  0.1269 (216)  0.1268 (217)  0.1266 (219)  0.1265 (220)
          -0.1168 (243) -0.1168 (244) -0.1167 (246) -0.1168 (247)  0.1280 (261)
           0.1280 (262)  0.1279 (264)  0.1279 (265) -0.1036 (285) -0.1036 (286)
          -0.1036 (288) -0.1036 (289)
 CRD 94=  -0.1108 ( 21)  0.1107 ( 22)  0.1202 ( 27) -0.1200 ( 28) -0.1246 ( 33)
           0.1245 ( 34)  0.1225 ( 39) -0.1225 ( 40) -0.1237 ( 45)  0.1236 ( 46)
           0.1241 (171)  0.1190 (172)  0.1199 (174)  0.1250 (175) -0.1189 (188)
          -0.1197 (190) -0.1207 (191) -0.1200 (192)  0.1181 (207)  0.1180 (208)
           0.1182 (210)  0.1180 (211) -0.1111 (225) -0.1109 (226) -0.1113 (228)
          -0.1111 (229) -0.1154 (270) -0.1155 (271) -0.1154 (273) -0.1154 (274)
           0.1032 (285)  0.1032 (286)  0.1032 (288)  0.1032 (289)
 CRD 95=   0.1553 ( 12) -0.1536 ( 13) -0.1740 ( 14)  0.1736 ( 15)  0.1745 ( 18)
          -0.1745 ( 19) -0.1921 ( 21)  0.1919 ( 22)  0.2141 ( 24) -0.2142 ( 25)
          -0.2118 ( 27)  0.2117 ( 28)  0.1865 ( 30) -0.1866 ( 31) -0.1718 ( 33)
           0.1717 ( 34)  0.1673 ( 36) -0.1674 ( 37) -0.1470 ( 39)  0.1470 ( 40)
           0.1028 ( 42) -0.1028 ( 43)
 CRD 96=  -0.1533 (  6)  0.1614 (  7) -0.2273 ( 12)  0.2248 ( 13)  0.1298 ( 14)
          -0.1294 ( 15)  0.1513 ( 30) -0.1512 ( 31) -0.1466 ( 33)  0.1466 ( 34)
          -0.1279 ( 39)  0.1279 ( 40)  0.2185 ( 42) -0.2185 ( 43) -0.1921 ( 45)
           0.1921 ( 46) -0.1297 (171) -0.1277 (172) -0.1238 (174) -0.1258 (175)
          -0.1048 (234) -0.1047 (235) -0.1047 (237) -0.1047 (238) -0.1307 (270)
          -0.1307 (271) -0.1307 (273) -0.1307 (274)
 CRD 97=   0.1745 ( 14) -0.1744 ( 15) -0.2470 ( 18)  0.2469 ( 19)  0.1158 ( 21)
          -0.1158 ( 22)  0.2292 ( 36) -0.2293 ( 37) -0.2055 ( 39)  0.2056 ( 40)
          -0.1029 (176) -0.1032 (177) -0.1484 (188) -0.1488 (190) -0.1491 (191)
          -0.1488 (192)  0.1166 (198)  0.1164 (199)  0.1165 (201)  0.1163 (202)
          -0.1017 (251) -0.1546 (252) -0.1545 (253) -0.1017 (254) -0.1546 (255)
          -0.1545 (256)
 CRD 98=  -0.1377 (  6)  0.1402 (  7) -0.2050 ( 12)  0.2028 ( 13)  0.1685 ( 14)
          -0.1682 ( 15)  0.1678 ( 24) -0.1679 ( 25) -0.1726 ( 27)  0.1725 ( 28)
           0.1555 ( 30) -0.1555 ( 31) -0.1149 ( 33)  0.1149 ( 34)  0.1332 ( 39)
          -0.1332 ( 40) -0.2198 ( 42)  0.2197 ( 43)  0.1936 ( 45) -0.1936 ( 46)
          -0.1036 ( 48)  0.1036 ( 49)  0.1053 (270)  0.1053 (271)  0.1053 (273)
           0.1053 (274)
 CRD 99=  -0.1092 (  6)  0.1098 (  7) -0.1441 ( 12)  0.1426 ( 13) -0.2190 ( 21)
           0.2187 ( 22)  0.2008 ( 24) -0.2009 ( 25) -0.1834 ( 30)  0.1833 ( 31)
           0.2140 ( 33) -0.2139 ( 34)  0.1206 ( 42) -0.1205 ( 43) -0.1261 ( 45)
           0.1262 ( 46)  0.1364 (207)  0.1360 (208)  0.1360 (210)  0.1356 (211)
           0.1293 (234)  0.1291 (235)  0.1293 (237)  0.1291 (238)
 CRD100=  -0.1865 ( 18)  0.1864 ( 19)  0.1116 ( 21) -0.1115 ( 22)  0.1032 ( 24)
          -0.1031 ( 25) -0.2274 ( 27)  0.2271 ( 28)  0.1206 ( 30) -0.1206 ( 31)
          -0.1945 ( 36)  0.1945 ( 37)  0.1235 (198)  0.1232 (199)  0.1232 (201)
           0.1229 (202) -0.1198 (216) -0.1197 (217) -0.1195 (219) -0.1193 (220)
           0.1282 (225)  0.1278 (226)  0.1283 (228)  0.1279 (229) -0.1220 (243)
          -0.1221 (244) -0.1217 (246) -0.1218 (247)
 CRD101=   0.1332 ( 39) -0.1332 ( 40) -0.1504 ( 45)  0.1504 ( 46)  0.3317 ( 48)
          -0.3317 ( 49) -0.1043 (261) -0.1043 (262) -0.1042 (264) -0.1042 (265)
           0.1191 (266)  0.1192 (267) -0.1493 (275) -0.1493 (276) -0.1657 (277)
           0.1384 (279)  0.1383 (280)  0.1384 (282)  0.1384 (283) -0.2447 (284)
          -0.2283 (285) -0.2283 (286) -0.2447 (287) -0.2283 (288) -0.2283 (289)
 CRD102=  -0.2564 (  6)  0.2054 (  7) -0.1878 (  8)  0.2048 (  9) -0.1353 ( 60)
           0.1465 ( 61) -0.1097 ( 67) -0.2073 (153) -0.2476 (155) -0.2071 (156)
           0.4040 (160)  0.3022 (161)  0.3342 (162)  0.2083 (163)  0.1065 (164)
           0.1384 (165)  0.1945 (166) -0.1098 (182)
 CRD103=   0.1635 (  2) -0.1005 ( 55) -0.1042 ( 56) -0.1282 ( 57) -0.1032 ( 73)
          -0.1066 ( 78) -0.1059 ( 80)  0.1003 ( 81) -0.1072 ( 84) -0.1065 ( 85)
           0.1050 ( 88)  0.1050 ( 89) -0.1082 ( 90) -0.1079 ( 91)  0.1060 ( 94)
           0.1069 ( 95) -0.1046 ( 96) -0.1038 ( 97)  0.1080 (100)  0.1088 (101)
          -0.1008 (102) -0.1010 (103)  0.1055 (106)  0.1050 (107)  0.1025 (112)
           0.1031 (113) -0.1050 (171)  0.1175 (174) -0.1203 (180)  0.1095 (182)
          -0.1200 (188)  0.1191 (191) -0.1227 (199)  0.1255 (201) -0.1259 (208)
           0.1247 (210) -0.1245 (217)  0.1239 (219) -0.1205 (226)  0.1210 (228)
          -0.1144 (235)  0.1140 (237) -0.1062 (244)  0.1063 (246)
 CRD104=   0.2298 (  2) -0.1296 ( 55) -0.1336 ( 56) -0.1874 ( 57)  0.1057 ( 58)
          -0.1043 ( 63) -0.1008 ( 65)  0.1062 ( 70)  0.1018 ( 71)  0.1102 ( 77)
           0.1047 (114)  0.1046 (115)  0.1101 (120)  0.1100 (121) -0.1003 (124)
          -0.1005 (125)  0.1073 (126)  0.1072 (127) -0.1089 (130) -0.1090 (131)
          -0.1097 (136) -0.1097 (137) -0.1285 (171)  0.1428 (174) -0.1186 (180)
           0.1053 (182)  0.1091 (244) -0.1093 (246)  0.1238 (253) -0.1236 (255)
           0.1277 (262) -0.1277 (264)  0.1185 (271) -0.1186 (273)  0.1103 (280)
          -0.1102 (282)
 CRD105=   0.2230 (  2) -0.1433 ( 50) -0.1066 ( 55) -0.1073 ( 56) -0.2004 ( 57)
           0.1135 ( 58)  0.1093 ( 90)  0.1097 ( 91)  0.1039 ( 96)  0.1031 ( 97)
          -0.1052 (100) -0.1063 (101) -0.1075 (106) -0.1074 (107) -0.1096 (132)
          -0.1096 (133)  0.1047 (142)  0.1048 (143) -0.1078 (146)  0.1204 (148)
           0.1203 (149)  0.1132 (151)  0.1133 (152)  0.1013 (174)  0.1115 (208)
          -0.1123 (210)  0.1249 (217) -0.1246 (219)  0.1117 (226) -0.1117 (228)
          -0.1142 (271)  0.1142 (273) -0.1386 (280)  0.1385 (282)
 CRD106=   0.1564 (  1) -0.1735 (  2) -0.1412 (  3) -0.1658 ( 50)  0.2024 ( 57)
          -0.1224 ( 58) -0.1054 ( 78) -0.1068 ( 80)  0.1027 ( 88)  0.1030 ( 89)
           0.1043 (108)  0.1041 (109) -0.1002 (117) -0.1001 (119) -0.1004 (124)
          -0.1007 (125) -0.1074 (144) -0.1075 (145) -0.1310 (146)  0.1174 (148)
           0.1174 (149)  0.1387 (151)  0.1388 (152) -0.1058 (188)  0.1029 (191)
          -0.1158 (199)  0.1154 (201)  0.1032 (235) -0.1030 (237)  0.1165 (244)
          -0.1168 (246) -0.1194 (280)  0.1194 (282)
 CRD107=  -0.2443 (  1)  0.2920 (  3)  0.1034 ( 17) -0.1017 ( 29)  0.1004 ( 41)
           0.1126 ( 47) -0.1440 ( 50) -0.1030 ( 51) -0.1029 ( 52) -0.2019 ( 57)
           0.1600 ( 58)  0.1026 ( 63) -0.1101 (144) -0.1101 (145) -0.1233 (146)
           0.1306 (151)  0.1307 (152)  0.1086 (180) -0.1075 (182)
 CRD108=  -0.1873 (  1) -0.2672 (  2)  0.4383 (  3)  0.1159 (  4) -0.1357 (  7)
          -0.1738 ( 10) -0.1266 ( 47)  0.1033 ( 50) -0.1014 ( 57)  0.1704 ( 58)
           0.1270 ( 67) -0.1264 ( 70) -0.1021 (151) -0.1021 (152)
 CRD109=   0.3288 (  2) -0.2615 (  3) -0.1402 (  5)  0.1095 (  7)  0.1200 ( 10)
           0.1310 ( 17) -0.1311 ( 26)  0.1272 ( 35)  0.1020 ( 38) -0.1027 ( 44)
          -0.1896 ( 47)  0.1093 ( 51)  0.1094 ( 52)  0.1223 ( 62)  0.1068 (144)
           0.1068 (145)  0.1055 (146) -0.1196 (150) -0.1070 (151) -0.1070 (152)
 CRD110=   0.1715 (  1) -0.2589 (  2)  0.1568 (  3)  0.1141 (  6)  0.1924 (  9)
          -0.1373 ( 16)  0.1186 ( 20)  0.1195 ( 23) -0.1360 ( 29) -0.1022 ( 32)
           0.1431 ( 38) -0.2113 ( 47)  0.1045 ( 51)  0.1047 ( 52) -0.1081 ( 62)
          -0.1039 ( 65)  0.1104 ( 76) -0.1234 (150) -0.1146 (155)  0.1152 (164)
          -0.1209 (171)
 CRD111=  -0.1889 (  3)  0.3920 (  4)  0.1098 (  5) -0.1392 (  6) -0.3070 (  9)
          -0.1252 ( 10) -0.1143 ( 17) -0.1145 ( 32) -0.1625 ( 47) -0.1069 ( 59)
          -0.2045 ( 60)  0.2548 ( 67)  0.1292 ( 68) -0.1045 ( 71)  0.1695 (155)
          -0.1469 (164)
 CRD112=   0.1302 (  1) -0.2210 (  3)  0.5186 (  4)  0.1293 (  6) -0.3308 (  8)
          -0.1983 ( 10)  0.1657 ( 57) -0.1226 ( 59) -0.1129 ( 60) -0.2607 ( 61)
           0.3128 ( 66)  0.1416 ( 68) -0.1773 (155)  0.1431 (164)
 CRD113=   0.1150 (  1) -0.1035 (  2)  0.1076 (  5) -0.1156 (  6)  0.2516 (  8)
          -0.1632 (  9) -0.1268 ( 10) -0.1036 ( 11) -0.1417 ( 16)  0.1569 ( 20)
          -0.1404 ( 26)  0.1376 ( 35) -0.1495 ( 41)  0.2015 ( 47) -0.1173 ( 60)
           0.1827 ( 67)  0.1111 ( 77)  0.1261 (150)  0.1658 (155) -0.1045 (156)
           0.1009 (162)  0.1438 (174)  0.1016 (286) -0.1019 (288)
 CRD114=  -0.1183 (  1) -0.2401 (  8) -0.1348 (  9)  0.3657 ( 10)  0.1139 ( 11)
          -0.1285 ( 17)  0.1339 ( 23) -0.1342 ( 29)  0.1296 ( 35) -0.1115 ( 41)
          -0.1019 ( 44)  0.1480 ( 47) -0.1358 ( 54) -0.1943 ( 59) -0.1484 ( 67)
           0.2502 ( 68)  0.1103 (150) -0.1946 (153)  0.2298 (156)  0.1062 (286)
          -0.1077 (288)
 CRD115=   0.1160 (  1) -0.1362 (  2)  0.1042 (  3) -0.2700 (  9)  0.3212 ( 10)
          -0.1212 ( 11)  0.1162 ( 17) -0.1120 ( 23)  0.1066 ( 29) -0.1018 ( 35)
           0.1276 ( 44) -0.1290 ( 47) -0.2041 ( 54) -0.2018 ( 59)  0.1097 ( 61)
          -0.1500 ( 66)  0.2402 ( 68) -0.1113 (150) -0.2319 (153)  0.1615 (156)
          -0.1140 (286)  0.1179 (288)
 CRD116=   0.1331 ( 36) -0.1334 ( 37) -0.1022 ( 39)  0.1031 ( 40)  0.1744 ( 45)
          -0.1743 ( 46) -0.2555 ( 48)  0.2528 ( 49)  0.1976 ( 51) -0.1914 ( 52)
           0.1482 (151) -0.1475 (152) -0.1001 (244) -0.1007 (247)  0.1030 (252)
           0.1024 (253)  0.1063 (255)  0.1057 (256)  0.1468 (277)  0.1946 (279)
           0.1938 (280)  0.1939 (282)  0.1931 (283) -0.1891 (285) -0.1932 (286)
          -0.1843 (288) -0.1884 (289)
 CRD117=  -0.1315 ( 14)  0.1337 ( 15)  0.1311 ( 18) -0.1266 ( 19)  0.1788 ( 27)
          -0.1787 ( 28) -0.1817 ( 30)  0.1824 ( 31) -0.1198 ( 39)  0.1232 ( 40)
           0.1300 ( 42) -0.1305 ( 43)  0.1060 (182)  0.1014 (183) -0.1195 (188)
          -0.1227 (190) -0.1192 (191) -0.1161 (192) -0.1196 (216) -0.1232 (217)
          -0.1155 (219) -0.1191 (220)  0.1588 (225)  0.1655 (226)  0.1641 (228)
           0.1707 (229) -0.1245 (234) -0.1213 (235) -0.1313 (237) -0.1281 (238)
          -0.1191 (261) -0.1114 (262) -0.1178 (264) -0.1101 (265)  0.1032 (270)
           0.1039 (271)
 CRD118=  -0.1973 ( 21)  0.2047 ( 22)  0.1904 ( 24) -0.1860 ( 25)  0.1538 ( 33)
          -0.1519 ( 34) -0.1066 ( 48)  0.1169 ( 49) -0.1127 ( 52)  0.1321 (198)
           0.1223 (199)  0.1468 (201)  0.1369 (202) -0.1772 (207) -0.1731 (208)
          -0.1761 (210) -0.1719 (211)  0.1112 (216)  0.1206 (217)  0.1027 (219)
           0.1121 (220) -0.1056 (234) -0.1119 (235) -0.1058 (238)  0.1067 (243)
           0.1133 (244)  0.1122 (246)  0.1187 (247) -0.1012 (288)
 CRD119=   0.1440 ( 12) -0.1436 ( 13) -0.1775 ( 14)  0.1691 ( 15)  0.1257 ( 18)
          -0.1020 ( 19)  0.1685 ( 39) -0.1548 ( 40) -0.1638 ( 42)  0.1638 ( 43)
          -0.1102 (175)  0.1585 (179)  0.1332 (180)  0.1576 (182)  0.1323 (183)
          -0.1552 (188) -0.1506 (190) -0.1102 (191) -0.1148 (192) -0.1109 (252)
          -0.1421 (253) -0.1158 (256)  0.1259 (261)  0.1541 (262)  0.1433 (264)
           0.1715 (265) -0.1113 (270) -0.1026 (271) -0.1327 (273) -0.1240 (274)
 CRD120=  -0.1607 (  1)  0.1076 (  2)  0.1296 (  9)  0.1490 ( 11) -0.1342 ( 17)
           0.1271 ( 20)  0.1066 ( 23) -0.1464 ( 26)  0.1640 ( 32) -0.1630 ( 38)
           0.1930 ( 44) -0.1407 ( 50)  0.1082 ( 51) -0.1009 (138)  0.1038 (147)
          -0.1300 (150)  0.1022 (191)  0.1014 (219)  0.1273 (255) -0.1266 (261)
          -0.1639 (286)  0.1512 (288)
 CRD121=   0.1029 ( 15)  0.1254 ( 18) -0.1318 ( 19) -0.1244 ( 21)  0.1225 ( 22)
           0.1114 ( 24) -0.1030 ( 25) -0.1082 ( 27)  0.1082 ( 28)  0.1291 ( 30)
          -0.1354 ( 31) -0.1490 ( 33)  0.1495 ( 34)  0.1388 ( 36) -0.1298 ( 37)
          -0.1033 (190) -0.1204 (191) -0.1128 (192)  0.1279 (198)  0.1141 (199)
           0.1260 (201)  0.1121 (202) -0.1182 (207) -0.1241 (208) -0.1023 (210)
          -0.1082 (211)  0.1012 (216)  0.1171 (217)  0.1149 (220) -0.1113 (225)
          -0.1104 (226) -0.1268 (228) -0.1260 (229)  0.1402 (234)  0.1253 (235)
           0.1445 (237)  0.1296 (238) -0.1422 (243) -0.1418 (244) -0.1269 (246)
          -0.1265 (247)  0.1050 (252)  0.1233 (253)  0.1135 (256)
 CRD122=   0.1156 (  7) -0.1568 ( 12) -0.1363 ( 19)  0.1279 ( 22)  0.1472 ( 27)
           0.1293 ( 34) -0.1357 ( 37) -0.1385 ( 42)  0.1256 ( 52)  0.1090 (152)
          -0.1154 (160)  0.1313 (171)  0.1255 (175) -0.1072 (180)  0.1590 (201)
          -0.1134 (217)  0.1048 (226) -0.1595 (246) -0.1098 (271) -0.1106 (277)
           0.1222 (288)
 CRD123=  -0.1302 ( 13) -0.1163 ( 18)  0.1300 ( 21)  0.1587 ( 28) -0.1123 ( 31)
           0.1356 ( 33) -0.1392 ( 36) -0.1310 ( 43) -0.1144 ( 93)  0.1179 ( 99)
          -0.1211 (105)  0.1276 (111) -0.1282 (118)  0.1150 (123)  0.1013 (161)
          -0.1040 (174)  0.1057 (182) -0.1539 (199)  0.1187 (208)  0.1478 (219)
          -0.1613 (228) -0.1347 (235)  0.1180 (237)  0.1707 (244) -0.1149 (253)
          -0.1108 (264)  0.1208 (273)
 CRD124=  -0.1444 (  1)  0.1402 (  5) -0.1368 ( 16)  0.1500 ( 20) -0.1277 ( 26)
           0.1539 ( 29) -0.1309 ( 35)  0.1565 ( 41) -0.1127 ( 44)  0.1622 ( 50)
           0.1220 ( 99) -0.1265 (105)  0.1009 (141) -0.1397 (147) -0.1235 (180)
          -0.1579 (217)  0.1399 (219)  0.1323 (226) -0.1089 (228) -0.1396 (280)
           0.1430 (282)  0.1537 (286) -0.1367 (288)
 CRD125=   0.1078 ( 13) -0.1010 ( 15) -0.1092 ( 23) -0.1145 ( 44)  0.1090 ( 69)
          -0.1387 ( 75)  0.1442 ( 82) -0.1414 ( 87)  0.1089 ( 93)  0.1010 (111)
          -0.1275 (118)  0.1414 (123) -0.1514 (129)  0.1363 (135) -0.1064 (161)
           0.1277 (174) -0.1316 (182) -0.1242 (188)  0.1324 (191)  0.1386 (199)
          -0.1229 (201) -0.1104 (235)  0.1091 (237)  0.1004 (244) -0.1184 (246)
          -0.1202 (253)  0.1313 (255)  0.1516 (262) -0.1389 (264) -0.1271 (271)
           0.1062 (273)
 CRD126=   0.1427 (  1)  0.1047 ( 12)  0.1061 ( 13)  0.1350 ( 16)  0.1262 ( 35)
           0.1020 ( 42)  0.1067 ( 43)  0.1386 ( 44) -0.1048 ( 47)  0.1067 ( 69)
          -0.1710 ( 75)  0.1372 ( 82)  0.1123 ( 99) -0.1303 (105)  0.1156 (111)
           0.1176 (129) -0.1706 (135)  0.1378 (141) -0.1503 (171)  0.1427 (174)
           0.1615 (180) -0.1616 (182) -0.1041 (217)  0.1032 (219)  0.1029 (226)
          -0.1463 (262)  0.1475 (264)  0.1617 (271) -0.1654 (273)
 CRD127=  -0.1675 (  5)  0.1102 ( 23) -0.1385 ( 29)  0.1651 ( 32) -0.1940 ( 38)
           0.1916 ( 41) -0.1801 ( 47)  0.1401 ( 50) -0.1065 ( 69)  0.1405 (123)
          -0.1054 (129)  0.1277 (141) -0.1422 (147)  0.1132 (161)  0.1111 (244)
          -0.1107 (246) -0.1481 (253)  0.1483 (255) -0.1608 (280)  0.1610 (282)
           0.1073 (286) -0.1069 (288)
 CRD128=   0.1388 (  1) -0.1048 (  5)  0.1797 ( 16) -0.1493 ( 17)  0.1843 ( 23)
          -0.1720 ( 26)  0.1581 ( 32) -0.1647 ( 35)  0.1095 ( 41) -0.1247 ( 44)
          -0.1330 ( 75) -0.1480 ( 93)  0.1221 ( 99) -0.1269 (111)  0.1426 (118)
           0.1274 (135) -0.1237 (171)  0.1048 (174)  0.1205 (180) -0.1152 (182)
          -0.1110 (199)  0.1106 (201)  0.1501 (208) -0.1549 (210)  0.1495 (235)
          -0.1544 (237) -0.1021 (244)  0.1166 (262) -0.1155 (264) -0.1109 (271)
           0.1031 (273)
 CRD129=   0.2033 (  5) -0.1633 (  6) -0.1171 (  8)  0.1125 (  9) -0.1956 ( 11)
           0.1474 ( 17) -0.1213 ( 19) -0.1679 ( 20)  0.1053 ( 26) -0.1406 ( 29)
          -0.1145 ( 38)  0.1521 ( 69) -0.1047 ( 71)  0.1354 ( 87)  0.1066 (105)
           0.1173 (153)  0.1234 (156) -0.1264 (159) -0.1542 (161) -0.1504 (164)
          -0.1318 (166)  0.1425 (174)  0.1027 (188) -0.1583 (191) -0.1009 (199)
           0.1075 (201) -0.1141 (219) -0.1136 (226) -0.1096 (253)
 CRD130=  -0.1200 (  5)  0.1603 (  7) -0.1013 ( 14)  0.1419 ( 18) -0.1310 ( 24)
          -0.1304 ( 31)  0.1242 ( 37)  0.1261 ( 46)  0.1274 ( 51) -0.1320 ( 52)
          -0.1270 ( 55) -0.1026 ( 62) -0.1026 ( 76)  0.1038 ( 88)  0.1068 (151)
          -0.1239 (157) -0.1250 (160) -0.1357 (163)  0.1149 (171)  0.1181 (175)
           0.1091 (178) -0.1320 (188) -0.1009 (192)  0.1080 (241) -0.1011 (255)
          -0.1054 (259)  0.1413 (277)  0.1001 (284)  0.1081 (287)
 CRD131=  -0.1036 (  1)  0.1113 (  5)  0.1240 ( 17) -0.1155 ( 29) -0.1188 ( 38)
           0.1112 ( 50) -0.1014 ( 87) -0.1038 (102) -0.1200 (105) -0.1058 (123)
           0.1047 (198) -0.1086 (202) -0.1488 (207)  0.1490 (211)  0.1276 (225)
          -0.1298 (229) -0.1699 (234)  0.1607 (238)  0.1234 (252) -0.1150 (256)
          -0.1451 (261)  0.1386 (265)
 CRD132=  -0.1065 (  5)  0.1504 ( 11)  0.1126 ( 20) -0.1334 ( 23) -0.1192 ( 32)
           0.1279 ( 35)  0.1415 ( 44) -0.1284 ( 47) -0.1044 ( 90)  0.1037 ( 96)
          -0.1082 (107) -0.1129 (111)  0.1031 (115) -0.1127 (125) -0.1094 (129)
           0.1006 (192) -0.1768 (216)  0.1092 (218)  0.1479 (220)  0.1256 (225)
          -0.1086 (229) -0.1795 (243)  0.1600 (247)  0.1038 (252) -0.1271 (256)
          -0.1057 (270)  0.1270 (274)
 CRD133=   0.1208 (  6) -0.1178 (  7)  0.1136 ( 14) -0.1078 ( 15) -0.1151 ( 21)
           0.1119 ( 22)  0.1110 ( 27) -0.1167 ( 28)  0.1296 ( 34) -0.1376 ( 40)
           0.1326 ( 46)  0.1242 ( 51) -0.1419 ( 52)  0.1011 (151) -0.1001 (152)
          -0.1148 (153) -0.1353 (156)  0.1053 (158)  0.1704 (159) -0.1038 (162)
           0.1285 (163)  0.1012 (167) -0.1028 (247)  0.1047 (268)  0.1300 (277)
           0.1292 (284)  0.1391 (287)
 CRD134=   0.1409 (  1) -0.1245 (  5)  0.1211 ( 20) -0.1512 ( 23) -0.1360 ( 32)
           0.1382 ( 35)  0.1395 ( 50) -0.1010 ( 99) -0.1083 (141) -0.1088 (172)
           0.1505 (179) -0.1395 (183) -0.1422 (198)  0.1351 (202)  0.1240 (207)
          -0.1193 (211) -0.1612 (261)  0.1563 (265)  0.1156 (279) -0.1105 (283)
          -0.1229 (285)  0.1260 (289)
 CRD135=  -0.1529 (  5)  0.1963 ( 11) -0.1571 ( 16)  0.1917 ( 26) -0.2092 ( 29)
           0.1218 ( 32)  0.1450 ( 41) -0.1807 ( 44)  0.1619 ( 47) -0.1127 ( 73)
          -0.1067 (133)  0.1114 (142) -0.1589 (190)  0.1367 (192) -0.1051 (216)
           0.1124 (220)  0.1462 (270) -0.1545 (274) -0.1195 (279)  0.1354 (283)
 CRD136=  -0.1395 (  5)  0.1647 ( 11) -0.2070 ( 16)  0.2161 ( 17) -0.1513 ( 20)
           0.1323 ( 32) -0.2076 ( 35)  0.2124 ( 38) -0.1737 ( 41)  0.1487 ( 44)
          -0.1136 ( 47)  0.1025 ( 83)  0.1467 (179) -0.1419 (183) -0.1079 (190)
           0.1009 (192) -0.1450 (270)  0.1427 (274)  0.1012 (279)
 CRD137=   0.1640 ( 20) -0.1826 ( 23)  0.1170 ( 32)  0.1078 ( 41) -0.1407 ( 50)
          -0.1172 ( 82)  0.1115 ( 93) -0.1139 (105)  0.1168 (118) -0.1090 (129)
           0.1149 (141) -0.1109 (172)  0.1140 (190) -0.1263 (198)  0.1275 (202)
           0.1447 (225) -0.1335 (229) -0.1452 (234)  0.1465 (238) -0.1114 (279)
           0.1028 (283)  0.1533 (285) -0.1572 (289)
 CRD138=   0.1511 ( 16) -0.1801 ( 17)  0.1638 ( 20) -0.1710 ( 23)  0.2111 ( 26)
          -0.2160 ( 29)  0.1787 ( 32) -0.1663 ( 35)  0.1849 ( 38) -0.1660 ( 41)
           0.1099 ( 44)  0.1126 (207) -0.1122 (211) -0.1286 (216)  0.1287 (220)
           0.1230 (243) -0.1242 (247) -0.1233 (252)  0.1230 (256)
 CRD139=   0.1242 (  1) -0.1073 ( 13)  0.1205 ( 19) -0.1288 ( 25)  0.1286 ( 31)
          -0.1201 ( 37)  0.1032 ( 43) -0.1196 ( 52) -0.1008 (111)  0.1031 (156)
          -0.1592 (159) -0.1737 (172)  0.1252 (173)  0.1300 (175)  0.1163 (190)
          -0.1316 (207)  0.1121 (225)  0.1006 (256) -0.1082 (276) -0.1313 (285)
           0.1496 (287)  0.1104 (289)
 CRD140=   0.1223 ( 24) -0.1335 ( 30)  0.1315 ( 36) -0.1162 ( 42)  0.1278 ( 51)
           0.1174 (153)  0.1272 (156) -0.1980 (159)  0.1091 (161)  0.1410 (162)
          -0.1519 (163) -0.1099 (189)  0.1066 (206) -0.1158 (211)  0.1232 (229)
          -0.1096 (247) -0.1124 (275)  0.1631 (284)  0.1025 (285) -0.1243 (289)
 CRD141=  -0.1013 (  7)  0.1000 ( 23) -0.1006 ( 43)  0.1026 ( 69) -0.1294 ( 87)
           0.1051 ( 99)  0.1103 (105) -0.1289 (118)  0.1248 (135) -0.1187 (147)
          -0.1529 (172)  0.1287 (175)  0.1229 (190) -0.1175 (192)  0.1211 (198)
          -0.1003 (202) -0.1511 (216)  0.1318 (220)  0.1099 (234)  0.1351 (243)
          -0.1211 (247) -0.1466 (261)  0.1283 (265)  0.1528 (285) -0.1120 (287)
          -0.1495 (289)
 CRD142=  -0.1154 ( 13)  0.1295 ( 22) -0.1012 ( 31)  0.1108 ( 42) -0.1183 ( 48)
          -0.1062 ( 51)  0.1124 (153)  0.1156 (156) -0.1992 (159)  0.1374 (160)
           0.1270 (161) -0.1112 (165) -0.1472 (172)  0.1087 (184)  0.1051 (198)
          -0.1047 (211) -0.1113 (213)  0.1183 (238)  0.1027 (240) -0.1039 (256)
           0.1136 (260) -0.1104 (265)  0.1132 (275)  0.1032 (283) -0.1611 (284)
 CRD143=  -0.1106 ( 21)  0.1068 ( 27)  0.1160 ( 49)  0.1031 (129) -0.1033 (147)
           0.1131 (153)  0.1180 (156) -0.2050 (159)  0.1817 (161)  0.1291 (162)
          -0.1463 (163) -0.1138 (175) -0.1073 (197) -0.1034 (198)  0.1216 (202)
          -0.1104 (212)  0.1259 (225) -0.1069 (229)  0.1056 (234)  0.1006 (239)
          -0.1338 (252) -0.1127 (261)  0.1089 (263)  0.1036 (276)  0.1208 (279)
           0.1130 (285) -0.1439 (287) -0.1127 (289)
 CRD144=   0.1049 ( 11) -0.1128 ( 20)  0.1133 ( 32) -0.1197 ( 44) -0.1142 ( 64)
           0.1219 ( 75)  0.1155 ( 92) -0.1227 ( 99) -0.1142 (116)  0.1010 (118)
           0.1214 (123)  0.1132 (140) -0.1029 (141) -0.1205 (147) -0.1396 (172)
           0.1381 (175) -0.1316 (179)  0.1217 (183)  0.1486 (207) -0.1365 (211)
           0.1279 (216) -0.1250 (220) -0.1416 (243)  0.1446 (247) -0.1171 (252)
           0.1290 (256)  0.1360 (279) -0.1468 (283)  0.1230 (285) -0.1218 (289)
 CRD145=  -0.1265 ( 11) -0.1042 ( 16)  0.1182 ( 26)  0.1113 ( 29) -0.1124 ( 41)
          -0.1214 ( 44)  0.1160 ( 64)  0.1186 ( 72) -0.1147 ( 75) -0.1185 ( 82)
          -0.1058 ( 98) -0.1207 (104)  0.1054 (105)  0.1194 (111)  0.1204 (134)
           0.1045 (140) -0.1202 (141) -0.1037 (147)  0.1254 (172) -0.1134 (175)
           0.1543 (179) -0.1401 (183)  0.1287 (190) -0.1246 (192)  0.1036 (220)
          -0.1366 (225)  0.1502 (229) -0.1320 (234)  0.1397 (238)  0.1439 (270)
          -0.1310 (274)  0.1473 (279) -0.1361 (283) -0.1014 (289)
 CRD146=  -0.1216 (  6)  0.1101 ( 24) -0.1070 ( 48)  0.1001 ( 56) -0.1115 (153)
[...]
1570  46  18.474577 -23.436029   3.414177   0.000270   0.510332   0.000529
1571  40  16.555998 -22.985875   1.788531  -0.000064   0.510332  -0.000125
1572  40  17.542673 -22.333665   2.527184  -0.000104   0.510332  -0.000204
1573  40  17.891953 -21.951418   3.547893   0.000407   0.255221   0.001596
1574  41  14.747007 -25.885513   2.002488   0.000042   0.028462   0.001468
1575  42  14.463009 -25.967216   1.928684   0.000002   0.028462   0.000059
1576  44  15.170778 -26.116691   2.126911   0.000062   0.028462   0.002190
1577  41  11.761713 -27.824484   4.415034   0.000205   0.089871   0.002285
1578  42  11.744799 -27.765363   4.113457   0.000032   0.089871   0.000356
1579  48  12.303428 -28.663139   4.310620   0.000226   0.089871   0.002512
1580  42  11.136854 -27.235269   4.030651   0.000048   0.082912   0.000584
1581  42  10.488134 -26.111179   3.844842  -0.000233   0.192170  -0.001214
1582  41  10.828172 -26.794180   4.403753   0.000253   0.174830   0.001445
1583  41  10.225115 -25.511247   4.117186   0.000211   0.101296   0.002088
1584  42  13.679966 -24.884394   1.526436  -0.000066   0.071212  -0.000932
1585  42  14.078484 -25.661421   1.681952  -0.000056   0.071212  -0.000791
1586  41  14.213988 -25.073286   1.743744  -0.000151   0.155522  -0.000974
1587  41  13.913706 -24.883470   9.174595   0.000026   0.028393   0.000925
1588  43  13.617817 -24.950402   9.201884  -0.000006   0.028393  -0.000222
1589  44  14.347129 -25.126248   9.215916   0.000045   0.028393   0.001573
1590  41  11.446514 -27.488964   6.625954   0.000206   0.067843   0.003035
1591  43  11.373665 -27.342148   6.884620  -0.000013   0.067843  -0.000195
1592  47  11.899081 -28.188363   6.758204   0.000264   0.067843   0.003886
1593  43  13.197053 -24.599260   9.263356  -0.000060   0.071723  -0.000843
1594  43  12.795893 -23.816745   9.106689  -0.000057   0.071723  -0.000794
1595  41  13.359875 -24.043686   9.075218  -0.000129   0.156404  -0.000828
1596  43   9.992292 -25.252092   6.510549   0.000045   0.082846   0.000541
1597  43  10.533349 -26.430939   6.695008  -0.000238   0.191970  -0.001241
1598  41  10.204341 -25.744449   6.134652   0.000176   0.174725   0.001008
1599  41  10.894583 -26.979756   6.428372   0.000225   0.101214   0.002226
1600  41  14.644288 -24.506591   9.162517   0.000046   0.028321   0.001611
1601  44  15.068127 -24.737598   9.287005   0.000018   0.028321   0.000653
1602  45  15.352609 -24.657127   9.360420  -0.000012   0.028321  -0.000420
1603  41  15.455779 -25.517459   2.075381   0.000062   0.028376   0.002191
1604  44  15.889145 -25.760339   2.116691   0.000040   0.028376   0.001412
1605  46  16.185120 -25.693801   2.088841   0.000000   0.028376   0.000004
1606  44  14.820150 -24.934284   9.315559   0.000147   0.083244   0.001762
1607  41  14.155057 -24.678428   9.202756   0.000177   0.083244   0.002120
1608  44  15.605637 -26.039035   2.094208   0.000186   0.079118   0.002347
1609  41  15.036904 -25.614347   1.968684   0.000191   0.079118   0.002417
1610  45  15.625017 -24.237699   9.370529  -0.000124   0.140822  -0.000883
1611  41  14.530913 -24.081202   9.161133   0.000443   0.198538   0.002232
1612  46  16.428237 -25.418250   2.022112  -0.000095   0.143224  -0.000666
1613  41  15.396123 -24.979117   1.937449   0.000435   0.201924   0.002152
1614  41  11.998247 -28.205173   4.659378   0.000265   0.067670   0.003911
1615  47  12.302965 -28.981552   4.785221   0.000177   0.067670   0.002620
1616  48  12.398968 -29.116795   4.528309  -0.000027   0.067670  -0.000400
1617  47  12.012342 -28.794352   5.991297   0.001444   0.530188   0.002723
1618  41  11.515182 -27.791517   5.409940   0.001587   0.530188   0.002994
1619  42  14.333215 -27.051019   2.272608  -0.000009   0.166036  -0.000052
1620  44  15.037878 -27.276738   2.419163   0.000172   0.166036   0.001036
1621  48  14.817210 -27.996913   2.463062   0.000029   0.166036   0.000172
1622  44  15.242563 -26.671784   2.158650   0.000413   0.202601   0.002037
1623  42  14.232353 -26.259411   1.887608  -0.000092   0.143701  -0.000644
1624  48  12.354430 -29.221753   3.938640   0.000377   0.255272   0.001479
1625  48  12.934581 -29.122728   2.955971  -0.000153   0.510436  -0.000301
1626  48  14.082055 -28.666448   2.305940  -0.000125   0.510436  -0.000244
1627  42  11.863983 -27.850677   3.277135   0.000230   0.510436   0.000450
1628  42  12.775698 -27.590301   2.253218  -0.000236   0.510436  -0.000462
1629  42  13.781941 -27.137215   1.946281   0.000188   0.255272   0.000738
1630  43  13.538358 -26.077419   9.147454   0.000045   0.166124   0.000271
1631  44  14.251047 -26.311305   9.229920   0.000174   0.166124   0.001046
1632  49  14.023542 -27.022674   9.337527  -0.000022   0.166124  -0.000132
1633  44  14.444647 -25.532320   9.356342   0.000406   0.198631   0.002043
1634  43  13.337208 -25.360214   9.265412  -0.000121   0.140884  -0.000859
1635  43  11.677187 -27.688758   7.119247   0.000229   0.089701   0.002557
1636  47  12.060751 -28.609402   7.008394   0.000184   0.089701   0.002057
1637  49  12.079969 -28.667669   7.309571   0.000017   0.089701   0.000186
1638  49  13.616888 -27.435560   9.624050   0.000175   0.255192   0.000686
1639  49  12.691547 -27.988312   9.237182  -0.000263   0.510276  -0.000515
1640  49  12.024188 -28.549834   8.148159   0.000199   0.510276   0.000389
1641  43  12.560435 -26.300241   9.233661  -0.000088   0.510276  -0.000172
1642  43  11.574037 -26.954983   8.495436  -0.000129   0.510276  -0.000253
1643  43  11.225300 -27.339257   7.474567   0.000393   0.255192   0.001541
1644  44  15.963186 -26.493301   9.639024   0.000039   0.028479   0.001378
1645  45  16.185667 -26.291083   9.688114   0.000000   0.028479   0.000003
1646  47  15.911423 -26.988772   9.660352   0.000058   0.028479   0.002037
1647  44  19.677532 -25.874895   7.342154   0.000186   0.067832   0.002739
1648  45  19.582304 -25.740974   7.600599   0.000006   0.067832   0.000085
1649  50  19.983800 -26.648934   7.468065   0.000255   0.067832   0.003755
1650  45  15.737060 -24.964772   9.607897  -0.000066   0.071647  -0.000921
1651  45  16.135594 -25.747405   9.764783  -0.000059   0.071647  -0.000817
1652  44  15.601062 -25.554705   9.547200  -0.000157   0.156281  -0.001007
1653  45  19.494975 -24.991766   7.568559   0.000041   0.083014   0.000490
1654  45  18.962154 -23.822804   7.300129  -0.000237   0.192463  -0.001233
1655  44  19.386859 -24.626201   7.035379   0.000242   0.175003   0.001386
1656  44  18.685589 -23.377925   6.820986   0.000206   0.101420   0.002030
1657  44  16.780980 -27.508850   2.466831   0.000023   0.028519   0.000794
1658  46  17.015265 -27.321239   2.414673  -0.000009   0.028519  -0.000327
1659  47  16.719749 -27.992564   2.571229   0.000042   0.028519   0.001473
1660  44  19.914574 -26.168638   5.269733   0.000202   0.067853   0.002982
1661  46  19.883211 -26.113986   4.970008  -0.000019   0.067853  -0.000278
1662  50  20.216705 -26.937514   5.432026   0.000247   0.067853   0.003647
1663  46  17.001409 -26.822445   2.183150  -0.000063   0.071277  -0.000887
1664  46  16.604677 -26.043830   2.027296  -0.000060   0.071277  -0.000846
1665  44  16.438977 -26.596560   2.215541  -0.000135   0.155645  -0.000868
1666  46  18.995684 -23.798283   4.449606   0.000047   0.082927   0.000566
1667  46  19.633802 -24.908609   4.730645  -0.000238   0.192195  -0.001236
1668  44  19.198775 -24.109510   4.989058   0.000172   0.174868   0.000981
1669  44  19.810003 -25.401656   5.209389   0.000222   0.101313   0.002191
1670  44  16.062487 -27.878776   2.480351   0.000041   0.028324   0.001453
1671  47  16.010697 -28.374242   2.501640   0.000012   0.028324   0.000441
1672  48  15.789223 -28.576942   2.452819  -0.000017   0.028324  -0.000610
1673  44  15.248049 -26.874676   9.567787   0.000057   0.028310   0.002030
1674  47  15.186702 -27.358360   9.672231   0.000035   0.028310   0.001231
1675  49  14.953728 -27.546876   9.724276  -0.000005   0.028310  -0.000161
1676  47  15.579902 -27.278558   9.735438   0.000180   0.081541   0.002213
1677  44  15.562923 -26.564798   9.632335   0.000190   0.081541   0.002335
1678  47  16.311301 -28.292990   2.495187   0.000143   0.080442   0.001780
1679  44  16.486180 -27.597743   2.416667   0.000164   0.080442   0.002045
1680  48  15.297386 -28.569165   2.357040  -0.000136   0.141096  -0.000961
1681  44  15.794742 -27.561148   2.332649   0.000429   0.198930   0.002156
1682  49  14.583684 -27.570741   9.740728  -0.000108   0.141894  -0.000763
1683  44  14.842192 -26.498276   9.522926   0.000419   0.200053   0.002095
1684  50  20.506217 -27.112944   6.351848   0.001497   0.526199   0.002844
1685  44  19.922398 -26.009148   6.508583   0.001505   0.526199   0.002859
1686  45  17.181576 -26.886823   9.672827  -0.000037   0.168112  -0.000219
1687  47  16.962236 -27.607259   9.718540   0.000130   0.168112   0.000775
1688  51  17.670697 -27.848848   9.866353  -0.000036   0.168112  -0.000213
1689  47  16.317512 -27.354604   9.811019   0.000392   0.205932   0.001906
1690  45  16.551157 -26.254904   9.778923  -0.000108   0.146067  -0.000738
1691  45  19.661790 -26.226719   7.925288   0.000234   0.088482   0.002644
1692  50  20.205047 -27.062424   7.834774   0.000112   0.088482   0.001261
1693  51  20.224559 -27.140364   8.130588  -0.000093   0.088482  -0.001056
1694  50  20.342691 -26.891978   7.648113   0.000219   0.047238   0.004626
1695  45  19.622227 -25.614996   7.828782   0.000075   0.033246   0.002257
1696  51  20.301273 -27.043429   8.570406   0.000375   0.249615   0.001504
1697  51  19.713569 -27.153168   9.503771  -0.000235   0.499049  -0.000472
1698  51  18.592943 -27.598664  10.116745  -0.000231   0.499049  -0.000463
1699  45  19.400744 -25.700711   8.663433   0.000180   0.499049   0.000360
1700  45  18.495402 -25.964500   9.633369  -0.000182   0.499049  -0.000365
1701  45  17.518928 -26.402375   9.922113   0.000176   0.249615   0.000704
1702  46  17.966070 -27.859365   2.813194   0.000012   0.168060   0.000069
1703  47  17.739803 -28.571057   2.919440   0.000130   0.168060   0.000774
1704  52  18.455391 -28.821624   3.004253  -0.000085   0.168060  -0.000506
1705  47  17.014401 -28.333362   2.583660   0.000420   0.206590   0.002034
1706  46  17.530239 -27.344273   2.441544  -0.000146   0.146534  -0.000998
1707  46  20.017395 -26.667815   4.816267   0.000214   0.088470   0.002418
1708  50  20.500607 -27.429031   5.250433   0.000099   0.088470   0.001122
1709  52  20.582602 -27.584517   4.999304  -0.000007   0.088470  -0.000074
1710  50  20.600712 -27.220243   5.388264   0.000213   0.047571   0.004469
1711  46  19.974495 -26.042974   4.752898   0.000040   0.033481   0.001194
1712  52  19.062868 -28.823609   2.792364   0.000093   0.249551   0.000374
1713  52  19.964330 -28.293007   3.158561  -0.000345   0.498921  -0.000691
1714  52  20.640354 -27.745048   4.194067   0.000064   0.498921   0.000127
1715  46  18.719809 -27.249013   2.634971  -0.000082   0.498921  -0.000165
1716  46  19.690272 -26.617626   3.334321  -0.000133   0.498921  -0.000267
1717  46  20.060023 -26.237684   4.307564   0.000342   0.249551   0.001370
1718  47  16.910254 -30.123769   2.852396   0.000054   0.028231   0.001919
1719  48  16.626445 -30.205179   2.779288   0.000015   0.028231   0.000518
1720  50  17.335176 -30.352604   2.976414   0.000101   0.028231   0.003588
1721  47  15.350163 -32.299542   4.746063   0.000035   0.028231   0.001248
1722  48  15.206047 -32.186132   4.503394   0.000017   0.028231   0.000588
1723  50  15.795346 -32.500122   4.845490   0.000063   0.028231   0.002229
1724  48  14.681188 -32.099317   4.437490  -0.000048   0.067304  -0.000715
1725  48  13.722485 -31.736765   4.785117  -0.000148   0.148388  -0.000996
1726  48  12.812113 -30.795198   4.828430  -0.000010   0.148388  -0.000068
1727  48  12.467500 -29.809773   4.542810  -0.000043   0.067304  -0.000632
1728  47  14.441456 -32.085627   4.977705  -0.000031   0.148557  -0.000211
1729  47  13.208402 -31.345305   5.293243   0.000245   0.148557   0.001652
1730  47  12.497648 -30.075211   5.070185   0.000183   0.148557   0.001230
1731  48  15.840168 -29.119819   2.376190  -0.000063   0.071408  -0.000880
1732  48  16.240912 -29.899589   2.532520  -0.000064   0.071408  -0.000894
1733  47  16.374710 -29.310164   2.593029  -0.000174   0.155766  -0.001119
1734  47  14.919913 -31.767839   8.501874   0.000045   0.028208   0.001584
1735  49  14.729050 -31.596882   8.665786   0.000012   0.028208   0.000436
1736  50  15.369544 -31.973902   8.562494   0.000099   0.028208   0.003514
1737  47  16.087553 -29.110870  10.023601   0.000037   0.028208   0.001313
1738  49  15.792132 -29.177834  10.051249   0.000014   0.028208   0.000490
1739  50  16.522015 -29.351449  10.064452   0.000066   0.028208   0.002332
1740  49  15.371102 -28.827979  10.112938  -0.000059   0.071561  -0.000825
1741  49  14.969630 -28.046536   9.956307  -0.000070   0.071561  -0.000977
1742  47  15.533018 -28.273046   9.924345  -0.000153   0.156031  -0.000981
1743  49  12.143397 -29.412630   7.368461   0.000022   0.067272   0.000329
1744  49  12.512426 -30.426398   7.448531  -0.000053   0.148303  -0.000358
1745  49  13.360502 -31.289698   7.949703  -0.000170   0.148303  -0.001145
1746  49  14.205762 -31.512016   8.587222  -0.000066   0.067272  -0.000979
1747  47  12.281998 -29.811311   6.954713   0.000185   0.148501   0.001245
1748  47  12.984922 -31.069588   7.252727   0.000212   0.148501   0.001429
1749  47  14.092893 -31.654715   8.024867  -0.000033   0.148501  -0.000222
1750  47  16.826949 -28.725259  10.008963   0.000035   0.025859   0.001348
1751  50  17.251813 -28.953460  10.134071   0.000003   0.025859   0.000108
1752  51  17.538610 -28.892433  10.212004  -0.000029   0.025859  -0.001141
1753  47  17.636601 -29.731254   2.924644   0.000049   0.025876   0.001906
1754  50  18.071231 -29.971590   2.964314   0.000025   0.025876   0.000976
1755  52  18.369918 -29.925207   2.938061  -0.000016   0.025876  -0.000626
1756  47  15.273793 -32.195432   8.171110   0.000088   0.025551   0.003454
1757  50  15.681482 -32.461924   8.276003   0.000029   0.025551   0.001120
1758  53  15.829993 -32.711911   8.190970  -0.000005   0.025551  -0.000210
1759  47  15.607777 -32.609116   5.252605   0.000052   0.025551   0.002051
1760  50  16.019999 -32.881223   5.317884   0.000024   0.025551   0.000934
1761  53  16.138059 -33.093492   5.498946  -0.000003   0.025551  -0.000105
1762  50  16.999929 -29.147781  10.161671   0.000154   0.086444   0.001784
1763  47  16.331779 -28.898643  10.050173   0.000183   0.086444   0.002121
1764  50  15.597111 -32.288553   8.480170   0.000124   0.045964   0.002700
1765  47  14.972766 -31.978456   8.315117   0.000144   0.045964   0.003140
1766  50  15.970528 -32.788611   5.109839   0.000106   0.046205   0.002300
1767  47  15.371500 -32.433746   4.941083   0.000114   0.046205   0.002457
1768  50  17.776787 -30.260754   2.942415   0.000217   0.085371   0.002537
1769  47  17.209772 -29.832436   2.817119   0.000201   0.085371   0.002356
1770  51  17.816098 -28.495803  10.226417  -0.000195   0.138261  -0.001408
1771  47  16.716680 -28.310723  10.009472   0.000396   0.194829   0.002033
1772  52  18.615724 -29.671573   2.872820  -0.000168   0.138617  -0.001209
1773  47  17.579432 -29.214244   2.789814   0.000379   0.195331   0.001942
1774  53  15.813620 -33.009790   7.846158  -0.000215   0.199386  -0.001078
1775  53  15.913481 -33.248808   6.439706  -0.001025   0.407851  -0.002514
1776  47  14.944463 -32.433392   7.173091   0.000923   0.546353   0.001690
1777  47  15.182929 -32.623698   5.575599   0.000704   0.280783   0.002506
1778  50  16.219568 -32.546767   4.457597   0.000784   0.306035   0.002563
1779  50  17.084643 -31.429322   3.383814   0.000940   0.592494   0.001587
1780  48  15.625979 -31.710831   3.637734  -0.001153   0.447447  -0.002576
1781  48  16.343802 -30.611977   2.792490  -0.000144   0.217245  -0.000661
1782  50  16.566548 -29.916739  10.167549   0.000789   0.305827   0.002581
1783  50  15.943322 -31.395516   9.412345   0.000969   0.592119   0.001637
1784  49  15.301018 -30.115894   9.881764  -0.001141   0.447114  -0.002553
1785  49  14.737167 -31.332381   9.084326  -0.000163   0.217098  -0.000750
1786  51  17.901374 -29.198493  10.458042  -0.000072   0.067683  -0.001066
1787  51  18.407303 -30.155594  10.587200  -0.000207   0.149518  -0.001385
1788  51  19.443262 -30.938775  10.353483  -0.000165   0.149518  -0.001103
1789  51  20.610420 -30.995287   9.740494  -0.000163   0.149518  -0.001092
1790  51  21.446858 -30.302765   8.990832  -0.000239   0.149518  -0.001598
1791  51  21.621543 -29.135285   8.401187  -0.000122   0.149518  -0.000814
1792  51  21.065341 -27.954893   8.204919  -0.000230   0.149518  -0.001538
1793  50  17.712541 -29.755856  10.388856  -0.000118   0.149096  -0.000789
1794  50  18.618460 -30.929486  10.391421   0.000047   0.149096   0.000318
1795  50  19.922316 -31.426436   9.890320   0.000162   0.149096   0.001086
1796  50  21.108091 -31.050031   9.083872  -0.000012   0.149096  -0.000083
1797  50  21.706497 -29.949238   8.291239   0.000017   0.149096   0.000112
1798  50  21.480706 -28.559712   7.826117   0.000185   0.149096   0.001242
1799  50  20.799525 -27.568812   7.778283   0.000054   0.082689   0.000656
1800  52  21.146598 -28.052248   5.186168  -0.000034   0.067673  -0.000497
1801  52  21.736865 -28.899374   5.535878  -0.000135   0.149492  -0.000903
1802  52  21.985541 -30.195083   5.532470  -0.000199   0.149492  -0.001332
1803  52  21.591930 -31.346976   5.023621  -0.000248   0.149492  -0.001656
1804  52  20.711757 -31.899322   4.210649  -0.000130   0.149492  -0.000866
1805  52  19.693251 -31.633595   3.415194  -0.000148   0.149492  -0.000989
1806  52  18.939368 -30.654926   2.951966  -0.000320   0.149492  -0.002138
1807  50  21.308435 -28.220974   5.730590   0.000023   0.149081   0.000153
1808  50  21.924664 -29.536344   6.026481   0.000036   0.149081   0.000244
1809  50  21.838889 -30.984868   5.723320   0.000019   0.149081   0.000127
1810  50  21.085046 -31.993460   4.941048   0.000079   0.149081   0.000530
1811  50  19.961383 -32.163085   3.989160   0.000160   0.149081   0.001074
1812  50  18.912458 -31.426634   3.244254   0.000019   0.149081   0.000127
1813  50  18.360248 -30.397462   2.955091   0.000007   0.082678   0.000088
1814  53  16.553536 -33.428999   5.415633  -0.000078   0.069443  -0.001129
1815  53  17.597569 -33.626002   5.066661  -0.000232   0.154309  -0.001504
1816  53  18.907436 -33.781555   5.362125  -0.000188   0.154309  -0.001219
1817  53  19.777951 -33.780269   6.396267  -0.000208   0.154309  -0.001346
1818  53  19.845485 -33.622681   7.737107  -0.000290   0.154309  -0.001880
1819  53  19.081828 -33.374617   8.824553  -0.000162   0.154309  -0.001052
1820  53  17.805973 -33.139699   9.204360  -0.000209   0.154309  -0.001353
1821  53  16.550866 -33.016056   8.717877  -0.000333   0.154309  -0.002157
1822  50  16.884223 -33.191143   4.975851  -0.000114   0.152106  -0.000752
1823  50  18.375090 -33.430311   4.814908   0.000114   0.152106   0.000747
1824  50  19.669177 -33.521871   5.604048   0.000164   0.152106   0.001078
1825  50  20.225922 -33.427576   7.013633  -0.000047   0.152106  -0.000307
1826  50  19.812764 -33.186816   8.454856  -0.000004   0.152106  -0.000027
1827  50  18.602284 -32.900160   9.325692   0.000163   0.152106   0.001070
1828  50  17.100122 -32.687349   9.262378   0.000014   0.152106   0.000090
1829  50  16.061092 -32.617446   8.599868   0.000016   0.084840   0.000184
 =====================================================

             28001129  WORDS OF DYNAMIC MEMORY USED
 EXECUTION OF GAMESS TERMINATED NORMALLY Thu Nov 24 20:40:14 2016
 DDI: 263640 bytes (0.3 MB / 0 MWords) used by master data server.

 ----------------------------------------
 CPU timing information for all processes
 ========================================
 0: 13247.964 + 2.820 = 13250.784
 ----------------------------------------
 ddikick.x: exited gracefully.
