----- GAMESS execution script -----

          ******************************************************
          *         GAMESS VERSION =  5 DEC 2014 (R1)          *
          *             FROM IOWA STATE UNIVERSITY             *
          * M.W.SCHMIDT, K.K.BALDRIDGE, J.A.BOATZ, S.T.ELBERT, *
          *   M.S.GORDON, J.H.JENSEN, S.KOSEKI, N.MATSUNAGA,   *
          *          K.A.NGUYEN, S.J.SU, T.L.WINDUS,           *
          *       TOGETHER WITH M.DUPUIS, J.A.MONTGOMERY       *
          *         J.COMPUT.CHEM.  14, 1347-1363(1993)        *
          **************** 64 BIT LINUX VERSION ****************

 EXECUTION OF GAMESS BEGUN Thu Nov 24 21:05:52 2016

            ECHO OF THE FIRST FEW INPUT CARDS -
 INPUT CARD>! SELECT RESTRICTED HARTREE-FOCK AS DEFAULT                                     
 INPUT CARD>$contrl scftyp=rhf $end                                                         
 INPUT CARD>                                                                                
 INPUT CARD>! THEORY: HF OR DFT                                                             
 INPUT CARD> $contrl mplevl=0 $end                                                          
 INPUT CARD>                                                                                
 INPUT CARD> $system timlim=10000 mwords=20 $end                                            
 INPUT CARD> $SCF DIRSCF=.TRUE. $end                                                        
 INPUT CARD>                                                                                
 INPUT CARD>                                                                                
 INPUT CARD>! BASIS SETS                                                                    
 INPUT CARD>! 6-311G(d,p)                                                                   
 INPUT CARD> $BASIS GBASIS=N311 NGAUSS=6 NDFUNC=1 NPFUNC=1 $END                             
 INPUT CARD>                                                                                
 INPUT CARD>! One of the following                                                          
 INPUT CARD> $guess guess=HUCKEL $end                                                       
 INPUT CARD>                                                                                
 INPUT CARD> $statpt projct=.FALSE. $end                                                    
 INPUT CARD> $STATPT IFREEZ(1)=1,2,3 $END                                                   
 INPUT CARD>                                                                                
 INPUT CARD>! Optimize the geometry with COSMO effects                                      
 INPUT CARD> $statpt opttol=0.0005 nstep=50 $end                                            
 INPUT CARD> $contrl nzvar=1 $end                                                           
 INPUT CARD> $zmat dlc=.t. auto=.t. $end                                                    
 INPUT CARD> $contrl runtyp=OPTIMIZE maxit=200 $end                                         
 INPUT CARD>                                                                                
 INPUT CARD>! Run COSMO on perfect conductor                                                
 INPUT CARD> $COSGMS PRFCND=.TRUE. $end                                                     
 INPUT CARD>                                                                                
 INPUT CARD>! Specifying RSOLV                                                              
 INPUT CARD> $COSGMS COSRAD = 1.4 $end                                                      
 INPUT CARD>                                                                                
 INPUT CARD>! available memory                                                              
 INPUT CARD> $SYSTEM MWORDS=40 $END                                                         
 INPUT CARD>                                                                                
 INPUT CARD> $DATA                                                                          
 INPUT CARD>http://cactus.nci.nih.gov/chemical/structure/METHYL%20SEC-BUTYL%20ETHER/file?for
 INPUT CARD>C1                                                                              
 INPUT CARD>C      6.0     -0.0352000000   -0.4266000000    0.2665000000                    
 INPUT CARD>C      6.0     -0.6220000000   -1.8232000000    0.0518000000                    
 INPUT CARD>C      6.0      1.4280000000   -0.4139000000   -0.1803000000                    
 INPUT CARD>C      6.0      2.0501000000    0.9446000000    0.1489000000                    
 INPUT CARD>O      8.0     -0.7759000000    0.5243000000   -0.5011000000                    
 INPUT CARD>C      6.0     -1.8853000000    1.0957000000    0.1952000000                    
 INPUT CARD>H      1.0     -0.0947000000   -0.1660000000    1.3232000000                    
 INPUT CARD>H      1.0     -0.5625000000   -2.0838000000   -1.0049000000                    
 INPUT CARD>H      1.0     -0.0570000000   -2.5486000000    0.6373000000                    
 INPUT CARD>H      1.0     -1.6644000000   -1.8323000000    0.3701000000                    
 INPUT CARD>H      1.0      1.9741000000   -1.1997000000    0.3416000000                    
 INPUT CARD>H      1.0      1.4812000000   -0.5870000000   -1.2552000000                    
   40000000 WORDS OF MEMORY AVAILABLE

     BASIS OPTIONS
     -------------
     GBASIS=N311         IGAUSS=       6      POLAR=POPN311 
     NDFUNC=       1     NFFUNC=       0     DIFFSP=       F
     NPFUNC=       1      DIFFS=       F     BASNAM=        


     RUN TITLE
     ---------
 http://cactus.nci.nih.gov/chemical/structure/METHYL%20SEC-BUTYL%20ETHER/file?for

 THE POINT GROUP OF THE MOLECULE IS C1      
 THE ORDER OF THE PRINCIPAL AXIS IS     0

 ATOM      ATOMIC                      COORDINATES (BOHR)
           CHARGE         X                   Y                   Z
 C           6.0    -0.0665183548       -0.8061571064        0.5036119757
 C           6.0    -1.1754095644       -3.4453484208        0.0978878062
 C           6.0     2.6985287105       -0.7821575863       -0.3407175956
 C           6.0     3.8741272474        1.7850351680        0.2813801996
 O           8.0    -1.4662383939        0.9907833354       -0.9469416924
 C           6.0    -3.5627004047        2.0705727647        0.3688745128
 H           1.0    -0.1789570510       -0.3136945140        2.5004854270
 H           1.0    -1.0629708681       -3.9378110132       -1.8989856451
 H           1.0    -0.1077143813       -4.8161556523        1.2043223720
 H           1.0    -3.1452599340       -3.4625449273        0.6993875881
 H           1.0     3.7305080724       -2.2671042675        0.6455303974
 H           1.0     2.7990621330       -1.1092691548       -2.3719840598
 H           1.0     2.8421478855        3.2697928766       -0.7048677934
 H           1.0     3.7735938249        2.1119577639        2.3126466638
 H           1.0     5.8439776170        1.8020427019       -0.3201195823
 H           1.0    -4.8728474319        0.5778782070        0.9153832685
 H           1.0    -2.8882571996        3.0432147306        2.0546990664
 H           1.0    -4.5262716858        3.4139789694       -0.8596363518

          INTERNUCLEAR DISTANCES (ANGS.)




     $CONTRL OPTIONS
     ---------------
 SCFTYP=RHF          RUNTYP=OPTIMIZE     EXETYP=RUN     
 MPLEVL=       0     CITYP =NONE         CCTYP =NONE         VBTYP =NONE    
 DFTTYP=NONE         TDDFT =NONE    
 MULT  =       1     ICHARG=       0     NZVAR =       1     COORD =UNIQUE  
 PP    =NONE         RELWFN=NONE         LOCAL =NONE         NUMGRD=       F
 ISPHER=      -1     NOSYM =       0     MAXIT =     200     UNITS =ANGS    
 PLTORB=       F     MOLPLT=       F     AIMPAC=       F     FRIEND=        
 NPRINT=       7     IREST =       0     GEOM  =INPUT   
 NORMF =       0     NORMP =       0     ITOL  =      20     ICUT  =       9
 INTTYP=BEST         GRDTYP=BEST         QMTTOL= 1.0E-06

     $SYSTEM OPTIONS
     ---------------
  REPLICATED MEMORY=    40000000 WORDS (ON EVERY NODE).
 DISTRIBUTED MEMDDI=           0 MILLION WORDS IN AGGREGATE,
 MEMDDI DISTRIBUTED OVER   1 PROCESSORS IS           0 WORDS/PROCESSOR.
 TOTAL MEMORY REQUESTED ON EACH PROCESSOR=    40000000 WORDS.
 TIMLIM=       10000.00 MINUTES, OR       6.9 DAYS.
 PARALL= F  BALTYP=  DLB     KDIAG=    0  COREFL= F
 MXSEQ2=     300 MXSEQ3=     150  mem10=         0

     $COSGMS OPTIONS
     ---------------
     EPSI  =   INFTY     NSPA  =      92     COSRAD=    1.40
     DISEX =   10.00     OUTCHG=DBLCAV       COSBUG=       F
     COSWRT=       F     DCOSMO=       F

     SYMMETRY COORDINATES WILL NOT BE USED FOR 
     THE COSMO CALCULATION, EVEN IF SPECIFIED:
         -- SWITCHING TO C1 POINT GROUP --


     DEFINITION OF CAVITY
     ---------------------------
     ATOM         COORDINATES           RADIUS 
     1   -0.0665   -0.8062    0.5036    2.0000
     2   -1.1754   -3.4453    0.0979    2.0000
     3    2.6985   -0.7822   -0.3407    2.0000
     4    3.8741    1.7850    0.2814    2.0000
     5   -1.4662    0.9908   -0.9469    1.7200
     6   -3.5627    2.0706    0.3689    2.0000
     7   -0.1790   -0.3137    2.5005    1.3000
     8   -1.0630   -3.9378   -1.8990    1.3000
     9   -0.1077   -4.8162    1.2043    1.3000
    10   -3.1453   -3.4625    0.6994    1.3000
    11    3.7305   -2.2671    0.6455    1.3000
    12    2.7991   -1.1093   -2.3720    1.3000
    13    2.8421    3.2698   -0.7049    1.3000
    14    3.7736    2.1120    2.3126    1.3000
    15    5.8440    1.8020   -0.3201    1.3000
    16   -4.8728    0.5779    0.9154    1.3000
    17   -2.8883    3.0432    2.0547    1.3000
    18   -4.5263    3.4140   -0.8596    1.3000

          ----------------
          PROPERTIES INPUT
          ----------------

     MOMENTS            FIELD           POTENTIAL          DENSITY
 IEMOM =       1   IEFLD =       0   IEPOT =       0   IEDEN =       0
 WHERE =COMASS     WHERE =NUCLEI     WHERE =NUCLEI     WHERE =NUCLEI  
 OUTPUT=BOTH       OUTPUT=BOTH       OUTPUT=BOTH       OUTPUT=BOTH    
 IEMINT=       0   IEFINT=       0                     IEDINT=       0
                                                       MORB  =       0
          EXTRAPOLATION IN EFFECT
          SOSCF IN EFFECT
 ORBITAL PRINTING OPTION: NPREO=     1   186     2     1

     -------------------------------
     INTEGRAL TRANSFORMATION OPTIONS
     -------------------------------
     NWORD  =            0
     CUTOFF = 1.0E-09     MPTRAN =       0
     DIRTRF =       T     AOINTS =DUP     

          ----------------------
          INTEGRAL INPUT OPTIONS
          ----------------------
 NOPK  =       1 NORDER=       0 SCHWRZ=       T


 -----------------------------------------------
  STATISTICS ON AUTOMATIC COORDINATE GENERATION 
 -----------------------------------------------
  NUMBER OF USER SPECIFIED BONDS                             0
  NUMBER OF BONDS                                           17
  NUMBER OF ANGLES                                          31
  NUMBER OF TORSIONS                                        33
  NUMBER OF EXTRA COORD.                                     0
  NUMBER OF EXTRA COORD. FOR CONSTRAINTS                     0
  NUMBER OF CONSTRAINED COORD.                               0

  TOTAL NUMBER OF PRIMITIVES                                81
 -----------------------------------------------

   --- ENCODED Z MATRIX ---
 COORD  TYPE   I   J   K   L   M   N
    1      1    1   7
    2      1    1   5
    3      1    1   2
    4      1    1   3
    5      1    2   8
    6      1    2  10
    7      1    2   9
    8      1    3   4
    9      1    3  12
   10      1    3  11
   11      1    4  15
   12      1    4  14
   13      1    4  13
   14      1    5   6
   15      1    6  16
   16      1    6  18
   17      1    6  17
   18      2    1   2   9
   19      2    1   2  10
   20      2    1   3   4
   21      2    1   3  12
   22      2    1   2   8
   23      2    1   5   6
   24      2    1   3  11
   25      2    2   1   7
   26      2    2   1   3
   27      2    2   1   5
   28      2    3   4  13
   29      2    3   1   5
   30      2    3   4  14
   31      2    3   1   7
   32      2    3   4  15
   33      2    4   3  11
   34      2    4   3  12
   35      2    5   6  18
   36      2    5   1   7
   37      2    5   6  16
   38      2    5   6  17
   39      2    8   2   9
   40      2    8   2  10
   41      2    9   2  10
   42      2   11   3  12
   43      2   13   4  14
   44      2   13   4  15
   45      2   14   4  15
   46      2   16   6  17
   47      2   16   6  18
   48      2   17   6  18
   49      3    1   5   6  17
   50      3    1   3   4  13
   51      3    1   5   6  18
   52      3    1   5   6  16
   53      3    1   3   4  14
   54      3    1   3   4  15
   55      3    2   1   3  12
   56      3    2   1   3  11
   57      3    2   1   5   6
   58      3    2   1   3   4
   59      3    3   1   2   9
   60      3    3   1   2  10
   61      3    3   1   5   6
   62      3    3   1   2   8
   63      3    4   3   1   7
   64      3    4   3   1   5
   65      3    5   1   3  12
   66      3    5   1   3  11
   67      3    5   1   2  10
   68      3    5   1   2   9
   69      3    5   1   2   8
   70      3    6   5   1   7
   71      3    7   1   3  12
   72      3    7   1   3  11
   73      3    7   1   2   9
   74      3    7   1   2   8
   75      3    7   1   2  10
   76      3   11   3   4  15
   77      3   11   3   4  14
   78      3   11   3   4  13
   79      3   12   3   4  15
   80      3   12   3   4  14
   81      3   12   3   4  13

          INDEP./SYM. INTERNAL COORDINATES
          --------------------------------
 CRD  1=  -0.1687 (  4) -0.5778 ( 20)  0.1558 ( 21)  0.1467 ( 23)  0.1926 ( 24)
           0.2694 ( 26)  0.1397 ( 27) -0.3341 ( 29)  0.1007 ( 32)  0.1730 ( 33)
           0.1541 ( 34)  0.2979 ( 61) -0.1174 ( 64) -0.1414 ( 66)  0.1061 ( 71)
 CRD  2=   0.2245 (  2)  0.1483 ( 14)  0.1454 ( 20)  0.7886 ( 23) -0.2152 ( 26)
           0.1999 ( 27) -0.1026 ( 29)  0.1019 ( 31) -0.1161 ( 35)  0.1167 ( 37)
           0.1101 ( 38)  0.1248 ( 57) -0.1152 ( 67) -0.1221 ( 68)
 CRD  3=   0.2350 (  4)  0.1622 (  8)  0.1354 ( 18) -0.1659 ( 19)  0.2454 ( 23)
          -0.1619 ( 25)  0.5095 ( 26) -0.3239 ( 27) -0.1232 ( 29) -0.1099 ( 31)
          -0.1069 ( 33)  0.2094 ( 36)  0.1019 ( 38) -0.3836 ( 57)  0.1540 ( 64)
           0.1336 ( 65)  0.1185 ( 66) -0.1151 ( 70) -0.1040 ( 74)
 CRD  4=  -0.1141 (  2)  0.3150 (  3)  0.2325 (  8) -0.1601 ( 14)  0.1313 ( 19)
           0.3635 ( 20) -0.1311 ( 21) -0.1720 ( 23) -0.1082 ( 24) -0.1039 ( 25)
           0.2600 ( 27) -0.3287 ( 29)  0.1930 ( 30) -0.1686 ( 34) -0.1503 ( 49)
          -0.1792 ( 51) -0.1244 ( 52)  0.1143 ( 59)  0.1080 ( 60)  0.1062 ( 61)
           0.1265 ( 62) -0.2186 ( 64) -0.1544 ( 65) -0.1143 ( 66)
 CRD  5=   0.1052 (  2)  0.3141 (  3)  0.2130 (  4)  0.1976 (  8)  0.1801 ( 14)
           0.1171 ( 18) -0.1471 ( 27)  0.1491 ( 29) -0.1724 ( 31)  0.2531 ( 37)
          -0.1569 ( 38)  0.2548 ( 49)  0.1294 ( 51)  0.2484 ( 52)  0.2743 ( 57)
           0.3884 ( 61)  0.2591 ( 70)
 CRD  6=   0.1260 (  4)  0.1753 ( 14)  0.2292 ( 18)  0.1320 ( 21) -0.1783 ( 22)
           0.1350 ( 23)  0.1214 ( 25) -0.3250 ( 28)  0.2462 ( 30)  0.2231 ( 33)
          -0.1976 ( 34)  0.1703 ( 38) -0.1409 ( 52) -0.1608 ( 55) -0.1805 ( 56)
          -0.3757 ( 58) -0.2406 ( 63) -0.2924 ( 64) -0.1135 ( 70)
 CRD  7=   0.2382 (  2)  0.1515 (  3)  0.3136 (  4)  0.3011 ( 14) -0.1420 ( 18)
          -0.1284 ( 20)  0.1579 ( 21)  0.3066 ( 22) -0.1212 ( 25)  0.1765 ( 27)
          -0.1156 ( 30)  0.1320 ( 32)  0.2086 ( 35) -0.1101 ( 36) -0.1034 ( 48)
          -0.2226 ( 49) -0.1718 ( 51) -0.1806 ( 52) -0.1051 ( 54)  0.1533 ( 55)
           0.1163 ( 56) -0.2095 ( 57)  0.1806 ( 58) -0.1387 ( 60) -0.1059 ( 65)
          -0.1429 ( 66)  0.1414 ( 68)  0.1133 ( 69) -0.1018 ( 70)
 CRD  8=  -0.2017 (  2) -0.3415 (  3)  0.1547 (  8)  0.1260 ( 15) -0.1971 ( 18)
          -0.1815 ( 19) -0.1495 ( 24) -0.2990 ( 35)  0.5145 ( 37) -0.2284 ( 38)
           0.1606 ( 41)  0.1274 ( 48) -0.1138 ( 50) -0.2579 ( 51) -0.1749 ( 52)
          -0.1061 ( 53) -0.1114 ( 54)
 CRD  9=  -0.1405 (  2)  0.1902 (  3) -0.3209 (  4) -0.1022 ( 19)  0.1689 ( 21)
           0.2691 ( 22) -0.2324 ( 24)  0.1722 ( 28) -0.1355 ( 31) -0.2315 ( 32)
           0.1093 ( 33) -0.2321 ( 35) -0.1912 ( 37)  0.3869 ( 38) -0.1208 ( 39)
           0.1095 ( 47) -0.2004 ( 50)  0.1452 ( 51) -0.1724 ( 53) -0.1962 ( 54)
          -0.1009 ( 59) -0.1355 ( 60) -0.1219 ( 62)
 CRD 10=  -0.1433 (  2)  0.4554 (  8) -0.1353 ( 18)  0.2878 ( 19) -0.1039 ( 20)
          -0.1345 ( 22) -0.1128 ( 26) -0.1191 ( 30)  0.4716 ( 32)  0.1421 ( 33)
           0.1266 ( 34) -0.1900 ( 35) -0.1245 ( 37)  0.2356 ( 38) -0.2325 ( 44)
          -0.1631 ( 45)
 CRD 11=  -0.2162 (  2)  0.3428 (  4)  0.1119 (  6) -0.3906 (  8) -0.1371 ( 18)
           0.3561 ( 19)  0.1310 ( 21) -0.1353 ( 22) -0.3046 ( 30) -0.1194 ( 33)
          -0.1343 ( 34) -0.2964 ( 35)  0.1233 ( 37)  0.1182 ( 38)  0.1068 ( 39)
           0.1526 ( 43)  0.1693 ( 45)
 CRD 12=  -0.1212 (  7) -0.1035 ( 13) -0.4638 ( 18)  0.3673 ( 22) -0.4065 ( 28)
           0.3680 ( 30) -0.1156 ( 35)  0.1410 ( 38) -0.1525 ( 40)  0.1653 ( 41)
           0.1475 ( 44) -0.1457 ( 45)  0.1360 ( 49)  0.1429 ( 51)  0.1095 ( 52)
           0.1457 ( 54)  0.1022 ( 70)
 CRD 13=  -0.1375 (  2) -0.1212 (  6)  0.1747 ( 14)  0.2425 ( 18) -0.3967 ( 19)
          -0.1648 ( 21)  0.1861 ( 22) -0.1073 ( 23)  0.1188 ( 24) -0.1961 ( 30)
           0.1873 ( 31)  0.1373 ( 32) -0.2211 ( 35) -0.1524 ( 36)  0.1476 ( 37)
           0.2476 ( 38) -0.1770 ( 39) -0.1542 ( 46)  0.1359 ( 50)  0.1186 ( 53)
           0.1111 ( 54)  0.1974 ( 59)  0.1868 ( 60)  0.1517 ( 62)  0.1474 ( 67)
           0.1580 ( 68)  0.1123 ( 69)  0.1222 ( 70)
 CRD 14=  -0.1032 (  3)  0.1241 (  4)  0.2022 (  8)  0.1166 (  9)  0.1649 ( 10)
          -0.1629 ( 11)  0.1630 ( 14)  0.1200 ( 19) -0.2046 ( 20) -0.1468 ( 22)
           0.1925 ( 24)  0.3926 ( 28)  0.2794 ( 30) -0.4577 ( 32)  0.1126 ( 34)
           0.1862 ( 38)  0.1031 ( 39) -0.1229 ( 42) -0.2962 ( 43)
 CRD 15=   0.3038 (  3) -0.1936 (  4)  0.1817 ( 19) -0.2015 ( 21)  0.1749 ( 22)
           0.1850 ( 24)  0.2841 ( 25) -0.1225 ( 27)  0.1419 ( 29) -0.2007 ( 31)
          -0.1337 ( 33)  0.2395 ( 34) -0.1128 ( 35)  0.1998 ( 37) -0.1867 ( 40)
          -0.1502 ( 49)  0.1316 ( 50) -0.1648 ( 51) -0.1714 ( 52)  0.1239 ( 53)
           0.1106 ( 54) -0.1570 ( 55) -0.1375 ( 56) -0.1012 ( 59)  0.1546 ( 63)
          -0.2837 ( 70)
 CRD 16=  -0.1801 (  1) -0.1532 (  5)  0.1382 (  7)  0.2359 (  9) -0.2316 ( 10)
           0.1723 ( 12) -0.1634 ( 13)  0.2989 ( 18) -0.2333 ( 22) -0.2891 ( 28)
           0.2981 ( 30)  0.1096 ( 34) -0.1990 ( 35)  0.1008 ( 37)  0.1098 ( 40)
          -0.1779 ( 41)  0.1671 ( 44) -0.1554 ( 45)  0.1325 ( 55)  0.1331 ( 56)
           0.2682 ( 58)  0.2007 ( 63)  0.1539 ( 64)
 CRD 17=  -0.4592 (  1) -0.1339 (  3) -0.2898 (  4)  0.1059 (  6) -0.2268 (  9)
           0.2706 ( 14) -0.1270 ( 18)  0.1213 ( 19)  0.1695 ( 20) -0.1682 ( 21)
          -0.2086 ( 22)  0.2150 ( 26) -0.1537 ( 31) -0.1042 ( 33)  0.1284 ( 35)
           0.2432 ( 38)  0.1706 ( 39)  0.1040 ( 42) -0.1556 ( 46) -0.1935 ( 48)
           0.1758 ( 61)
 CRD 18=  -0.2185 (  1)  0.1848 (  4)  0.1214 (  5)  0.1090 (  7) -0.1470 ( 14)
           0.1400 ( 15)  0.1789 ( 16)  0.2230 ( 17) -0.1817 ( 19)  0.1676 ( 24)
          -0.2205 ( 33)  0.1067 ( 34) -0.1912 ( 35) -0.2703 ( 37)  0.1329 ( 40)
           0.1490 ( 46)  0.2914 ( 47) -0.1007 ( 51) -0.1154 ( 56) -0.1831 ( 59)
          -0.1765 ( 60)  0.1418 ( 61) -0.1766 ( 62) -0.1591 ( 65) -0.2111 ( 66)
          -0.1260 ( 72) -0.1240 ( 73) -0.1175 ( 74) -0.1174 ( 75)
 CRD 19=  -0.2892 (  1) -0.3584 (  5) -0.2658 (  6) -0.2436 (  7) -0.2052 (  9)
           0.1833 ( 10)  0.1075 ( 13)  0.2260 ( 15)  0.3083 ( 16)  0.2868 ( 17)
           0.1193 ( 18)  0.1502 ( 19)  0.1241 ( 33) -0.1663 ( 35) -0.1160 ( 38)
          -0.1055 ( 40) -0.1482 ( 41)  0.2187 ( 48)  0.1046 ( 55)  0.1238 ( 56)
 CRD 20=  -0.1789 (  8) -0.4831 ( 11) -0.5043 ( 12) -0.5009 ( 13)  0.1695 ( 28)
           0.1678 ( 30)  0.1838 ( 32) -0.1660 ( 43) -0.1783 ( 44) -0.1768 ( 45)
 CRD 21=  -0.1377 (  3) -0.2781 (  5) -0.2989 (  6) -0.3073 (  7)  0.2186 ( 15)
          -0.2664 ( 16) -0.3366 ( 17)  0.1004 ( 18) -0.1016 ( 39)  0.1219 ( 46)
           0.2091 ( 47) -0.4450 ( 48)  0.1842 ( 49) -0.2599 ( 51)
 CRD 22=   0.1900 ( 15) -0.3980 ( 16)  0.4503 ( 17)  0.5165 ( 46) -0.3596 ( 47)
           0.2289 ( 49)  0.1043 ( 51) -0.3271 ( 52)
 CRD 23=   0.1324 (  3) -0.1042 (  4)  0.2069 (  5)  0.2397 (  6)  0.2386 (  7)
           0.1251 ( 14)  0.5719 ( 15)  0.1618 ( 16)  0.1129 ( 33)  0.2919 ( 47)
          -0.2328 ( 48)  0.1323 ( 49) -0.2165 ( 51)  0.1046 ( 66)  0.1021 ( 72)
           0.1050 ( 73)  0.1001 ( 75)
 CRD 24=   0.2259 (  1) -0.1003 (  2) -0.1058 (  3) -0.1151 (  6) -0.2128 (  7)
           0.2879 (  9) -0.4085 ( 10)  0.2240 ( 14)  0.1266 ( 15)  0.3598 ( 16)
           0.2437 ( 17) -0.1331 ( 33)  0.1227 ( 34) -0.1118 ( 50) -0.1103 ( 53)
          -0.1142 ( 54) -0.1821 ( 55) -0.1726 ( 56)  0.1229 ( 59)  0.1318 ( 60)
           0.1098 ( 62) -0.1133 ( 65) -0.1039 ( 66) -0.1289 ( 71) -0.1195 ( 72)
 CRD 25=   0.2368 (  9)  0.2223 ( 10) -0.6156 ( 11)  0.2857 ( 12)  0.2715 ( 13)
           0.3246 ( 43) -0.1584 ( 44) -0.1504 ( 45) -0.1688 ( 50)  0.1594 ( 53)
           0.1869 ( 77) -0.1413 ( 78)  0.1327 ( 80) -0.1955 ( 81)
 CRD 26=  -0.2250 (  5)  0.6389 (  6) -0.4039 (  7) -0.3300 ( 39)  0.2070 ( 40)
           0.1202 ( 41) -0.1518 ( 59)  0.1974 ( 62) -0.1581 ( 68)  0.1910 ( 69)
          -0.1446 ( 73)  0.2046 ( 74)
 CRD 27=  -0.2550 (  5)  0.1619 (  7) -0.4963 ( 12)  0.5043 ( 13)  0.1375 ( 41)
           0.2686 ( 44) -0.2721 ( 45) -0.2108 ( 54) -0.2079 ( 76) -0.2077 ( 79)
 CRD 28=  -0.5316 (  5)  0.4616 (  7)  0.2161 ( 12) -0.2230 ( 13) -0.2547 ( 40)
           0.2914 ( 41) -0.1197 ( 44)  0.1233 ( 45) -0.1067 ( 59)  0.2004 ( 60)
           0.1871 ( 67) -0.1200 ( 68) -0.1193 ( 73)  0.1877 ( 75)
 CRD 29=  -0.5855 (  9) -0.5557 ( 10) -0.2080 ( 11)  0.1753 ( 12)  0.1619 ( 13)
          -0.2228 ( 42) -0.1640 ( 78)  0.1030 ( 79)  0.1665 ( 80)
 CRD 30=  -0.3742 (  1) -0.4586 (  2)  0.1612 (  9) -0.1724 ( 10) -0.1841 ( 15)
           0.1514 ( 16) -0.1115 ( 17)  0.1152 ( 21)  0.2668 ( 23)  0.1591 ( 25)
           0.1995 ( 35) -0.1585 ( 36) -0.1640 ( 37) -0.1152 ( 38)  0.1171 ( 46)
           0.1220 ( 63)  0.1089 ( 67)  0.1403 ( 71)  0.1253 ( 72)  0.1250 ( 76)
           0.1388 ( 77)  0.1349 ( 78)  0.1599 ( 79)  0.1737 ( 80)  0.1698 ( 81)
 CRD 31=  -0.2290 (  1) -0.3295 (  2) -0.1906 (  9)  0.1947 ( 10)  0.1127 ( 16)
          -0.1790 ( 17)  0.1580 ( 23)  0.1145 ( 31)  0.1264 ( 35) -0.1383 ( 38)
          -0.1649 ( 50)  0.1064 ( 51) -0.1743 ( 53) -0.1610 ( 54) -0.1211 ( 61)
          -0.2511 ( 76) -0.2644 ( 77) -0.2550 ( 78) -0.2579 ( 79) -0.2712 ( 80)
          -0.2618 ( 81)
 CRD 32=  -0.2727 (  2)  0.2310 ( 14)  0.2919 ( 15)  0.1775 ( 16) -0.1042 ( 25)
          -0.1081 ( 29)  0.1738 ( 31)  0.1521 ( 35)  0.1822 ( 37) -0.1270 ( 46)
          -0.1825 ( 47)  0.1354 ( 51)  0.1166 ( 52) -0.1239 ( 59) -0.1340 ( 60)
          -0.1174 ( 61) -0.1361 ( 62) -0.2358 ( 67) -0.2258 ( 68) -0.2379 ( 69)
          -0.2642 ( 73) -0.2764 ( 74) -0.2743 ( 75)
 CRD 33=  -0.3496 (  1)  0.2779 (  2)  0.2508 (  9) -0.2344 ( 10) -0.1160 ( 14)
          -0.1343 ( 16) -0.2590 ( 17) -0.1484 ( 25)  0.1046 ( 31) -0.1246 ( 35)
          -0.1538 ( 38)  0.1802 ( 48)  0.1346 ( 49)  0.1848 ( 51)  0.1264 ( 52)
          -0.1352 ( 55) -0.1538 ( 57) -0.1524 ( 61) -0.2083 ( 63) -0.1128 ( 64)
          -0.1739 ( 65) -0.1061 ( 66) -0.2694 ( 71) -0.2016 ( 72)
 CRD 34=   0.1100 (  4)  0.2254 (  8) -0.2900 ( 11) -0.1905 ( 12) -0.2049 ( 13)
          -0.1624 ( 15)  0.1420 ( 17) -0.1394 ( 21) -0.1449 ( 24) -0.2273 ( 28)
          -0.2227 ( 30) -0.2584 ( 32)  0.1622 ( 33)  0.1719 ( 34)  0.1857 ( 43)
           0.2674 ( 44)  0.2553 ( 45) -0.1742 ( 51) -0.1242 ( 55)  0.1268 ( 56)
           0.1651 ( 66)  0.1392 ( 70) -0.1664 ( 71)
 CRD 35=  -0.3863 (  3)  0.2253 (  5)  0.2472 (  6)  0.2327 (  7) -0.1725 (  8)
           0.1126 ( 11)  0.1022 ( 12) -0.1288 ( 15)  0.1411 ( 17)  0.2513 ( 18)
           0.2556 ( 19)  0.2472 ( 22)  0.1091 ( 28)  0.1115 ( 30)  0.1160 ( 32)
          -0.2417 ( 39) -0.2534 ( 40) -0.2590 ( 41) -0.1062 ( 43) -0.1144 ( 44)
          -0.1160 ( 45) -0.1001 ( 48) -0.1556 ( 51)  0.1225 ( 70) -0.1113 ( 72)
 CRD 36=  -0.2220 (  1)  0.1134 (  5) -0.5533 ( 14)  0.2439 ( 15)  0.1349 ( 16)
           0.2072 ( 17)  0.2252 ( 35)  0.2040 ( 37)  0.2249 ( 38) -0.2571 ( 46)
          -0.2105 ( 47) -0.1867 ( 48)  0.1366 ( 74)  0.1306 ( 75) -0.1170 ( 78)
 CRD 37=  -0.2736 (  3)  0.1269 (  5)  0.1180 (  7)  0.3333 (  8) -0.1374 ( 12)
          -0.1672 ( 13)  0.2756 ( 14)  0.1750 ( 15) -0.1787 ( 16) -0.2048 ( 17)
           0.1428 ( 21)  0.1283 ( 24) -0.1008 ( 30) -0.1009 ( 31) -0.1086 ( 33)
          -0.1049 ( 34) -0.1793 ( 37) -0.1650 ( 39)  0.2050 ( 43)  0.2397 ( 48)
           0.1693 ( 51) -0.1355 ( 68) -0.1059 ( 70)  0.1335 ( 74) -0.1159 ( 76)
          -0.1650 ( 78)  0.1072 ( 79)  0.1867 ( 80)
 CRD 38=  -0.2502 (  1)  0.1202 (  2)  0.1156 (  5) -0.1245 (  7)  0.1828 (  9)
          -0.1648 ( 10)  0.1118 ( 13)  0.1901 ( 14) -0.3890 ( 16)  0.2742 ( 17)
          -0.1724 ( 38)  0.1206 ( 41) -0.1731 ( 46)  0.2610 ( 47) -0.1603 ( 49)
          -0.1304 ( 51)  0.1992 ( 52)  0.1460 ( 65)  0.1750 ( 66) -0.1480 ( 68)
          -0.1271 ( 69)  0.1316 ( 71)  0.1606 ( 72) -0.1331 ( 73) -0.1122 ( 74)
          -0.1206 ( 77) -0.1082 ( 78) -0.1264 ( 80) -0.1140 ( 81)
 CRD 39=  -0.1159 (  1)  0.1628 (  2)  0.1825 (  9) -0.1238 ( 10) -0.1697 ( 12)
           0.1142 ( 14) -0.3156 ( 15)  0.3769 ( 16) -0.1268 ( 17) -0.2246 ( 23)
           0.1101 ( 24) -0.2466 ( 35)  0.1258 ( 37) -0.1005 ( 44)  0.2883 ( 46)
          -0.1678 ( 48)  0.2625 ( 49) -0.1945 ( 52)  0.1194 ( 65)  0.1042 ( 66)
          -0.1009 ( 68)  0.1115 ( 71) -0.1199 ( 77) -0.2033 ( 78)
 CRD 40=   0.1122 (  2) -0.2021 (  3)  0.2635 (  4)  0.1442 (  5) -0.1610 ( 10)
          -0.2202 ( 11)  0.1708 ( 13)  0.1997 ( 15) -0.2804 ( 17) -0.1400 ( 21)
          -0.1159 ( 24) -0.1126 ( 37)  0.1550 ( 38) -0.1017 ( 39)  0.1627 ( 42)
          -0.1957 ( 43)  0.1102 ( 45) -0.1789 ( 47)  0.1385 ( 48)  0.1033 ( 50)
           0.1410 ( 51) -0.1807 ( 52) -0.1375 ( 53)  0.1225 ( 57)  0.1434 ( 61)
          -0.1057 ( 68)  0.1531 ( 71)  0.1105 ( 72)  0.1101 ( 76)  0.1912 ( 78)
          -0.1280 ( 79) -0.2878 ( 80)
 CRD 41=   0.1650 (  1)  0.1325 (  2) -0.1207 (  3) -0.2133 (  4) -0.1632 (  5)
           0.2909 (  6)  0.1992 (  8) -0.1495 ( 10) -0.1781 ( 12) -0.1732 ( 14)
           0.1427 ( 15)  0.1341 ( 23)  0.1146 ( 29) -0.2231 ( 36)  0.1912 ( 39)
          -0.1647 ( 41)  0.1164 ( 45)  0.1212 ( 54)  0.1164 ( 55)  0.1230 ( 59)
          -0.1657 ( 62)  0.2643 ( 68)  0.2101 ( 71) -0.2602 ( 74) -0.1687 ( 75)
          -0.1079 ( 78) -0.1167 ( 81)
 CRD 42=   0.2045 (  2)  0.1924 (  5)  0.1340 (  6) -0.3130 (  7) -0.1154 (  9)
           0.1162 ( 10)  0.1990 ( 12) -0.2542 ( 13)  0.1153 ( 21)  0.1352 ( 31)
          -0.2547 ( 40)  0.1425 ( 41)  0.1685 ( 44) -0.1883 ( 45) -0.2508 ( 54)
           0.2665 ( 60)  0.1912 ( 67) -0.1630 ( 69) -0.1116 ( 73) -0.2536 ( 74)
           0.1005 ( 75) -0.1479 ( 76)  0.1325 ( 77) -0.1305 ( 79)  0.1499 ( 80)
           0.1013 ( 81)
 CRD 43=  -0.3265 (  8)  0.1223 (  9)  0.2813 ( 11) -0.1351 ( 12)  0.1608 ( 15)
          -0.1623 ( 17)  0.1122 ( 30)  0.1688 ( 33)  0.1792 ( 34) -0.1165 ( 37)
           0.1130 ( 38) -0.1762 ( 42)  0.1469 ( 43) -0.1777 ( 44) -0.1023 ( 45)
          -0.1062 ( 47)  0.1094 ( 48) -0.1795 ( 49) -0.1624 ( 50) -0.1785 ( 52)
           0.1349 ( 53) -0.1389 ( 55)  0.1829 ( 56)  0.1421 ( 57)  0.1916 ( 61)
          -0.1254 ( 65)  0.1964 ( 66)  0.1788 ( 70) -0.1536 ( 71)  0.1682 ( 72)
           0.1232 ( 77) -0.1741 ( 78)  0.1259 ( 80) -0.1714 ( 81)
 CRD 44=   0.1242 (  2) -0.2246 (  6)  0.1449 (  7) -0.1314 ( 10)  0.1812 ( 11)
          -0.1497 ( 13)  0.1637 ( 19) -0.1177 ( 20)  0.1157 ( 26) -0.1470 ( 32)
          -0.1507 ( 36) -0.1820 ( 39)  0.1052 ( 40)  0.1769 ( 42)  0.1537 ( 43)
          -0.1040 ( 45) -0.1041 ( 50)  0.1601 ( 53) -0.1510 ( 57) -0.1361 ( 59)
           0.1786 ( 62)  0.2693 ( 69)  0.1415 ( 71) -0.2921 ( 73) -0.1733 ( 75)
           0.2675 ( 77) -0.1878 ( 79) -0.2536 ( 81)
 CRD 45=   0.1151 (  2) -0.1378 (  3)  0.1386 (  4) -0.2282 (  5)  0.1029 (  6)
           0.1584 (  7)  0.1194 (  9)  0.1794 ( 12) -0.1826 ( 13)  0.1696 ( 22)
           0.2121 ( 25)  0.1322 ( 28) -0.1016 ( 30)  0.1543 ( 33) -0.1984 ( 41)
           0.1250 ( 44) -0.1542 ( 45)  0.1232 ( 53) -0.1315 ( 54) -0.1208 ( 55)
          -0.2211 ( 58)  0.1835 ( 59) -0.1379 ( 60) -0.1337 ( 64) -0.2642 ( 67)
          -0.1502 ( 70)  0.1814 ( 72)  0.1444 ( 73) -0.1770 ( 75) -0.2092 ( 76)
          -0.2313 ( 79)
 CRD 46=   0.2210 (  3) -0.3084 (  4) -0.1037 (  6)  0.1231 (  9) -0.1054 ( 11)
           0.1333 ( 12) -0.1127 ( 18)  0.1229 ( 24) -0.1020 ( 25) -0.1970 ( 27)
           0.1174 ( 29) -0.1147 ( 30)  0.1421 ( 31) -0.1364 ( 34)  0.1103 ( 40)
           0.1115 ( 44) -0.2245 ( 49)  0.1462 ( 50) -0.2211 ( 52) -0.1096 ( 58)
           0.1072 ( 62) -0.1342 ( 63)  0.1465 ( 65)  0.1289 ( 66)  0.1436 ( 69)
           0.3317 ( 70) -0.1521 ( 73) -0.1840 ( 75) -0.2146 ( 76) -0.1712 ( 77)
           0.1778 ( 81)
 CRD 47=   0.1410 (  1)  0.1311 (  2) -0.1934 (  3) -0.1783 (  4) -0.1576 (  8)
           0.1126 (  9)  0.1559 ( 10)  0.1095 ( 19)  0.2113 ( 20)  0.2084 ( 26)
           0.1091 ( 32) -0.1983 ( 36) -0.2176 ( 42)  0.1192 ( 49)  0.1265 ( 52)
          -0.1481 ( 55)  0.1430 ( 56) -0.1755 ( 57)  0.1781 ( 63) -0.1204 ( 64)
          -0.2962 ( 65)  0.1007 ( 67)  0.1575 ( 69) -0.1272 ( 70)  0.2934 ( 72)
          -0.1836 ( 73) -0.1898 ( 77)  0.1494 ( 79)  0.1905 ( 81)
 CRD 48=   0.1764 (  1) -0.1846 (  2)  0.1867 (  9) -0.1701 ( 10)  0.1077 ( 18)
          -0.1589 ( 21) -0.1053 ( 22)  0.1458 ( 24) -0.1193 ( 25)  0.1231 ( 27)
           0.1035 ( 28)  0.1375 ( 29) -0.1046 ( 30) -0.1595 ( 31)  0.1286 ( 33)
          -0.1170 ( 34)  0.2313 ( 50)  0.2273 ( 53)  0.2340 ( 55)  0.2581 ( 56)
          -0.2337 ( 59) -0.2320 ( 62) -0.2428 ( 63) -0.2314 ( 64)  0.1634 ( 67)
           0.1906 ( 75) -0.1851 ( 76) -0.1762 ( 79)

 THE DETERMINANT OF THE G MATRIX IS 10**(   -18)


                     --------------------
                     INTERNAL COORDINATES
                     --------------------

                 - - ATOMS - -         COORDINATE      COORDINATE
 NO.   TYPE    I  J  K  L  M  N        (BOHR,RAD)       (ANG,DEG)
 ----------------------------------------------------------------
   1 STRETCH   1  7                     2.0597732       1.0899851
   2 STRETCH   1  5                     2.7004291       1.4290056
   3 STRETCH   1  2                     2.8912943       1.5300072
   4 STRETCH   1  3                     2.8911855       1.5299496
   5 STRETCH   2  8                     2.0597732       1.0899851
   6 STRETCH   2 10                     2.0597107       1.0899520
   7 STRETCH   2  9                     2.0599230       1.0900644
   8 STRETCH   3  4                     2.8912828       1.5300011
   9 STRETCH   3 12                     2.0598914       1.0900476
  10 STRETCH   3 11                     2.0597896       1.0899938
  11 STRETCH   4 15                     2.0597091       1.0899512
  12 STRETCH   4 14                     2.0598614       1.0900318
  13 STRETCH   4 13                     2.0596534       1.0899217
  14 STRETCH   5  6                     2.7004575       1.4290206
  15 STRETCH   6 16                     2.0599258       1.0900658
  16 STRETCH   6 18                     2.0597206       1.0899573
  17 STRETCH   6 17                     2.0598326       1.0900166
  18 BEND      1  2  9                  1.9105756     109.4679173
  19 BEND      1  2 10                  1.9107428     109.4774970
  20 BEND      1  3  4                  1.9107004     109.4750699
  21 BEND      1  3 12                  1.9106353     109.4713375
  22 BEND      1  2  8                  1.9106446     109.4718713
  23 BEND      1  5  6                  1.9896801     114.0002700
  24 BEND      1  3 11                  1.9106399     109.4716004
  25 BEND      2  1  7                  1.9106446     109.4718713
  26 BEND      2  1  3                  1.9106952     109.4747690
  27 BEND      2  1  5                  1.9105285     109.4652221
  28 BEND      3  4 13                  1.9106171     109.4702987
  29 BEND      3  1  5                  1.9106251     109.4707557
  30 BEND      3  4 14                  1.9105476     109.4663112
  31 BEND      3  1  7                  1.9106398     109.4715944
  32 BEND      3  4 15                  1.9106610     109.4728120
  33 BEND      4  3 11                  1.9106802     109.4739094
  34 BEND      4  3 12                  1.9106288     109.4709663
  35 BEND      5  6 18                  1.9106579     109.4726336
  36 BEND      5  1  7                  1.9106662     109.4731112
  37 BEND      5  6 16                  1.9105828     109.4683307
  38 BEND      5  6 17                  1.9107049     109.4753260
  39 BEND      8  2  9                  1.9106241     109.4706986
  40 BEND      8  2 10                  1.9106229     109.4706302
  41 BEND      9  2 10                  1.9105894     109.4687092
  42 BEND     11  3 12                  1.9105149     109.4644398
  43 BEND     13  4 14                  1.9106290     109.4709784
  44 BEND     13  4 15                  1.9107006     109.4750784
  45 BEND     14  4 15                  1.9106441     109.4718447
  46 BEND     16  6 17                  1.9105812     109.4682391
  47 BEND     16  6 18                  1.9106274     109.4708848
  48 BEND     17  6 18                  1.9106453     109.4719095
  49 TORSION   1  5  6 17               1.0470656      59.9924386
  50 TORSION   1  3  4 13              -1.0471285     -59.9960445
  51 TORSION   1  5  6 18               3.1415344     179.9966619
  52 TORSION   1  5  6 16              -1.0472788     -60.0046540
  53 TORSION   1  3  4 14               1.0471991      60.0000883
  54 TORSION   1  3  4 15               3.1415721     179.9988208
  55 TORSION   2  1  3 12               1.1343510      64.9935275
  56 TORSION   2  1  3 11              -0.9599044     -54.9984719
  57 TORSION   2  1  5  6               1.5708868      90.0051815
  58 TORSION   2  1  3  4              -3.0544022    -175.0043551
  59 TORSION   3  1  2  9               1.0472109      60.0007655
  60 TORSION   3  1  2 10               3.1415841     179.9995101
  61 TORSION   3  1  5  6              -2.6178967    -149.9944306
  62 TORSION   3  1  2  8              -1.0471447     -59.9969707
  63 TORSION   4  3  1  7              -0.9599513     -55.0011563
  64 TORSION   4  3  1  5               1.1344833      65.0011034
  65 TORSION   5  1  3 12              -0.9599488     -55.0010141
  66 TORSION   5  1  3 11              -3.0542043    -174.9930134
  67 TORSION   5  1  2 10              -1.0472422     -60.0025599
  68 TORSION   5  1  2  9               3.1415699     179.9986955
  69 TORSION   5  1  2  8               1.0472143      60.0009593
  70 TORSION   6  5  1  7              -0.5234783     -29.9930998
  71 TORSION   7  1  3 12              -3.0543833    -175.0032737
  72 TORSION   7  1  3 11               1.1345465      65.0047269
  73 TORSION   7  1  2  9              -1.0472371     -60.0022638
  74 TORSION   7  1  2  8               3.1415927     180.0000000
  75 TORSION   7  1  2 10               1.0471361      59.9964808
  76 TORSION  11  3  4 15               1.0470990      59.9943514
  77 TORSION  11  3  4 14              -1.0472740     -60.0043811
  78 TORSION  11  3  4 13               3.1415837     179.9994862
  79 TORSION  12  3  4 15              -1.0471772     -59.9988346
  80 TORSION  12  3  4 14              -3.1415502    -179.9975670
  81 TORSION  12  3  4 13               1.0473075      60.0063002

     ------------------------------------------
     THE POINT GROUP IS C1 , NAXIS= 1, ORDER= 1
     ------------------------------------------

     DIMENSIONS OF THE SYMMETRY SUBSPACES ARE
 A   =  186

 ..... DONE SETTING UP THE RUN .....
 STEP CPU TIME =     0.01 TOTAL CPU TIME =        0.0 (    0.0 MIN)
 TOTAL WALL CLOCK TIME=        0.0 SECONDS, CPU UTILIZATION IS  50.00%


          -----------------------------
          STATIONARY POINT LOCATION RUN
          -----------------------------

 OBTAINING INITIAL HESSIAN, HESS=GUESS   
 DIAGONAL GUESS HESSIAN IN INTERNAL COORDS IS
     1  0.3464     2  0.3608     3  0.3672     4  0.3672     5  0.3464
     6  0.3464     7  0.3463     8  0.3672     9  0.3463    10  0.3464
    11  0.3464    12  0.3463    13  0.3464    14  0.3608    15  0.3463
    16  0.3464    17  0.3464    18  0.2241    19  0.2241    20  0.2485
    21  0.2241    22  0.2241    23  0.2377    24  0.2241    25  0.2241
    26  0.2485    27  0.2430    28  0.2241    29  0.2430    30  0.2241
    31  0.2241    32  0.2241    33  0.2241    34  0.2241    35  0.2194
    36  0.2194    37  0.2194    38  0.2194    39  0.2034    40  0.2034
    41  0.2034    42  0.2034    43  0.2034    44  0.2034    45  0.2034
    46  0.2034    47  0.2034    48  0.2034    49  0.2500    50  0.2500
    51  0.2500    52  0.2500    53  0.2500    54  0.2500    55  0.2500
    56  0.2500    57  0.2500    58  0.2500    59  0.2500    60  0.2500
    61  0.2500    62  0.2500    63  0.2500    64  0.2500    65  0.2500
    66  0.2500    67  0.2500    68  0.2500    69  0.2500    70  0.2500
    71  0.2500    72  0.2500    73  0.2500    74  0.2500    75  0.2500
    76  0.2500    77  0.2500    78  0.2500    79  0.2500    80  0.2500
    81  0.2500
 TRANSFORMING HESSIAN TO SYMMETRY COORDINATES

          PARAMETERS CONTROLLING GEOMETRY SEARCH ARE
          METHOD =QA                  UPHESS =BFGS    
          NNEG   =         0          NFRZ   =         3
          NSTEP  =        50          IFOLOW =         1
          HESS   =GUESS               RESTAR =         F
          IHREP  =         0          HSSEND =         F
          NPRT   =         0          NPUN   =         0
          OPTTOL = 5.000E-04          RMIN   = 1.500E-03
          RMAX   = 1.000E-01          RLIM   = 7.000E-02
          DXMAX  = 3.000E-01          PURIFY =         F
          MOVIE  =         F          TRUPD  =         T
          TRMAX  = 5.000E-01          TRMIN  = 5.000E-02
          ITBMAT =         5          STPT   =         F
          STSTEP = 1.000E-02          PROJCT=          F
          FROZEN COORD(S)=   1   2   3


      ***** EQUILIBRIUM GEOMETRY LOCATED *****
            (SUBJECT TO   3 CONSTRAINT(S))
 COORDINATES OF ALL ATOMS ARE (ANGS)
   ATOM   CHARGE       X              Y              Z
 ------------------------------------------------------------
 C           6.0  -0.0524754601  -0.4557846706   0.2617579126
 C           6.0  -0.6418706647  -1.8427271920   0.0326301707
 C           6.0   1.4117749453  -0.3818272912  -0.1547519402
 C           6.0   2.0606495540   0.9713407094   0.1276081504
 O           8.0  -0.7732307222   0.5092445323  -0.4786334289
 C           6.0  -1.8493575394   1.0990299693   0.1948002822
 H           1.0  -0.1248444207  -0.2074329281   1.3196550418
 H           1.0  -0.5606155061  -2.1160150464  -1.0160546019
 H           1.0  -0.1149688730  -2.5852321951   0.6247416360
 H           1.0  -1.6902540319  -1.8742722429   0.3119888702
 H           1.0   1.9515092419  -1.1637505610   0.3740345404
 H           1.0   1.4830258770  -0.6109030781  -1.2164505406
 H           1.0   1.5648903374   1.7629403918  -0.4237736291
 H           1.0   2.0083967472   1.2162264223   1.1859461418
 H           1.0   3.1081481998   0.9639755805  -0.1600008774
 H           1.0  -2.5848242697   0.3621778456   0.5082160788
 H           1.0  -1.5094069504   1.6455416465   1.0718532590
 H           1.0  -2.3236106756   1.7926584297  -0.4876201057


                     --------------------
                     INTERNAL COORDINATES
                     --------------------

                 - - ATOMS - -         COORDINATE      COORDINATE
 NO.   TYPE    I  J  K  L  M  N        (BOHR,RAD)       (ANG,DEG)
 ----------------------------------------------------------------
   1 STRETCH   1  7                     2.0580341       1.0890648
   2 STRETCH   1  5                     2.6717737       1.4138419
   3 STRETCH   1  2                     2.8805126       1.5243017
   4 STRETCH   1  3                     2.8801925       1.5241323
   5 STRETCH   2  8                     2.0536622       1.0867513
   6 STRETCH   2 10                     2.0511529       1.0854234
   7 STRETCH   2  9                     2.0523635       1.0860641
   8 STRETCH   3  4                     2.8856735       1.5270328
   9 STRETCH   3 12                     2.0569008       1.0884651
  10 STRETCH   3 11                     2.0547955       1.0873510
  11 STRETCH   4 15                     2.0527910       1.0862903
  12 STRETCH   4 14                     2.0551834       1.0875563
  13 STRETCH   4 13                     2.0496595       1.0846332
  14 STRETCH   5  6                     2.6452173       1.3997888
  15 STRETCH   6 16                     2.0545866       1.0872405
  16 STRETCH   6 18                     2.0455654       1.0824667
  17 STRETCH   6 17                     2.0557781       1.0878710
  18 BEND      1  2  9                  1.9310564     110.6413831
  19 BEND      1  2 10                  1.9403796     111.1755606
  20 BEND      1  3  4                  1.9830755     113.6218577
  21 BEND      1  3 12                  1.8957157     108.6165079
  22 BEND      1  2  8                  1.9229841     110.1788731
  23 BEND      1  5  6                  2.0125906     115.3129480
  24 BEND      1  3 11                  1.8850246     108.0039537
  25 BEND      2  1  7                  1.9047833     109.1360466
  26 BEND      2  1  3                  1.9547050     111.9963487
  27 BEND      2  1  5                  1.9232671     110.1950859
  28 BEND      3  4 13                  1.9374703     111.0088692
  29 BEND      3  1  5                  1.8897019     108.2719448
  30 BEND      3  4 14                  1.9380538     111.0423018
  31 BEND      3  1  7                  1.8946583     108.5559218
  32 BEND      3  4 15                  1.9334817     110.7803431
  33 BEND      4  3 11                  1.9138750     109.6569593
  34 BEND      4  3 12                  1.9166930     109.8184184
  35 BEND      5  6 18                  1.8791690     107.6684543
  36 BEND      5  1  7                  1.8956389     108.6121069
  37 BEND      5  6 16                  1.9532237     111.9114771
  38 BEND      5  6 17                  1.9383094     111.0569464
  39 BEND      8  2  9                  1.8943062     108.5357523
  40 BEND      8  2 10                  1.8894273     108.2562119
  41 BEND      9  2 10                  1.8843133     107.9631991
  42 BEND     11  3 12                  1.8655599     106.8887107
  43 BEND     13  4 14                  1.8843100     107.9630121
  44 BEND     13  4 15                  1.8871543     108.1259793
  45 BEND     14  4 15                  1.8812666     107.7886377
  46 BEND     16  6 17                  1.8959455     108.6296739
  47 BEND     16  6 18                  1.8961465     108.6411919
  48 BEND     17  6 18                  1.8999684     108.8601691
  49 TORSION   1  5  6 17               1.0872468      62.2946536
  50 TORSION   1  3  4 13              -1.0729521     -61.4756279
  51 TORSION   1  5  6 18              -3.1174337    -178.6157935
  52 TORSION   1  5  6 16              -1.0348810     -59.2943154
  53 TORSION   1  3  4 14               1.0234224      58.6377860
  54 TORSION   1  3  4 15               3.1133169     178.3799187
  55 TORSION   2  1  3 12               1.0563423      60.5239558
  56 TORSION   2  1  3 11              -0.9609573     -55.0587980
  57 TORSION   2  1  5  6               1.5835564      90.7310973
  58 TORSION   2  1  3  4              -3.0882207    -176.9420132
  59 TORSION   3  1  2  9               1.0708375      61.3544698
  60 TORSION   3  1  2 10              -3.1186988    -178.6882773
  61 TORSION   3  1  5  6              -2.5563491    -146.4680159
  62 TORSION   3  1  2  8              -1.0239720     -58.6692742
  63 TORSION   4  3  1  7              -0.9839424     -56.3757490
  64 TORSION   4  3  1  5               1.0709077      61.3584901
  65 TORSION   5  1  3 12              -1.0677146     -61.1755408
  66 TORSION   5  1  3 11              -3.0850142    -176.7582946
  67 TORSION   5  1  2 10              -1.0140221     -58.0991886
  68 TORSION   5  1  2  9              -3.1076712    -178.0564415
  69 TORSION   5  1  2  8               1.0807046      61.9198145
  70 TORSION   6  5  1  7              -0.5021266     -28.7697339
  71 TORSION   7  1  3 12              -3.1225647    -178.9097799
  72 TORSION   7  1  3 11               1.1433210      65.5074662
  73 TORSION   7  1  2  9              -1.0275497     -58.8742583
  74 TORSION   7  1  2  8              -3.1223592    -178.8980023
  75 TORSION   7  1  2 10               1.0660994      61.0829946
  76 TORSION  11  3  4 15               1.0021587      57.4194613
  77 TORSION  11  3  4 14              -1.0877358     -62.3226713
  78 TORSION  11  3  4 13               3.0990749     177.5639147
  79 TORSION  12  3  4 15              -1.0428574     -59.7513291
  80 TORSION  12  3  4 14              -3.1327519    -179.4934618
  81 TORSION  12  3  4 13               1.0540589      60.3931242

          INTERNUCLEAR DISTANCES (ANGS.)


 =====================================================
   GAMESS/COSab RESULTS
 =====================================================

   Dielectric Constant                  = INFTY
   Basic Grid Size                      =                 1082
   Number of Segments                   =                   92
   Number of Segments located on spheres=                  237
   Number of Segments of the cavity     =                  600
   Solvent Radius (rsolv)               = 1.40
   Outlying Charge Error Method         = double cavity

 =====================================================

  Total solvated Energy (a.u.)          =  -271.2537432677
  Total Energy corrected (a.u.)         =  -271.2535801293

  Outlying charge effect (a.u.)         =     0.0001631384
  Outlying charge effect (kcal/mol)     =     0.1023710043

  Dielectric Energy (a.u.)              =    -0.0061075417
  Dielectric energy corr. (a.u.)        =    -0.0059444032

  Sum of polarization charges           =     0.0255498943
  Sum of polarization charges(cor.)     =    -0.0255498943

  Total surface area of cavity (A**2)   =  144.01
  Total volume of cavity (A**3)         =  137.03

 =====================================================
 NPS=                   600
NR.  ATOM  (X, Y, Z)(a.u.)                  CHARGE(e)  AREA(A**2) SIGMA(e/A**2)
   1   1   0.967137  -2.549110   3.703788  -0.000374   0.139368  -0.002687
   2   1   1.432385  -2.237471   3.663999  -0.000075   0.046456  -0.001609
   3   2  -2.738972  -6.232758   2.156960   0.001849   0.418105   0.004422
   4   2  -0.311726  -7.039878  -0.841328   0.001623   0.418105   0.003881
   5   2  -4.002059  -5.645174  -1.289998   0.001265   0.371649   0.003404
   6   2  -2.865568  -3.005712   3.427076   0.000385   0.278737   0.001383
   7   2  -0.867062  -3.985518   3.791449   0.000460   0.232280   0.001979
   8   2  -1.986213  -3.757173   3.750933   0.000796   0.325193   0.002447
   9   2  -2.581280  -4.835030   3.314650   0.001274   0.325193   0.003919
  10   2  -3.507048  -5.412164  -2.239837   0.001365   0.371649   0.003674
  11   2  -0.289357  -6.675935  -1.736023   0.001065   0.278737   0.003820
  12   2   1.442692  -5.287030  -1.931977   0.000342   0.139368   0.002456
  13   2  -3.290256  -2.638640  -2.980940   0.000814   0.232280   0.003504
  14   2  -2.158817  -5.614128   3.035669   0.000829   0.232280   0.003567
  15   2  -3.147854  -5.359246   2.710686   0.001065   0.278737   0.003820
  16   2   1.473469  -5.754590  -1.318153   0.000579   0.139368   0.004155
  17   2   0.769418  -6.492988  -1.074104   0.001028   0.232280   0.004424
  18   2  -1.596063  -7.004279  -1.254724   0.001266   0.464561   0.002724
  19   2  -3.078877  -6.481838  -1.281895   0.001153   0.464561   0.002482
  20   2  -4.191954  -4.385394  -2.081748   0.001942   0.418105   0.004644
  21   2  -4.004468  -3.184610  -2.468785   0.001178   0.278737   0.004226
  22   2  -1.407538  -7.256420   0.015748   0.000941   0.418105   0.002251
  23   2  -2.334133  -6.942872   1.087026   0.001129   0.418105   0.002701
  24   2  -3.367356  -6.419388   1.069676   0.001330   0.464561   0.002862
  25   2  -3.781067  -6.236411  -0.260396   0.000743   0.325193   0.002286
  26   2  -1.567382  -4.580522   3.660610   0.000624   0.232280   0.002686
  27   2  -3.013670  -3.920335   3.355558   0.000711   0.232280   0.003059
  28   2  -2.325727  -6.504086  -1.916868   0.000658   0.278737   0.002360
  29   2   0.904938  -6.071383  -1.697664   0.000826   0.185824   0.004447
  30   2  -3.609447  -3.823317  -2.840890   0.000525   0.185824   0.002825
  31   2   1.479641  -6.032272  -0.667451   0.000604   0.185824   0.003252
  32   2  -2.645278  -6.970641  -0.191137   0.000889   0.464561   0.001914
  33   2  -4.468677  -3.241291  -1.842676   0.000449   0.139368   0.003218
  34   3   5.200572  -2.837967  -2.133751   0.001659   0.371649   0.004463
  35   3   5.210085  -3.309254  -1.353182   0.001219   0.278737   0.004374
  36   3   3.659820  -1.303321   3.307819   0.000151   0.139368   0.001081
  37   3   3.409401  -4.077768  -1.864129   0.000692   0.185824   0.003722
  38   3   4.238860  -3.723693  -1.966771   0.001721   0.325193   0.005293
  39   3   5.937789  -2.233983  -1.434538   0.001101   0.371649   0.002961
  40   3   6.264049  -1.642919  -1.001507   0.000245   0.139368   0.001757
  41   3   5.643779  -1.571991  -2.461521   0.000931   0.325193   0.002863
  42   3   6.216086  -2.023049  -0.314390   0.000249   0.185824   0.001337
  43   3   3.812469  -4.196714  -1.239756   0.000479   0.139368   0.003434
  44   3   3.188280  -1.605672   3.345115   0.000015   0.046456   0.000317
  45   4   6.699726   3.129770   2.417735   0.002248   0.418105   0.005378
  46   4   4.505077   2.309515  -3.458343   0.000872   0.278737   0.003129
  47   4   3.447118   5.194393   1.915314   0.001676   0.371649   0.004510
  48   4   6.114521   4.666301  -0.916747   0.001499   0.371649   0.004033
  49   4   6.796934  -0.336118   1.309477   0.000627   0.278737   0.002250
  50   4   5.389580   0.171130   3.287021   0.000705   0.232280   0.003037
  51   4   6.300654   0.122457   2.598649   0.001022   0.325193   0.003143
  52   4   6.824321   1.318810   2.571551   0.001585   0.325193   0.004874
  53   4   5.206744   4.941446  -1.466075   0.001654   0.371649   0.004449
  54   4   2.879495   5.372714   1.103439   0.001200   0.278737   0.004307
  55   4   4.063267   3.087240  -3.321000   0.000581   0.185824   0.003127
  56   4   6.478159   2.073321   2.988905   0.001059   0.232280   0.004557
  57   4   7.065251   2.163226   2.271033   0.000883   0.185824   0.004752
  58   4   2.351343   4.881596   1.861655   0.001456   0.278737   0.005225
  59   4   4.297518   5.519542   0.982651   0.001515   0.464561   0.003261
  60   4   5.474864   5.258109  -0.026275   0.001405   0.464561   0.003024
  61   4   5.718995   4.104534  -2.168336   0.001977   0.371649   0.005319
  62   4   5.116774   2.841495  -3.190656   0.000928   0.232280   0.003994
  63   4   5.450447   1.678783  -3.199386   0.001192   0.371649   0.003209
  64   4   4.760833   5.012054   2.096658   0.001264   0.418105   0.003023
  65   4   5.995149   4.262650   2.235880   0.001471   0.418105   0.003518
  66   4   6.785887   3.947353   1.450254   0.001629   0.464561   0.003506
  67   4   6.504351   4.568743   0.222109   0.000948   0.325193   0.002915
  68   4   6.052084   0.810607   3.169740   0.000835   0.232280   0.003593
  69   4   6.933958   0.377718   1.949342   0.000846   0.232280   0.003643
  70   4   4.534801   5.544995  -0.096278   0.000837   0.278737   0.003004
  71   4   3.449019   2.430463  -3.464558   0.000627   0.232280   0.002698
  72   4   4.867757   3.822880  -2.822627   0.001526   0.325193   0.004691
  73   4   5.771874   0.745093  -2.852211   0.000116   0.092912   0.001246
  74   4   5.688227   5.019529   1.204271   0.001154   0.464561   0.002484
  75   4   5.720256   3.030618  -2.844474   0.001030   0.232280   0.004436
  76   5  -2.391757   0.276993  -3.942409   0.004647   0.240512   0.019319
  77   5  -0.373015   2.362573  -3.628425   0.003684   0.171795   0.021442
  78   5  -2.677678   1.220546  -3.907505   0.003920   0.274871   0.014262
  79   5  -1.748434   2.850491  -3.534508   0.002591   0.171795   0.015081
  80   5  -1.020168   2.749822  -3.583112   0.005145   0.274871   0.018718
  81   5  -1.673417   0.874864  -4.146697   0.005330   0.274871   0.019393
  82   5  -0.862391   1.702829  -4.012176   0.004598   0.240512   0.019119
  83   5  -3.218340   0.073981  -3.490580   0.004911   0.240512   0.020418
  84   5  -1.371083   0.006522  -4.009790   0.003901   0.171795   0.022705
  85   5  -0.121788   1.577667  -3.801379   0.003393   0.137436   0.024686
  86   5  -2.457586  -0.304481  -3.727072   0.002858   0.137436   0.020798
  87   5  -1.965606   1.976665  -3.951016   0.006759   0.377948   0.017883
  88   5  -0.985128   3.486521  -2.896096   0.004082   0.206154   0.019799
  89   5  -0.772184   0.749125  -4.073780   0.004102   0.240512   0.017057
  90   6  -4.448779   5.590937   1.380752   0.000598   0.418105   0.001430
  91   6  -5.621945   0.612786  -2.391572   0.000304   0.325193   0.000933
  92   6  -5.208566   2.503513   3.709537   0.000216   0.418105   0.000516
  93   6  -7.096518   3.219532   0.290763  -0.000195   0.371649  -0.000524
  94   6  -2.068597   5.111387  -1.376021   0.000161   0.325193   0.000494
  95   6  -2.044487   5.508384  -0.268788   0.000395   0.325193   0.001216
  96   6  -2.958804   5.818110   0.357461   0.000779   0.325193   0.002395
  97   6  -7.271806   2.154000   0.479019   0.000057   0.371649   0.000152
  98   6  -5.578289   1.638146   3.490725   0.000118   0.278737   0.000423
  99   6  -4.022519  -0.107092   3.407197  -0.000047   0.046456  -0.001002
 100   6  -6.116331   0.122827  -1.527515   0.000506   0.371649   0.001360
 101   6  -3.245892   5.746368   1.238218   0.000404   0.232280   0.001739
 102   6  -3.936634   5.830001   0.422955   0.000435   0.278737   0.001560
 103   6  -5.277369  -0.200455  -2.065076   0.000130   0.232280   0.000559
 104   6  -3.756727   0.883055   3.944483   0.000430   0.185824   0.002313
 105   6  -4.469423   1.444808   3.964609   0.000834   0.325193   0.002564
 106   6  -6.241866   2.746585   2.875936  -0.000683   0.464561  -0.001471
 107   6  -6.923168   3.170132   1.523583  -0.000873   0.464561  -0.001880
 108   6  -7.103557   2.271995  -0.737710   0.000705   0.418105   0.001687
 109   6  -6.493234   1.442138  -1.843357   0.000883   0.418105   0.002111
 110   6  -5.474491   1.560609  -2.809694   0.000111   0.371649   0.000299
 111   6  -4.681417   0.808299  -2.988504   0.000730   0.371649   0.001963
 112   6  -5.453968   3.761313   3.126451  -0.000629   0.418105  -0.001505
 113   6  -5.207047   4.880399   2.236954  -0.000439   0.418105  -0.001049
 114   6  -5.604301   5.107802   1.172828  -0.000442   0.464561  -0.000951
 115   6  -6.579641   4.220459   0.783851  -0.000570   0.371649  -0.001534
 116   6  -2.089401   4.582236  -2.087971   0.000447   0.185824   0.002404
 117   6  -1.853018   5.464790   0.701115   0.000503   0.325193   0.001545
 118   6  -2.874753   5.645762  -0.710238   0.000177   0.232280   0.000761
 119   6  -6.865207   2.343828   2.057235  -0.000491   0.278737  -0.001763
 120   6  -4.369269   0.520798   3.699499   0.000269   0.139368   0.001932
 121   6  -6.910078   1.142111  -0.953310   0.000636   0.325193   0.001955
 122   6  -4.144364   2.158929  -3.354195   0.000148   0.232280   0.000637
 123   6  -3.588034   1.602008   4.116451   0.000110   0.092912   0.001179
 124   6  -6.209681   4.036188   2.121557  -0.001149   0.464561  -0.002474
 125   7  -0.176523  -0.326023   4.948823  -0.001655   0.333671  -0.004959
 126   7   0.271269  -1.638291   4.549171  -0.001056   0.333671  -0.003164
 127   7  -1.663009  -0.900699   4.427623  -0.001281   0.274788  -0.004662
 128   7   0.955614  -0.880200   4.585914  -0.001729   0.353299  -0.004894
 129   7  -0.736244  -1.219456   4.752121  -0.001488   0.372926  -0.003990
 130   7  -1.156194   0.023262   4.733370  -0.001592   0.294415  -0.005409
 131   7  -0.157896   0.781159   4.650797  -0.001599   0.294415  -0.005433
 132   7   0.609578   0.108894   4.745302  -0.001346   0.235532  -0.005716
 133   8  -1.394342  -4.812753  -4.213574  -0.002416   0.451437  -0.005352
 134   8  -2.450833  -3.533796  -3.890572  -0.000908   0.333671  -0.002723
 135   8  -2.326987  -5.474376  -3.420296  -0.000980   0.372926  -0.002628
 136   8  -0.186950  -5.968237  -3.101064  -0.000731   0.333671  -0.002191
 137   8   0.583044  -5.147808  -3.340246  -0.001242   0.353299  -0.003514
 138   8  -1.282111  -3.323982  -4.271709  -0.002417   0.471065  -0.005132
 139   8  -2.488538  -4.504530  -3.853147  -0.001304   0.412182  -0.003163
 140   8  -1.305280  -6.011265  -3.307208  -0.001363   0.431809  -0.003157
 141   8  -0.277688  -5.219829  -3.903188  -0.001693   0.353299  -0.004791
 142   8  -0.326951  -4.126198  -4.261493  -0.002425   0.412182  -0.005883
 143   9   0.529458  -6.820117   2.497506  -0.002893   0.490692  -0.005896
 144   9  -0.806100  -6.176114   3.186170  -0.001051   0.372926  -0.002818
 145   9   0.600455  -4.907649   3.497041  -0.001356   0.353299  -0.003839
 146   9   1.443901  -6.633621   0.712336  -0.001360   0.392554  -0.003463
 147   9  -0.515880  -7.299235   1.525817  -0.001143   0.372926  -0.003065
 148   9   0.043173  -5.767178   3.458679  -0.001613   0.412182  -0.003914
 149   9   1.293366  -5.772669   2.902743  -0.002858   0.471065  -0.006066
 150   9   1.552562  -6.473757   1.796915  -0.002578   0.431809  -0.005970
 151   9   0.467337  -7.236105   0.979414  -0.001673   0.471065  -0.003552
 152   9  -0.754515  -6.917665   2.451903  -0.001307   0.372926  -0.003505
 153  10  -5.555428  -4.027127   1.062621  -0.003211   0.490692  -0.006543
 154  10  -4.235930  -3.830782   2.795517  -0.000825   0.314043  -0.002626
 155  10  -4.757202  -5.302987   1.289762  -0.000970   0.333671  -0.002908
 156  10  -5.195893  -4.504316  -0.460025  -0.000776   0.294415  -0.002636
 157  10  -5.065912  -3.702520   2.172484  -0.002217   0.372926  -0.005944
 158  10  -4.634641  -4.774453   2.151833  -0.001284   0.412182  -0.003116
 159  10  -5.148506  -5.012713   0.361473  -0.001465   0.412182  -0.003554
 160  10  -5.404207  -3.596273  -0.481695  -0.001899   0.412182  -0.004607
 161  11   5.224429  -3.816654   1.735266  -0.002364   0.451437  -0.005237
 162  11   4.567205  -2.486469   2.982621  -0.001085   0.392554  -0.002764
 163  11   6.038883  -2.704793   1.208746  -0.001225   0.372926  -0.003285
 164  11   5.289905  -3.922600   0.000985  -0.000499   0.294415  -0.001694
 165  11   3.963984  -3.286015   2.892604  -0.002235   0.490692  -0.004554
 166  11   5.481853  -2.719837   2.302270  -0.001617   0.451437  -0.003581
 167  11   5.797862  -3.453872   0.614439  -0.001146   0.372926  -0.003074
 168  11   4.531478  -4.484438   0.389158  -0.001843   0.490692  -0.003756
 169  11   4.353289  -4.269214   1.850154  -0.002367   0.392554  -0.006030
 170  12   3.225090  -1.430819  -4.702944  -0.002109   0.431809  -0.004885
 171  12   3.353117  -0.114746  -4.455367  -0.000950   0.314043  -0.003025
 172  12   1.932221  -0.733018  -4.557097  -0.001383   0.314043  -0.004403
 173  12   3.644943  -3.082645  -3.566583  -0.000581   0.353299  -0.001644
 174  12   4.756347  -1.387290  -3.769598  -0.000634   0.333671  -0.001901
 175  12   2.467797   0.049397  -4.413905  -0.000932   0.294415  -0.003166
 176  12   2.150647  -1.693715  -4.605125  -0.001883   0.353299  -0.005329
 177  12   2.852655  -2.662476  -4.237409  -0.001920   0.412182  -0.004658
 178  12   4.217460  -2.291075  -3.954364  -0.001261   0.451437  -0.002793
 179  12   4.148101  -0.771077  -4.318039  -0.001256   0.431809  -0.002909
 180  13   2.028652   5.106875  -2.222377  -0.002812   0.471065  -0.005970
 181  13   3.242055   4.080139  -3.123211  -0.000538   0.314043  -0.001713
 182  13   3.688465   5.500364  -1.693186  -0.000720   0.353299  -0.002038
 183  13   2.149608   5.564967  -0.172838  -0.000821   0.333671  -0.002460
 184  13   2.253595   4.081069  -3.031995  -0.001615   0.412182  -0.003918
 185  13   3.338867   5.008919  -2.554573  -0.001453   0.471065  -0.003085
 186  13   2.980639   5.780383  -0.994223  -0.001171   0.412182  -0.002840
 187  13   1.876504   5.502335  -1.193904  -0.001854   0.353299  -0.005247
 188  14   4.100487   3.008682   4.572934  -0.002261   0.451437  -0.005009
 189  14   5.458448   2.348404   4.048488  -0.000680   0.372926  -0.001824
 190  14   4.179110   0.983099   4.280231  -0.000952   0.333671  -0.002853
 191  14   2.772707   4.124200   3.527802  -0.000862   0.333671  -0.002583
 192  14   4.663876   4.155365   3.594672  -0.000781   0.372926  -0.002095
 193  14   4.764957   1.772670   4.436245  -0.001287   0.412182  -0.003123
 194  14   3.394344   1.937258   4.637773  -0.002281   0.451437  -0.005052
 195  14   2.804669   3.148086   4.322374  -0.002566   0.471065  -0.005448
 196  14   3.693959   4.208156   3.782992  -0.001284   0.412182  -0.003115
 197  14   5.186325   3.375205   3.955915  -0.001076   0.392554  -0.002742
 198  15   8.258446   1.857872  -0.890592  -0.003454   0.608459  -0.005676
 199  15   7.674405   0.303930  -1.001277  -0.001212   0.353299  -0.003431
 200  15   7.904895   1.065266   0.853750  -0.000648   0.333671  -0.001942
 201  15   7.861767   3.035270   0.478166  -0.000762   0.353299  -0.002157
 202  15   7.278799   3.358013  -1.606183  -0.000731   0.372926  -0.001960
 203  15   6.943260   1.529980  -2.494551  -0.000678   0.353299  -0.001918
 204  15   7.920808   0.488082  -0.046664  -0.001669   0.490692  -0.003400
 205  15   8.152605   2.028693   0.591016  -0.001662   0.490692  -0.003388
 206  15   7.831047   3.275106  -0.603630  -0.001795   0.510320  -0.003518
 207  15   7.465709   2.433430  -2.070359  -0.001770   0.490692  -0.003606
 208  15   7.545717   0.901680  -1.849148  -0.001785   0.490692  -0.003638
 209  16  -6.812551  -0.626288   1.735080  -0.002843   0.431809  -0.006585
 210  16  -6.653758  -0.514571  -0.251069  -0.001405   0.353299  -0.003976
 211  16  -7.298931   0.682066   1.414359  -0.001425   0.353299  -0.004032
 212  16  -6.213367   0.409283   3.008251  -0.000883   0.255160  -0.003462
 213  16  -5.346778  -0.279016   3.172458  -0.001069   0.274788  -0.003890
 214  16  -6.916141  -0.676709   0.725263  -0.001748   0.294415  -0.005937
 215  16  -7.253261   0.284904   0.445661  -0.001199   0.353299  -0.003394
 216  16  -6.900209   0.561348   2.359405  -0.001717   0.392554  -0.004375
 217  16  -6.121371  -0.620956   2.634148  -0.002097   0.353299  -0.005936
 218  17  -2.541696   4.594428   3.957851  -0.002650   0.451437  -0.005869
 219  17  -2.556258   5.480531   2.596638  -0.001436   0.412182  -0.003485
 220  17  -3.204344   2.831507   4.440858  -0.001185   0.353299  -0.003353
 221  17  -3.977145   4.560073   3.658356  -0.001478   0.372926  -0.003963
 222  17  -1.605812   5.123827   2.676781  -0.002264   0.451437  -0.005016
 223  17  -1.487339   4.230921   3.732696  -0.002993   0.412182  -0.007262
 224  17  -2.182965   3.338111   4.378130  -0.002764   0.451437  -0.006122
 225  17  -3.669570   3.753095   4.251101  -0.001723   0.412182  -0.004180
 226  17  -3.364047   5.224611   3.165731  -0.001519   0.372926  -0.004072
 227  18  -5.437864   5.019029  -2.430686  -0.004446   0.608459  -0.007306
 228  18  -3.712060   4.361232  -3.072350  -0.001615   0.353299  -0.004570
 229  18  -3.854536   5.683503  -1.611648  -0.001381   0.353299  -0.003909
 230  18  -5.688767   5.451866  -0.621714  -0.001597   0.353299  -0.004521
 231  18  -6.724590   3.780103  -1.581300  -0.001608   0.372926  -0.004313
 232  18  -5.514089   3.112186  -3.088927  -0.001564   0.412182  -0.003794
 233  18  -3.952502   5.200867  -2.519922  -0.002519   0.471065  -0.005347
 234  18  -4.906510   5.766477  -1.253864  -0.002595   0.490692  -0.005289
 235  18  -6.376317   4.806605  -1.204518  -0.002872   0.510320  -0.005627
 236  18  -6.246195   3.713459  -2.498541  -0.002817   0.510320  -0.005519
 237  18  -4.741494   3.937642  -3.289961  -0.003174   0.529948  -0.005989
 238   1   0.343843  -2.661471   3.797437  -0.000111   0.028400  -0.003898
 239   2   0.140590  -3.100700   3.684341  -0.000091   0.028400  -0.003197
 240   7   0.263548  -2.414789   3.956423  -0.000179   0.028400  -0.006320
 241   1   0.553811  -3.201270   3.529634  -0.000097   0.026284  -0.003691
 242   2   0.374411  -3.663403   3.494775  -0.000080   0.026284  -0.003061
 243   9   0.469573  -3.946759   3.446752  -0.000109   0.026284  -0.004138
 244   2   0.255889  -3.500486   3.605428  -0.000017   0.043940  -0.000387
 245   1   0.484850  -2.835639   3.731481  -0.000050   0.043940  -0.001144
 246   1   1.849636  -1.608065   3.655691  -0.000155   0.029070  -0.005336
 247   3   2.313955  -1.572388   3.482134  -0.000114   0.029070  -0.003936
 248   7   1.667289  -1.432668   3.824744  -0.000163   0.029070  -0.005598
 249   1   2.234677  -2.190123   3.301575  -0.000126   0.029558  -0.004270
 250   3   2.721784  -2.179394   3.203513  -0.000095   0.029558  -0.003229
 251  11   2.927585  -2.388980   3.127162  -0.000097   0.029558  -0.003285
 252   3   2.638563  -1.841482   3.372148  -0.000056   0.074699  -0.000751
 253   1   1.950780  -1.961649   3.539518  -0.000167   0.074699  -0.002230
 254   7   0.751607  -1.856789   4.115738  -0.000735   0.127213  -0.005776
 255   1   1.153063  -1.984956   3.826279  -0.000795   0.155419  -0.005117
 256   1   1.710468  -3.109357   3.054027  -0.000640   0.165024  -0.003881
 257   9   1.538993  -3.839625   2.937923  -0.000603   0.165024  -0.003652
 258  11   2.411118  -3.240453   2.833980  -0.000624   0.165024  -0.003780
 259   9   0.933743  -4.164222   3.288635  -0.000549   0.156962  -0.003495
 260   1   0.992940  -3.056745   3.516912  -0.000258   0.221200  -0.001165
 261  11   2.995863  -2.714752   3.068231  -0.000324   0.118417  -0.002738
 262   1   1.928289  -2.582223   3.342708  -0.000211   0.167094  -0.001260
 263   2   1.533433  -4.689533  -2.299909   0.000062   0.066013   0.000940
 264   3   2.170553  -4.152261  -2.312338   0.000139   0.066013   0.002107
 265   8   1.350582  -4.672695  -2.543028  -0.000099   0.066013  -0.001496
 266   2   2.480962  -4.907380  -0.542568   0.000106   0.068969   0.001533
 267   3   3.199201  -4.491635  -0.622425   0.000057   0.068969   0.000833
 268  11   3.352286  -4.514398  -0.359323  -0.000100   0.068969  -0.001444
 269   3   2.966358  -4.385273  -1.403148   0.000883   0.476401   0.001854
 270   2   1.898575  -4.971044  -1.625789   0.000943   0.476401   0.001979
 271   2  -3.639319  -1.539008  -2.487055   0.001396   0.106514   0.013106
 272   5  -3.676025  -0.733920  -2.663973   0.002012   0.106514   0.018892
 273   6  -4.068042  -0.565157  -2.468600   0.001261   0.106514   0.011842
 274   2  -2.669207  -2.204045  -3.218962   0.000333   0.056311   0.005906
 275   5  -2.628724  -1.381706  -3.235802   0.001182   0.056311   0.020997
 276   8  -2.495255  -2.400742  -3.371955   0.000040   0.056311   0.000716
 277   5  -3.111111  -0.887979  -3.168712   0.003955   0.241722   0.016363
 278   2  -3.282141  -2.048012  -2.927322   0.001459   0.267012   0.005463
 279   2  -2.827303  -1.688664   3.207178  -0.000390   0.191222  -0.002041
 280   6  -3.224410  -0.698079   3.245183  -0.000565   0.191222  -0.002956
 281   7  -2.498159  -1.089662   3.526091  -0.000778   0.191222  -0.004068
 282   2  -4.656354  -2.413074  -1.326224   0.000059   0.095434   0.000617
 283   6  -4.976223  -1.406271  -1.212212   0.000161   0.095434   0.001683
 284  10  -4.830269  -2.474768  -1.081930  -0.000209   0.095434  -0.002192
 285   2  -3.512500  -1.621364   2.902481  -0.000263   0.095675  -0.002745
 286   6  -3.946367  -0.663386   3.054267  -0.000321   0.095675  -0.003352
 287  16  -4.207746  -0.789861   2.954472  -0.000416   0.095675  -0.004353
 288   6  -4.736357  -0.730613  -2.102973   0.001729   0.507456   0.003406
 289   2  -4.343237  -2.220877  -1.973046   0.001770   0.507456   0.003489
 290   6  -3.788096  -0.639168   3.298836   0.000172   0.071146   0.002415
 291   2  -3.176679  -2.029274   3.237297   0.000085   0.071146   0.001200
 292   7  -1.948332  -1.476321   3.939239  -0.000720   0.198587  -0.003624
 293   7  -0.646202  -2.062108   4.160446  -0.002181   0.406776  -0.005361
 294   2  -1.883860  -2.681038   3.703873  -0.000171   0.543834  -0.000314
 295   2  -0.354727  -3.267541   3.834798   0.000089   0.279860   0.000317
 296   8   0.936256  -5.218978  -2.671647  -0.000098   0.068499  -0.001427
 297   8   0.151897  -5.983136  -2.533278  -0.000247   0.151759  -0.001628
 298   8  -1.140206  -6.318851  -2.545901  -0.000326   0.151759  -0.002150
 299   8  -2.363584  -5.832379  -2.767459  -0.000374   0.151759  -0.002465
 300   8  -3.021052  -4.721424  -3.107912  -0.000225   0.151759  -0.001484
 301   8  -2.845416  -3.437480  -3.428899  -0.000304   0.151759  -0.002003
 302   2   0.830175  -5.606083  -2.231468   0.000039   0.150468   0.000260
 303   2  -0.430858  -6.410404  -2.119565  -0.000007   0.150468  -0.000045
 304   2  -1.921634  -6.321060  -2.258350  -0.000130   0.150468  -0.000867
 305   2  -3.036300  -5.374359  -2.591421  -0.000044   0.150468  -0.000291
 306   2  -3.321854  -3.955044  -2.983417   0.000080   0.150468   0.000534
 307   2  -2.928390  -2.832261  -3.245528  -0.000016   0.083687  -0.000187
 308   2   2.135409  -5.366228  -0.028226  -0.000024   0.085606  -0.000278
 309   9   2.105338  -5.498171   0.245912  -0.000211   0.085606  -0.002460
 310  11   2.927916  -4.835745   0.162883  -0.000017   0.085606  -0.000194
 311   9   0.230001  -4.408419   3.550437  -0.000164   0.066282  -0.002477
 312   9  -0.642482  -5.029957   3.547436  -0.000379   0.145946  -0.002593
 313   9  -1.356598  -5.968367   3.006160  -0.000347   0.145946  -0.002375
 314   9  -1.415824  -6.801940   2.013587  -0.000370   0.145946  -0.002537
 315   9  -0.797523  -7.212041   0.949127  -0.000404   0.145946  -0.002770
 316   9   0.261960  -7.041910   0.219672  -0.000302   0.145946  -0.002073
 317   9   1.357636  -6.356578   0.104057  -0.000404   0.145946  -0.002766
 318   2  -0.338824  -4.276029   3.608472  -0.000364   0.146463  -0.002488
 319   2  -1.408241  -5.234852   3.357770  -0.000100   0.146463  -0.000682
 320   2  -1.865124  -6.281722   2.451587  -0.000097   0.146463  -0.000665
 321   2  -1.534829  -7.016472   1.236312  -0.000196   0.146463  -0.001341
 322   2  -0.543610  -7.158244   0.176485  -0.000171   0.146463  -0.001169
 323   2   0.729637  -6.652845  -0.322774   0.000014   0.146463   0.000094
 324   2   1.658870  -5.926457  -0.238794  -0.000010   0.080978  -0.000128
 325   2  -3.668432  -2.322558   2.834610  -0.000288   0.090125  -0.003200
 326  10  -3.946220  -2.395871   2.730082  -0.000379   0.090125  -0.004204
 327  16  -4.296121  -1.445798   2.711860  -0.000358   0.090125  -0.003973
 328  10  -4.895221  -3.225490  -1.156632  -0.000112   0.066328  -0.001683
 329  10  -4.826234  -4.287141  -1.017603  -0.000275   0.146123  -0.001884
 330  10  -4.592060  -5.312581  -0.254563  -0.000355   0.146123  -0.002431
 331  10  -4.260423  -5.671580   0.949484  -0.000392   0.146123  -0.002680
 332  10  -3.958615  -5.226343   2.132392  -0.000284   0.146123  -0.001946
 333  10  -3.802479  -4.147766   2.840126  -0.000361   0.146123  -0.002472
 334  10  -3.812542  -3.078094   2.923132  -0.000265   0.066328  -0.003989
 335   2  -4.619705  -3.639502  -1.468529   0.000002   0.146486   0.000016
 336   2  -4.453657  -5.012617  -1.000413  -0.000054   0.146486  -0.000368
 337   2  -4.119313  -5.830697   0.161960  -0.000154   0.146486  -0.001053
 338   2  -3.745004  -5.779738   1.572437  -0.000130   0.146486  -0.000887
 339   2  -3.474400  -4.879301   2.689637  -0.000105   0.146486  -0.000714
 340   2  -3.411366  -3.474998   3.084747  -0.000307   0.146486  -0.002094
 341  11   3.496819  -4.672077  -0.060433  -0.000016   0.091565  -0.000177
 342   2   2.280836  -5.354043  -0.410214   0.000376   0.129736   0.002900
 343  16  -4.496791  -0.938709   2.997487  -0.000046   0.067748  -0.000682
 344   2  -3.503623  -2.186818   3.127195   0.000169   0.097213   0.001739
 345   3   1.768853   1.484467  -3.296204   0.000644   0.116523   0.005526
 346   4   1.986360   1.918892  -3.171918   0.000536   0.116523   0.004600
 347   5   0.991285   1.727911  -3.260017   0.001944   0.116523   0.016686
 348   3   4.344321  -1.133894   3.078414  -0.000009   0.027670  -0.000339
 349   4   4.542696  -0.680382   3.132019   0.000033   0.027670   0.001181
 350  11   4.438190  -1.414177   3.009930  -0.000047   0.027670  -0.001685
 351   3   6.277317  -1.527614   0.523201  -0.000000   0.027670  -0.000018
 352   4   6.450491  -1.068968   0.610119   0.000058   0.027670   0.002096
 353  11   6.198008  -1.772623   0.683639  -0.000033   0.027670  -0.001187
 354   3   5.222304  -0.276288  -3.052711   0.000009   0.027553   0.000341
 355   4   5.406411   0.169286  -2.928359   0.000040   0.027553   0.001452
 356  12   5.034473  -0.393952  -3.260684  -0.000019   0.027553  -0.000705
 357   3   2.402665   1.180872  -3.556327   0.000047   0.027553   0.001695
 358   4   2.623647   1.607389  -3.425390   0.000112   0.027553   0.004078
 359  12   2.467602   0.932580  -3.719154  -0.000002   0.027553  -0.000070
 360   3   3.884959  -0.466486   3.391714   0.000004   0.025877   0.000158
 361   4   4.105291  -0.040008   3.523690  -0.000003   0.025877  -0.000111
 362  14   4.053292   0.213155   3.682684  -0.000037   0.025877  -0.001429
 363   3   6.509749  -1.060206   0.199475   0.000056   0.026137   0.002144
 364   4   6.758723  -0.640124   0.296424   0.000009   0.026137   0.000352
 365  15   6.944927  -0.442478   0.162332  -0.000015   0.026137  -0.000585
 366   3   5.753258  -0.117503  -2.579835   0.000036   0.026137   0.001364
 367   4   5.992055   0.315261  -2.520276   0.000011   0.026137   0.000435
 368  15   6.247133   0.427080  -2.401328  -0.000016   0.026137  -0.000594
 369   4   2.570575   1.995264  -3.355903   0.000171   0.046321   0.003683
 370   3   2.218731   1.382122  -3.468711   0.000134   0.046321   0.002904
 371   4   4.331421  -0.261803   3.414238   0.000153   0.093493   0.001632
 372   3   4.125577  -0.932468   3.241586   0.000094   0.093493   0.001007
 373   4   6.686878  -0.782810   0.498208   0.000079   0.038238   0.002072
 374   3   6.392249  -1.410034   0.321400   0.000078   0.038238   0.002052
 375   4   5.801561   0.312220  -2.715057   0.000113   0.064557   0.001755
 376   3   5.448446  -0.286153  -2.895728   0.000118   0.064557   0.001831
 377   3   1.642089   0.971601  -3.549877   0.000227   0.059444   0.003819
 378   5   0.865486   1.208727  -3.501401   0.001148   0.059444   0.019321
 379  12   1.728715   0.727117  -3.710333   0.000053   0.059444   0.000894
 380   5   0.529404   1.642530  -3.554049   0.001145   0.054589   0.020966
 381   3   1.620602   1.223641  -3.544770   0.000275   0.060272   0.004567
 382   3   2.799616  -0.488561   3.553708  -0.000216   0.166755  -0.001298
 383   7   2.109376  -0.390137   3.828298  -0.000554   0.166755  -0.003325
 384  14   3.009633   0.211745   3.770121  -0.000215   0.166755  -0.001287
 385   7   1.636653  -1.110345   4.002431  -0.000599   0.138843  -0.004318
 386   3   2.667587  -1.159951   3.575745  -0.000032   0.195833  -0.000161
 387   3   2.519132  -3.808690  -2.584838   0.000041   0.089001   0.000466
 388   8   1.622586  -4.222862  -2.726303   0.000084   0.089001   0.000945
 389  12   2.522322  -3.656099  -2.851338  -0.000140   0.089001  -0.001569
 390   8   1.293833  -4.728148  -2.778136   0.000034   0.023881   0.001432
 391   3   2.577114  -4.060152  -2.504721   0.000165   0.033921   0.004850
 392  11   4.061737  -4.342831  -0.418423  -0.000065   0.078279  -0.000828
 393  11   5.112654  -3.674687  -0.503106  -0.000394   0.178885  -0.002205
 394  11   5.964707  -2.636225   0.162785  -0.000550   0.178885  -0.003075
 395   3   4.338861  -3.988034  -0.867153   0.000028   0.167072   0.000165
 396   3   5.630151  -2.935975  -0.629487  -0.000206   0.167072  -0.001233
 397   3   6.190427  -1.989089   0.198808  -0.000059   0.095635  -0.000612
 398  11   4.185510  -1.883234   3.092273  -0.000138   0.068293  -0.002023
 399  11   3.466001  -2.340919   3.149896  -0.000177   0.068293  -0.002590
 400   3   3.607785  -1.763431   3.168604  -0.000385   0.150166  -0.002565
 401  12   2.215882   0.617586  -3.927423  -0.000058   0.026871  -0.002168
 402   3   2.169158   0.964380  -3.660266   0.000027   0.032829   0.000813
 403  12   4.978718  -0.950044  -3.403784  -0.000116   0.079158  -0.001462
 404  12   4.778220  -2.167815  -3.154499  -0.000318   0.181274  -0.001755
 405  12   3.721073  -3.236328  -2.994907  -0.000360   0.181274  -0.001983
 406   3   5.172148  -1.363722  -2.956435  -0.000272   0.168651  -0.001611
 407   3   4.509148  -2.898342  -2.669827   0.000072   0.168651   0.000428
 408   3   3.339281  -3.642890  -2.587697   0.000158   0.096708   0.001636
 409  14   3.703196   0.402796   3.896303  -0.000217   0.125644  -0.001730
 410   3   3.540050  -0.650578   3.509410   0.000213   0.177073   0.001200
 411  15   7.093288  -0.350120  -0.268618  -0.000256   0.203433  -0.001258
 412  15   6.772487   0.048906  -1.637124  -0.001202   0.416766  -0.002883
 413   3   6.383862  -1.159446  -0.889904   0.000506   0.556824   0.000909
 414   3   5.929955  -0.593134  -2.384547   0.000568   0.286514   0.001984
 415   4   2.021719   2.395355  -3.087571   0.000236   0.089576   0.002635
 416   5   1.026804   2.196843  -3.124189   0.001710   0.089576   0.019091
 417  13   1.923423   2.681870  -3.048279   0.000118   0.089576   0.001315
 418   5   0.629234   1.976477  -3.450455   0.000641   0.032334   0.019830
 419   4   2.057349   2.221386  -3.296699   0.000118   0.036159   0.003256
 420   4   1.281281   4.686759   0.791096   0.000421   0.124998   0.003370
 421   6  -0.040300   4.569297   0.762362   0.001101   0.124998   0.008809
 422  13   1.233103   4.781694   0.502546   0.000286   0.124998   0.002290
 423   4   0.573688   4.441599   1.147671   0.000937   0.126029   0.007437
 424   6  -0.729934   4.676171   1.207157   0.000181   0.126029   0.001433
 425  17  -0.773811   4.659850   1.512373  -0.000132   0.126029  -0.001044
 426   6  -0.652400   4.931731   1.077878   0.000063   0.022500   0.002794
 427   4   1.269893   4.871554   1.034659   0.000101   0.022500   0.004479
 428  11   6.112531  -1.888613   1.149647  -0.000434   0.213632  -0.002032
 429  11   5.261893  -1.699091   2.414990  -0.001592   0.439409  -0.003623
 430   4   6.196894  -0.771760   1.701227   0.000615   0.583159   0.001054
 431   4   5.090010  -0.561117   3.036079   0.000616   0.300942   0.002047
 432  12   2.857864   0.726463  -3.922080  -0.000253   0.212884  -0.001191
 433  12   4.231315   0.076536  -3.747233  -0.001351   0.437677  -0.003087
 434   4   3.766657   1.479596  -3.514321   0.000858   0.581267   0.001477
 435   4   5.260444   0.653100  -3.183331   0.000615   0.299868   0.002050
 436  13   1.976177   5.209363   0.443643  -0.000003   0.067775  -0.000039
 437  13   2.947882   5.567898   0.084723  -0.000199   0.150027  -0.001327
 438  13   3.912810   5.538771  -0.824645  -0.000246   0.150027  -0.001643
 439  13   4.276067   4.970761  -1.966701  -0.000136   0.150027  -0.000908
 440  13   3.891731   4.092037  -2.882679  -0.000159   0.150027  -0.001060
 441  13   2.914191   3.255586  -3.204627  -0.000304   0.150027  -0.002027
 442   4   2.500495   5.268413   0.713566   0.000113   0.148982   0.000758
 443   4   3.770291   5.560011  -0.009460  -0.000018   0.148982  -0.000123
 444   4   4.556948   5.206339  -1.224476   0.000000   0.148982   0.000002
 445   4   4.544463   4.349468  -2.443408   0.000120   0.148982   0.000807
 446   4   3.737851   3.333606  -3.176606  -0.000056   0.148982  -0.000375
 447   4   2.745713   2.647436  -3.269679   0.000054   0.082802   0.000648
 448   4   1.581943   4.027506   2.469338   0.000505   0.131316   0.003843
 449  14   1.710775   3.910222   2.723684   0.000111   0.131316   0.000842
 450  17   0.179240   3.921640   2.563673   0.000408   0.131316   0.003105
 451  14   4.406454   0.576357   3.881719  -0.000094   0.070537  -0.001337
 452  14   5.314595   1.245084   3.771822  -0.000244   0.157163  -0.001553
 453  14   5.824138   2.488110   3.509363  -0.000203   0.157163  -0.001290
 454  14   5.439431   3.763632   3.195237  -0.000258   0.157163  -0.001644
 455  14   4.325437   4.524711   2.964139  -0.000281   0.157163  -0.001790
 456  14   2.959831   4.444999   2.915164  -0.000186   0.157163  -0.001181
 457   4   4.923677   0.517816   3.575575  -0.000182   0.154113  -0.001182
 458   4   5.931047   1.659340   3.361180   0.000057   0.154113   0.000367
 459   4   6.005246   3.156297   3.018473   0.000022   0.154113   0.000140
 460   4   5.114459   4.366798   2.694407  -0.000037   0.154113  -0.000239
 461   4   3.640651   4.771785   2.527939  -0.000001   0.154113  -0.000007
 462   4   2.430904   4.455095   2.541491   0.000173   0.086176   0.002006
 463  15   6.491573   0.899075  -2.493657  -0.000096   0.068919  -0.001389
 464  15   6.463176   2.001704  -2.625301  -0.000274   0.152926  -0.001792
 465  15   6.615156   3.229873  -2.103217  -0.000136   0.152926  -0.000891
 466  15   6.931366   3.874465  -0.968059  -0.000270   0.152926  -0.001762
 467  15   7.281507   3.669864   0.312413  -0.000299   0.152926  -0.001952
 468  15   7.521299   2.700380   1.210561  -0.000186   0.152926  -0.001215
 469  15   7.551931   1.365503   1.356290  -0.000183   0.152926  -0.001197
 470  15   7.360781   0.215291   0.689549  -0.000336   0.152926  -0.002196
 471   4   6.082053   1.264623  -2.729199  -0.000140   0.151160  -0.000923
 472   4   6.127780   2.767382  -2.601117   0.000001   0.151160   0.000007
 473   4   6.405453   3.878074  -1.618244   0.000122   0.151160   0.000808
 474   4   6.800651   4.139022  -0.185589  -0.000065   0.151160  -0.000432
 475   4   7.150528   3.442699   1.106502  -0.000068   0.151160  -0.000450
 476   4   7.310910   2.076035   1.725602   0.000126   0.151160   0.000831
 477   4   7.215710   0.602185   1.416601  -0.000029   0.151160  -0.000191
 478   4   6.990548  -0.301898   0.619686  -0.000006   0.084199  -0.000072
 479  17  -0.694956   4.615489   2.382110  -0.000500   0.439062  -0.001139
 480   4   1.328921   4.665000   1.766022   0.002465   0.665076   0.003706
 481   5  -0.576287   3.929607  -2.056337   0.002563   0.123209   0.020805
 482   6  -0.924389   4.155607  -1.837263   0.001973   0.123209   0.016013
 483  13   0.394492   4.184811  -1.869072   0.001962   0.123209   0.015925
 484   5  -2.302546   3.383988  -3.079106   0.000203   0.010148   0.019961
 485   6  -2.659303   3.660727  -2.963075   0.000065   0.010148   0.006433
 486  18  -2.922815   3.805464  -2.964716  -0.000012   0.010148  -0.001222
 487   5  -2.974404   2.569851  -3.439703   0.000155   0.010148   0.015254
 488   6  -3.360809   2.810662  -3.339585   0.000026   0.010148   0.002534
 489  18  -3.559742   3.033654  -3.306566  -0.000041   0.010148  -0.004054
 490   6  -1.905629   4.047082  -2.396035   0.001376   0.259824   0.005297
 491   5  -1.608028   3.518808  -2.827959   0.002950   0.237518   0.012419
 492   6  -3.488061   2.326288  -3.417669   0.000730   0.175194   0.004169
 493   6  -4.104165   0.779338  -3.047382   0.002352   0.343995   0.006838
 494   5  -3.173494   1.445073  -3.513378   0.004471   0.331356   0.013492
 495   5  -3.694647  -0.042391  -3.043461   0.002402   0.160112   0.015003
 496   5  -0.423721  -0.955136  -3.616701   0.003244   0.289328   0.011213
 497   8  -0.364169  -1.999614  -3.671328   0.000026   0.289328   0.000088
 498  12   0.502796  -1.359640  -3.761638  -0.000018   0.289328  -0.000063
 499   8  -2.169451  -2.441696  -3.712211   0.000313   0.273876   0.001144
 500   8  -1.143276  -2.314739  -3.926420   0.000001   0.273876   0.000004
 501   5  -1.815601  -0.898798  -3.705329   0.009283   0.677259   0.013706
 502  12   1.024459  -0.703735  -4.143217  -0.000075   0.306161  -0.000244
 503  12   1.583230   0.350568  -4.035121   0.000292   0.306161   0.000955
 504   5   0.028529   0.474945  -3.851401   0.009901   0.753717   0.013136
 505  13   1.747201   3.098749  -3.120450   0.000580   0.227450   0.002551
 506  13   1.246730   4.009062  -2.593354   0.000498   0.457033   0.001090
 507   5   0.230854   2.841904  -3.188801   0.009558   0.562567   0.016990
 508   5  -0.293877   3.791542  -2.526374   0.004115   0.283150   0.014534
 509  18  -3.280897   3.619440  -3.169457  -0.000470   0.242648  -0.001938
 510   5  -2.533503   2.836939  -3.454912   0.002457   0.295785   0.008307
 511   6  -2.719091   1.353397   4.047387  -0.000079   0.074400  -0.001063
 512   7  -2.014390   0.860797   4.151687  -0.000266   0.074400  -0.003580
 513  17  -2.607482   1.631480   4.108980  -0.000226   0.074400  -0.003040
 514   7  -1.906808   0.204537   4.309076  -0.000812   0.195464  -0.004154
 515   7  -2.293585  -0.602133   3.965133  -0.000670   0.195464  -0.003429
 516   6  -3.163381   0.432913   3.851111   0.000067   0.540899   0.000124
 517   6  -5.482712  -0.993315  -0.931434  -0.000250   0.090367  -0.002765
 518  10  -5.180936  -2.010977  -0.699934  -0.000143   0.090367  -0.001586
 519  16  -5.629487  -1.103232  -0.685710  -0.000373   0.090367  -0.004125
 520  10  -5.103622  -2.569863  -0.942377   0.000018   0.064118   0.000277
 521   6  -5.458224  -1.045223  -1.282925   0.000200   0.092020   0.002174
 522  13   0.913452   4.782443  -1.709061   0.000365   0.299821   0.001218
 523  13   1.088384   5.081377  -0.422676   0.000647   0.600978   0.001076
 524   6  -0.962645   4.901014  -1.003871   0.004492   0.883892   0.005082
 525   6  -0.728638   5.108583   0.510521   0.001454   0.446372   0.003258
 526  16  -4.702704  -0.279716   3.214502  -0.000291   0.066538  -0.004377
 527  16  -5.442632   0.493461   3.295949  -0.000552   0.146516  -0.003766
 528  16  -6.387983   1.212079   2.767077  -0.000785   0.146516  -0.005355
 529  16  -7.063170   1.422029   1.676274  -0.000816   0.146516  -0.005569
 530  16  -7.209474   1.042861   0.441514  -0.000619   0.146516  -0.004225
 531  16  -6.770835   0.219865  -0.464069  -0.000472   0.146516  -0.003220
 532  16  -6.108221  -0.569238  -0.764384  -0.000264   0.066538  -0.003963
 533   6  -4.667701   0.269176   3.422501  -0.000323   0.147031  -0.002195
 534   6  -5.730440   1.256236   3.249285  -0.000499   0.147031  -0.003391
 535   6  -6.687952   1.804891   2.292282  -0.000720   0.147031  -0.004899
 536   6  -7.173339   1.704906   0.918198  -0.000599   0.147031  -0.004071
 537   6  -7.000610   0.994595  -0.346448  -0.000335   0.147031  -0.002275
 538   6  -6.235951  -0.053867  -1.017068  -0.000405   0.147031  -0.002751
 539  17  -1.505238   5.138696   1.701030  -0.000224   0.068594  -0.003261
 540  17  -2.535768   5.488961   1.882201  -0.000497   0.151905  -0.003271
 541  17  -3.726744   5.307697   2.456761  -0.000629   0.151905  -0.004144
 542  17  -4.413772   4.475170   3.241803  -0.000822   0.151905  -0.005413
 543  17  -4.318240   3.328994   3.918970  -0.000735   0.151905  -0.004837
 544  17  -3.478889   2.333979   4.213649  -0.000611   0.151905  -0.004019
 545   6  -1.932227   5.328902   1.331012  -0.000321   0.150749  -0.002131
 546   6  -3.356137   5.543559   1.749153  -0.000391   0.150749  -0.002595
 547   6  -4.468994   4.942813   2.554817  -0.000678   0.150749  -0.004495
 548   6  -4.819498   3.770285   3.421284  -0.000712   0.150749  -0.004722
 549   6  -4.265511   2.501472   3.997175  -0.000404   0.150749  -0.002679
 550   6  -3.344531   1.715730   4.129814  -0.000109   0.083803  -0.001300
 551  18  -4.045138   3.106082  -3.337851  -0.000263   0.067258  -0.003913
 552  18  -5.014976   2.651947  -3.125442  -0.000636   0.148854  -0.004276
 553  18  -6.119606   2.608240  -2.402184  -0.000581   0.148854  -0.003905
 554  18  -6.742202   3.180875  -1.387452  -0.000690   0.148854  -0.004637
 555  18  -6.634047   4.141093  -0.486617  -0.000831   0.148854  -0.005583
 556  18  -5.838347   5.105300  -0.059551  -0.000889   0.148854  -0.005971
 557  18  -4.672973   5.688309  -0.276860  -0.000616   0.148854  -0.004136
 558  18  -3.603475   5.657215  -1.051733  -0.000609   0.148854  -0.004090
 559  18  -3.057104   5.024440  -2.074618  -0.000647   0.148854  -0.004349
 560  18  -3.107520   4.242261  -2.834615  -0.000202   0.067258  -0.002999
 561   6  -4.210053   2.543424  -3.268276  -0.000463   0.147856  -0.003133
 562   6  -5.542303   2.137061  -2.755444  -0.000446   0.147856  -0.003019
 563   6  -6.565009   2.450244  -1.726364  -0.000385   0.147856  -0.002603
 564   6  -6.869615   3.357861  -0.592139  -0.000638   0.147856  -0.004315
 565   6  -6.334434   4.497330   0.194123  -0.000790   0.147856  -0.005342
 566   6  -5.173264   5.413450   0.318322  -0.000629   0.147856  -0.004253
 567   6  -3.849976   5.740244  -0.269158  -0.000432   0.147856  -0.002923
 568   6  -2.893205   5.347162  -1.333626  -0.000457   0.147856  -0.003093
 569   6  -2.685169   4.391234  -2.449844  -0.000487   0.147856  -0.003291
 570   7   0.204747   1.858066   3.737544  -0.001182   0.340410  -0.003472
 571  14   1.131884   2.401878   3.553729   0.000203   0.340410   0.000595
 572  17  -0.409521   2.597927   3.526641  -0.000598   0.340410  -0.001757
 573  14   1.957761   2.250794   4.183731  -0.000305   0.304116  -0.001003
 574  14   2.701360   1.146875   4.293442  -0.000909   0.608526  -0.001493
 575   7   0.960669   0.972614   4.348672  -0.001413   0.608526  -0.002321
 576   7   1.700656  -0.138808   4.320853  -0.000315   0.304116  -0.001036
 577  17  -2.253124   1.975884   4.315625  -0.000346   0.316526  -0.001092
 578  17  -1.320342   2.644755   4.105380  -0.000848   0.316526  -0.002680
 579   7  -0.963935   1.195014   4.312743  -0.002611   0.634881  -0.004113
 580  12   2.455960  -3.596330  -3.334759   0.000229   0.282294   0.000810
 581  12   1.797779  -2.798233  -4.052620  -0.000762   0.564690  -0.001350
 582  12   1.046981  -1.799926  -4.211275  -0.000201   0.282294  -0.000711
 583   8   0.985165  -4.213401  -3.520425  -0.000656   0.564690  -0.001161
 584   8   0.106999  -3.093769  -4.066725  -0.001018   0.564690  -0.001803
 585  11   2.933173  -3.603458   2.858682  -0.000177   0.245033  -0.000721
 586  11   3.368659  -4.359463   2.161772  -0.001073   0.489969  -0.002191
 587  11   3.525192  -4.812033   0.885985  -0.000715   0.489969  -0.001459
 588   9   1.870109  -4.759471   2.765705  -0.001013   0.489969  -0.002068
 589   9   2.270607  -5.527266   1.713543  -0.001054   0.489969  -0.002151
 590   9   2.265309  -5.713737   0.612599   0.000031   0.245033   0.000128
 591  16  -5.963865  -1.311705  -0.423556  -0.000318   0.251509  -0.001266
 592  16  -6.234383  -1.519527   0.711792  -0.002038   0.503133  -0.004051
 593  16  -5.802283  -1.467336   2.086834  -0.002070   0.503133  -0.004114
 594  16  -4.936258  -1.187585   2.846522  -0.000538   0.251509  -0.002138
 595  10  -5.561024  -2.740903  -0.115589  -0.001538   0.503133  -0.003056
 596  10  -5.596532  -2.881015   1.319431  -0.002074   0.503133  -0.004123
 597  10  -4.750672  -2.643024   2.463135  -0.001551   0.503133  -0.003084
 598  17  -0.641183   3.437950   3.747456  -0.000096   0.354043  -0.000272
 599  17  -0.531651   4.192673   3.210202  -0.000031   0.354043  -0.000087
 600  14   1.675357   3.514184   3.516926   0.000676   0.705705   0.000958
 =====================================================


   1 warning(s) detected.
     A line exceeding 80 characters begins with "http://cactus.nci.ni".
 There may be a problem in your input file.

              3173552  WORDS OF DYNAMIC MEMORY USED
 EXECUTION OF GAMESS TERMINATED NORMALLY Thu Nov 24 21:20:06 2016
 DDI: 263640 bytes (0.3 MB / 0 MWords) used by master data server.

 ----------------------------------------
 CPU timing information for all processes
 ========================================
 0: 853.32 + 0.328 = 853.360
 ----------------------------------------
 ddikick.x: exited gracefully.
