----- GAMESS execution script -----

          ******************************************************
          *         GAMESS VERSION =  5 DEC 2014 (R1)          *
          *             FROM IOWA STATE UNIVERSITY             *
          * M.W.SCHMIDT, K.K.BALDRIDGE, J.A.BOATZ, S.T.ELBERT, *
          *   M.S.GORDON, J.H.JENSEN, S.KOSEKI, N.MATSUNAGA,   *
          *          K.A.NGUYEN, S.J.SU, T.L.WINDUS,           *
          *       TOGETHER WITH M.DUPUIS, J.A.MONTGOMERY       *
          *         J.COMPUT.CHEM.  14, 1347-1363(1993)        *
          **************** 64 BIT LINUX VERSION ****************

 EXECUTION OF GAMESS BEGUN Thu Nov 24 19:49:08 2016

            ECHO OF THE FIRST FEW INPUT CARDS -
 INPUT CARD>! SELECT RESTRICTED HARTREE-FOCK AS DEFAULT                                     
 INPUT CARD>$contrl scftyp=rhf $end                                                         
 INPUT CARD>                                                                                
 INPUT CARD>! THEORY: HF OR DFT                                                             
 INPUT CARD> $contrl mplevl=0 $end                                                          
 INPUT CARD>                                                                                
 INPUT CARD> $system timlim=10000 mwords=20 $end                                            
 INPUT CARD> $SCF DIRSCF=.TRUE. $end                                                        
 INPUT CARD>                                                                                
 INPUT CARD>                                                                                
 INPUT CARD>! BASIS SETS                                                                    
 INPUT CARD>! 6-311G(d,p)                                                                   
 INPUT CARD> $BASIS GBASIS=N311 NGAUSS=6 NDFUNC=1 NPFUNC=1 $END                             
 INPUT CARD>                                                                                
 INPUT CARD>! One of the following                                                          
 INPUT CARD> $guess guess=HUCKEL $end                                                       
 INPUT CARD>                                                                                
 INPUT CARD> $statpt projct=.FALSE. $end                                                    
 INPUT CARD> $STATPT IFREEZ(1)=1,2,3 $END                                                   
 INPUT CARD>                                                                                
 INPUT CARD>! Optimize the geometry with COSMO effects                                      
 INPUT CARD> $statpt opttol=0.0005 nstep=50 $end                                            
 INPUT CARD> $contrl nzvar=1 $end                                                           
 INPUT CARD> $zmat dlc=.t. auto=.t. $end                                                    
 INPUT CARD> $contrl runtyp=OPTIMIZE maxit=200 $end                                         
 INPUT CARD>                                                                                
 INPUT CARD>! Run COSMO on perfect conductor                                                
 INPUT CARD> $COSGMS PRFCND=.TRUE. $end                                                     
 INPUT CARD>                                                                                
 INPUT CARD>! Specifying RSOLV                                                              
 INPUT CARD> $COSGMS COSRAD = 1.4 $end                                                      
 INPUT CARD>                                                                                
 INPUT CARD>! available memory                                                              
 INPUT CARD> $SYSTEM MWORDS=40 $END                                                         
 INPUT CARD>                                                                                
 INPUT CARD> $DATA                                                                          
 INPUT CARD>http://cactus.nci.nih.gov/chemical/structure/METHYL%20ISOBUTYRATE/file?format=sd
 INPUT CARD>C1                                                                              
 INPUT CARD>C      6.0      0.2502000000    0.2085000000   -0.0920000000                    
 INPUT CARD>C      6.0     -1.1520000000   -0.2340000000   -0.4221000000                    
 INPUT CARD>C      6.0     -1.5113000000   -1.4602000000    0.4194000000                    
 INPUT CARD>C      6.0     -2.1308000000    0.9008000000   -0.1135000000                    
 INPUT CARD>O      8.0      0.4466000000    1.3176000000    0.3452000000                    
 INPUT CARD>O      8.0      1.2804000000   -0.6316000000   -0.2784000000                    
 INPUT CARD>C      6.0      2.6031000000   -0.1381000000    0.0610000000                    
 INPUT CARD>H      1.0     -1.2130000000   -0.4888000000   -1.4801000000                    
 INPUT CARD>H      1.0     -2.5255000000   -1.7803000000    0.1807000000                    
 INPUT CARD>H      1.0     -0.8140000000   -2.2687000000    0.1996000000                    
 INPUT CARD>H      1.0     -1.4503000000   -1.2054000000    1.4774000000                    
 INPUT CARD>H      1.0     -1.8749000000    1.7744000000   -0.7130000000                    
   40000000 WORDS OF MEMORY AVAILABLE

     BASIS OPTIONS
     -------------
     GBASIS=N311         IGAUSS=       6      POLAR=POPN311 
     NDFUNC=       1     NFFUNC=       0     DIFFSP=       F
     NPFUNC=       1      DIFFS=       F     BASNAM=        


     RUN TITLE
     ---------
 http://cactus.nci.nih.gov/chemical/structure/METHYL%20ISOBUTYRATE/file?format=sd

 THE POINT GROUP OF THE MOLECULE IS C1      
 THE ORDER OF THE PRINCIPAL AXIS IS     0

 ATOM      ATOMIC                      COORDINATES (BOHR)
           CHARGE         X                   Y                   Z
 C           6.0     0.4728094421        0.3940078684       -0.1738547909
 C           6.0    -2.1769643379       -0.4421958811       -0.7976533394
 C           6.0    -2.8559428852       -2.7593778873        0.7925510793
 C           6.0    -4.0266281346        1.7022651697       -0.2144838996
 O           8.0     0.8439516261        2.4899029614        0.6523334110
 O           8.0     2.4196051547       -1.1935509338       -0.5260997150
 C           6.0     4.9191457186       -0.2609711589        0.1152732853
 H           1.0    -2.2922376231       -0.9236980628       -2.7969834344
 H           1.0    -4.7725029820       -3.3642791759        0.3414734860
 H           1.0    -1.5382369540       -4.2872213483        0.3771893071
 H           1.0    -2.7406696000       -2.2778757056        2.7918811743
 H           1.0    -3.5430472544        3.3531297926       -1.3473746292
 H           1.0    -5.9431882314        1.0975528537       -0.6657504655
 H           1.0    -3.9113548494        2.1837673514        1.7848461954
 H           1.0     5.3460348193        1.4000979843       -1.0257432661
 H           1.0     4.9720580463        0.2450974606        2.1112018735
 H           1.0     6.3160311688       -1.7277764706       -0.2583255425

          INTERNUCLEAR DISTANCES (ANGS.)




     $CONTRL OPTIONS
     ---------------
 SCFTYP=RHF          RUNTYP=OPTIMIZE     EXETYP=RUN     
 MPLEVL=       0     CITYP =NONE         CCTYP =NONE         VBTYP =NONE    
 DFTTYP=NONE         TDDFT =NONE    
 MULT  =       1     ICHARG=       0     NZVAR =       1     COORD =UNIQUE  
 PP    =NONE         RELWFN=NONE         LOCAL =NONE         NUMGRD=       F
 ISPHER=      -1     NOSYM =       0     MAXIT =     200     UNITS =ANGS    
 PLTORB=       F     MOLPLT=       F     AIMPAC=       F     FRIEND=        
 NPRINT=       7     IREST =       0     GEOM  =INPUT   
 NORMF =       0     NORMP =       0     ITOL  =      20     ICUT  =       9
 INTTYP=BEST         GRDTYP=BEST         QMTTOL= 1.0E-06

     $SYSTEM OPTIONS
     ---------------
  REPLICATED MEMORY=    40000000 WORDS (ON EVERY NODE).
 DISTRIBUTED MEMDDI=           0 MILLION WORDS IN AGGREGATE,
 MEMDDI DISTRIBUTED OVER   1 PROCESSORS IS           0 WORDS/PROCESSOR.
 TOTAL MEMORY REQUESTED ON EACH PROCESSOR=    40000000 WORDS.
 TIMLIM=       10000.00 MINUTES, OR       6.9 DAYS.
 PARALL= F  BALTYP=  DLB     KDIAG=    0  COREFL= F
 MXSEQ2=     300 MXSEQ3=     150  mem10=         0

     $COSGMS OPTIONS
     ---------------
     EPSI  =   INFTY     NSPA  =      92     COSRAD=    1.40
     DISEX =   10.00     OUTCHG=DBLCAV       COSBUG=       F
     COSWRT=       F     DCOSMO=       F

     SYMMETRY COORDINATES WILL NOT BE USED FOR 
     THE COSMO CALCULATION, EVEN IF SPECIFIED:
         -- SWITCHING TO C1 POINT GROUP --


     DEFINITION OF CAVITY
     ---------------------------
     ATOM         COORDINATES           RADIUS 
     1    0.4728    0.3940   -0.1739    2.0000
     2   -2.1770   -0.4422   -0.7977    2.0000
     3   -2.8559   -2.7594    0.7926    2.0000
     4   -4.0266    1.7023   -0.2145    2.0000
     5    0.8440    2.4899    0.6523    1.7200
     6    2.4196   -1.1936   -0.5261    1.7200
     7    4.9191   -0.2610    0.1153    2.0000
     8   -2.2922   -0.9237   -2.7970    1.3000
     9   -4.7725   -3.3643    0.3415    1.3000
    10   -1.5382   -4.2872    0.3772    1.3000
    11   -2.7407   -2.2779    2.7919    1.3000
    12   -3.5430    3.3531   -1.3474    1.3000
    13   -5.9432    1.0976   -0.6658    1.3000
    14   -3.9114    2.1838    1.7848    1.3000
    15    5.3460    1.4001   -1.0257    1.3000
    16    4.9721    0.2451    2.1112    1.3000
    17    6.3160   -1.7278   -0.2583    1.3000

          ----------------
          PROPERTIES INPUT
          ----------------

     MOMENTS            FIELD           POTENTIAL          DENSITY
 IEMOM =       1   IEFLD =       0   IEPOT =       0   IEDEN =       0
 WHERE =COMASS     WHERE =NUCLEI     WHERE =NUCLEI     WHERE =NUCLEI  
 OUTPUT=BOTH       OUTPUT=BOTH       OUTPUT=BOTH       OUTPUT=BOTH    
 IEMINT=       0   IEFINT=       0                     IEDINT=       0
                                                       MORB  =       0
          EXTRAPOLATION IN EFFECT
          SOSCF IN EFFECT
 ORBITAL PRINTING OPTION: NPREO=     1   193     2     1

     -------------------------------
     INTEGRAL TRANSFORMATION OPTIONS
     -------------------------------
     NWORD  =            0
     CUTOFF = 1.0E-09     MPTRAN =       0
     DIRTRF =       T     AOINTS =DUP     

          ----------------------
          INTEGRAL INPUT OPTIONS
          ----------------------
 NOPK  =       1 NORDER=       0 SCHWRZ=       T


 -----------------------------------------------
  STATISTICS ON AUTOMATIC COORDINATE GENERATION 
 -----------------------------------------------
  NUMBER OF USER SPECIFIED BONDS                             0
  NUMBER OF BONDS                                           16
  NUMBER OF ANGLES                                          28
  NUMBER OF TORSIONS                                        29
  NUMBER OF EXTRA COORD.                                     0
  NUMBER OF EXTRA COORD. FOR CONSTRAINTS                     0
  NUMBER OF CONSTRAINED COORD.                               0

  TOTAL NUMBER OF PRIMITIVES                                73
 -----------------------------------------------

   --- ENCODED Z MATRIX ---
 COORD  TYPE   I   J   K   L   M   N
    1      1    1   6
    2      1    1   5
    3      1    1   2
    4      1    2   4
    5      1    2   3
    6      1    2   8
    7      1    3  11
    8      1    3  10
    9      1    3   9
   10      1    4  14
   11      1    4  13
   12      1    4  12
   13      1    6   7
   14      1    7  16
   15      1    7  15
   16      1    7  17
   17      2    1   2   4
   18      2    1   2   8
   19      2    1   6   7
   20      2    1   2   3
   21      2    2   1   5
   22      2    2   3  11
   23      2    2   1   6
   24      2    2   4  12
   25      2    2   4  14
   26      2    2   4  13
   27      2    2   3   9
   28      2    2   3  10
   29      2    3   2   8
   30      2    3   2   4
   31      2    4   2   8
   32      2    5   1   6
   33      2    6   7  17
   34      2    6   7  15
   35      2    6   7  16
   36      2    9   3  10
   37      2    9   3  11
   38      2   10   3  11
   39      2   12   4  13
   40      2   12   4  14
   41      2   13   4  14
   42      2   15   7  17
   43      2   15   7  16
   44      2   16   7  17
   45      3    1   2   3  11
   46      3    1   2   4  14
   47      3    1   6   7  17
   48      3    1   6   7  15
   49      3    1   6   7  16
   50      3    1   2   4  12
   51      3    1   2   3   9
   52      3    1   2   3  10
   53      3    1   2   4  13
   54      3    2   1   6   7
   55      3    3   2   4  12
   56      3    3   2   1   5
   57      3    3   2   1   6
   58      3    3   2   4  13
   59      3    3   2   4  14
   60      3    4   2   3  11
   61      3    4   2   3  10
   62      3    4   2   3   9
   63      3    4   2   1   5
   64      3    4   2   1   6
   65      3    5   1   2   8
   66      3    5   1   6   7
   67      3    6   1   2   8
   68      3    8   2   4  12
   69      3    8   2   3  11
   70      3    8   2   3  10
   71      3    8   2   3   9
   72      3    8   2   4  13
   73      3    8   2   4  14

          INDEP./SYM. INTERNAL COORDINATES
          --------------------------------
 CRD  1=  -0.3034 ( 17) -0.5559 ( 19)  0.2643 ( 20) -0.2209 ( 21)  0.4714 ( 23)
          -0.2502 ( 32)  0.1104 ( 33) -0.1041 ( 45) -0.1029 ( 50) -0.1246 ( 51)
          -0.1363 ( 52)
 CRD  2=   0.1976 (  1)  0.2949 (  3)  0.2323 ( 13) -0.1638 ( 18)  0.3932 ( 19)
           0.3465 ( 20) -0.1125 ( 27)  0.1112 ( 28) -0.3251 ( 30)  0.1745 ( 35)
          -0.1536 ( 46) -0.1230 ( 50) -0.1281 ( 53) -0.3025 ( 54)  0.1293 ( 55)
           0.1973 ( 57)  0.1242 ( 58) -0.1105 ( 63) -0.1538 ( 66)
 CRD  3=   0.1573 (  3) -0.1700 (  5)  0.2854 ( 17) -0.1837 ( 19) -0.1672 ( 22)
           0.1959 ( 23)  0.1609 ( 24) -0.1007 ( 26)  0.1628 ( 29) -0.3792 ( 30)
          -0.1750 ( 32)  0.1252 ( 33)  0.1189 ( 34) -0.1685 ( 35)  0.1317 ( 48)
           0.1070 ( 50)  0.1332 ( 53)  0.3605 ( 54)  0.2133 ( 56)  0.1144 ( 57)
          -0.1163 ( 62) -0.1081 ( 63) -0.2070 ( 64)  0.2620 ( 66)
 CRD  4=  -0.2139 (  1) -0.2194 (  3) -0.1725 (  4) -0.1566 (  5) -0.3037 ( 13)
           0.1832 ( 17) -0.1627 ( 18) -0.3564 ( 19)  0.2361 ( 21) -0.2815 ( 23)
          -0.1606 ( 26) -0.1300 ( 27) -0.2591 ( 30) -0.2261 ( 34)  0.1107 ( 45)
          -0.1043 ( 49) -0.2846 ( 54)  0.1212 ( 57) -0.1218 ( 63) -0.1950 ( 66)
 CRD  5=  -0.1043 (  1) -0.1288 (  3) -0.2228 (  4)  0.1383 (  5) -0.1016 ( 17)
           0.1237 ( 20) -0.1216 ( 23) -0.1682 ( 24)  0.1540 ( 28)  0.1164 ( 32)
          -0.1021 ( 33)  0.2879 ( 47)  0.2971 ( 48)  0.3262 ( 49) -0.1024 ( 53)
           0.1306 ( 54)  0.1550 ( 56)  0.3243 ( 57)  0.1540 ( 63)  0.3233 ( 64)
           0.2995 ( 66)  0.2025 ( 67)
 CRD  6=   0.1069 (  1)  0.2057 (  3)  0.3232 (  4)  0.1289 (  5)  0.2375 ( 17)
          -0.2486 ( 19) -0.1891 ( 20)  0.1278 ( 21)  0.3064 ( 25)  0.1271 ( 30)
          -0.2034 ( 31) -0.2083 ( 32)  0.1788 ( 33) -0.1612 ( 34) -0.1005 ( 40)
          -0.1029 ( 41)  0.1106 ( 45)  0.1597 ( 47)  0.1305 ( 48)  0.1352 ( 51)
           0.1313 ( 52) -0.1833 ( 54) -0.1423 ( 60) -0.1216 ( 61) -0.1178 ( 62)
           0.1472 ( 63)  0.2846 ( 64)  0.1542 ( 67)
 CRD  7=  -0.1213 (  1)  0.1296 (  3)  0.1965 (  4)  0.4443 (  5) -0.1233 ( 13)
           0.1677 ( 20)  0.2515 ( 21)  0.3133 ( 22) -0.1658 ( 23)  0.1643 ( 24)
           0.1419 ( 28)  0.2345 ( 34) -0.2737 ( 35) -0.1145 ( 37) -0.1800 ( 38)
          -0.1665 ( 47)  0.1933 ( 54)  0.1042 ( 55) -0.1199 ( 57)  0.1074 ( 58)
           0.1481 ( 66)
 CRD  8=   0.2722 (  4)  0.2729 (  5) -0.3599 ( 22)  0.2849 ( 24) -0.2916 ( 25)
           0.2495 ( 26)  0.2720 ( 27)  0.3313 ( 28)  0.1110 ( 29) -0.1012 ( 34)
          -0.2172 ( 36) -0.1988 ( 39) -0.1728 ( 55) -0.1221 ( 59)  0.1073 ( 60)
           0.1644 ( 61)
 CRD  9=  -0.1897 (  1)  0.3101 (  3) -0.3407 (  4)  0.1573 (  5)  0.1023 (  9)
           0.3050 ( 21) -0.1547 ( 25)  0.4171 ( 27) -0.1728 ( 28) -0.3145 ( 32)
          -0.2561 ( 33)  0.1119 ( 34)  0.1631 ( 35) -0.1382 ( 37)  0.1276 ( 40)
           0.1114 ( 41)
 CRD 10=  -0.1567 (  1)  0.1878 (  3)  0.1889 (  4) -0.2289 (  5)  0.1044 ( 11)
           0.2605 ( 21) -0.1775 ( 25)  0.4339 ( 26) -0.2829 ( 27) -0.1234 ( 29)
          -0.2023 ( 32) -0.2217 ( 33) -0.1001 ( 34)  0.2849 ( 35)  0.1087 ( 36)
           0.1050 ( 37) -0.1381 ( 39) -0.1217 ( 41)  0.1787 ( 47)  0.1023 ( 48)
           0.1519 ( 49)  0.1036 ( 59)
 CRD 11=  -0.1074 (  4)  0.1487 (  5)  0.1159 ( 12)  0.3610 ( 22)  0.4144 ( 24)
          -0.3144 ( 25) -0.2024 ( 26) -0.2547 ( 28)  0.1321 ( 33) -0.3414 ( 34)
           0.2252 ( 35) -0.1621 ( 37)  0.2075 ( 41) -0.1030 ( 44)  0.2045 ( 47)
           0.1431 ( 48)  0.1118 ( 49)
 CRD 12=  -0.1998 (  1) -0.1270 (  2) -0.1096 (  3)  0.1037 ( 14) -0.1083 ( 16)
           0.1025 ( 18) -0.1061 ( 22)  0.1373 ( 23)  0.2222 ( 24)  0.2569 ( 25)
          -0.3858 ( 26) -0.1682 ( 27)  0.2939 ( 28) -0.3688 ( 33)  0.3569 ( 35)
           0.1097 ( 37) -0.1837 ( 40)  0.1058 ( 42) -0.1035 ( 43) -0.1097 ( 51)
          -0.1012 ( 52)
 CRD 13=   0.2827 (  2)  0.2291 (  3) -0.1336 (  7) -0.1382 ( 15) -0.1148 ( 17)
           0.1029 ( 20)  0.1327 ( 21) -0.2510 ( 22) -0.1761 ( 23) -0.1775 ( 24)
           0.2102 ( 25) -0.1045 ( 26)  0.1029 ( 27)  0.1998 ( 28) -0.1147 ( 29)
           0.2825 ( 33) -0.4127 ( 34) -0.1513 ( 36)  0.1288 ( 39)  0.1150 ( 43)
          -0.1223 ( 44)  0.1524 ( 54)  0.1039 ( 55) -0.1373 ( 57) -0.1322 ( 64)
          -0.1057 ( 67)
 CRD 14=  -0.2366 (  4)  0.1604 (  5) -0.1396 (  9) -0.1285 ( 10)  0.1001 ( 11)
           0.1292 ( 18) -0.1688 ( 20)  0.1471 ( 22) -0.1117 ( 24) -0.2596 ( 25)
           0.1229 ( 26) -0.3641 ( 27)  0.3855 ( 28)  0.1215 ( 29) -0.2349 ( 31)
           0.1331 ( 33) -0.2384 ( 38)  0.1859 ( 40) -0.1014 ( 49) -0.1078 ( 51)
          -0.1330 ( 61) -0.1413 ( 62)  0.1331 ( 63) -0.1326 ( 66) -0.1202 ( 67)
 CRD 15=   0.1464 (  2)  0.1727 (  3) -0.2207 (  5) -0.1307 (  6)  0.1367 ( 12)
          -0.1019 ( 14) -0.1277 ( 17)  0.1608 ( 18)  0.1428 ( 21) -0.2236 ( 22)
           0.3324 ( 24) -0.1651 ( 25) -0.1664 ( 26) -0.2054 ( 29)  0.1774 ( 30)
           0.1699 ( 34) -0.2539 ( 35)  0.1447 ( 37)  0.1165 ( 38)  0.1610 ( 41)
          -0.1159 ( 42)  0.1012 ( 46)  0.1076 ( 50)  0.1071 ( 53) -0.1452 ( 54)
           0.1434 ( 55)  0.1428 ( 58)  0.1369 ( 59)  0.1495 ( 63)  0.1796 ( 64)
           0.1581 ( 65) -0.1144 ( 66)  0.1883 ( 67)
 CRD 16=   0.1235 (  2)  0.2222 (  3)  0.1529 (  6) -0.3450 ( 13)  0.1948 ( 14)
           0.2154 ( 15)  0.2009 ( 16) -0.2066 ( 21)  0.1051 ( 23) -0.1056 ( 28)
           0.1014 ( 32) -0.3011 ( 33) -0.2176 ( 34) -0.2493 ( 35)  0.2425 ( 42)
           0.2453 ( 43)  0.2802 ( 44) -0.1190 ( 45) -0.1324 ( 51) -0.1243 ( 52)
           0.1037 ( 56) -0.1039 ( 61) -0.1119 ( 62)
 CRD 17=   0.6375 (  6) -0.1292 (  8)  0.1028 ( 10) -0.1198 ( 11)  0.1533 ( 22)
           0.1466 ( 25)  0.2007 ( 46)  0.1743 ( 50)  0.2071 ( 53)  0.2323 ( 56)
           0.1378 ( 57)  0.1772 ( 60)  0.1797 ( 61)  0.1561 ( 62)  0.1709 ( 65)
          -0.1553 ( 66)  0.1057 ( 72)
 CRD 18=   0.2102 (  2)  0.1799 (  6)  0.2933 (  7)  0.2005 (  8)  0.1802 (  9)
          -0.2983 ( 10) -0.2390 ( 11) -0.2632 ( 12) -0.1779 ( 14) -0.1933 ( 15)
          -0.1903 ( 16)  0.1529 ( 24)  0.1183 ( 25)  0.1050 ( 26) -0.1054 ( 27)
          -0.1477 ( 28)  0.1025 ( 33)  0.1054 ( 34)  0.1404 ( 36) -0.1348 ( 39)
          -0.1314 ( 40) -0.1099 ( 41) -0.1237 ( 42) -0.1488 ( 45) -0.1561 ( 51)
          -0.1391 ( 52) -0.1008 ( 55) -0.1080 ( 58) -0.1059 ( 59)
 CRD 19=   0.1159 (  5)  0.1964 (  6)  0.4009 (  7)  0.3672 (  8)  0.3106 (  9)
           0.3468 ( 10)  0.2680 ( 11)  0.3109 ( 12) -0.1097 ( 22) -0.1506 ( 26)
          -0.1700 ( 27) -0.1183 ( 28)  0.1521 ( 36)  0.1420 ( 37)  0.1040 ( 38)
           0.1322 ( 39)  0.1225 ( 41)
 CRD 20=  -0.2463 ( 14) -0.3388 ( 15)  0.4304 ( 16)  0.1957 ( 42) -0.5371 ( 43)
           0.2973 ( 44)  0.2718 ( 48) -0.3032 ( 49)
 CRD 21=  -0.4229 ( 14)  0.4067 ( 15)  0.4819 ( 42) -0.3965 ( 44) -0.3640 ( 47)
           0.1680 ( 48)
 CRD 22=  -0.2037 (  2) -0.1738 (  4)  0.1381 (  5) -0.1529 (  6)  0.1732 (  7)
           0.2172 (  8)  0.2402 (  9) -0.2257 ( 10) -0.3177 ( 11) -0.2501 ( 12)
           0.1439 ( 13)  0.3348 ( 14)  0.2978 ( 16)  0.1633 ( 44)  0.1358 ( 45)
          -0.1195 ( 49)  0.1437 ( 51)  0.1353 ( 52)  0.1004 ( 60)  0.1083 ( 62)
           0.1017 ( 68)  0.1122 ( 69)  0.1117 ( 70)  0.1201 ( 71)  0.1092 ( 72)
           0.1068 ( 73)
 CRD 23=   0.1353 (  5) -0.2133 (  6)  0.1103 (  8)  0.2885 (  9)  0.1261 ( 11)
          -0.2420 ( 13) -0.1554 ( 14) -0.2853 ( 15) -0.3802 ( 16)  0.1008 ( 17)
          -0.2039 ( 21)  0.1570 ( 32)  0.1026 ( 35)  0.1445 ( 46) -0.1106 ( 48)
           0.1680 ( 50)  0.1610 ( 53)  0.2119 ( 55)  0.1167 ( 56)  0.2049 ( 58)
           0.1885 ( 59)  0.1833 ( 68)  0.1763 ( 72)  0.1599 ( 73)
 CRD 24=  -0.2722 (  7)  0.4979 (  8) -0.1906 (  9)  0.2016 ( 10)  0.2043 ( 11)
          -0.4328 ( 12)  0.1429 ( 36) -0.2561 ( 37)  0.1035 ( 38) -0.1067 ( 39)
          -0.1043 ( 40)  0.2184 ( 41)  0.1288 ( 45)  0.1274 ( 46) -0.1392 ( 51)
          -0.1033 ( 53) -0.1058 ( 58)  0.1248 ( 59)  0.1300 ( 60) -0.1380 ( 62)
           0.1402 ( 69) -0.1278 ( 71)  0.1356 ( 73)
 CRD 25=  -0.3548 (  8)  0.3807 (  9)  0.4109 ( 10) -0.3956 ( 12)  0.1968 ( 37)
          -0.2106 ( 38) -0.2186 ( 39)  0.2116 ( 41) -0.1263 ( 45) -0.1669 ( 53)
          -0.1721 ( 58) -0.1401 ( 60) -0.1327 ( 69) -0.1596 ( 72)
 CRD 26=   0.3422 (  7) -0.2096 (  8) -0.1154 (  9) -0.2592 ( 10)  0.5412 ( 11)
          -0.2745 ( 12) -0.1849 ( 36)  0.1105 ( 37)  0.1413 ( 39) -0.2859 ( 40)
           0.1425 ( 41)  0.1642 ( 46) -0.1387 ( 50)  0.1178 ( 51) -0.1291 ( 55)
           0.1738 ( 59)  0.1282 ( 62) -0.1273 ( 68)  0.1089 ( 71)  0.1755 ( 73)
 CRD 27=   0.4518 (  7) -0.4453 (  9)  0.3251 ( 10) -0.2761 ( 11) -0.2509 ( 36)
           0.2399 ( 38) -0.1790 ( 39)  0.1454 ( 40)  0.1036 ( 45)  0.1197 ( 50)
           0.1119 ( 51) -0.1535 ( 52)  0.1480 ( 55) -0.1837 ( 61)  0.1172 ( 68)
           0.1088 ( 69) -0.1484 ( 70)  0.1171 ( 71)
 CRD 28=  -0.1111 (  1) -0.4087 (  2)  0.1684 (  3) -0.3510 ( 13) -0.3273 ( 14)
          -0.3265 ( 15)  0.3245 ( 19)  0.2033 ( 23) -0.2242 ( 32) -0.1623 ( 34)
          -0.1751 ( 35)  0.1493 ( 43)  0.1014 ( 61)  0.1175 ( 70)
 CRD 29=  -0.4279 (  1) -0.3016 (  2) -0.2083 (  3)  0.1003 ( 13)  0.2592 ( 16)
           0.2299 ( 19)  0.1445 ( 21) -0.1349 ( 32)  0.2547 ( 33) -0.1634 ( 45)
          -0.1704 ( 51) -0.1903 ( 52)  0.1333 ( 55) -0.1441 ( 60) -0.1710 ( 61)
          -0.1510 ( 62)  0.1157 ( 68) -0.1694 ( 69) -0.1963 ( 70) -0.1764 ( 71)
 CRD 30=  -0.2482 (  6)  0.2167 ( 14) -0.2316 ( 15) -0.1474 ( 34)  0.1351 ( 35)
           0.1175 ( 42) -0.1259 ( 44) -0.2843 ( 47) -0.2229 ( 48) -0.2205 ( 49)
          -0.1173 ( 50) -0.1445 ( 53)  0.2348 ( 54)  0.3264 ( 56)  0.1256 ( 57)
          -0.1108 ( 58)  0.3086 ( 63)  0.1078 ( 64)  0.3168 ( 65)  0.1160 ( 67)
          -0.1240 ( 72)
 CRD 31=   0.3979 (  1) -0.1803 (  3)  0.1460 (  4)  0.1710 (  8) -0.1354 ( 10)
          -0.1637 ( 11) -0.1907 ( 12) -0.1259 ( 16)  0.1503 ( 21)  0.1006 ( 22)
          -0.1793 ( 24) -0.1603 ( 25) -0.1638 ( 26)  0.1389 ( 28) -0.1247 ( 29)
           0.1959 ( 31) -0.1935 ( 32) -0.1181 ( 33) -0.1299 ( 36) -0.1426 ( 38)
           0.1913 ( 39)  0.1664 ( 40)  0.1456 ( 41)  0.2209 ( 65)  0.1878 ( 67)
          -0.2187 ( 69) -0.1907 ( 70) -0.1737 ( 71)
 CRD 32=  -0.1590 (  1) -0.4320 (  2)  0.3043 (  3)  0.1604 (  6)  0.1016 (  8)
           0.1246 (  9) -0.1267 ( 10) -0.1078 ( 12) -0.1005 ( 13)  0.1600 ( 14)
          -0.1732 ( 19) -0.1845 ( 21) -0.1727 ( 23) -0.1026 ( 25) -0.1580 ( 29)
           0.3571 ( 32)  0.1188 ( 33) -0.1381 ( 36)  0.1417 ( 40) -0.1409 ( 43)
          -0.1029 ( 44)  0.1191 ( 65)  0.1122 ( 67) -0.1362 ( 68) -0.1696 ( 72)
          -0.1887 ( 73)
 CRD 33=   0.1418 (  1) -0.1537 (  2)  0.1184 (  4)  0.2569 (  5)  0.3179 (  6)
          -0.2859 (  7) -0.1547 (  8) -0.1679 (  9) -0.2016 ( 10)  0.1459 ( 14)
          -0.1223 ( 15) -0.1150 ( 18) -0.2488 ( 22) -0.1349 ( 25) -0.2017 ( 27)
          -0.1884 ( 28)  0.1470 ( 36)  0.2504 ( 37)  0.2415 ( 38)  0.1132 ( 40)
           0.1710 ( 41)  0.1078 ( 42) -0.1527 ( 47) -0.1130 ( 53)  0.1069 ( 64)
           0.1151 ( 66)  0.1393 ( 68)  0.1253 ( 73)
 CRD 34=   0.3700 (  1) -0.3533 (  2) -0.3804 (  4)  0.1894 (  6)  0.2087 ( 11)
           0.1857 ( 12)  0.1470 ( 13) -0.1961 ( 16)  0.1607 ( 21) -0.1536 ( 23)
           0.1801 ( 24)  0.1592 ( 25)  0.1934 ( 26) -0.2345 ( 39) -0.1405 ( 40)
          -0.1577 ( 41)  0.1509 ( 42)
 CRD 35=  -0.2266 (  1)  0.2771 (  2) -0.1312 (  3) -0.3113 (  5)  0.2466 (  6)
           0.1240 (  8)  0.1690 (  9) -0.1423 ( 10)  0.1612 ( 13)  0.1328 ( 14)
          -0.3592 ( 15) -0.1011 ( 21)  0.1218 ( 23)  0.1218 ( 27)  0.1031 ( 28)
          -0.1199 ( 35) -0.1902 ( 36)  0.1725 ( 42)  0.1390 ( 43) -0.1475 ( 44)
          -0.2248 ( 47)  0.1323 ( 51) -0.1333 ( 56)  0.1183 ( 64) -0.1375 ( 65)
           0.1214 ( 66)  0.1051 ( 71)
 CRD 36=  -0.2666 (  1)  0.1085 (  3)  0.1122 (  5)  0.6277 ( 13) -0.2402 ( 14)
          -0.2256 ( 16) -0.1104 ( 23)  0.1971 ( 32) -0.1617 ( 33) -0.2497 ( 34)
          -0.1883 ( 35)  0.1578 ( 42)  0.1672 ( 43)  0.2747 ( 44)
 CRD 37=  -0.1379 (  1) -0.1049 (  5)  0.3667 ( 14)  0.1329 ( 15) -0.4839 ( 16)
           0.2164 ( 19)  0.2574 ( 33) -0.1743 ( 35)  0.2315 ( 42) -0.3278 ( 43)
           0.3216 ( 48) -0.2263 ( 49)  0.1062 ( 73)
 CRD 38=   0.1752 (  2) -0.3095 (  3)  0.1523 (  6) -0.1397 (  7)  0.1758 (  9)
          -0.1699 ( 10)  0.1628 ( 11) -0.1359 ( 14)  0.3263 ( 15) -0.1442 ( 16)
           0.1537 ( 19)  0.1216 ( 23) -0.1282 ( 32)  0.1069 ( 33) -0.1433 ( 34)
           0.1482 ( 38) -0.1095 ( 39)  0.1516 ( 40) -0.1180 ( 42) -0.1235 ( 43)
           0.1869 ( 44)  0.1450 ( 45) -0.1251 ( 46)  0.1338 ( 47) -0.2163 ( 49)
          -0.1122 ( 53)  0.1680 ( 54)  0.1149 ( 55) -0.1046 ( 61)  0.1961 ( 69)
           0.1504 ( 71) -0.1633 ( 72) -0.1762 ( 73)
 CRD 39=  -0.1802 (  3)  0.2907 (  5)  0.1237 ( 10)  0.1900 ( 11) -0.3103 ( 12)
           0.2204 ( 14) -0.1925 ( 15)  0.1573 ( 18) -0.1162 ( 29)  0.1185 ( 34)
          -0.1170 ( 35)  0.1064 ( 38)  0.1465 ( 40) -0.2455 ( 41)  0.1372 ( 42)
          -0.1364 ( 44) -0.1239 ( 46)  0.1696 ( 48)  0.1486 ( 49)  0.2120 ( 53)
          -0.1852 ( 54)  0.1468 ( 58) -0.1891 ( 59) -0.1285 ( 66)  0.1123 ( 67)
          -0.1203 ( 68)  0.1049 ( 69) -0.3223 ( 73)
 CRD 40=   0.1699 (  1) -0.1270 (  2)  0.3053 (  4) -0.1227 (  5)  0.1888 (  7)
          -0.3369 (  8)  0.2005 (  9) -0.1044 ( 17)  0.1249 ( 18)  0.1585 ( 21)
          -0.1372 ( 23)  0.1050 ( 28) -0.1301 ( 31)  0.1133 ( 36) -0.2988 ( 37)
           0.1225 ( 38)  0.1067 ( 41)  0.1049 ( 45) -0.2868 ( 51)  0.1977 ( 60)
          -0.1939 ( 62) -0.1865 ( 65) -0.1639 ( 67)  0.3105 ( 69)  0.1078 ( 70)
 CRD 41=  -0.2642 (  7)  0.2711 (  9)  0.2333 ( 10) -0.2764 ( 11)  0.1074 ( 17)
           0.1066 ( 22)  0.1342 ( 26) -0.1311 ( 27) -0.1967 ( 36)  0.2195 ( 38)
           0.1730 ( 39) -0.2236 ( 40)  0.1202 ( 45)  0.1244 ( 46) -0.2223 ( 50)
          -0.2195 ( 52) -0.2814 ( 55) -0.2852 ( 61) -0.2493 ( 68) -0.2541 ( 70)
 CRD 42=   0.1802 (  5) -0.2053 ( 10)  0.2579 ( 12)  0.1109 ( 14) -0.1077 ( 15)
          -0.1592 ( 24)  0.1288 ( 25) -0.1313 ( 30)  0.1320 ( 31) -0.1023 ( 35)
          -0.1673 ( 39)  0.1910 ( 41)  0.1674 ( 46)  0.2398 ( 48)  0.2356 ( 49)
          -0.1741 ( 53)  0.1006 ( 56) -0.1411 ( 57) -0.2280 ( 58)  0.1135 ( 59)
          -0.2692 ( 64)  0.1865 ( 65) -0.3313 ( 66) -0.3209 ( 72)
 CRD 43=   0.3009 (  4) -0.1310 (  5) -0.1422 (  7)  0.2372 (  8) -0.1211 ( 17)
           0.1453 ( 20)  0.1393 ( 21)  0.1234 ( 22) -0.1270 ( 23) -0.1739 ( 28)
           0.1749 ( 29) -0.1309 ( 30) -0.1600 ( 31) -0.1283 ( 36)  0.1640 ( 37)
          -0.2812 ( 45) -0.1630 ( 52)  0.2401 ( 56)  0.1002 ( 57) -0.1418 ( 60)
           0.1874 ( 62) -0.1192 ( 65) -0.1324 ( 66) -0.2592 ( 67)  0.1454 ( 70)
           0.3563 ( 71)
 CRD 44=   0.2668 (  3) -0.1483 (  5)  0.1566 (  9)  0.1660 ( 11) -0.1411 ( 17)
          -0.1804 ( 18) -0.1523 ( 26) -0.1283 ( 27)  0.1651 ( 29)  0.1259 ( 30)
           0.1017 ( 38)  0.1204 ( 40)  0.1124 ( 45) -0.1871 ( 46) -0.1116 ( 52)
          -0.1413 ( 58) -0.2775 ( 59)  0.2487 ( 60)  0.1707 ( 62)  0.1261 ( 63)
          -0.1622 ( 66) -0.1419 ( 67)  0.3096 ( 68) -0.2721 ( 70) -0.1260 ( 71)
           0.1972 ( 72)
 CRD 45=  -0.1234 (  5)  0.2191 (  6)  0.1089 (  7)  0.1190 ( 10) -0.1341 ( 18)
           0.1487 ( 20) -0.1020 ( 22) -0.1230 ( 25)  0.1055 ( 30) -0.1241 ( 31)
           0.1133 ( 45) -0.1828 ( 46)  0.1082 ( 47)  0.1557 ( 48)  0.1538 ( 49)
          -0.2588 ( 50)  0.2077 ( 52)  0.1103 ( 54) -0.3048 ( 57)  0.2158 ( 58)
           0.1062 ( 59) -0.1270 ( 60) -0.1954 ( 62)  0.3378 ( 63)  0.1460 ( 65)
          -0.2698 ( 66) -0.2340 ( 67)  0.1246 ( 72)

 THE DETERMINANT OF THE G MATRIX IS 10**(   -21)


                     --------------------
                     INTERNAL COORDINATES
                     --------------------

                 - - ATOMS - -         COORDINATE      COORDINATE
 NO.   TYPE    I  J  K  L  M  N        (BOHR,RAD)       (ANG,DEG)
 ----------------------------------------------------------------
   1 STRETCH   1  6                     2.5366184       1.3423208
   2 STRETCH   1  5                     2.2832235       1.2082299
   3 STRETCH   1  2                     2.8477469       1.5069629
   4 STRETCH   2  4                     2.8913761       1.5300505
   5 STRETCH   2  3                     2.8912099       1.5299625
   6 STRETCH   2  8                     2.0597216       1.0899578
   7 STRETCH   3 11                     2.0597216       1.0899578
   8 STRETCH   3 10                     2.0598980       1.0900512
   9 STRETCH   3  9                     2.0597522       1.0899740
  10 STRETCH   4 14                     2.0597216       1.0899578
  11 STRETCH   4 13                     2.0597381       1.0899665
  12 STRETCH   4 12                     2.0597684       1.0899826
  13 STRETCH   6  7                     2.7438599       1.4519883
  14 STRETCH   7 16                     2.0597660       1.0899813
  15 STRETCH   7 15                     2.0599281       1.0900671
  16 STRETCH   7 17                     2.0597046       1.0899488
  17 BEND      1  2  4                  1.9105776     109.4680337
  18 BEND      1  2  8                  1.9106464     109.4719734
  19 BEND      1  6  7                  2.0420059     116.9983214
  20 BEND      1  2  3                  1.9106758     109.4736613
  21 BEND      2  1  5                  2.0944647     120.0039866
  22 BEND      2  3 11                  1.9106899     109.4744672
  23 BEND      2  1  6                  2.0943139     119.9953486
  24 BEND      2  4 12                  1.9106149     109.4701715
  25 BEND      2  4 14                  1.9106601     109.4727591
  26 BEND      2  4 13                  1.9106129     109.4700547
  27 BEND      2  3  9                  1.9107411     109.4773983
  28 BEND      2  3 10                  1.9106133     109.4700779
  29 BEND      3  2  8                  1.9106899     109.4744672
  30 BEND      3  2  4                  1.9105496     109.4664289
  31 BEND      4  2  8                  1.9106601     109.4727591
  32 BEND      5  1  6                  2.0943963     120.0000669
  33 BEND      6  7 17                  1.9106700     109.4733254
  34 BEND      6  7 15                  1.9106778     109.4737743
  35 BEND      6  7 16                  1.9107153     109.4759240
  36 BEND      9  3 10                  1.9105369     109.4656999
  37 BEND      9  3 11                  1.9106008     109.4693646
  38 BEND     10  3 11                  1.9106174     109.4703152
  39 BEND     12  4 13                  1.9105532     109.4666339
  40 BEND     12  4 14                  1.9106834     109.4740926
  41 BEND     13  4 14                  1.9106750     109.4736119
  42 BEND     15  7 17                  1.9105298     109.4652956
  43 BEND     15  7 16                  1.9105986     109.4692381
  44 BEND     16  7 17                  1.9106078     109.4697658
  45 TORSION   1  2  3 11               1.0471207      59.9955949
  46 TORSION   1  2  4 14              -1.0471991     -60.0000876
  47 TORSION   1  6  7 17              -3.1414836    -179.9937524
  48 TORSION   1  6  7 15              -1.0471654     -59.9981565
  49 TORSION   1  6  7 16               1.0472649      60.0038599
  50 TORSION   1  2  4 12               1.0472626      60.0037294
  51 TORSION   1  2  3  9               3.1415768     179.9990938
  52 TORSION   1  2  3 10              -1.0472776     -60.0045845
  53 TORSION   1  2  4 13               3.1415360     179.9967556
  54 TORSION   2  1  6  7              -3.1415879    -179.9997267
  55 TORSION   3  2  4 12              -3.1415607    -179.9981669
  56 TORSION   3  2  1  5              -2.0942815    -119.9934927
  57 TORSION   3  2  1  6               1.0424022      59.7252455
  58 TORSION   3  2  4 13              -1.0472873     -60.0051407
  59 TORSION   3  2  4 14               1.0471629      59.9980161
  60 TORSION   4  2  3 11              -1.0471812     -59.9990622
  61 TORSION   4  2  3 10              -3.1415794    -179.9992416
  62 TORSION   4  2  3  9               1.0472750      60.0044366
  63 TORSION   4  2  1  5               0.0000032       0.0001817
  64 TORSION   4  2  1  6               3.1366869     179.7189199
  65 TORSION   5  1  2  8               2.0944051     120.0005752
  66 TORSION   5  1  6  7              -0.0049040      -0.2809774
  67 TORSION   6  1  2  8              -1.0520965     -60.2806866
  68 TORSION   8  2  4 12              -1.0471309     -59.9961830
  69 TORSION   8  2  3 11               3.1415927     180.0000000
  70 TORSION   8  2  3 10               1.0471944      59.9998206
  71 TORSION   8  2  3  9              -1.0471365     -59.9965011
  72 TORSION   8  2  4 13               1.0471425      59.9968432
  73 TORSION   8  2  4 14               3.1415927     180.0000000

     ------------------------------------------
     THE POINT GROUP IS C1 , NAXIS= 1, ORDER= 1
     ------------------------------------------

     DIMENSIONS OF THE SYMMETRY SUBSPACES ARE
 A   =  193

 ..... DONE SETTING UP THE RUN .....
 STEP CPU TIME =     0.01 TOTAL CPU TIME =        0.0 (    0.0 MIN)
 TOTAL WALL CLOCK TIME=        0.0 SECONDS, CPU UTILIZATION IS  50.00%


          -----------------------------
          STATIONARY POINT LOCATION RUN
          -----------------------------

 OBTAINING INITIAL HESSIAN, HESS=GUESS   
 DIAGONAL GUESS HESSIAN IN INTERNAL COORDS IS
     1  0.4270     2  0.5542     3  0.3840     4  0.3671     5  0.3672
     6  0.3464     7  0.3464     8  0.3463     9  0.3464    10  0.3464
    11  0.3464    12  0.3464    13  0.3450    14  0.3464    15  0.3463
    16  0.3464    17  0.2501    18  0.2255    19  0.2419    20  0.2501
    21  0.2604    22  0.2241    23  0.2506    24  0.2241    25  0.2241
    26  0.2241    27  0.2241    28  0.2241    29  0.2241    30  0.2485
    31  0.2241    32  0.2592    33  0.2181    34  0.2181    35  0.2181
    36  0.2034    37  0.2034    38  0.2034    39  0.2034    40  0.2034
    41  0.2034    42  0.2034    43  0.2034    44  0.2034    45  0.2500
    46  0.2500    47  0.2500    48  0.2500    49  0.2500    50  0.2500
    51  0.2500    52  0.2500    53  0.2500    54  0.2500    55  0.2500
    56  0.2500    57  0.2500    58  0.2500    59  0.2500    60  0.2500
    61  0.2500    62  0.2500    63  0.2500    64  0.2500    65  0.2500
    66  0.2500    67  0.2500    68  0.2500    69  0.2500    70  0.2500
    71  0.2500    72  0.2500    73  0.2500
 TRANSFORMING HESSIAN TO SYMMETRY COORDINATES

          PARAMETERS CONTROLLING GEOMETRY SEARCH ARE
          METHOD =QA                  UPHESS =BFGS    
          NNEG   =         0          NFRZ   =         3
          NSTEP  =        50          IFOLOW =         1
          HESS   =GUESS               RESTAR =         F
          IHREP  =         0          HSSEND =         F
          NPRT   =         0          NPUN   =         0
          OPTTOL = 5.000E-04          RMIN   = 1.500E-03
          RMAX   = 1.000E-01          RLIM   = 7.000E-02
          DXMAX  = 3.000E-01          PURIFY =         F
          MOVIE  =         F          TRUPD  =         T
          TRMAX  = 5.000E-01          TRMIN  = 5.000E-02
          ITBMAT =         5          STPT   =         F
          STSTEP = 1.000E-02          PROJCT=          F
          FROZEN COORD(S)=   1   2   3


      ***** EQUILIBRIUM GEOMETRY LOCATED *****
            (SUBJECT TO   3 CONSTRAINT(S))
 COORDINATES OF ALL ATOMS ARE (ANGS)
   ATOM   CHARGE       X              Y              Z
 ------------------------------------------------------------
 C           6.0   0.2698092072   0.2269819516  -0.0376622278
 C           6.0  -1.1154922439  -0.2790830023  -0.3893557641
 C           6.0  -1.5418134454  -1.4385461173   0.5262256055
 C           6.0  -2.1000929600   0.8848573130  -0.2920927722
 O           8.0   0.4675769152   1.2623537139   0.5187259274
 O           8.0   1.2585791111  -0.5719342512  -0.3838859323
 C           6.0   2.5620041233  -0.1185067696  -0.0115220353
 H           1.0  -1.0731512808  -0.6456787186  -1.4107924528
 H           1.0  -2.5889639606  -1.6604258167   0.3454949837
 H           1.0  -0.9691352594  -2.3405249847   0.3446811672
 H           1.0  -1.4375893463  -1.1656433600   1.5726351067
 H           1.0  -1.8110189099   1.6985079360  -0.9483432101
 H           1.0  -3.0973565642   0.5583901421  -0.5636305799
 H           1.0  -2.1250642318   1.2674962216   0.7224378672
 H           1.0   2.7452097482   0.8618900415  -0.4269052656
 H           1.0   2.6342306669  -0.0712725750   1.0662109443
 H           1.0   3.2649750030  -0.8335402614  -0.4059760994


                     --------------------
                     INTERNAL COORDINATES
                     --------------------

                 - - ATOMS - -         COORDINATE      COORDINATE
 NO.   TYPE    I  J  K  L  M  N        (BOHR,RAD)       (ANG,DEG)
 ----------------------------------------------------------------
   1 STRETCH   1  6                     2.4897123       1.3174991
   2 STRETCH   1  5                     2.2524032       1.1919205
   3 STRETCH   1  2                     2.8651949       1.5161960
   4 STRETCH   2  4                     2.8868035       1.5276308
   5 STRETCH   2  3                     2.9057533       1.5376585
   6 STRETCH   2  8                     2.0523486       1.0860562
   7 STRETCH   3 11                     2.0530387       1.0864214
   8 STRETCH   3 10                     2.0479648       1.0837364
   9 STRETCH   3  9                     2.0513917       1.0855498
  10 STRETCH   4 14                     2.0495544       1.0845776
  11 STRETCH   4 13                     2.0482819       1.0839042
  12 STRETCH   4 12                     2.0495085       1.0845533
  13 STRETCH   6  7                     2.7011636       1.4293943
  14 STRETCH   7 16                     2.0431391       1.0811827
  15 STRETCH   7 15                     2.0416786       1.0804098
  16 STRETCH   7 17                     2.0362049       1.0775133
  17 BEND      1  2  4                  1.8963219     108.6512439
  18 BEND      1  2  8                  1.8704616     107.1695580
  19 BEND      1  6  7                  2.0081425     115.0580913
  20 BEND      1  2  3                  1.9464502     111.5233802
  21 BEND      2  1  5                  2.1529350     123.3540909
  22 BEND      2  3 11                  1.9363856     110.9467250
  23 BEND      2  1  6                  2.0068302     114.9828984
  24 BEND      2  4 12                  1.9404507     111.1796336
  25 BEND      2  4 14                  1.9211222     110.0721921
  26 BEND      2  4 13                  1.9257742     110.3387316
  27 BEND      2  3  9                  1.8990972     108.8102519
  28 BEND      2  3 10                  1.9620264     112.4158324
  29 BEND      3  2  8                  1.8926162     108.4389221
  30 BEND      3  2  4                  1.9368323     110.9723173
  31 BEND      4  2  8                  1.9200477     110.0106318
  32 BEND      5  1  6                  2.1233822     121.6608411
  33 BEND      6  7 17                  1.8640179     106.8003593
  34 BEND      6  7 15                  1.9201843     110.0184542
  35 BEND      6  7 16                  1.9118157     109.5389700
  36 BEND      9  3 10                  1.8878132     108.1637303
  37 BEND      9  3 11                  1.8799353     107.7123587
  38 BEND     10  3 11                  1.8962293     108.6459382
  39 BEND     12  4 13                  1.8961127     108.6392547
  40 BEND     12  4 14                  1.8833284     107.9067688
  41 BEND     13  4 14                  1.8959104     108.6276646
  42 BEND     15  7 17                  1.9292150     110.5358764
  43 BEND     15  7 16                  1.9095059     109.4066264
  44 BEND     16  7 17                  1.9287074     110.5067918
  45 TORSION   1  2  3 11               0.9203793      52.7338467
  46 TORSION   1  2  4 14              -1.0748920     -61.5867738
  47 TORSION   1  6  7 17              -3.0844907    -176.7283004
  48 TORSION   1  6  7 15              -0.9900974     -56.7284021
  49 TORSION   1  6  7 16               1.1095498      63.5725228
  50 TORSION   1  2  4 12               1.0110307      57.9277947
  51 TORSION   1  2  3  9               2.9856161     171.0631992
  52 TORSION   1  2  3 10              -1.2069276     -69.1518585
  53 TORSION   1  2  4 13               3.1160561     178.5368634
  54 TORSION   2  1  6  7              -3.1051474    -177.9118387
  55 TORSION   3  2  4 12              -3.1260805    -179.1112216
  56 TORSION   3  2  1  5              -1.8596511    -106.5501596
  57 TORSION   3  2  1  6               1.2727145      72.9211696
  58 TORSION   3  2  4 13              -1.0210552     -58.5021528
  59 TORSION   3  2  4 14               1.0711820      61.3742100
  60 TORSION   4  2  3 11              -1.1964951     -68.5541215
  61 TORSION   4  2  3 10               2.9593833     169.5601733
  62 TORSION   4  2  3  9               0.8687417      49.7752309
  63 TORSION   4  2  1  5               0.2806187      16.0782687
  64 TORSION   4  2  1  6              -2.8702010    -164.4504021
  65 TORSION   5  1  2  8               2.3546877     134.9136668
  66 TORSION   5  1  6  7               0.0273904       1.5693548
  67 TORSION   6  1  2  8              -0.7961320     -45.6150040
  68 TORSION   8  2  4 12              -1.0315805     -59.1052078
  69 TORSION   8  2  3 11               2.9759314     170.5083072
  70 TORSION   8  2  3 10               0.8486245      48.6226020
  71 TORSION   8  2  3  9              -1.2420171     -71.1623403
  72 TORSION   8  2  4 13               1.0734449      61.5038610
  73 TORSION   8  2  4 14              -3.1175032    -178.6197762

          INTERNUCLEAR DISTANCES (ANGS.)


 =====================================================
   GAMESS/COSab RESULTS
 =====================================================

   Dielectric Constant                  = INFTY
   Basic Grid Size                      =                 1082
   Number of Segments                   =                   92
   Number of Segments located on spheres=                  247
   Number of Segments of the cavity     =                  591
   Solvent Radius (rsolv)               = 1.40
   Outlying Charge Error Method         = double cavity

 =====================================================

  Total solvated Energy (a.u.)          =  -345.0041023051
  Total Energy corrected (a.u.)         =  -345.0038560062

  Outlying charge effect (a.u.)         =     0.0002462989
  Outlying charge effect (kcal/mol)     =     0.1545549966

  Dielectric Energy (a.u.)              =    -0.0116677274
  Dielectric energy corr. (a.u.)        =    -0.0114214285

  Sum of polarization charges           =     0.0213873600
  Sum of polarization charges(cor.)     =    -0.0213873600

  Total surface area of cavity (A**2)   =  147.43
  Total volume of cavity (A**3)         =  139.13

 =====================================================
 NPS=                   591
NR.  ATOM  (X, Y, Z)(a.u.)                  CHARGE(e)  AREA(A**2) SIGMA(e/A**2)
   1   1   1.162086   3.144945  -2.617182  -0.000181   0.139368  -0.001297
   2   1   1.068756   0.881735  -3.781554  -0.002239   0.325193  -0.006886
   3   1   1.811245   2.915882  -2.602137  -0.000344   0.139368  -0.002468
   4   1   1.262567  -1.141671   3.283060  -0.000920   0.092912  -0.009901
   5   1   1.662069   1.774375  -3.409813  -0.001839   0.232280  -0.007918
   6   1   1.472454   2.473163  -3.100833  -0.001210   0.185824  -0.006513
   7   1   0.629540   2.623825  -3.145650  -0.001458   0.232280  -0.006275
   8   1   0.544710   1.757790  -3.609141  -0.003031   0.325193  -0.009320
   9   1   0.948207  -0.214264   3.627255  -0.000489   0.139368  -0.003512
  10   2  -1.271304   1.031180  -4.075701  -0.000216   0.092912  -0.002327
  11   2  -4.631993  -2.192661  -3.003045  -0.000184   0.092912  -0.001975
  12   2  -4.652635  -1.846164  -3.199480  -0.000073   0.046456  -0.001568
  13   3  -1.379621  -5.002458   3.585665   0.001550   0.418105   0.003708
  14   3  -3.681748  -4.658885  -2.156604   0.000184   0.185824   0.000992
  15   3  -4.053031  -6.322047   1.008017   0.001214   0.418105   0.002903
  16   3  -4.891826  -3.858103   4.006428   0.000919   0.371649   0.002474
  17   3   0.032256  -3.990328   2.991547   0.000457   0.232280   0.001968
  18   3  -5.726483  -3.728599   3.307788   0.000972   0.371649   0.002617
  19   3  -4.889610  -5.929075   0.726697   0.000706   0.278737   0.002533
  20   3  -4.554115  -4.823424  -1.681794   0.000710   0.325193   0.002183
  21   3  -0.362498  -4.640382   3.014901   0.000607   0.232280   0.002612
  22   3  -0.734310  -4.043331   3.783627   0.001075   0.325193   0.003307
  23   3  -4.652273  -3.957493  -2.124247   0.000210   0.232280   0.000904
  24   3  -3.646118  -5.528474  -1.424570   0.000907   0.325193   0.002789
  25   3  -4.070873  -6.086451  -0.271150   0.001254   0.325193   0.003856
  26   3  -4.646601  -5.877353   2.135672   0.000807   0.464561   0.001737
  27   3  -4.837266  -4.932569   3.378030   0.000713   0.464561   0.001534
  28   3  -5.528514  -2.612403   3.721200   0.001404   0.371649   0.003777
  29   3  -5.449100  -1.403404   3.469535   0.000720   0.232280   0.003099
  30   3  -2.816729  -4.937103  -2.063762   0.000590   0.325193   0.001815
  31   3  -3.397160  -6.249695   2.251751   0.000621   0.418105   0.001485
  32   3  -2.448061  -5.736410   3.221429   0.000791   0.418105   0.001892
  33   3  -2.562062  -4.926408   4.041665   0.000942   0.464561   0.002028
  34   3  -3.911094  -4.548638   4.147165   0.000438   0.325193   0.001346
  35   3  -0.094000  -3.242049   3.456115   0.000183   0.185824   0.000984
  36   3  -5.351726  -5.142404   2.564260   0.000327   0.278737   0.001172
  37   3  -4.505990  -5.581617  -0.889971   0.000925   0.278737   0.003318
  38   3  -6.061214  -2.004106   2.960780   0.000975   0.325193   0.002997
  39   3  -3.753676  -5.593173   3.299771   0.000490   0.464561   0.001054
  40   4  -7.218039   2.398205   1.236414   0.001655   0.371649   0.004452
  41   4  -4.639934   1.283015  -4.250906   0.000476   0.232280   0.002048
  42   4  -6.681797   3.580618  -2.363204   0.001272   0.371649   0.003422
  43   4  -4.777748   5.148221   0.691580   0.001123   0.371649   0.003021
  44   4  -6.697922   0.639720   1.849956   0.000906   0.278737   0.003250
  45   4  -4.264044   5.422391  -0.187843   0.001058   0.325193   0.003254
  46   4  -5.892534   3.987088  -2.837525   0.000907   0.278737   0.003255
  47   4  -4.314277   2.186702  -4.280235   0.000617   0.232280   0.002654
  48   4  -7.178425   1.163733   1.377508   0.000825   0.232280   0.003552
  49   4  -6.772592   1.931863   1.968846   0.001186   0.278737   0.004255
  50   4  -3.409679   1.828264  -4.286598   0.000348   0.232280   0.001496
  51   4  -5.317124   1.789651  -4.080699   0.001157   0.325193   0.003559
  52   4  -6.268418   3.031101  -3.225607   0.001450   0.325193   0.004458
  53   4  -6.253973   4.510041  -1.555800   0.001101   0.464561   0.002371
  54   4  -5.610040   5.061427  -0.231509   0.000971   0.464561   0.002090
  55   4  -3.487106   5.197108   0.723575   0.001127   0.278737   0.004044
  56   4  -5.245050   0.673669  -3.966349   0.000639   0.278737   0.002293
  57   4  -7.137749   3.655307  -1.106816   0.000871   0.418105   0.002083
  58   4  -7.299187   3.254156   0.277937   0.001081   0.418105   0.002586
  59   4  -6.715402   3.559195   1.230845   0.001379   0.464561   0.002968
  60   4  -5.832226   4.608713   0.927132   0.000714   0.325193   0.002196
  61   4  -6.295646   1.158371   2.381497   0.000628   0.185824   0.003382
  62   4  -5.400340   5.110663  -1.193030   0.000525   0.278737   0.001883
  63   4  -5.402023   2.741673  -3.881482   0.001115   0.278737   0.004000
  64   4  -3.168316   5.324241   0.001154   0.000568   0.139368   0.004075
  65   4  -5.413330  -0.061941  -3.583468   0.000169   0.139368   0.001214
  66   4  -6.096270   2.102717  -3.645818   0.000783   0.232280   0.003370
  67   4  -6.634785   4.316457  -0.123771   0.000759   0.464561   0.001634
  68   5   1.331329   5.231591   2.484913   0.005199   0.377948   0.013755
  69   5  -0.409096   2.995227   3.899472   0.003114   0.206154   0.015105
  70   5   1.412964   5.051295  -0.802444   0.004100   0.309230   0.013258
  71   5   2.106476   2.325139   3.991156   0.002761   0.171795   0.016069
  72   5   0.606712   4.674100   3.271614   0.005809   0.412307   0.014088
  73   5  -0.253404   3.962148   3.585266   0.006005   0.343589   0.017478
  74   5   0.311648   5.373408   2.124804   0.005036   0.343589   0.014657
  75   5  -0.445545   5.269855   1.672061   0.005216   0.274871   0.018975
  76   5   1.443667   5.568410   1.326829   0.005675   0.412307   0.013763
  77   5   1.683289   5.434247   0.186315   0.005176   0.377948   0.013696
  78   5   2.426978   5.032806   2.063964   0.005492   0.377948   0.014532
  79   5   3.173968   4.600290   1.623346   0.005199   0.274871   0.018913
  80   5   1.980127   4.475116   3.215381   0.006266   0.446666   0.014029
  81   5   2.361341   3.427395   3.681247   0.006355   0.412307   0.015413
  82   5  -0.263668   5.411602   0.678233   0.003622   0.206154   0.017568
  83   5   0.526362   5.287872  -0.438667   0.004696   0.309230   0.015187
  84   5   2.447654   4.881126  -0.394615   0.004510   0.274871   0.016408
  85   5   1.421233   2.683315   4.171943   0.004616   0.343589   0.013435
  86   5   0.444499   2.900117   4.159405   0.004636   0.343589   0.013493
  87   5   0.936000   4.467981  -1.514786   0.002926   0.206154   0.014192
  88   5   1.741639   4.413265  -1.410692   0.003057   0.240512   0.012710
  89   5   1.336428   1.493502   4.072806   0.002685   0.206154   0.013025
  90   5  -0.330914   2.134687   3.984699   0.003315   0.206154   0.016080
  91   5  -0.484682   4.769221   2.715303   0.005118   0.309230   0.016549
  92   5   0.537798   5.608334   0.738419   0.004917   0.343589   0.014312
  93   5   2.656356   5.103940   0.801104   0.005526   0.377948   0.014620
  94   5   3.038664   4.044146   2.760486   0.006379   0.377948   0.016878
  95   5   1.049581   3.806884   3.898605   0.004620   0.343589   0.013445
  96   5   0.598521   1.694475   4.143453   0.003462   0.274871   0.012595
  97   6   2.573494  -2.170470  -3.781456   0.003255   0.240512   0.013535
  98   6   2.198163  -4.112265  -1.884050   0.003102   0.206154   0.015045
  99   6   3.261263  -2.747667  -3.372465   0.003080   0.274871   0.011206
 100   6   3.333035  -3.954149  -1.907442   0.002322   0.206154   0.011262
 101   6   2.828180  -4.219923  -1.438329   0.002935   0.206154   0.014237
 102   6   2.110660  -3.126043  -3.237406   0.004653   0.309230   0.015046
 103   6   1.833247  -3.736555  -2.518327   0.004796   0.274871   0.017449
 104   6   2.592089  -4.316479  -0.503365   0.002139   0.137436   0.015564
 105   6   2.862130  -4.058386   0.484749   0.001668   0.137436   0.012140
 106   6   3.121396  -1.513367  -3.860005   0.003123   0.240512   0.012985
 107   6   1.935279  -2.356253  -3.682053   0.002338   0.137436   0.017009
 108   6   2.500172  -3.615406   1.305698   0.000897   0.068718   0.013047
 109   6   2.317853  -0.440753  -3.911562   0.001221   0.137436   0.008881
 110   6   2.119927  -1.222799  -3.962372   0.003387   0.274871   0.012324
 111   6   3.078511  -3.542982  -2.728469   0.004914   0.377948   0.013002
 112   6   3.209383  -4.216208  -0.517454   0.002792   0.240512   0.011608
 113   6   2.824001  -0.293194  -3.847266   0.001654   0.206154   0.008024
 114   7   4.492639  -3.716942   1.378794  -0.000432   0.325193  -0.001327
 115   7   7.664949  -1.504156   2.140032  -0.000234   0.464561  -0.000503
 116   7   5.573814  -0.073394  -3.726542  -0.000229   0.278737  -0.000822
 117   7   6.880817   1.987786   2.265930  -0.000728   0.371649  -0.001960
 118   7   8.486963   0.495602  -0.712439  -0.000880   0.325193  -0.002708
 119   7   5.186065  -3.939276   0.579818  -0.000790   0.464561  -0.001701
 120   7   4.192950  -3.070613   2.378263  -0.000674   0.464561  -0.001451
 121   7   3.642033  -2.476230   2.766201  -0.000348   0.139368  -0.002499
 122   7   5.421261  -3.432185   1.890129   0.000002   0.371649   0.000004
 123   7   6.690402  -2.712918   2.139436   0.000239   0.278737   0.000859
 124   7   8.000052   1.419948  -1.288788  -0.000556   0.325193  -0.001711
 125   7   6.479302   2.851746   1.441743  -0.000580   0.371649  -0.001562
 126   7   5.765847   0.942951  -3.495701  -0.000032   0.371649  -0.000086
 127   7   6.800811  -2.135772   2.584038   0.000003   0.232280   0.000011
 128   7   7.588976  -2.351274   1.464859  -0.000343   0.278737  -0.001232
 129   7   4.688659   0.502066  -3.727690  -0.000507   0.371649  -0.001365
 130   7   5.730143   2.723597   2.170595   0.000257   0.371649   0.000691
 131   7   7.567553   2.111773   1.160258  -0.001355   0.464561  -0.002916
 132   7   8.312566   1.269006   0.061567  -0.001614   0.464561  -0.003474
 133   7   7.787032   0.723109  -2.192285   0.000021   0.325193   0.000063
 134   7   6.617472   0.063286  -3.345575   0.000165   0.278737   0.000592
 135   7   6.039861  -0.850917  -3.550952  -0.000279   0.325193  -0.000859
 136   7   4.887757  -0.847220  -3.749196  -0.000312   0.278737  -0.001121
 137   7   7.708621   1.192473   1.992558  -0.001371   0.418105  -0.003278
 138   7   7.864486  -0.190069   2.246395  -0.000946   0.325193  -0.002910
 139   7   8.355330  -0.921598   1.182580  -0.001255   0.511017  -0.002456
 140   7   8.616022  -0.163162   0.161158  -0.001526   0.418105  -0.003650
 141   7   8.250070   0.174734  -1.605090  -0.000407   0.278737  -0.001459
 142   7   4.751987  -3.969940  -0.515576  -0.000086   0.092912  -0.000923
 143   7   5.530105  -2.829256   2.628217   0.000003   0.278737   0.000011
 144   7   6.379343  -3.308461   1.529056  -0.000012   0.278737  -0.000044
 145   7   7.808232   2.115268   0.081787  -0.001036   0.278737  -0.003717
 146   7   4.147526   1.265250  -3.425442  -0.000586   0.232280  -0.002524
 147   7   7.025948   0.991128  -2.856555   0.000136   0.325193   0.000418
 148   7   5.183107  -1.855998  -3.413530  -0.000530   0.278737  -0.001902
 149   7   8.309356   0.517670   1.285185  -0.002019   0.511017  -0.003951
 150   7   7.341060  -0.068687  -2.852376   0.000020   0.278737   0.000071
 151   8  -2.058433  -1.957810  -5.009085  -0.003407   0.471065  -0.007233
 152   8  -3.270992  -1.008318  -4.774348  -0.001584   0.294415  -0.005381
 153   8  -3.464170  -2.696879  -4.004556  -0.001615   0.353299  -0.004570
 154   8  -1.302578  -3.285467  -3.781081  -0.002214   0.333671  -0.006634
 155   8  -1.461013  -0.125428  -4.790907  -0.001855   0.372926  -0.004973
 156   8  -3.400659  -1.929621  -4.575842  -0.002716   0.451437  -0.006017
 157   8  -2.340341  -3.071889  -4.249863  -0.002728   0.451437  -0.006042
 158   8  -0.977365  -2.451980  -4.513686  -0.002883   0.431809  -0.006676
 159   8  -0.893688  -1.224105  -4.845103  -0.003200   0.451437  -0.007089
 160   8  -2.332671  -0.631564  -5.031549  -0.002256   0.451437  -0.004998
 161   9  -7.196217  -3.945597   0.378946  -0.002988   0.451437  -0.006618
 162   9  -6.991860  -2.455169   1.730668  -0.001455   0.314043  -0.004633
 163   9  -6.700942  -4.058841   2.037076  -0.001227   0.353299  -0.003474
 164   9  -6.136907  -5.221111   0.270860  -0.001212   0.372926  -0.003250
 165   9  -6.014648  -3.953881  -1.374336  -0.001104   0.333671  -0.003309
 166   9  -7.334769  -2.914336   0.510821  -0.002653   0.372926  -0.007113
 167   9  -7.093178  -3.308944   1.731088  -0.001517   0.333671  -0.004546
 168   9  -6.633060  -4.777439   1.215656  -0.002208   0.471065  -0.004688
 169   9  -6.399543  -4.663680  -0.545118  -0.002088   0.451437  -0.004626
 170   9  -6.793362  -3.484751  -0.864064  -0.002576   0.392554  -0.006562
 171  10  -0.939847  -6.693754   0.362015  -0.002956   0.451437  -0.006547
 172  10  -0.071090  -5.621957   1.875612  -0.001597   0.392554  -0.004067
 173  10  -1.018799  -5.555044  -1.371814  -0.001791   0.333671  -0.005368
 174  10  -2.320272  -6.657565  -0.244538  -0.001392   0.372926  -0.003732
 175  10  -1.810497  -6.652281   1.683215  -0.001307   0.372926  -0.003505
 176  10   0.034600  -6.017782   0.749835  -0.002807   0.412182  -0.006809
 177  10  -0.418190  -6.065292  -0.506537  -0.002779   0.412182  -0.006742
 178  10  -1.689313  -6.257367  -0.976490  -0.001695   0.412182  -0.004112
 179  10  -2.161380  -6.856302   0.722198  -0.001626   0.392554  -0.004142
 180  10  -0.874811  -6.353252   1.832021  -0.001828   0.412182  -0.004436
 181  11  -2.734356  -1.921621   5.412296  -0.002960   0.471065  -0.006283
 182  11  -0.937495  -2.554500   4.628951  -0.001187   0.333671  -0.003558
 183  11  -2.404855  -3.426292   5.079185  -0.001429   0.392554  -0.003640
 184  11  -4.191005  -2.201429   4.936897  -0.001241   0.372926  -0.003328
 185  11  -1.524028  -1.484428   4.995898  -0.003017   0.431809  -0.006987
 186  11  -1.681781  -2.862990   5.099818  -0.001666   0.372926  -0.004467
 187  11  -3.468458  -3.031322   5.158947  -0.001741   0.431809  -0.004032
 188  11  -3.957217  -1.210730   4.845886  -0.002313   0.471065  -0.004910
 189  11  -2.617107  -0.746282   4.947679  -0.003421   0.471065  -0.007262
 190  12  -3.063426   5.135201  -3.274946  -0.002963   0.490692  -0.006038
 191  12  -3.760889   5.642337  -1.738546  -0.001037   0.353299  -0.002935
 192  12  -4.641961   4.572769  -3.432141  -0.000951   0.372926  -0.002549
 193  12  -3.169781   3.396854  -4.228556  -0.001201   0.412182  -0.002913
 194  12  -2.001129   4.852724  -2.939195  -0.002537   0.412182  -0.006155
 195  12  -2.656962   5.543933  -1.819790  -0.002459   0.529948  -0.004640
 196  12  -4.244458   5.349879  -2.674683  -0.001906   0.471065  -0.004045
 197  12  -3.832146   4.219983  -3.993587  -0.001982   0.471065  -0.004207
 198  12  -2.198589   3.867137  -3.818271  -0.002791   0.510320  -0.005470
 199  13  -8.162260   0.743016  -1.843338  -0.002872   0.471065  -0.006096
 200  13  -7.916030   0.616173   0.194588  -0.001360   0.412182  -0.003300
 201  13  -6.791120  -0.369813  -2.832778  -0.001547   0.353299  -0.004380
 202  13  -7.429075   1.563316  -2.879882  -0.001185   0.372926  -0.003178
 203  13  -7.987873   2.268895  -1.135769  -0.000719   0.274788  -0.002617
 204  13  -8.072665   0.028920  -0.829381  -0.002400   0.392554  -0.006114
 205  13  -7.643941  -0.371292  -1.955765  -0.002602   0.412182  -0.006313
 206  13  -7.211829   0.552752  -3.049209  -0.001618   0.431809  -0.003748
 207  13  -7.877622   1.990712  -2.095370  -0.001458   0.392554  -0.003715
 208  13  -8.223794   1.478991  -0.579804  -0.002029   0.490692  -0.004136
 209  14  -4.599949   3.400879   3.529122  -0.002199   0.392554  -0.005601
 210  14  -5.398743   1.885354   3.330563  -0.001131   0.314043  -0.003602
 211  14  -5.649142   3.645978   2.707918  -0.000875   0.314043  -0.002785
 212  14  -3.796958   4.636083   2.347918  -0.001085   0.314043  -0.003456
 213  14  -4.469608   2.284847   3.777055  -0.002082   0.353299  -0.005893
 214  14  -5.674861   2.778017   3.136105  -0.001137   0.372926  -0.003049
 215  14  -4.884995   4.361052   2.554777  -0.001441   0.431809  -0.003337
 216  14  -3.666780   4.013424   3.180340  -0.002216   0.392554  -0.005644
 217  14  -3.476241   2.814182   3.724971  -0.002420   0.372926  -0.006488
 218  15   6.060347   3.577673  -2.021328  -0.003409   0.431809  -0.007894
 219  15   5.800317   2.505946  -3.018133  -0.001934   0.372926  -0.005187
 220  15   7.140925   2.963047  -1.469758  -0.002559   0.412182  -0.006208
 221  15   5.867717   3.819311   0.073088  -0.002583   0.392554  -0.006579
 222  15   4.810083   2.863967  -2.896405  -0.003069   0.451437  -0.006799
 223  15   6.731040   2.601709  -2.451877  -0.002211   0.392554  -0.005632
 224  15   6.775443   3.490302  -0.585968  -0.002996   0.471065  -0.006361
 225  15   5.508773   4.059767  -0.955508  -0.003206   0.392554  -0.008166
 226  15   4.876060   3.745550  -2.013844  -0.003516   0.412182  -0.008530
 227  16   5.468719  -0.166711   4.421755  -0.004133   0.510320  -0.008099
 228  16   6.160790  -1.436627   3.729778  -0.001920   0.372926  -0.005148
 229  16   4.190948  -1.600746   3.822140  -0.002183   0.372926  -0.005854
 230  16   5.281038   1.652820   3.672568  -0.001959   0.314043  -0.006237
 231  16   6.796545   0.429126   3.567270  -0.002151   0.372926  -0.005769
 232  16   5.176797  -1.517496   4.035582  -0.002689   0.431809  -0.006228
 233  16   4.055306  -0.454972   4.268984  -0.003511   0.451437  -0.007777
 234  16   4.724145   0.731940   4.299486  -0.003509   0.431809  -0.008127
 235  16   6.102526   1.160657   3.773412  -0.002658   0.431809  -0.006156
 236  16   6.599145  -0.517568   3.820478  -0.002481   0.392554  -0.006320
 237  17   7.785762  -3.229518  -1.596164  -0.005433   0.608459  -0.008929
 238  17   5.996336  -3.801277  -1.791585  -0.002428   0.372926  -0.006511
 239  17   6.969317  -3.753196   0.040434  -0.001934   0.353299  -0.005473
 240  17   8.438140  -2.265388  -0.123909  -0.002213   0.353299  -0.006264
 241  17   8.218117  -1.368501  -2.107772  -0.002247   0.372926  -0.006025
 242  17   6.684706  -2.349243  -3.041133  -0.002262   0.412182  -0.005489
 243  17   6.640119  -3.981244  -0.924650  -0.003390   0.490692  -0.006908
 244  17   7.911748  -3.178212  -0.110425  -0.003406   0.490692  -0.006942
 245  17   8.563551  -1.945279  -1.177736  -0.003727   0.510320  -0.007304
 246  17   7.689174  -2.093352  -2.626851  -0.003625   0.510320  -0.007103
 247  17   6.545963  -3.283309  -2.492264  -0.003569   0.471065  -0.007577
 248   1  -0.171593   0.746185  -3.880599  -0.000469   0.030239  -0.015496
 249   2  -0.616239   0.592948  -4.033087  -0.000353   0.030239  -0.011678
 250   8  -0.708918   0.342660  -4.176339  -0.000274   0.030239  -0.009075
 251   1  -0.683324   1.961940  -3.459395  -0.001257   0.106417  -0.011808
 252   2  -1.133043   1.808296  -3.606077  -0.000807   0.106417  -0.007579
 253  12  -1.519094   2.459331  -3.543947  -0.000608   0.106417  -0.005710
 254   2  -0.776604   1.221431  -3.847796  -0.001082   0.155748  -0.006950
 255   1  -0.055320   1.293941  -3.738319  -0.001405   0.155748  -0.009024
 256   1   1.466050  -1.915226   2.758124  -0.001120   0.116028  -0.009654
 257   3   0.800342  -2.408741   2.816479  -0.000923   0.116028  -0.007953
 258   7   2.216672  -1.959012   2.641759  -0.000542   0.116028  -0.004671
 259   1   0.475868  -1.777774   3.274389  -0.000803   0.067551  -0.011894
 260   3  -0.076531  -2.348222   3.525247  -0.000301   0.067551  -0.004462
 261  11  -0.259970  -2.235360   3.740741  -0.000281   0.067551  -0.004167
 262   3   0.227512  -2.624015   3.345409  -0.000194   0.135249  -0.001437
 263   1   1.035439  -1.772299   3.135231  -0.000850   0.135249  -0.006287
 264   1   0.142784   0.076336   3.711527  -0.000288   0.082227  -0.003503
 265   5   0.208391   0.463186   3.750688   0.000246   0.082227   0.002992
 266  11  -0.613117  -0.499267   3.958365  -0.000658   0.082227  -0.008002
 267   1   0.125017   3.596304  -2.230494   0.000226   0.113081   0.001998
 268   5   0.192788   3.877729  -1.957856   0.000848   0.113081   0.007503
 269  12  -0.783897   3.920395  -2.371522   0.000108   0.113081   0.000952
 270   1   2.342694   3.163826  -2.076701   0.000163   0.105224   0.001549
 271   5   2.374763   3.459854  -1.813667   0.000965   0.105224   0.009172
 272  15   3.266839   3.171000  -2.013308  -0.000274   0.105224  -0.002602
 273   1   1.827385   0.207746   3.542946   0.000012   0.108381   0.000114
 274   5   1.874651   0.591436   3.635200   0.000894   0.108381   0.008245
 275  16   2.761432   0.125178   3.642709  -0.000253   0.108381  -0.002337
 276   5   1.468962   3.792259  -1.858818   0.001630   0.176661   0.009227
 277   1   1.126637   3.430528  -2.240877   0.000457   0.188503   0.002423
 278   5   0.949957   0.826686   3.844219   0.001008   0.113461   0.008882
 279   1   1.039941   0.265581   3.679512   0.000329   0.121067   0.002721
 280   1   2.451447   1.000715  -3.371723  -0.000196   0.053565  -0.003650
 281   6   2.769935   0.706106  -3.434985   0.000129   0.053565   0.002401
 282   7   3.206048   0.885868  -3.359979  -0.000058   0.053565  -0.001082
 283   1   0.798231  -0.193079  -3.822674  -0.000475   0.085954  -0.005530
 284   6   1.136789  -0.473238  -3.809854   0.000175   0.085954   0.002033
 285   8   0.186286  -0.537462  -4.037982  -0.000690   0.085954  -0.008027
 286   6   1.975036  -0.000038  -3.727882   0.001043   0.217194   0.004801
 287   1   1.708044   0.634108  -3.618424  -0.000616   0.231753  -0.002659
 288   1   2.846014   1.931462  -2.916114  -0.000582   0.059490  -0.009788
 289   7   3.602243   1.850304  -2.970472  -0.000458   0.059490  -0.007695
 290  15   3.756654   2.094470  -2.884573  -0.000443   0.059490  -0.007449
 291   1   2.262993  -1.564557   2.894674  -0.000498   0.057340  -0.008688
 292   7   3.006273  -1.719604   2.963371  -0.000459   0.057340  -0.007996
 293  16   3.167455  -1.556361   3.159123  -0.000570   0.057340  -0.009945
 294   7   3.447289   1.322677  -3.305130  -0.000432   0.213272  -0.002026
 295   1   2.393120   1.637903  -3.250493  -0.000975   0.213272  -0.004570
 296   7   2.892527  -1.885965   2.932186  -0.000054   0.025326  -0.002116
 297   1   1.813686  -1.740323   2.908928  -0.000140   0.025326  -0.005510
 298   8  -0.555888  -0.082983  -4.312842  -0.001427   0.196300  -0.007270
 299   1   0.407255   0.319922  -3.938448  -0.001621   0.276944  -0.005853
 300  11  -0.547687  -1.721248   4.121354  -0.002214   0.412706  -0.005364
 301   1   0.442944  -0.723866   3.663844  -0.002869   0.584151  -0.004911
 302  12  -1.246866   3.887576  -2.978215  -0.000822   0.230746  -0.003562
 303  12  -1.549087   3.108221  -3.546997  -0.000736   0.230746  -0.003191
 304   1  -0.143295   2.856451  -3.050356  -0.002728   0.644110  -0.004235
 305  15   3.805564   2.624496  -2.671065  -0.001884   0.299214  -0.006297
 306   1   2.423426   2.695203  -2.639096  -0.001181   0.421863  -0.002800
 307  16   3.207635  -0.690211   3.669868  -0.002817   0.400425  -0.007034
 308   1   1.859888  -0.951188   3.307138  -0.002742   0.564704  -0.004855
 309   2  -4.156877  -2.821818  -2.946311  -0.000156   0.029139  -0.005343
 310   3  -4.272743  -3.182117  -2.617369  -0.000110   0.029139  -0.003787
 311   8  -3.962162  -2.793783  -3.176563  -0.000222   0.029139  -0.007615
 312   2  -5.060029  -2.540830  -2.266038  -0.000145   0.028670  -0.005044
 313   3  -5.226653  -2.930198  -1.997600  -0.000128   0.028670  -0.004457
 314   9  -5.466462  -2.989010  -1.822697  -0.000157   0.028670  -0.005469
 315   3  -4.879339  -3.108404  -2.251197  -0.000222   0.149415  -0.001483
 316   2  -4.546956  -2.665825  -2.742946  -0.000351   0.149415  -0.002348
 317   2  -2.196238   0.961296  -4.216819  -0.000122   0.027133  -0.004481
 318   4  -2.524280   1.329070  -4.144613  -0.000072   0.027133  -0.002665
 319   8  -2.185618   0.687503  -4.345637  -0.000185   0.027133  -0.006819
 320   2  -4.544417  -1.078114  -3.582198  -0.000128   0.027133  -0.004711
 321   4  -4.841659  -0.683589  -3.518316  -0.000068   0.027133  -0.002490
 322   8  -4.323266  -1.169059  -3.767913  -0.000148   0.027133  -0.005444
 323   2  -2.067050   1.647153  -3.959080  -0.000096   0.025459  -0.003769
 324   4  -2.377114   2.036786  -3.968236  -0.000082   0.025459  -0.003213
 325  12  -2.379205   2.338027  -3.947042  -0.000112   0.025459  -0.004383
 326   2  -5.173736  -1.059587  -3.066181  -0.000089   0.026546  -0.003346
 327   4  -5.517746  -0.699413  -3.065143  -0.000077   0.026546  -0.002886
 328  13  -5.795158  -0.646611  -2.958895  -0.000085   0.026546  -0.003212
 329   4  -2.477637   1.802421  -4.081052  -0.000035   0.068301  -0.000518
 330   2  -2.077837   1.209548  -4.152875  -0.000122   0.068301  -0.001784
 331   4  -5.250215  -0.603686  -3.354426  -0.000031   0.082639  -0.000370
 332   2  -4.843069  -1.198147  -3.332899  -0.000147   0.082639  -0.001776
 333   2  -0.397508  -3.376898  -2.613259  -0.000173   0.064996  -0.002655
 334   6   0.413649  -3.332516  -2.522496   0.000494   0.064996   0.007602
 335   8  -0.494289  -3.276945  -2.883915  -0.000323   0.064996  -0.004962
 336   2  -0.392358  -3.673693  -2.180191  -0.000250   0.187515  -0.001335
 337   6   0.424568  -3.648751  -2.085218   0.001424   0.187515   0.007593
 338  10  -0.455601  -4.266507  -1.688212  -0.000340   0.187515  -0.001811
 339   2  -0.839866  -3.689917  -2.416980  -0.000155   0.038453  -0.004039
 340   8  -0.946333  -3.580602  -2.678333  -0.000263   0.038453  -0.006849
 341  10  -0.924469  -4.260762  -1.912739  -0.000149   0.038453  -0.003866
 342   8  -3.967915  -2.429024  -3.570350  -0.000364   0.066613  -0.005471
 343   8  -4.134980  -1.660427  -3.853125  -0.000350   0.066613  -0.005254
 344   2  -4.302751  -1.980662  -3.389137  -0.000851   0.147055  -0.005785
 345   8  -1.603804   0.340103  -4.466208  -0.000594   0.109025  -0.005451
 346   2  -1.320457   0.648155  -4.209015  -0.000798   0.133198  -0.005993
 347   2  -5.396189  -1.885581  -2.242581  -0.000610   0.166089  -0.003670
 348   9  -5.756731  -2.336227  -1.756466  -0.000746   0.166089  -0.004493
 349  13  -5.970589  -1.401480  -2.138954  -0.000676   0.166089  -0.004068
 350   9  -5.720274  -2.934120  -1.728200  -0.000234   0.051533  -0.004534
 351   2  -5.138342  -2.308508  -2.448943  -0.000052   0.072695  -0.000712
 352  12  -2.068852   2.668474  -3.843684  -0.000413   0.131120  -0.003147
 353   2  -1.651366   1.619969  -3.959157  -0.000299   0.184782  -0.001620
 354  13  -6.064049  -0.793091  -2.752467  -0.000458   0.143599  -0.003192
 355   2  -5.232420  -1.554183  -2.822809  -0.000214   0.202406  -0.001057
 356   3  -6.320650  -1.303642   1.998475  -0.000046   0.069801  -0.000653
 357   4  -6.438894  -0.539400   1.688034   0.000014   0.069801   0.000205
 358   9  -6.478937  -1.489633   1.816634  -0.000204   0.069801  -0.002924
 359   3  -5.266618  -0.148126   2.985267   0.000028   0.064937   0.000427
 360   4  -5.503491   0.624195   2.782180   0.000042   0.064937   0.000654
 361  14  -5.362878   0.848482   2.930729  -0.000122   0.064937  -0.001875
 362   4  -6.223631   0.144169   2.179168   0.000587   0.428401   0.001369
 363   3  -5.767866  -0.829705   2.773388   0.000545   0.428401   0.001272
 364   3   1.134459  -3.235963   2.156300   0.000031   0.062849   0.000493
 365   6   2.141384  -3.003245   1.919557   0.000463   0.062849   0.007361
 366   7   2.571498  -2.842867   2.041589   0.000395   0.062849   0.006288
 367   3   0.527678  -4.176864   1.938915  -0.000053   0.095237  -0.000559
 368   6   1.398603  -3.747819   1.502272   0.000762   0.095237   0.008000
 369  10   0.511582  -4.420128   1.755320  -0.000143   0.095237  -0.001499
 370   6   1.993519  -3.364954   1.831841   0.001134   0.195030   0.005814
 371   3   0.665470  -3.973216   2.302015   0.000304   0.218869   0.001391
 372   7   2.740510  -2.483965   2.679031   0.000262   0.439356   0.000596
 373   3   0.697969  -3.299440   2.847823   0.000173   0.439356   0.000394
 374   3  -1.459273  -4.400028  -2.081573  -0.000075   0.026792  -0.002786
 375   8  -1.402076  -3.865927  -2.600342  -0.000134   0.026792  -0.004991
 376  10  -1.343976  -4.606161  -1.894830  -0.000137   0.026792  -0.005095
 377   8  -1.718795  -3.639055  -3.168482  -0.001026   0.198007  -0.005180
 378   8  -3.096027  -3.254607  -3.344338  -0.002720   0.405507  -0.006708
 379   3  -2.511776  -4.244712  -2.451345  -0.000651   0.542328  -0.001201
 380   3  -4.041534  -3.674745  -2.588167  -0.000123   0.279041  -0.000439
 381   9  -5.648693  -3.479469  -1.658333  -0.000292   0.070035  -0.004168
 382   9  -5.506252  -4.509563  -1.219064  -0.000575   0.156013  -0.003683
 383   9  -5.523764  -5.320208  -0.122442  -0.000460   0.156013  -0.002948
 384   9  -5.759214  -5.303163   1.220802  -0.000574   0.156013  -0.003678
 385   9  -6.112170  -4.465698   2.237712  -0.000625   0.156013  -0.004004
 386   9  -6.432081  -3.165031   2.494528  -0.000451   0.156013  -0.002891
 387   9  -6.587394  -2.116243   2.106890  -0.000200   0.070035  -0.002860
 388   3  -5.207603  -3.886021  -1.706035  -0.000515   0.153029  -0.003366
 389   3  -5.094478  -5.135741  -0.827298  -0.000196   0.153029  -0.001281
 390   3  -5.244788  -5.607296   0.622467  -0.000256   0.153029  -0.001672
 391   3  -5.594418  -5.099547   2.024866  -0.000383   0.153029  -0.002503
 392   3  -5.994235  -3.829073   2.781712  -0.000302   0.153029  -0.001972
 393   3  -6.273698  -2.337789   2.570174  -0.000253   0.153029  -0.001651
 394  10   0.058241  -4.948459   2.128829  -0.000206   0.069824  -0.002945
 395  10  -0.808541  -5.572290   2.493937  -0.000449   0.155627  -0.002885
 396  10  -1.959330  -6.245479   2.208386  -0.000548   0.155627  -0.003522
 397  10  -2.787063  -6.562488   1.172335  -0.000563   0.155627  -0.003616
 398  10  -2.937998  -6.387840  -0.171449  -0.000499   0.155627  -0.003205
 399  10  -2.347633  -5.796174  -1.248685  -0.000547   0.155627  -0.003514
 400  10  -1.500951  -5.175266  -1.662671  -0.000265   0.069824  -0.003791
 401   3  -0.326534  -4.884518   2.585823  -0.000248   0.152469  -0.001625
 402   3  -1.593995  -5.725316   2.764952  -0.000324   0.152469  -0.002124
 403   3  -2.769755  -6.313753   1.979574  -0.000411   0.152469  -0.002695
 404   3  -3.351339  -6.398353   0.565329  -0.000264   0.152469  -0.001734
 405   3  -3.090203  -5.942962  -0.873390  -0.000243   0.152469  -0.001592
 406   3  -2.097945  -5.142196  -1.721732  -0.000496   0.152469  -0.003255
 407   3  -4.758387  -0.492343   3.522252  -0.000102   0.086080  -0.001185
 408  11  -4.545464  -0.528120   3.738692  -0.000200   0.086080  -0.002327
 409  14  -4.778147   0.486982   3.312415  -0.000074   0.086080  -0.000862
 410  11  -4.633928  -1.193214   4.126822  -0.000198   0.070624  -0.002801
 411  11  -4.632765  -2.292758   4.413466  -0.000471   0.157520  -0.002988
 412  11  -3.915881  -3.440592   4.641417  -0.000567   0.157520  -0.003600
 413  11  -2.632039  -3.925519   4.640012  -0.000601   0.157520  -0.003816
 414  11  -1.335763  -3.538085   4.409857  -0.000454   0.157520  -0.002880
 415  11  -0.608520  -2.713671   4.122416  -0.000226   0.070624  -0.003205
 416   3  -4.953994  -1.668258   3.934672  -0.000216   0.154143  -0.001403
 417   3  -4.622693  -3.132677   4.283593  -0.000270   0.154143  -0.001750
 418   3  -3.433028  -4.103544   4.418301  -0.000380   0.154143  -0.002466
 419   3  -1.898847  -4.161515   4.280611  -0.000285   0.154143  -0.001849
 420   3  -0.682803  -3.281551   3.929997  -0.000373   0.154143  -0.002419
 421  14  -5.253887   1.007916   3.187873  -0.000041   0.107610  -0.000381
 422   3  -5.117498  -0.444427   3.441592   0.000322   0.152898   0.002108
 423   4  -2.202418   5.059812  -0.239137   0.000649   0.079243   0.008188
 424   5  -1.311683   5.004433   0.041613   0.001758   0.079243   0.022180
 425  12  -2.192839   5.106318  -0.539889   0.000142   0.079243   0.001796
 426   4  -2.643164   4.679945   1.437888   0.000532   0.082277   0.006463
 427   5  -1.732167   4.651566   1.650960   0.002235   0.082277   0.027159
 428  14  -2.728194   4.584572   1.714727   0.000209   0.082277   0.002545
 429   5  -1.057117   5.108824   0.877922   0.007502   0.433756   0.017295
 430   4  -2.423488   5.000049   0.780525   0.003496   0.482334   0.007247
 431   8  -4.041139  -0.977186  -4.105233  -0.000977   0.210049  -0.004649
 432   8  -2.964323   0.015513  -4.474891  -0.002649   0.431429  -0.006141
 433   4  -4.366376   0.222595  -4.018472  -0.000457   0.573915  -0.000797
 434   4  -3.061592   1.303455  -4.299476   0.000099   0.295878   0.000335
 435   4  -6.915815  -0.223329   1.028668  -0.000095   0.084466  -0.001127
 436   9  -6.806532  -1.172342   1.115726  -0.000195   0.084466  -0.002304
 437  13  -7.086980  -0.242517   0.777331  -0.000203   0.084466  -0.002399
 438   9  -6.741463  -1.620235   1.640451  -0.000187   0.121072  -0.001543
 439   4  -6.862847  -0.223783   1.420072   0.000343   0.171328   0.002003
 440  12  -2.761402   2.695040  -4.099924  -0.000199   0.070583  -0.002815
 441  12  -3.845065   3.041597  -4.147593  -0.000432   0.157607  -0.002739
 442  12  -4.847917   3.821856  -3.621942  -0.000294   0.157607  -0.001865
 443  12  -5.093224   4.723012  -2.612701  -0.000434   0.157607  -0.002754
 444  12  -4.474300   5.353140  -1.558806  -0.000473   0.157607  -0.002998
 445  12  -3.260323   5.438187  -0.918610  -0.000298   0.157607  -0.001890
 446   4  -3.286470   2.400132  -4.145340  -0.000373   0.153868  -0.002424
 447   4  -4.670739   3.054629  -3.943627  -0.000063   0.153868  -0.000412
 448   4  -5.413206   4.054817  -3.030598  -0.000094   0.153868  -0.000613
 449   4  -5.190960   4.965700  -1.803343  -0.000225   0.153868  -0.001464
 450   4  -4.100660   5.391121  -0.795614  -0.000149   0.153868  -0.000970
 451   4  -2.915552   5.299115  -0.387654   0.000100   0.086233   0.001162
 452  13  -7.420705   0.419147   0.714313  -0.000176   0.070322  -0.002504
 453  13  -7.688735   1.482913   0.419739  -0.000373   0.156965  -0.002376
 454  13  -7.739299   2.447539  -0.554282  -0.000470   0.156965  -0.002996
 455  13  -7.446438   2.654308  -1.878388  -0.000470   0.156965  -0.002992
 456  13  -6.936968   2.013683  -2.979215  -0.000411   0.156965  -0.002620
 457  13  -6.431499   0.803069  -3.380081  -0.000421   0.156965  -0.002685
 458  13  -6.154445  -0.265577  -3.112784  -0.000190   0.070322  -0.002705
 459   4  -7.301503   0.956106   0.961059  -0.000161   0.153346  -0.001047
 460   4  -7.552858   2.305727   0.261579  -0.000200   0.153346  -0.001303
 461   4  -7.408764   3.002357  -1.105121  -0.000297   0.153346  -0.001936
 462   4  -6.931617   2.744342  -2.547233  -0.000186   0.153346  -0.001214
 463   4  -6.328031   1.643408  -3.440292  -0.000182   0.153346  -0.001184
 464   4  -5.859372   0.176281  -3.397585  -0.000361   0.153346  -0.002355
 465  14  -3.454920   4.749996   1.759254  -0.000072   0.074121  -0.000971
 466  14  -4.643729   4.667733   1.761023  -0.000440   0.167401  -0.002628
 467  14  -5.788901   3.849156   2.041570  -0.000480   0.167401  -0.002869
 468  14  -6.099129   2.535402   2.529423  -0.000320   0.167401  -0.001910
 469  14  -5.675369   1.496778   2.931573  -0.000114   0.074121  -0.001532
 470   4  -3.897119   4.873581   1.344994  -0.000037   0.159867  -0.000234
 471   4  -5.439181   4.424600   1.476379  -0.000227   0.159867  -0.001420
 472   4  -6.309882   3.148921   1.936078  -0.000130   0.159867  -0.000810
 473   4  -6.092801   1.656650   2.504236  -0.000127   0.159867  -0.000796
 474   5   4.081809   3.772737   1.258959   0.001846   0.075904   0.024324
 475   7   4.883002   3.433364   1.128662   0.000223   0.075904   0.002932
 476  15   4.923142   3.556474   0.855248  -0.000063   0.075904  -0.000828
 477   5   3.866041   2.816593   2.779827   0.001487   0.073804   0.020148
 478   7   4.660029   2.443304   2.718154   0.000305   0.073804   0.004137
 479  16   4.670263   2.243965   2.945607  -0.000100   0.073804  -0.001351
 480   7   4.815762   3.149954   1.877477   0.002340   0.489239   0.004784
 481   5   3.670883   3.565351   2.334227   0.007553   0.441553   0.017105
 482   5  -1.497498   1.546299   3.480728   0.002478   0.346005   0.007161
 483  11  -2.224903   0.509677   3.753059  -0.001391   0.346005  -0.004019
 484  14  -2.511502   1.569413   3.450739  -0.000669   0.346005  -0.001933
 485  11  -1.129981  -0.585867   4.449396  -0.000887   0.276797  -0.003206
 486  11  -1.859241  -0.049735   4.366248  -0.000850   0.276797  -0.003071
 487   5  -0.388006   1.123224   3.993827   0.003538   0.706663   0.005006
 488  12  -2.006274   5.265741  -0.962097   0.000513   0.269291   0.001904
 489  12  -1.412131   4.768495  -2.032730  -0.000531   0.541794  -0.000979
 490   5  -0.446896   5.082389  -0.602960   0.008587   0.668050   0.012854
 491   5   0.155958   4.421246  -1.735847   0.002892   0.336586   0.008591
 492  14  -2.653128   2.442570   3.594425  -0.000141   0.249573  -0.000563
 493  14  -2.687054   3.647541   3.132294   0.000130   0.502514   0.000259
 494  14  -2.759041   4.531188   2.193861   0.000641   0.249573   0.002567
 495   5  -1.224428   2.969570   3.556587   0.008557   0.614991   0.013914
 496   5  -1.296825   4.397242   2.599233   0.009792   0.614991   0.015922
 497  15   3.848629   3.549484  -1.927112  -0.000976   0.253992  -0.003841
 498  15   4.406770   4.019312  -0.781748  -0.001519   0.512495  -0.002963
 499  15   4.901530   3.868340   0.473856  -0.000048   0.253992  -0.000188
 500   5   2.809463   4.180542  -1.093907   0.006887   0.622517   0.011063
 501   5   3.527974   4.398133   0.544540   0.008882   0.622517   0.014268
 502  16   4.581802   2.083065   3.351477  -0.000035   0.224128  -0.000156
 503  16   3.943071   1.267205   3.891868  -0.001116   0.450532  -0.002476
 504  16   3.314287   0.287465   3.993698  -0.000639   0.224128  -0.002852
 505   5   3.186199   2.648271   3.466545   0.007222   0.553002   0.013059
 506   5   2.318994   1.419762   3.905939   0.005357   0.553002   0.009688
 507   6   4.247399  -3.780357  -1.458761   0.000069   0.012810   0.005421
 508   7   4.715662  -3.754457  -1.373942  -0.000063   0.012810  -0.004940
 509  17   5.009059  -3.748098  -1.427413  -0.000100   0.012810  -0.007841
 510   6   4.328937  -3.056533  -2.625554   0.000062   0.012810   0.004838
 511   7   4.800824  -2.998467  -2.592585  -0.000083   0.012810  -0.006477
 512  17   5.086384  -3.061672  -2.533920  -0.000153   0.012810  -0.011970
 513   7   4.623375  -2.656507  -2.928803  -0.000062   0.178037  -0.000346
 514   7   4.275166  -1.126090  -3.573486   0.000367   0.349880   0.001050
 515   7   3.719501   0.477103  -3.580617  -0.000043   0.178037  -0.000244
 516   6   3.840367  -2.247324  -3.274556   0.002445   0.336173   0.007273
 517   6   3.298542  -0.368889  -3.665284   0.002077   0.336173   0.006179
 518   7   3.456761  -3.208216   1.826575   0.000193   0.226103   0.000852
 519   7   4.199644  -3.798392  -0.055147   0.000082   0.445028   0.000184
 520   6   3.121584  -3.598789   0.887087   0.003923   0.439297   0.008929
 521   6   3.789630  -3.973253  -0.995344   0.001404   0.206719   0.006791
 522   8  -0.045090  -0.992861  -4.345436  -0.000907   0.235991  -0.003844
 523   8  -0.136728  -2.202097  -4.050515  -0.001873   0.475072  -0.003942
 524   8  -0.427128  -3.172518  -3.321421  -0.000570   0.235991  -0.002415
 525   6   1.299999  -1.453563  -3.905058   0.003776   0.580375   0.006506
 526   6   1.038925  -2.943079  -3.205275   0.005199   0.580375   0.008958
 527  10  -0.258797  -4.890168  -1.441921  -0.000287   0.271778  -0.001056
 528  10   0.373969  -5.264981  -0.416991  -0.001216   0.545636  -0.002229
 529  10   0.657817  -5.012371   1.064132  -0.000766   0.545636  -0.001405
 530   6   1.318875  -4.231010  -1.614502   0.006795   0.681210   0.009974
 531   6   1.984816  -4.436729  -0.077659   0.007084   0.681210   0.010399
 532   6   2.045067  -3.976505   1.223758   0.002583   0.342854   0.007534
 533  17   5.185399  -3.561213  -1.906458  -0.001620   0.302219  -0.005361
 534   6   4.103643  -3.477344  -2.240184   0.001479   0.368376   0.004014
 535  15   5.601032   3.514459   0.714853  -0.000342   0.065572  -0.005210
 536  15   6.569348   3.196539   0.391550  -0.001049   0.144571  -0.007255
 537  15   7.338568   2.671565  -0.508268  -0.001137   0.144571  -0.007862
 538  15   7.360546   2.162972  -1.698990  -0.000988   0.144571  -0.006836
 539  15   6.626852   1.865849  -2.723871  -0.000859   0.144571  -0.005943
 540  15   5.418921   1.894169  -3.189779  -0.000825   0.144571  -0.005709
 541  15   4.384112   2.136813  -3.073472  -0.000458   0.065572  -0.006981
 542   7   6.005861   3.185088   0.975944  -0.000721   0.144667  -0.004981
 543   7   7.182103   2.673993   0.288398  -0.001020   0.144667  -0.007049
 544   7   7.649616   2.063266  -0.946885  -0.001000   0.144667  -0.006912
 545   7   7.229069   1.587174  -2.256068  -0.000753   0.144667  -0.005207
 546   7   6.081777   1.428341  -3.136963  -0.000655   0.144667  -0.004525
 547   7   4.647829   1.647692  -3.251670  -0.000896   0.144667  -0.006191
 548  16   3.758399  -1.783416   3.367114  -0.000520   0.067976  -0.007650
 549  16   4.799297  -2.149689   3.313407  -0.000882   0.150899  -0.005846
 550  16   6.105339  -1.886462   3.214338  -0.000852   0.150899  -0.005645
 551  16   6.981729  -0.883346   3.111633  -0.001051   0.150899  -0.006964
 552  16   7.069018   0.448234   3.047418  -0.001131   0.150899  -0.007498
 553  16   6.331406   1.562136   3.048030  -0.001033   0.150899  -0.006848
 554  16   5.337710   2.042766   3.093561  -0.000365   0.067976  -0.005367
 555   7   4.017599  -2.201724   3.035829  -0.000945   0.148988  -0.006345
 556   7   5.503520  -2.392290   2.944594  -0.000700   0.148988  -0.004702
 557   7   6.797549  -1.641438   2.824957  -0.000758   0.148988  -0.005091
 558   7   7.368943  -0.257127   2.725986  -0.001071   0.148988  -0.007190
 559   7   6.983347   1.192871   2.688273  -0.001091   0.148988  -0.007321
 560   7   5.798912   2.113845   2.727287  -0.000778   0.148988  -0.005222
 561  17   5.534862  -2.941167  -2.709372  -0.000437   0.065131  -0.006707
 562  17   6.122130  -2.144181  -3.107501  -0.000926   0.143667  -0.006447
 563  17   7.073576  -1.278858  -2.980488  -0.000860   0.143667  -0.005984
 564  17   7.979494  -0.833313  -2.173663  -0.001000   0.143667  -0.006958
 565  17   8.492506  -0.978392  -0.996406  -0.001135   0.143667  -0.007904
 566  17   8.415897  -1.658465   0.099860  -0.001183   0.143667  -0.008233
 567  17   7.779042  -2.612753   0.694765  -0.000883   0.143667  -0.006149
 568  17   6.826145  -3.475333   0.560193  -0.000881   0.143667  -0.006130
 569  17   5.922599  -3.915443  -0.252256  -0.000938   0.143667  -0.006526
 570  17   5.429222  -3.878952  -1.197678  -0.000381   0.065131  -0.005852
 571   7   5.382982  -2.447815  -2.977181  -0.000929   0.143609  -0.006472
 572   7   6.318693  -1.373229  -3.257549  -0.000811   0.143609  -0.005648
 573   7   7.416175  -0.598661  -2.705760  -0.000731   0.143609  -0.005093
 574   7   8.254596  -0.421122  -1.533402  -0.000998   0.143609  -0.006950
 575   7   8.512458  -0.908689  -0.190018  -0.001191   0.143609  -0.008294
 576   7   8.090885  -1.874403   0.809264  -0.000967   0.143609  -0.006736
 577   7   7.151529  -2.947958   1.081267  -0.000716   0.143609  -0.004989
 578   7   6.054591  -3.717694   0.521689  -0.000759   0.143609  -0.005285
 579   7   5.220696  -3.888453  -0.654897  -0.000942   0.143609  -0.006562
 580  10  -1.080956  -4.750235  -1.901827   0.000016   0.135182   0.000120
 581   8  -1.069336  -3.709790  -2.933753  -0.000012   0.135182  -0.000086
 582  13  -6.608347  -1.285269  -2.090913  -0.000414   0.249278  -0.001659
 583  13  -7.330518  -1.086851  -1.202818  -0.001454   0.498590  -0.002917
 584  13  -7.499344  -0.587522   0.110243  -0.001025   0.498590  -0.002057
 585   9  -6.603252  -2.551241  -1.223040  -0.001587   0.498590  -0.003183
 586   9  -7.231228  -2.196377  -0.005798  -0.001717   0.498590  -0.003444
 587   9  -7.122960  -1.736675   1.055600  -0.000384   0.249278  -0.001542
 588  14  -4.750703   1.093435   3.613659  -0.000053   0.268297  -0.000199
 589  14  -3.674561   1.468033   3.815532  -0.001146   0.536364  -0.002136
 590  11  -3.932176  -0.225413   4.233908  -0.000843   0.536364  -0.001571
 591  11  -2.833468   0.122080   4.339961  -0.000553   0.268297  -0.002062
 =====================================================


   1 warning(s) detected.
     A line exceeding 80 characters begins with "http://cactus.nci.ni".
 There may be a problem in your input file.

              3309047  WORDS OF DYNAMIC MEMORY USED
 EXECUTION OF GAMESS TERMINATED NORMALLY Thu Nov 24 20:21:11 2016
 DDI: 263640 bytes (0.3 MB / 0 MWords) used by master data server.

 ----------------------------------------
 CPU timing information for all processes
 ========================================
 0: 1921.156 + 0.700 = 1921.856
 ----------------------------------------
 ddikick.x: exited gracefully.
