----- GAMESS execution script -----

          ******************************************************
          *         GAMESS VERSION =  5 DEC 2014 (R1)          *
          *             FROM IOWA STATE UNIVERSITY             *
          * M.W.SCHMIDT, K.K.BALDRIDGE, J.A.BOATZ, S.T.ELBERT, *
          *   M.S.GORDON, J.H.JENSEN, S.KOSEKI, N.MATSUNAGA,   *
          *          K.A.NGUYEN, S.J.SU, T.L.WINDUS,           *
          *       TOGETHER WITH M.DUPUIS, J.A.MONTGOMERY       *
          *         J.COMPUT.CHEM.  14, 1347-1363(1993)        *
          **************** 64 BIT LINUX VERSION ****************

 EXECUTION OF GAMESS BEGUN Thu Nov 24 21:04:35 2016

            ECHO OF THE FIRST FEW INPUT CARDS -
 INPUT CARD>! SELECT RESTRICTED HARTREE-FOCK AS DEFAULT                                     
 INPUT CARD>$contrl scftyp=rhf $end                                                         
 INPUT CARD>                                                                                
 INPUT CARD>! THEORY: HF OR DFT                                                             
 INPUT CARD> $contrl mplevl=0 $end                                                          
 INPUT CARD>                                                                                
 INPUT CARD> $system timlim=10000 mwords=20 $end                                            
 INPUT CARD> $SCF DIRSCF=.TRUE. $end                                                        
 INPUT CARD>                                                                                
 INPUT CARD>                                                                                
 INPUT CARD>! BASIS SETS                                                                    
 INPUT CARD>! 6-311G(d,p)                                                                   
 INPUT CARD> $BASIS GBASIS=N311 NGAUSS=6 NDFUNC=1 NPFUNC=1 $END                             
 INPUT CARD>                                                                                
 INPUT CARD>! One of the following                                                          
 INPUT CARD> $guess guess=HUCKEL $end                                                       
 INPUT CARD>                                                                                
 INPUT CARD> $statpt projct=.FALSE. $end                                                    
 INPUT CARD> $STATPT IFREEZ(1)=1,2,3 $END                                                   
 INPUT CARD>                                                                                
 INPUT CARD>! Optimize the geometry with COSMO effects                                      
 INPUT CARD> $statpt opttol=0.0005 nstep=50 $end                                            
 INPUT CARD> $contrl nzvar=1 $end                                                           
 INPUT CARD> $zmat dlc=.t. auto=.t. $end                                                    
 INPUT CARD> $contrl runtyp=OPTIMIZE maxit=200 $end                                         
 INPUT CARD>                                                                                
 INPUT CARD>! Run COSMO on perfect conductor                                                
 INPUT CARD> $COSGMS PRFCND=.TRUE. $end                                                     
 INPUT CARD>                                                                                
 INPUT CARD>! Specifying RSOLV                                                              
 INPUT CARD> $COSGMS COSRAD = 1.4 $end                                                      
 INPUT CARD>                                                                                
 INPUT CARD>! available memory                                                              
 INPUT CARD> $SYSTEM MWORDS=40 $END                                                         
 INPUT CARD>                                                                                
 INPUT CARD> $DATA                                                                          
 INPUT CARD>Methyl propyl ether, ID: C557175                                                
 INPUT CARD>C1                                                                              
 INPUT CARD>C      6.0      1.2351000000    2.1345000000    2.1185000000                    
 INPUT CARD>C      6.0      0.6324000000    2.8181000000    3.3238000000                    
 INPUT CARD>C      6.0      2.1084000000    0.9564000000    2.5483000000                    
 INPUT CARD>O      8.0      2.5867000000    0.1869000000    1.4623000000                    
 INPUT CARD>C      6.0      3.6488000000    0.7624000000    0.7448000000                    
 INPUT CARD>H      1.0      1.8311000000    2.8601000000    1.5295000000                    
 INPUT CARD>H      1.0      0.4350000000    1.7864000000    1.4361000000                    
 INPUT CARD>H      1.0      0.0000000000    3.6641000000    3.0262000000                    
 INPUT CARD>H      1.0      1.4065000000    3.2083000000    3.9981000000                    
 INPUT CARD>H      1.0      0.0068000000    2.1306000000    3.9087000000                    
 INPUT CARD>H      1.0      1.5241000000    0.2060000000    3.1093000000                    
 INPUT CARD>H      1.0      2.9415000000    1.2960000000    3.1945000000                    
   40000000 WORDS OF MEMORY AVAILABLE

     BASIS OPTIONS
     -------------
     GBASIS=N311         IGAUSS=       6      POLAR=POPN311 
     NDFUNC=       1     NFFUNC=       0     DIFFSP=       F
     NPFUNC=       1      DIFFS=       F     BASNAM=        


     RUN TITLE
     ---------
 Methyl propyl ether, ID: C557175                                                

 THE POINT GROUP OF THE MOLECULE IS C1      
 THE ORDER OF THE PRINCIPAL AXIS IS     0

 ATOM      ATOMIC                      COORDINATES (BOHR)
           CHARGE         X                   Y                   Z
 C           6.0     2.3340005674        4.0336201208        4.0033845050
 C           6.0     1.1950627146        5.3254368060        6.2810712380
 C           6.0     3.9842982725        1.8073339347        4.8155887345
 O           8.0     4.8881542124        0.3531897871        2.7633463118
 C           6.0     6.8952321840        1.4407270930        1.4074679157
 H           1.0     3.4602772561        5.4048052975        2.8903358982
 H           1.0     0.8220308047        3.3758065045        2.7138354910
 H           1.0     0.0000000000        6.9241449916        5.7186887840
 H           1.0     2.6578996017        6.0628078864        7.5553134715
 H           1.0     0.0128501367        4.0262501894        7.3863719682
 H           1.0     2.8801313779        0.3892835535        5.8757250136
 H           1.0     5.5586289929        2.4490848801        6.0367296678
 H           1.0     7.3506561470        0.0000000000        0.0000000000
 H           1.0     8.5436401631        1.8035544827        2.6104674794
 H           1.0     6.3409755518        3.2000619876        0.4633608122

          INTERNUCLEAR DISTANCES (ANGS.)




     $CONTRL OPTIONS
     ---------------
 SCFTYP=RHF          RUNTYP=OPTIMIZE     EXETYP=RUN     
 MPLEVL=       0     CITYP =NONE         CCTYP =NONE         VBTYP =NONE    
 DFTTYP=NONE         TDDFT =NONE    
 MULT  =       1     ICHARG=       0     NZVAR =       1     COORD =UNIQUE  
 PP    =NONE         RELWFN=NONE         LOCAL =NONE         NUMGRD=       F
 ISPHER=      -1     NOSYM =       0     MAXIT =     200     UNITS =ANGS    
 PLTORB=       F     MOLPLT=       F     AIMPAC=       F     FRIEND=        
 NPRINT=       7     IREST =       0     GEOM  =INPUT   
 NORMF =       0     NORMP =       0     ITOL  =      20     ICUT  =       9
 INTTYP=BEST         GRDTYP=BEST         QMTTOL= 1.0E-06

     $SYSTEM OPTIONS
     ---------------
  REPLICATED MEMORY=    40000000 WORDS (ON EVERY NODE).
 DISTRIBUTED MEMDDI=           0 MILLION WORDS IN AGGREGATE,
 MEMDDI DISTRIBUTED OVER   1 PROCESSORS IS           0 WORDS/PROCESSOR.
 TOTAL MEMORY REQUESTED ON EACH PROCESSOR=    40000000 WORDS.
 TIMLIM=       10000.00 MINUTES, OR       6.9 DAYS.
 PARALL= F  BALTYP=  DLB     KDIAG=    0  COREFL= F
 MXSEQ2=     300 MXSEQ3=     150  mem10=         0

     $COSGMS OPTIONS
     ---------------
     EPSI  =   INFTY     NSPA  =      92     COSRAD=    1.40
     DISEX =   10.00     OUTCHG=DBLCAV       COSBUG=       F
     COSWRT=       F     DCOSMO=       F

     SYMMETRY COORDINATES WILL NOT BE USED FOR 
     THE COSMO CALCULATION, EVEN IF SPECIFIED:
         -- SWITCHING TO C1 POINT GROUP --


     DEFINITION OF CAVITY
     ---------------------------
     ATOM         COORDINATES           RADIUS 
     1    2.3340    4.0336    4.0034    2.0000
     2    1.1951    5.3254    6.2811    2.0000
     3    3.9843    1.8073    4.8156    2.0000
     4    4.8882    0.3532    2.7633    1.7200
     5    6.8952    1.4407    1.4075    2.0000
     6    3.4603    5.4048    2.8903    1.3000
     7    0.8220    3.3758    2.7138    1.3000
     8    0.0000    6.9241    5.7187    1.3000
     9    2.6579    6.0628    7.5553    1.3000
    10    0.0129    4.0263    7.3864    1.3000
    11    2.8801    0.3893    5.8757    1.3000
    12    5.5586    2.4491    6.0367    1.3000
    13    7.3507    0.0000    0.0000    1.3000
    14    8.5436    1.8036    2.6105    1.3000
    15    6.3410    3.2001    0.4634    1.3000

          ----------------
          PROPERTIES INPUT
          ----------------

     MOMENTS            FIELD           POTENTIAL          DENSITY
 IEMOM =       1   IEFLD =       0   IEPOT =       0   IEDEN =       0
 WHERE =COMASS     WHERE =NUCLEI     WHERE =NUCLEI     WHERE =NUCLEI  
 OUTPUT=BOTH       OUTPUT=BOTH       OUTPUT=BOTH       OUTPUT=BOTH    
 IEMINT=       0   IEFINT=       0                     IEDINT=       0
                                                       MORB  =       0
          EXTRAPOLATION IN EFFECT
          SOSCF IN EFFECT
 ORBITAL PRINTING OPTION: NPREO=     1   155     2     1

     -------------------------------
     INTEGRAL TRANSFORMATION OPTIONS
     -------------------------------
     NWORD  =            0
     CUTOFF = 1.0E-09     MPTRAN =       0
     DIRTRF =       T     AOINTS =DUP     

          ----------------------
          INTEGRAL INPUT OPTIONS
          ----------------------
 NOPK  =       1 NORDER=       0 SCHWRZ=       T


 -----------------------------------------------
  STATISTICS ON AUTOMATIC COORDINATE GENERATION 
 -----------------------------------------------
  NUMBER OF USER SPECIFIED BONDS                             0
  NUMBER OF BONDS                                           14
  NUMBER OF ANGLES                                          25
  NUMBER OF TORSIONS                                        24
  NUMBER OF EXTRA COORD.                                     0
  NUMBER OF EXTRA COORD. FOR CONSTRAINTS                     0
  NUMBER OF CONSTRAINED COORD.                               0

  TOTAL NUMBER OF PRIMITIVES                                63
 -----------------------------------------------

   --- ENCODED Z MATRIX ---
 COORD  TYPE   I   J   K   L   M   N
    1      1    1   6
    2      1    1   2
    3      1    1   3
    4      1    1   7
    5      1    2   8
    6      1    2  10
    7      1    2   9
    8      1    3   4
    9      1    3  12
   10      1    3  11
   11      1    4   5
   12      1    5  15
   13      1    5  14
   14      1    5  13
   15      2    1   2   8
   16      2    1   3  11
   17      2    1   3  12
   18      2    1   2  10
   19      2    1   2   9
   20      2    1   3   4
   21      2    2   1   7
   22      2    2   1   3
   23      2    2   1   6
   24      2    3   1   6
   25      2    3   1   7
   26      2    3   4   5
   27      2    4   5  13
   28      2    4   5  14
   29      2    4   5  15
   30      2    4   3  11
   31      2    4   3  12
   32      2    6   1   7
   33      2    8   2   9
   34      2    8   2  10
   35      2    9   2  10
   36      2   11   3  12
   37      2   13   5  14
   38      2   13   5  15
   39      2   14   5  15
   40      3    1   3   4   5
   41      3    2   1   3  11
   42      3    2   1   3   4
   43      3    2   1   3  12
   44      3    3   1   2   9
   45      3    3   1   2  10
   46      3    3   4   5  14
   47      3    3   4   5  15
   48      3    3   4   5  13
   49      3    3   1   2   8
   50      3    4   3   1   7
   51      3    4   3   1   6
   52      3    5   4   3  11
   53      3    5   4   3  12
   54      3    6   1   3  12
   55      3    6   1   2   9
   56      3    6   1   2  10
   57      3    6   1   3  11
   58      3    6   1   2   8
   59      3    7   1   2   9
   60      3    7   1   2  10
   61      3    7   1   3  11
   62      3    7   1   2   8
   63      3    7   1   3  12

          INDEP./SYM. INTERNAL COORDINATES
          --------------------------------
 CRD  1=   0.1829 (  8) -0.1721 ( 16)  0.4785 ( 20) -0.1945 ( 22)  0.6517 ( 26)
           0.1189 ( 29) -0.1867 ( 30) -0.1148 ( 31)  0.1753 ( 40) -0.1311 ( 42)
          -0.1111 ( 51)
 CRD  2=   0.1367 (  8) -0.1070 ( 15)  0.1182 ( 16)  0.1375 ( 19) -0.3405 ( 20)
          -0.2018 ( 21)  0.5256 ( 22) -0.1037 ( 23) -0.1956 ( 24) -0.1564 ( 25)
           0.4727 ( 26)  0.1146 ( 28)  0.1828 ( 31)  0.1035 ( 32) -0.1399 ( 42)
          -0.1314 ( 50)
 CRD  3=   0.2248 (  2)  0.2508 (  3)  0.1173 (  8)  0.1315 ( 11) -0.1377 ( 16)
           0.1189 ( 17)  0.2031 ( 18)  0.2506 ( 20)  0.3806 ( 22) -0.2239 ( 23)
          -0.1638 ( 25) -0.2093 ( 26)  0.1465 ( 27) -0.1525 ( 28)  0.1138 ( 29)
          -0.2779 ( 31)  0.2842 ( 40)  0.1062 ( 41)  0.1757 ( 42)  0.1075 ( 47)
           0.1018 ( 50)  0.1278 ( 51)  0.2420 ( 52)  0.1524 ( 53)
 CRD  4=   0.1566 (  2)  0.1001 (  3)  0.1695 ( 16) -0.2422 ( 17)  0.3221 ( 20)
           0.1731 ( 22) -0.1441 ( 24)  0.1089 ( 27)  0.1193 ( 28) -0.2049 ( 29)
          -0.1767 ( 30) -0.4104 ( 40) -0.1191 ( 45) -0.3307 ( 46) -0.2807 ( 47)
          -0.2413 ( 48) -0.1205 ( 49) -0.1626 ( 52) -0.2593 ( 53)
 CRD  5=   0.1883 (  3) -0.1646 (  8) -0.1174 ( 10) -0.4447 ( 11) -0.2535 ( 18)
           0.3121 ( 19)  0.1428 ( 20) -0.1785 ( 21)  0.1040 ( 22) -0.2040 ( 26)
          -0.2052 ( 28) -0.1423 ( 29) -0.2173 ( 30) -0.1029 ( 33)  0.1104 ( 37)
           0.1163 ( 38)  0.1479 ( 39)  0.1079 ( 40) -0.1357 ( 41) -0.2949 ( 42)
          -0.2067 ( 43)  0.1374 ( 49) -0.1313 ( 50) -0.1329 ( 51)
 CRD  6=  -0.2018 (  2) -0.3651 (  3) -0.1841 (  8)  0.1100 ( 12) -0.3520 ( 15)
           0.1062 ( 18)  0.1396 ( 22) -0.2651 ( 27) -0.2916 ( 28)  0.4509 ( 29)
           0.1218 ( 33)  0.1145 ( 34)  0.1388 ( 37) -0.1254 ( 46) -0.2069 ( 47)
          -0.2592 ( 48)
 CRD  7=   0.2265 (  2) -0.3366 (  3)  0.2904 (  8)  0.1799 ( 11)  0.1067 ( 14)
          -0.1709 ( 16) -0.1436 ( 18)  0.3233 ( 19)  0.1906 ( 23) -0.1053 ( 24)
           0.4176 ( 27) -0.2922 ( 28)  0.1722 ( 30) -0.1322 ( 33) -0.1017 ( 35)
          -0.1577 ( 38) -0.1400 ( 41) -0.1179 ( 52)
 CRD  8=  -0.5694 (  2)  0.1897 (  8)  0.1169 ( 11) -0.3599 ( 15) -0.1746 ( 18)
          -0.1975 ( 21) -0.1168 ( 23)  0.1181 ( 25)  0.2849 ( 27) -0.1918 ( 29)
           0.1686 ( 33)  0.2481 ( 34)  0.1053 ( 35) -0.1042 ( 37)  0.1086 ( 50)
          -0.1172 ( 57)  0.1248 ( 63)
 CRD  9=   0.1188 (  2) -0.2609 (  3) -0.2296 ( 15) -0.2843 ( 16)  0.1199 ( 18)
           0.2146 ( 19)  0.1894 ( 21) -0.1275 ( 23)  0.1907 ( 24) -0.2649 ( 25)
           0.3614 ( 28) -0.3425 ( 29) -0.1550 ( 35)  0.1144 ( 36)  0.1119 ( 38)
           0.2037 ( 44)  0.1712 ( 45)  0.1836 ( 49) -0.2216 ( 52)
 CRD 10=   0.1509 (  3) -0.1276 (  6)  0.1151 ( 10)  0.2199 ( 11)  0.2120 ( 15)
          -0.1010 ( 16)  0.3120 ( 17) -0.4583 ( 18)  0.2002 ( 19) -0.1642 ( 27)
           0.1563 ( 28)  0.2088 ( 29)  0.1501 ( 30) -0.2415 ( 31) -0.1727 ( 33)
           0.1044 ( 34)  0.1177 ( 35) -0.1518 ( 39) -0.1247 ( 46) -0.2004 ( 47)
          -0.1616 ( 48)  0.1132 ( 49)  0.1219 ( 50)  0.1148 ( 51) -0.2029 ( 53)
 CRD 11=   0.1342 (  8) -0.1125 ( 11) -0.1144 ( 13)  0.1773 ( 15) -0.2287 ( 19)
           0.2374 ( 21) -0.2667 ( 23)  0.2943 ( 24) -0.2893 ( 25)  0.2152 ( 27)
          -0.3210 ( 28)  0.1324 ( 31)  0.1177 ( 35)  0.1218 ( 39)  0.1109 ( 41)
           0.1275 ( 43)  0.2015 ( 44)  0.2259 ( 45) -0.1607 ( 46) -0.1331 ( 48)
           0.1802 ( 49) -0.1288 ( 50) -0.1456 ( 51) -0.1638 ( 53)
 CRD 12=  -0.2138 (  3) -0.1787 (  4) -0.1800 (  7) -0.1972 ( 10)  0.2402 ( 15)
          -0.3432 ( 16)  0.2158 ( 17) -0.4156 ( 19) -0.1817 ( 21)  0.1697 ( 22)
           0.1107 ( 23) -0.1965 ( 24) -0.1192 ( 29)  0.1342 ( 30) -0.1709 ( 31)
           0.1068 ( 33) -0.1663 ( 34)  0.1689 ( 35)  0.1119 ( 40) -0.1319 ( 41)
          -0.1434 ( 42) -0.1452 ( 43) -0.1822 ( 52)
 CRD 13=  -0.2192 (  1) -0.1178 (  2) -0.2894 (  3) -0.1092 (  4)  0.1106 (  5)
          -0.1457 (  6) -0.1968 (  9)  0.2791 ( 15) -0.3469 ( 17) -0.3690 ( 18)
           0.1580 ( 20)  0.2258 ( 22) -0.1332 ( 23) -0.1681 ( 25) -0.1247 ( 30)
           0.1151 ( 31)  0.1321 ( 32) -0.1285 ( 33)  0.2014 ( 35)  0.1440 ( 36)
           0.1009 ( 41)  0.1106 ( 46)  0.2352 ( 53)
 CRD 14=   0.4016 (  1) -0.4134 (  4)  0.1117 (  6) -0.1163 (  7) -0.2665 (  9)
           0.2118 ( 10)  0.1025 ( 11) -0.1873 ( 12) -0.1764 ( 13) -0.1882 ( 14)
           0.1214 ( 16) -0.1384 ( 17) -0.1090 ( 21)  0.1003 ( 23) -0.1104 ( 26)
           0.1770 ( 28)  0.1818 ( 29) -0.1050 ( 37) -0.2187 ( 39) -0.1446 ( 41)
          -0.1256 ( 42) -0.1540 ( 43)  0.1519 ( 44)  0.1511 ( 45)  0.1859 ( 49)
 CRD 15=  -0.1961 (  1)  0.1987 (  4) -0.1395 (  8)  0.1238 (  9) -0.2762 ( 10)
          -0.4067 ( 12) -0.4193 ( 13) -0.4121 ( 14)  0.2485 ( 27)  0.1535 ( 28)
           0.1355 ( 29) -0.2171 ( 37) -0.1918 ( 38) -0.1274 ( 39) -0.1037 ( 50)
 CRD 16=  -0.1733 (  2) -0.4782 (  5) -0.5046 (  6) -0.5000 (  7)  0.1939 ( 15)
           0.1751 ( 18)  0.1776 ( 19) -0.2008 ( 33) -0.1983 ( 34) -0.1872 ( 35)
 CRD 17=  -0.4783 ( 12)  0.3549 ( 13)  0.5101 ( 37) -0.4026 ( 38) -0.1197 ( 39)
          -0.2076 ( 46)  0.3624 ( 48)
 CRD 18=  -0.1037 (  9)  0.1517 ( 12)  0.3570 ( 13) -0.4730 ( 14) -0.1609 ( 37)
          -0.3489 ( 38)  0.5114 ( 39)  0.2436 ( 46) -0.3187 ( 47)
 CRD 19=  -0.1513 (  8) -0.5866 (  9) -0.4783 ( 10)  0.2427 ( 14)  0.2052 ( 16)
           0.1937 ( 17)  0.1202 ( 26)  0.1456 ( 27) -0.2899 ( 36)  0.2238 ( 52)
          -0.1537 ( 53)
 CRD 20=  -0.1723 (  1) -0.1713 (  4)  0.6349 (  5) -0.2931 (  6) -0.2953 (  7)
           0.1580 ( 33)  0.1591 ( 34) -0.3276 ( 35) -0.1720 ( 44)  0.1708 ( 45)
          -0.1889 ( 55)  0.1539 ( 56) -0.1563 ( 59)  0.1865 ( 60)
 CRD 21=  -0.5498 (  6)  0.5470 (  7)  0.2927 ( 33) -0.2913 ( 34)  0.2353 ( 49)
           0.2328 ( 58)  0.2316 ( 62)
 CRD 22=   0.5885 (  1)  0.5885 (  4)  0.1480 (  5) -0.1338 (  6) -0.1387 (  7)
           0.2376 ( 32)  0.1034 ( 50)  0.1655 ( 56)  0.1124 ( 58) -0.1464 ( 59)
           0.1069 ( 61)  0.1063 ( 63)
 CRD 23=   0.3184 (  9) -0.2249 ( 10) -0.1393 ( 21)  0.1640 ( 23) -0.1359 ( 24)
           0.1256 ( 25) -0.1682 ( 30)  0.1440 ( 31)  0.1829 ( 41)  0.1652 ( 43)
           0.1487 ( 44)  0.1491 ( 45)  0.1079 ( 49)  0.1145 ( 51)  0.2771 ( 54)
           0.2128 ( 55)  0.2132 ( 56)  0.2948 ( 57)  0.1720 ( 58)  0.2098 ( 59)
           0.2102 ( 60)  0.2771 ( 61)  0.1690 ( 62)  0.2595 ( 63)
 CRD 24=   0.1329 (  3)  0.4306 (  8) -0.4865 ( 10)  0.2037 ( 12) -0.2358 ( 14)
          -0.1235 ( 17) -0.2737 ( 26) -0.2589 ( 27)  0.1722 ( 29)  0.2044 ( 31)
          -0.1172 ( 41)  0.1353 ( 43) -0.1018 ( 51) -0.1079 ( 52) -0.1543 ( 57)
           0.1720 ( 63)
 CRD 25=  -0.1731 (  1)  0.1730 (  4)  0.2467 (  8) -0.3517 (  9)  0.2236 ( 10)
          -0.3167 ( 11) -0.2065 ( 12) -0.2633 ( 13) -0.1974 ( 14)  0.1159 ( 25)
           0.1075 ( 26) -0.1472 ( 27) -0.1235 ( 28)  0.2209 ( 30)  0.1296 ( 37)
           0.1026 ( 38)  0.1293 ( 39)  0.1135 ( 42)  0.1197 ( 50)  0.1677 ( 55)
           0.1634 ( 56) -0.1009 ( 57)  0.1443 ( 58)  0.1857 ( 59)  0.1814 ( 60)
           0.1623 ( 62)
 CRD 26=   0.3101 (  1) -0.3051 (  4)  0.1532 (  8)  0.1038 (  9) -0.1902 ( 11)
          -0.2669 ( 12)  0.1395 ( 26) -0.1520 ( 29) -0.1042 ( 36)  0.1340 ( 38)
           0.1295 ( 39)  0.1657 ( 42)  0.1450 ( 43) -0.1373 ( 44) -0.1318 ( 45)
          -0.1646 ( 49)  0.1870 ( 50)  0.2045 ( 51)  0.1027 ( 52)  0.1839 ( 54)
          -0.1609 ( 55) -0.1555 ( 56)  0.1172 ( 57) -0.1882 ( 58) -0.1861 ( 59)
          -0.1807 ( 60) -0.2134 ( 62)  0.1664 ( 63)
 CRD 27=  -0.1027 (  1) -0.1423 (  3)  0.1026 (  4)  0.3289 (  8)  0.1829 (  9)
          -0.2396 ( 12)  0.3460 ( 13)  0.1983 ( 16) -0.1388 ( 26)  0.1407 ( 28)
          -0.2020 ( 36) -0.1458 ( 37)  0.1832 ( 38)  0.1678 ( 40) -0.1272 ( 41)
          -0.1415 ( 46) -0.1406 ( 47) -0.2912 ( 48) -0.1252 ( 50)  0.3420 ( 52)
           0.1030 ( 53) -0.1043 ( 57) -0.1531 ( 61)
 CRD 28=   0.1476 (  2)  0.1199 (  3) -0.3147 (  5) -0.1960 (  6) -0.1877 (  7)
           0.1911 (  8)  0.1186 ( 12) -0.1203 ( 13) -0.2423 ( 15) -0.2060 ( 18)
          -0.2045 ( 19)  0.1987 ( 21)  0.1947 ( 23) -0.1730 ( 24) -0.1665 ( 25)
          -0.1082 ( 30) -0.1304 ( 31)  0.2625 ( 33)  0.2692 ( 34)  0.1688 ( 35)
           0.1131 ( 37)  0.1436 ( 48) -0.1327 ( 50)  0.1390 ( 51)  0.1181 ( 56)
           0.1898 ( 57) -0.1074 ( 59) -0.1917 ( 63)
 CRD 29=  -0.2587 (  2)  0.1436 (  6)  0.1371 (  7)  0.1111 (  9)  0.4836 ( 11)
          -0.2521 ( 13) -0.2545 ( 14)  0.1062 ( 15)  0.1405 ( 16)  0.1096 ( 18)
           0.1201 ( 19) -0.1403 ( 27) -0.1559 ( 28) -0.2367 ( 29) -0.1429 ( 30)
          -0.1406 ( 31) -0.1015 ( 34) -0.1638 ( 35)  0.3003 ( 37)  0.1221 ( 38)
           0.1160 ( 39)  0.1076 ( 47)  0.1611 ( 48) -0.1016 ( 54)
 CRD 30=  -0.2487 (  2)  0.1353 (  6)  0.1423 (  7)  0.2386 (  8)  0.1662 ( 10)
          -0.4518 ( 11)  0.3393 ( 12)  0.1452 ( 17)  0.1062 ( 18)  0.1296 ( 27)
           0.2281 ( 28)  0.1021 ( 29) -0.1253 ( 31) -0.1694 ( 35) -0.1153 ( 36)
          -0.2573 ( 38) -0.1769 ( 39)  0.1841 ( 48) -0.1338 ( 53)  0.1113 ( 56)
          -0.1392 ( 59) -0.1086 ( 62)
 CRD 31=  -0.2346 (  1)  0.2552 (  4)  0.1391 (  6) -0.1934 (  7) -0.2194 (  9)
           0.2126 ( 10)  0.1379 ( 12)  0.1461 ( 13) -0.3204 ( 14)  0.1285 ( 27)
          -0.1218 ( 30)  0.1267 ( 31)  0.1274 ( 33) -0.1217 ( 34)  0.1134 ( 37)
           0.1181 ( 38) -0.1865 ( 39) -0.1197 ( 42) -0.2180 ( 46)  0.1372 ( 47)
           0.1081 ( 49)  0.1926 ( 54) -0.1850 ( 55) -0.2135 ( 56)  0.1934 ( 57)
          -0.1454 ( 59) -0.1739 ( 60)  0.2006 ( 61)  0.1999 ( 63)
 CRD 32=   0.1907 (  1) -0.1538 (  4) -0.1695 (  6)  0.1432 (  7) -0.1369 ( 11)
           0.1676 ( 12)  0.3055 ( 13) -0.4106 ( 14)  0.2150 ( 26)  0.2417 ( 27)
          -0.1049 ( 28) -0.1280 ( 33)  0.1075 ( 34)  0.1636 ( 38) -0.3055 ( 39)
          -0.2067 ( 46)  0.2947 ( 47) -0.1417 ( 49) -0.1133 ( 54)  0.1267 ( 55)
           0.1002 ( 56)  0.1655 ( 59)  0.1389 ( 60) -0.1274 ( 63)
 CRD 33=   0.3152 (  2) -0.3741 (  3)  0.1226 (  5) -0.1706 (  6) -0.1476 (  7)
           0.1845 (  9)  0.1039 ( 10)  0.2519 ( 12) -0.2389 ( 13)  0.1050 ( 16)
          -0.1175 ( 23)  0.1242 ( 24)  0.1221 ( 25)  0.1280 ( 28) -0.1433 ( 29)
           0.2153 ( 35) -0.2046 ( 36)  0.1702 ( 37) -0.1538 ( 38)  0.1100 ( 44)
           0.1765 ( 48)  0.2332 ( 52) -0.1609 ( 56) -0.1582 ( 57)  0.1927 ( 59)
 CRD 34=  -0.1544 (  1)  0.2100 (  2)  0.1660 (  3) -0.1760 (  4) -0.2879 (  5)
          -0.3124 (  8)  0.1230 (  9)  0.1274 ( 30)  0.1305 ( 31)  0.2577 ( 32)
           0.1310 ( 33)  0.1407 ( 34) -0.1462 ( 35) -0.1749 ( 36) -0.1511 ( 41)
           0.1400 ( 43) -0.1336 ( 44)  0.1412 ( 45)  0.1052 ( 50) -0.1339 ( 51)
           0.2567 ( 56) -0.2769 ( 57)  0.1132 ( 58) -0.2410 ( 59) -0.1096 ( 62)
           0.2533 ( 63)
 CRD 35=   0.1119 (  2) -0.1306 (  3) -0.2422 (  6)  0.2077 (  7) -0.1874 (  9)
           0.2764 ( 10)  0.1126 ( 11) -0.1439 ( 12)  0.1816 ( 17) -0.1192 ( 19)
          -0.1174 ( 21)  0.1031 ( 25) -0.1730 ( 26) -0.2049 ( 30) -0.1547 ( 33)
           0.1816 ( 34) -0.2181 ( 42)  0.1614 ( 46) -0.2507 ( 49) -0.1193 ( 50)
          -0.2265 ( 51) -0.1188 ( 52) -0.2672 ( 53) -0.2035 ( 58)  0.1480 ( 61)
          -0.2202 ( 62)  0.1273 ( 63)
 CRD 36=  -0.2020 (  2)  0.2264 (  3) -0.1309 (  6)  0.1496 (  7) -0.1305 (  8)
          -0.1312 (  9)  0.1753 ( 12) -0.1856 ( 13) -0.1536 ( 16)  0.1043 ( 18)
           0.1447 ( 23)  0.1417 ( 28) -0.1614 ( 29)  0.2089 ( 31) -0.1396 ( 33)
           0.1293 ( 37) -0.1145 ( 38)  0.2701 ( 40) -0.1383 ( 42) -0.2903 ( 46)
          -0.2839 ( 47) -0.1287 ( 49) -0.1852 ( 50)  0.2625 ( 53)  0.1862 ( 54)
          -0.1422 ( 58) -0.1254 ( 61) -0.1394 ( 62)
 CRD 37=   0.1550 (  2) -0.1423 (  3) -0.2614 (  5)  0.1310 (  7)  0.2085 (  8)
          -0.1296 (  9) -0.1127 ( 10)  0.1488 ( 15) -0.1147 ( 19) -0.1588 ( 20)
          -0.1570 ( 21) -0.1328 ( 23)  0.1508 ( 24)  0.1491 ( 25)  0.1289 ( 34)
          -0.1645 ( 35)  0.1828 ( 36)  0.1356 ( 41) -0.1601 ( 43) -0.1601 ( 44)
           0.1888 ( 45) -0.1384 ( 46) -0.1474 ( 47)  0.1916 ( 53) -0.2033 ( 54)
          -0.2831 ( 55) -0.1409 ( 58)  0.2936 ( 60)  0.2104 ( 61)
 CRD 38=  -0.1811 (  1)  0.1633 (  2)  0.2222 (  3) -0.1628 (  4)  0.1289 (  5)
           0.1289 (  8) -0.1086 (  9) -0.1213 ( 10) -0.1577 ( 15) -0.1911 ( 20)
          -0.2410 ( 22)  0.2555 ( 32)  0.1193 ( 35)  0.1679 ( 36)  0.1174 ( 41)
          -0.1450 ( 43)  0.1295 ( 44) -0.1032 ( 45) -0.1114 ( 46) -0.1111 ( 47)
           0.1767 ( 50) -0.1348 ( 51)  0.1742 ( 53) -0.2866 ( 54)  0.2731 ( 55)
           0.1423 ( 58) -0.2748 ( 60)  0.2874 ( 61) -0.1729 ( 62)
 CRD 39=  -0.2051 (  1)  0.2087 (  4) -0.1320 (  6)  0.1338 (  7)  0.1578 (  9)
          -0.1397 ( 10)  0.1513 ( 16) -0.1403 ( 17)  0.1380 ( 18) -0.1406 ( 19)
          -0.1546 ( 21)  0.1513 ( 23)  0.1581 ( 24) -0.1563 ( 25) -0.2196 ( 40)
          -0.2735 ( 41) -0.2644 ( 43)  0.2663 ( 44)  0.2697 ( 45)  0.2482 ( 50)
           0.2506 ( 51) -0.2532 ( 58) -0.2486 ( 62)

 THE DETERMINANT OF THE G MATRIX IS 10**(   -14)


                     --------------------
                     INTERNAL COORDINATES
                     --------------------

                 - - ATOMS - -         COORDINATE      COORDINATE
 NO.   TYPE    I  J  K  L  M  N        (BOHR,RAD)       (ANG,DEG)
 ----------------------------------------------------------------
   1 STRETCH   1  6                     2.0946420       1.1084369
   2 STRETCH   1  2                     2.8554906       1.5110607
   3 STRETCH   1  3                     2.8878207       1.5281690
   4 STRETCH   1  7                     2.0932530       1.1077018
   5 STRETCH   2  8                     2.0737205       1.0973657
   6 STRETCH   2 10                     2.0753800       1.0982439
   7 STRETCH   2  9                     2.0754038       1.0982565
   8 STRETCH   3  4                     2.6726746       1.4143186
   9 STRETCH   3 12                     2.0932144       1.1076815
  10 STRETCH   3 11                     2.0866098       1.1041864
  11 STRETCH   4  5                     2.6550905       1.4050135
  12 STRETCH   5 15                     2.0721481       1.0965337
  13 STRETCH   5 14                     2.0727037       1.0968276
  14 STRETCH   5 13                     2.0649628       1.0927313
  15 BEND      1  2  8                  1.9415404     111.2420684
  16 BEND      1  3 11                  1.9437926     111.3711113
  17 BEND      1  3 12                  1.9364183     110.9485983
  18 BEND      1  2 10                  1.9485306     111.6425819
  19 BEND      1  2  9                  1.9490904     111.6746523
  20 BEND      1  3  4                  1.9787606     113.3746325
  21 BEND      2  1  7                  1.9235285     110.2100623
  22 BEND      2  1  3                  1.9308856     110.6315959
  23 BEND      2  1  6                  1.9200248     110.0093172
  24 BEND      3  1  6                  1.9249898     110.2937887
  25 BEND      3  1  7                  1.9217298     110.1070052
  26 BEND      3  4  5                  2.0096621     115.1451551
  27 BEND      4  5 13                  1.8018564     103.2387674
  28 BEND      4  5 14                  1.9568097     112.1169375
  29 BEND      4  5 15                  1.9586950     112.2249545
  30 BEND      4  3 11                  1.7714678     101.4976296
  31 BEND      4  3 12                  1.9395038     111.1253830
  32 BEND      6  1  7                  1.8408046     105.4703353
  33 BEND      8  2  9                  1.8742251     107.3851858
  34 BEND      8  2 10                  1.8741926     107.3833235
  35 BEND      9  2 10                  1.8722708     107.2732171
  36 BEND     11  3 12                  1.8859387     108.0563261
  37 BEND     13  5 14                  1.9201926     110.0189290
  38 BEND     13  5 15                  1.9185866     109.9269123
  39 BEND     14  5 15                  1.9055547     109.1802404
  40 TORSION   1  3  4  5               1.3326905      76.3575410
  41 TORSION   2  1  3 11               1.0451820      59.8845184
  42 TORSION   2  1  3  4               3.0300208     173.6074060
  43 TORSION   2  1  3 12              -1.0563916     -60.5267773
  44 TORSION   3  1  2  9               1.0513536      60.2381220
  45 TORSION   3  1  2 10              -1.0447183     -59.8579467
  46 TORSION   3  4  5 14               1.0297330      58.9993548
  47 TORSION   3  4  5 15              -1.1224151     -64.3096458
  48 TORSION   3  4  5 13               3.0957437     177.3730478
  49 TORSION   3  1  2  8              -3.1380647    -179.7978651
  50 TORSION   4  3  1  7               0.8995278      51.5391468
  51 TORSION   4  3  1  6              -1.1248918     -64.4515497
  52 TORSION   5  4  3 11              -2.8641253    -164.1022928
  53 TORSION   5  4  3 12              -0.8624382     -49.4140668
  54 TORSION   6  1  3 12               1.0718812      61.4142669
  55 TORSION   6  1  2  9              -1.0798322     -61.8698259
  56 TORSION   6  1  2 10               3.1072813     178.0341054
  57 TORSION   6  1  3 11              -3.1097306    -178.1744373
  58 TORSION   6  1  2  8               1.0139348      58.0941870
  59 TORSION   7  1  2  9              -3.1023939    -177.7540748
  60 TORSION   7  1  2 10               1.0847196      62.1498565
  61 TORSION   7  1  3 11              -1.0853110     -62.1837409
  62 TORSION   7  1  2  8              -1.0086269     -57.7900619
  63 TORSION   7  1  3 12               3.0963007     177.4049634

     ------------------------------------------
     THE POINT GROUP IS C1 , NAXIS= 1, ORDER= 1
     ------------------------------------------

     DIMENSIONS OF THE SYMMETRY SUBSPACES ARE
 A   =  155

 ..... DONE SETTING UP THE RUN .....
 STEP CPU TIME =     0.00 TOTAL CPU TIME =        0.0 (    0.0 MIN)
 TOTAL WALL CLOCK TIME=        0.0 SECONDS, CPU UTILIZATION IS   0.00%


          -----------------------------
          STATIONARY POINT LOCATION RUN
          -----------------------------

 OBTAINING INITIAL HESSIAN, HESS=GUESS   
 DIAGONAL GUESS HESSIAN IN INTERNAL COORDS IS
     1  0.3342     2  0.3809     3  0.3685     4  0.3347     5  0.3414
     6  0.3409     7  0.3409     8  0.3712     9  0.3347    10  0.3369
    11  0.3780    12  0.3420    13  0.3418    14  0.3445    15  0.2248
    16  0.2233    17  0.2231    18  0.2247    19  0.2247    20  0.2441
    21  0.2242    22  0.2500    23  0.2241    24  0.2231    25  0.2231
    26  0.2402    27  0.2206    28  0.2204    29  0.2204    30  0.2194
    31  0.2192    32  0.2016    33  0.2026    34  0.2026    35  0.2026
    36  0.2018    37  0.2029    38  0.2029    39  0.2027    40  0.2500
    41  0.2500    42  0.2500    43  0.2500    44  0.2500    45  0.2500
    46  0.2500    47  0.2500    48  0.2500    49  0.2500    50  0.2500
    51  0.2500    52  0.2500    53  0.2500    54  0.2500    55  0.2500
    56  0.2500    57  0.2500    58  0.2500    59  0.2500    60  0.2500
    61  0.2500    62  0.2500    63  0.2500
 TRANSFORMING HESSIAN TO SYMMETRY COORDINATES

          PARAMETERS CONTROLLING GEOMETRY SEARCH ARE
          METHOD =QA                  UPHESS =BFGS    
          NNEG   =         0          NFRZ   =         3
          NSTEP  =        50          IFOLOW =         1
          HESS   =GUESS               RESTAR =         F
          IHREP  =         0          HSSEND =         F
          NPRT   =         0          NPUN   =         0
          OPTTOL = 5.000E-04          RMIN   = 1.500E-03
          RMAX   = 1.000E-01          RLIM   = 7.000E-02
          DXMAX  = 3.000E-01          PURIFY =         F
          MOVIE  =         F          TRUPD  =         T
          TRMAX  = 5.000E-01          TRMIN  = 5.000E-02
          ITBMAT =         5          STPT   =         F
          STSTEP = 1.000E-02          PROJCT=          F
          FROZEN COORD(S)=   1   2   3


      ***** EQUILIBRIUM GEOMETRY LOCATED *****
            (SUBJECT TO   3 CONSTRAINT(S))
 COORDINATES OF ALL ATOMS ARE (ANGS)
   ATOM   CHARGE       X              Y              Z
 ------------------------------------------------------------
 C           6.0   1.2494014427   2.1339416165   2.1248795350
 C           6.0   0.6167777409   2.8272003003   3.3312556321
 C           6.0   2.1115029591   0.9482406440   2.5432470002
 O           8.0   2.5861650058   0.1875289261   1.4598245224
 C           6.0   3.6446374839   0.7552686556   0.7377807375
 H           1.0   1.8467440525   2.8513187593   1.5693399151
 H           1.0   0.4738668143   1.7746911074   1.4525468206
 H           1.0   0.0068210510   3.6682835390   3.0170646548
 H           1.0   1.3771846010   3.2048406102   4.0102690561
 H           1.0  -0.0183795930   2.1423112928   3.8870671805
 H           1.0   1.5212387391   0.2668789369   3.1460311902
 H           1.0   2.9504272129   1.2870222691   3.1506390465
 H           1.0   3.9751190074   0.0188448372   0.0168623694
 H           1.0   4.4758615809   1.0052376916   1.3938836009
 H           1.0   3.3393499764   1.6502460589   0.2035931771


                     --------------------
                     INTERNAL COORDINATES
                     --------------------

                 - - ATOMS - -         COORDINATE      COORDINATE
 NO.   TYPE    I  J  K  L  M  N        (BOHR,RAD)       (ANG,DEG)
 ----------------------------------------------------------------
   1 STRETCH   1  6                     2.0528309       1.0863114
   2 STRETCH   1  2                     2.8883543       1.5284514
   3 STRETCH   1  3                     2.8809101       1.5245121
   4 STRETCH   1  7                     2.0549814       1.0874494
   5 STRETCH   2  8                     2.0511878       1.0854419
   6 STRETCH   2 10                     2.0540063       1.0869334
   7 STRETCH   2  9                     2.0544112       1.0871477
   8 STRETCH   3  4                     2.6575962       1.4063394
   9 STRETCH   3 12                     2.0592742       1.0897211
  10 STRETCH   3 11                     2.0492982       1.0844420
  11 STRETCH   4  5                     2.6483413       1.4014420
  12 STRETCH   5 15                     2.0523689       1.0860669
  13 STRETCH   5 14                     2.0561478       1.0880666
  14 STRETCH   5 13                     2.0451527       1.0822483
  15 BEND      1  2  8                  1.9343345     110.8292002
  16 BEND      1  3 11                  1.9107149     109.4758969
  17 BEND      1  3 12                  1.9246460     110.2740954
  18 BEND      1  2 10                  1.9387101     111.0799078
  19 BEND      1  2  9                  1.9401622     111.1631045
  20 BEND      1  3  4                  1.9824771     113.5875728
  21 BEND      2  1  7                  1.9205293     110.0382205
  22 BEND      2  1  3                  1.9500465     111.7294355
  23 BEND      2  1  6                  1.9089070     109.3723120
  24 BEND      3  1  6                  1.9209077     110.0599024
  25 BEND      3  1  7                  1.8923283     108.4224259
  26 BEND      3  4  5                  2.0182814     115.6390032
  27 BEND      4  5 13                  1.8735755     107.3479709
  28 BEND      4  5 14                  1.9384034     111.0623337
  29 BEND      4  5 15                  1.9551295     112.0206662
  30 BEND      4  3 11                  1.8463357     105.7872442
  31 BEND      4  3 12                  1.9152968     109.7384206
  32 BEND      6  1  7                  1.8693523     107.1059953
  33 BEND      8  2  9                  1.8803943     107.7386556
  34 BEND      8  2 10                  1.8837812     107.9327100
  35 BEND      9  2 10                  1.8841229     107.9522892
  36 BEND     11  3 12                  1.8802576     107.7308272
  37 BEND     13  5 14                  1.9015110     108.9485523
  38 BEND     13  5 15                  1.8953971     108.5982539
  39 BEND     14  5 15                  1.8986519     108.7847410
  40 TORSION   1  3  4  5               1.3231678      75.8119289
  41 TORSION   2  1  3 11               0.9597519      54.9897341
  42 TORSION   2  1  3  4               3.0190454     172.9785576
  43 TORSION   2  1  3 12              -1.1060074     -63.3695568
  44 TORSION   3  1  2  9               1.0508147      60.2072459
  45 TORSION   3  1  2 10              -1.0475655     -60.0210821
  46 TORSION   3  4  5 14               0.9542359      54.6736923
  47 TORSION   3  4  5 15              -1.1727793     -67.1953043
  48 TORSION   3  4  5 13               3.0312269     173.6765057
  49 TORSION   3  1  2  8               3.1415644     179.9983819
  50 TORSION   4  3  1  7               0.8996034      51.5434769
  51 TORSION   4  3  1  6              -1.1398413     -65.3080985
  52 TORSION   5  4  3 11              -2.8638700    -164.0876658
  53 TORSION   5  4  3 12              -0.8400501     -48.1313262
  54 TORSION   6  1  3 12               1.0182912      58.3437871
  55 TORSION   6  1  2  9              -1.0803903     -61.9018048
  56 TORSION   6  1  2 10               3.1044148     177.8698672
  57 TORSION   6  1  3 11               3.0840505     176.7030780
  58 TORSION   6  1  2  8               1.0103594      57.8893312
  59 TORSION   7  1  2  9              -3.1293239    -179.2970509
  60 TORSION   7  1  2 10               1.0554813      60.4746211
  61 TORSION   7  1  3 11              -1.1596901     -66.4453466
  62 TORSION   7  1  2  8              -1.0385741     -59.5059150
  63 TORSION   7  1  3 12               3.0577359     175.1953625

          INTERNUCLEAR DISTANCES (ANGS.)


 =====================================================
   GAMESS/COSab RESULTS
 =====================================================

   Dielectric Constant                  = INFTY
   Basic Grid Size                      =                 1082
   Number of Segments                   =                   92
   Number of Segments located on spheres=                  220
   Number of Segments of the cavity     =                  543
   Solvent Radius (rsolv)               = 1.40
   Outlying Charge Error Method         = double cavity

 =====================================================

  Total solvated Energy (a.u.)          =  -232.2054997567
  Total Energy corrected (a.u.)         =  -232.2053053222

  Outlying charge effect (a.u.)         =     0.0001944345
  Outlying charge effect (kcal/mol)     =     0.1220095667

  Dielectric Energy (a.u.)              =    -0.0070711527
  Dielectric energy corr. (a.u.)        =    -0.0068767183

  Sum of polarization charges           =     0.0231235730
  Sum of polarization charges(cor.)     =    -0.0231235730

  Total surface area of cavity (A**2)   =  126.38
  Total volume of cavity (A**3)         =  113.65

 =====================================================
 NPS=                   543
NR.  ATOM  (X, Y, Z)(a.u.)                  CHARGE(e)  AREA(A**2) SIGMA(e/A**2)
   1   1   0.953105   5.645294   0.900775   0.001553   0.371649   0.004180
   2   1  -0.445593   1.540605   4.459589   0.000051   0.092912   0.000550
   3   1   1.799944   5.974081   0.821698   0.001108   0.278737   0.003976
   4   1   5.179433   6.393738   4.890478   0.000089   0.139368   0.000641
   5   1   2.082123   3.806454   0.253072   0.000336   0.092912   0.003621
   6   1   1.849513   4.844580   0.359856   0.001613   0.325193   0.004960
   7   1   0.968272   6.591986   1.608398   0.001085   0.371649   0.002919
   8   1   0.923064   7.055705   2.261268   0.000248   0.139368   0.001782
   9   1  -0.063972   5.900955   1.798968   0.000881   0.325193   0.002708
  10   1  -0.797245   1.990031   4.386405   0.000050   0.092912   0.000535
  11   1   1.672579   7.293011   2.232249   0.000287   0.185824   0.001544
  12   1   5.521220   5.981298   4.722458   0.000015   0.046456   0.000327
  13   2  -2.575183   5.257181   6.828008   0.001022   0.232280   0.004400
  14   2  -0.078608   7.511315   9.129433   0.000825   0.371649   0.002219
  15   2   2.486319   8.854005   6.753432   0.001634   0.371649   0.004396
  16   2   1.690338   3.188916   9.356265   0.000469   0.139368   0.003362
  17   2   1.493826   8.246667   3.898695   0.000082   0.092912   0.000883
  18   2   1.644569   9.090352   6.391749   0.001100   0.278737   0.003946
  19   2  -0.526420   8.090765   8.262195   0.001125   0.418105   0.002691
  20   2  -2.573127   5.896076   6.277769   0.001608   0.371649   0.004325
  21   2  -1.784649   5.702414   3.960379   0.000480   0.232280   0.002065
  22   2   1.181021   4.443856   9.966155   0.001551   0.325193   0.004769
  23   2   1.925784   4.652444   9.932454   0.000996   0.232280   0.004288
  24   2  -2.213712   4.709378   4.725475   0.000911   0.325193   0.002800
  25   2  -2.525542   4.716382   5.777498   0.001283   0.325193   0.003947
  26   2  -2.242180   6.069304   7.759266   0.002312   0.511017   0.004524
  27   2  -1.240239   6.960826   8.719593   0.001129   0.418105   0.002701
  28   2   0.874615   8.227411   8.719538   0.001480   0.418105   0.003541
  29   2   1.679046   8.827559   7.664756   0.001597   0.325193   0.004910
  30   2   2.416232   8.813547   5.474954   0.001045   0.325193   0.003213
  31   2   2.562714   8.480950   4.719376   0.000335   0.139368   0.002406
  32   2  -1.547323   2.880584   5.366192   0.000119   0.092912   0.001284
  33   2   0.045343   5.353582   9.904767   0.001213   0.371649   0.003263
  34   2  -0.291605   6.440760   9.605001   0.001122   0.464561   0.002414
  35   2   0.831691   7.137808   9.604252   0.000833   0.325193   0.002563
  36   2   3.333306   8.436057   6.169712   0.000840   0.278737   0.003012
  37   2   4.123154   7.638251   5.778543   0.000282   0.185824   0.001517
  38   2   2.338853   3.742089   9.511658   0.001596   0.371649   0.004295
  39   2   1.878615   8.689049   4.689780   0.000321   0.139368   0.002306
  40   2   0.708816   8.742862   7.880728   0.001264   0.325193   0.003888
  41   2  -1.791047   7.035236   7.931585   0.000902   0.278737   0.003237
  42   2  -2.387253   5.573946   5.026932   0.000737   0.232280   0.003173
  43   2   1.000117   5.887294  10.031494   0.001520   0.418105   0.003635
  44   2  -2.100342   3.686815   5.358912   0.000867   0.325193   0.002665
  45   2  -1.361522   5.886790   9.052343   0.000966   0.371649   0.002599
  46   2   3.414264   8.253680   5.427250   0.000562   0.232280   0.002420
  47   3   5.877727  -0.956762   6.585413   0.000127   0.278737   0.000456
  48   3   4.426806   1.796728   8.560185   0.000441   0.371649   0.001187
  49   3   3.788941   1.099306   8.516041   0.000125   0.278737   0.000448
  50   3   5.014738  -1.024092   7.109225   0.000388   0.371649   0.001044
  51   3   0.683881   0.018101   4.351714  -0.000118   0.139368  -0.000849
  52   3   1.126679  -0.330797   3.549506   0.000055   0.185824   0.000294
  53   3   5.204822  -1.562811   6.052926   0.000543   0.232280   0.002336
  54   3   5.711468  -0.148027   7.555226   0.000677   0.325193   0.002083
  55   3   5.027504   0.771409   8.294131   0.000939   0.325193   0.002887
  56   3   6.572372  -0.614018   6.158059   0.000505   0.232280   0.002176
  57   3   6.456223  -0.105313   6.951581   0.000284   0.232280   0.001224
  58   3   4.894022  -0.067695   7.969771   0.000651   0.278737   0.002337
  59   3   4.409237  -1.743892   6.073624   0.000093   0.139368   0.000668
  60   3   1.337766  -0.779035   4.006455  -0.000098   0.185824  -0.000529
  61   3   7.076906   0.109859   6.194190   0.000005   0.139368   0.000033
  62   4   2.767304  -0.907696   0.642521   0.004585   0.240512   0.019064
  63   4   4.247082  -2.831647   2.823514   0.006429   0.343589   0.018712
  64   4   3.592331  -1.319203   0.291444   0.003560   0.274871   0.012951
  65   4   4.805206  -2.495373   1.197642   0.003353   0.206154   0.016263
  66   4   4.690943  -2.763523   1.861557   0.004995   0.274871   0.018173
  67   4   2.958113  -1.758258   1.215863   0.006526   0.343589   0.018994
  68   4   3.503096  -2.476642   1.962189   0.007146   0.377948   0.018907
  69   4   5.247278  -2.862923   3.048327   0.006625   0.343589   0.019282
  70   4   6.277465  -2.513749   3.395431   0.005379   0.274871   0.019569
  71   4   2.975265  -0.042844   0.160293   0.005287   0.274871   0.019235
  72   4   2.194797  -1.082229   1.639698   0.005341   0.274871   0.019430
  73   4   2.032914  -1.143973   2.342737   0.002288   0.137436   0.016650
  74   4   2.748386  -2.077473   3.035247   0.002844   0.171795   0.016554
  75   4   3.371069  -2.484587   3.213052   0.004530   0.274871   0.016480
  76   4   4.265723  -2.626028   3.896947   0.006295   0.343589   0.018320
  77   4   5.036804  -2.382096   4.506229   0.002512   0.206154   0.012183
  78   4   6.196042  -2.122882   4.406273   0.003922   0.206154   0.019027
  79   4   6.765960  -1.653675   4.491412   0.003086   0.240512   0.012829
  80   4   2.327214  -0.393630   0.900741   0.004595   0.206154   0.022290
  81   4   4.037469  -2.103360   0.808750   0.006493   0.377948   0.017180
  82   4   5.790270  -2.715935   2.191094   0.004208   0.309230   0.013608
  83   4   2.533686  -1.841213   2.305585   0.004436   0.274871   0.016137
  84   4   5.631858  -2.554232   4.003668   0.004334   0.240512   0.018019
  85   5   4.532602  -0.376339  -0.948096   0.000305   0.185824   0.001642
  86   5   6.535128   2.124002  -2.303732   0.000448   0.232280   0.001927
  87   5  10.115192   2.306060  -0.364517  -0.000830   0.371649  -0.002233
  88   5   9.920671  -0.642260   2.288852   0.000966   0.371649   0.002599
  89   5   7.879649   5.024770   1.992166   0.000295   0.185824   0.001589
  90   5   7.450857  -2.308092   1.511982   0.000230   0.185824   0.001236
  91   5   9.851900  -0.911184   1.228477   0.000322   0.278737   0.001157
  92   5   9.924970   1.298276  -0.850918  -0.000729   0.418105  -0.001744
  93   5   6.666699   1.294330  -2.376457   0.000538   0.371649   0.001447
  94   5   5.167184  -0.561780  -1.320376  -0.000023   0.232280  -0.000099
  95   5   8.584218   4.782711   1.012235   0.000412   0.371649   0.001108
  96   5   8.744602   4.663962   1.993112   0.000489   0.278737   0.001754
  97   5   4.579630   0.449387  -1.434642   0.000073   0.371649   0.000197
  98   5   5.398993   1.603600  -2.075364   0.000725   0.371649   0.001950
  99   5   7.794980   2.303343  -2.168514   0.000415   0.511017   0.000813
 100   5   9.245218   2.412989  -1.390238  -0.000738   0.418105  -0.001764
 101   5  10.501211   1.484232   0.289159  -0.000151   0.371649  -0.000407
 102   5  10.389540   0.008510   1.472784   0.000797   0.371649   0.002145
 103   5   9.060701  -1.547963   2.236175   0.000480   0.464561   0.001032
 104   5   7.974126  -2.075297   2.308150   0.000266   0.278737   0.000954
 105   5   3.854321   1.110822  -0.838454   0.000572   0.185824   0.003079
 106   5   9.039243   4.207958   0.008059  -0.000351   0.325193  -0.001079
 107   5   9.658968   3.351076  -0.309147  -0.001062   0.464561  -0.002286
 108   5  10.332727   2.772830   0.617559  -0.000579   0.278737  -0.002078
 109   5   9.322431  -0.793640   3.244154   0.000418   0.371649   0.001125
 110   5   8.514639  -0.625895   4.118318   0.000404   0.278737   0.001449
 111   5   8.027753   4.713959   2.871157   0.000313   0.232280   0.001348
 112   5   8.506266  -1.979901   1.628017   0.000038   0.139368   0.000276
 113   5  10.382868   0.440366   0.349335   0.000144   0.278737   0.000518
 114   5   8.707732   1.793687  -1.897641  -0.000318   0.278737  -0.001140
 115   5   5.515596   0.566880  -2.020799   0.000406   0.325193   0.001249
 116   5   5.206898  -1.290576  -0.624124   0.000150   0.139368   0.001076
 117   5   9.646503   3.965611   0.916509  -0.000302   0.418105  -0.000723
 118   5   4.318391   1.767004  -1.357014   0.000517   0.511017   0.001011
 119   5   8.673279   3.440842  -1.259143  -0.000812   0.464561  -0.001747
 120   5  10.631004   0.992691   1.110352   0.000004   0.232280   0.000016
 121   5   8.351462  -1.484722   3.307589   0.000492   0.325193   0.001514
 122   6   4.799877   7.203224   1.953354  -0.002384   0.392554  -0.006072
 123   6   5.057849   7.141536   3.674373  -0.000641   0.314043  -0.002041
 124   6   3.351304   7.768212   2.372728  -0.001122   0.333671  -0.003362
 125   6   3.219687   6.482510   0.782811  -0.000808   0.314043  -0.002572
 126   6   5.486778   6.818717   2.997821  -0.001799   0.372926  -0.004825
 127   6   4.335491   7.690604   2.827812  -0.001408   0.392554  -0.003586
 128   6   3.037453   7.329126   1.529194  -0.000848   0.353299  -0.002401
 129   6   4.035605   7.008116   1.201195  -0.001822   0.333671  -0.005461
 130   7  -0.919282   2.638160   1.251669  -0.002663   0.529948  -0.005025
 131   7  -1.536867   3.009845   2.721173  -0.000868   0.294415  -0.002949
 132   7  -0.594068   1.400151   2.755071  -0.001032   0.353299  -0.002921
 133   7   0.506527   3.595121   0.331302  -0.000762   0.372926  -0.002043
 134   7  -0.868729   4.554375   1.527962  -0.000675   0.353299  -0.001910
 135   7  -1.235495   2.133464   2.673255  -0.001463   0.431809  -0.003389
 136   7  -0.289640   1.548214   1.574052  -0.002050   0.451437  -0.004541
 137   7   0.323958   2.389524   0.558847  -0.002322   0.549575  -0.004226
 138   7  -0.402669   3.917938   0.737052  -0.001462   0.471065  -0.003103
 139   7  -1.396205   3.720582   1.939525  -0.001475   0.471065  -0.003130
 140   8  -1.316655   8.883560   5.023911  -0.003518   0.588831  -0.005975
 141   8  -2.417847   7.280714   5.630038  -0.000783   0.372926  -0.002099
 142   8  -1.605728   7.269585   3.884494  -0.000997   0.353299  -0.002823
 143   8   0.228904   8.697080   4.006414  -0.001142   0.353299  -0.003232
 144   8   0.231309   9.365834   5.954565  -0.000852   0.372926  -0.002285
 145   8  -1.376901   8.550088   6.920269  -0.001032   0.412182  -0.002503
 146   8  -2.091159   7.647726   4.654571  -0.002033   0.490692  -0.004143
 147   8  -0.842544   8.236487   3.803598  -0.002020   0.490692  -0.004116
 148   8   0.119277   9.236730   4.857503  -0.001802   0.471065  -0.003825
 149   8  -0.727755   9.187406   6.333827  -0.001852   0.471065  -0.003931
 150   8  -2.077805   8.137740   6.160177  -0.001913   0.490692  -0.003899
 151   9   4.140314   7.113019   9.176287  -0.002653   0.490692  -0.005407
 152   9   3.729018   5.125484   9.553069  -0.001036   0.353299  -0.002932
 153   9   2.666232   6.478829   9.997502  -0.000834   0.353299  -0.002360
 154   9   2.946898   8.216167   8.696960  -0.000831   0.372926  -0.002228
 155   9   4.368760   7.736916   7.276825  -0.000842   0.372926  -0.002259
 156   9   4.570081   6.001329   9.048243  -0.002471   0.431809  -0.005721
 157   9   3.448701   5.979230   9.883328  -0.001423   0.392554  -0.003626
 158   9   2.867169   7.466161   9.572623  -0.001664   0.471065  -0.003532
 159   9   3.865422   8.063713   8.218889  -0.001726   0.471065  -0.003664
 160   9   4.874688   6.934533   7.896011  -0.002496   0.490692  -0.005087
 161  10  -1.631774   2.830079   8.759791  -0.002434   0.451437  -0.005392
 162  10   0.321291   2.696846   9.365807  -0.000959   0.353299  -0.002714
 163  10  -1.683795   2.331603   6.738574  -0.001207   0.353299  -0.003416
 164  10  -2.461733   3.902377   7.696769  -0.000815   0.372926  -0.002185
 165  10  -1.377628   4.282974   9.389172  -0.000997   0.412182  -0.002419
 166  10  -0.578585   2.231355   8.906807  -0.002176   0.412182  -0.005280
 167  10  -1.277210   1.986612   7.835828  -0.002431   0.431809  -0.005630
 168  10  -2.223586   2.933298   7.321593  -0.001547   0.431809  -0.003583
 169  10  -2.118489   3.946493   8.642647  -0.001541   0.431809  -0.003569
 170  10  -0.546163   3.466425   9.676760  -0.001551   0.510320  -0.003040
 171  11   1.896873  -1.401233   7.148381  -0.002880   0.471065  -0.006113
 172  11   1.802379  -1.642353   5.418853  -0.001194   0.294415  -0.004055
 173  11   0.618171  -0.453419   5.784448  -0.001896   0.372926  -0.005083
 174  11   2.704590  -0.006412   8.342080  -0.001752   0.392554  -0.004463
 175  11   3.344739  -1.662499   7.003007  -0.001370   0.372926  -0.003673
 176  11   1.158418  -1.250678   5.848234  -0.001692   0.372926  -0.004538
 177  11   0.958741  -0.615930   6.998313  -0.002644   0.392554  -0.006736
 178  11   1.752976  -0.388936   7.939857  -0.002804   0.431809  -0.006494
 179  11   3.196131  -0.972969   7.881482  -0.001837   0.471065  -0.003900
 180  11   2.555735  -1.913049   6.244602  -0.002155   0.431809  -0.004990
 181  12   7.133117   3.072502   7.742376  -0.001536   0.294415  -0.005217
 182  12   6.980974   4.429690   6.217417  -0.001701   0.314043  -0.005415
 183  12   7.633601   1.421911   6.836317  -0.001052   0.215905  -0.004875
 184  12   6.429312   1.806050   8.170630  -0.000948   0.333671  -0.002840
 185  12   7.527072   3.706917   6.729317  -0.001666   0.294415  -0.005660
 186  12   7.809920   2.650285   6.951266  -0.001606   0.274788  -0.005846
 187  12   7.335956   2.132085   7.640811  -0.001383   0.294415  -0.004696
 188  12   6.145052   2.821525   8.311617  -0.002005   0.412182  -0.004864
 189  12   6.801412   3.955362   7.441121  -0.002245   0.353299  -0.006354
 190  12   7.093206   1.189972   7.433273  -0.000615   0.255160  -0.002411
 191  13   8.200506  -1.676950  -1.589270  -0.004494   0.608459  -0.007386
 192  13   7.398858  -0.149939  -2.415162  -0.001642   0.392554  -0.004182
 193  13   6.314841  -1.608002  -1.346801  -0.001518   0.353299  -0.004297
 194  13   7.656357  -2.416730   0.047588  -0.001588   0.353299  -0.004494
 195  13   9.542659  -1.330745  -0.178304  -0.001491   0.372926  -0.003997
 196  13   9.273014   0.030819  -1.680902  -0.001822   0.412182  -0.004421
 197  13   6.874141  -1.086174  -2.058590  -0.002659   0.490692  -0.005419
 198  13   7.060823  -2.230840  -0.801707  -0.002980   0.490692  -0.006072
 199  13   8.696844  -2.106344  -0.175560  -0.002766   0.510320  -0.005421
 200  13   9.455943  -0.920556  -1.126385  -0.003035   0.510320  -0.005948
 201  13   8.393583  -0.303087  -2.235965  -0.002795   0.471065  -0.005934
 202  14  10.646545   2.329727   3.664123  -0.002754   0.451437  -0.006100
 203  14   9.210374   3.984418   3.693711  -0.001299   0.333671  -0.003893
 204  14  10.344484   3.471241   2.551442  -0.001649   0.392554  -0.004202
 205  14  10.851458   1.346525   2.669570  -0.001331   0.353299  -0.003769
 206  14   9.718777   0.627629   4.315720  -0.001539   0.431809  -0.003565
 207  14   9.838365   2.976607   4.357487  -0.002578   0.412182  -0.006255
 208  14   9.994875   3.686349   3.327714  -0.001675   0.353299  -0.004741
 209  14  10.837931   2.461546   2.397494  -0.001859   0.412182  -0.004509
 210  14  10.518581   0.880136   3.500307  -0.001660   0.412182  -0.004028
 211  14   9.978688   1.705680   4.553815  -0.002443   0.412182  -0.005926
 212  15   5.956430   5.078700  -1.053130  -0.002508   0.372926  -0.006724
 213  15   7.320083   5.356573   0.301855  -0.000989   0.274788  -0.003598
 214  15   4.797728   3.542643  -1.503882  -0.001269   0.353299  -0.003593
 215  15   5.971800   3.716947  -1.973714  -0.001404   0.392554  -0.003576
 216  15   7.533985   4.539033  -1.202778  -0.001202   0.314043  -0.003827
 217  15   6.497061   5.481692  -0.260012  -0.001725   0.255160  -0.006759
 218  15   5.140399   4.473052  -1.297916  -0.002475   0.372926  -0.006637
 219  15   6.726629   4.299235  -1.728981  -0.001623   0.372926  -0.004352
 220  15   7.262886   5.136846  -0.642068  -0.001378   0.294415  -0.004679
 221   1   4.692319   6.907587   4.817720  -0.000020   0.027955  -0.000706
 222   2   4.453877   7.106317   5.207626   0.000015   0.027955   0.000521
 223   6   4.732308   6.971872   4.524403  -0.000057   0.027955  -0.002052
 224   1   2.092461   7.675080   3.013304  -0.000003   0.027955  -0.000098
 225   2   1.887798   7.863839   3.426654   0.000052   0.027955   0.001863
 226   6   2.365186   7.670660   2.881517  -0.000030   0.027955  -0.001061
 227   1  -1.008592   5.242939   2.781623   0.000009   0.027212   0.000336
 228   2  -1.180559   5.456893   3.197557   0.000034   0.027212   0.001253
 229   7  -1.052383   4.989760   2.620195  -0.000019   0.027212  -0.000680
 230   1  -1.075138   2.473628   4.338136   0.000005   0.027212   0.000179
 231   2  -1.246230   2.723979   4.733614   0.000050   0.027212   0.001851
 232   7  -1.112960   2.468837   4.037101  -0.000026   0.027212  -0.000940
 233   1   1.510994   7.746721   3.240412   0.000045   0.026016   0.001737
 234   2   1.304729   8.009229   3.610362  -0.000006   0.026016  -0.000213
 235   8   1.038001   8.123053   3.696203  -0.000032   0.026016  -0.001219
 236   1  -0.886857   5.928396   3.027893   0.000028   0.026016   0.001067
 237   2  -1.125452   6.166388   3.394978  -0.000010   0.026016  -0.000378
 238   8  -1.173839   6.445783   3.500170  -0.000042   0.026016  -0.001629
 239   1   4.786307   6.623290   5.605303  -0.000016   0.025689  -0.000606
 240   2   4.616150   6.873599   6.001155  -0.000030   0.025689  -0.001151
 241   9   4.645437   6.888482   6.302609  -0.000065   0.025689  -0.002544
 242   1  -0.935067   2.278392   5.101435   0.000003   0.025787   0.000098
 243   2  -1.174314   2.476255   5.491206  -0.000020   0.025787  -0.000776
 244  10  -1.229057   2.426129   5.785114  -0.000048   0.025787  -0.001849
 245   2   4.555626   7.030975   5.725491   0.000074   0.088384   0.000842
 246   1   4.804131   6.776513   5.096956   0.000062   0.088384   0.000702
 247   2   1.571189   8.029534   3.586618   0.000088   0.041821   0.002095
 248   1   1.821157   7.694296   3.005269   0.000076   0.041821   0.001827
 249   2  -1.214889   5.909242   3.344042   0.000089   0.066904   0.001334
 250   1  -0.957548   5.517251   2.799172   0.000118   0.066904   0.001767
 251   2  -1.314090   2.649031   5.165532   0.000113   0.079892   0.001413
 252   1  -0.975309   2.262496   4.660234   0.000084   0.079892   0.001057
 253   1   0.063789   1.029665   3.784273  -0.000045   0.029106  -0.001551
 254   3   0.376853   0.669403   3.923267  -0.000042   0.029106  -0.001451
 255   7  -0.053266   1.123581   3.520448  -0.000080   0.029106  -0.002758
 256   1   0.197311   0.874224   4.683452  -0.000078   0.027647  -0.002830
 257   3   0.443176   0.464395   4.820078  -0.000098   0.027647  -0.003538
 258  11   0.491322   0.306876   5.073236  -0.000142   0.027647  -0.005129
 259   3   0.417439   0.466336   4.460459  -0.000065   0.102953  -0.000633
 260   1   0.037547   0.995247   4.145910  -0.000008   0.102953  -0.000074
 261   1   5.946904   5.461428   3.959645  -0.000277   0.091823  -0.003018
 262   5   6.681785   4.937492   3.462964  -0.000240   0.091823  -0.002610
 263   6   5.932986   5.628658   3.703314  -0.000267   0.091823  -0.002903
 264   1   2.287688   3.022739   0.328464   0.000182   0.062401   0.002913
 265   5   3.146145   2.563978  -0.001452   0.000402   0.062401   0.006442
 266   7   2.000572   2.937714   0.380177   0.000054   0.062401   0.000871
 267   1   6.170420   4.989616   4.431455  -0.000536   0.200063  -0.002681
 268   5   6.956851   4.507657   3.959958  -0.000670   0.200063  -0.003350
 269  12   6.631781   4.529210   4.824254  -0.000862   0.200063  -0.004310
 270   1   3.071778   3.292716   0.067391   0.000279   0.091724   0.003039
 271   5   3.819743   2.839312  -0.476889  -0.000108   0.091724  -0.001174
 272  15   3.915311   3.125935  -0.526931  -0.000225   0.091724  -0.002454
 273   5   3.575414   2.527809  -0.545896   0.000252   0.120138   0.002097
 274   1   2.464678   3.247677   0.101681   0.000432   0.120138   0.003596
 275   5   7.236780   4.783511   3.534556   0.000066   0.062269   0.001058
 276   1   6.102681   5.419537   4.225121   0.000146   0.062269   0.002341
 277   1   3.220969   5.103675   0.393264  -0.000019   0.087543  -0.000216
 278   6   3.441247   5.313436   0.427034  -0.000225   0.087543  -0.002574
 279  15   4.100283   4.771613  -0.064342  -0.000348   0.087543  -0.003975
 280   6   2.926118   5.835183   0.624667  -0.000109   0.078979  -0.001378
 281   6   2.456783   6.770161   1.327374  -0.000481   0.181075  -0.002657
 282   6   2.481598   7.528655   2.333518  -0.000165   0.078979  -0.002087
 283   1   2.352571   5.987959   0.860363  -0.000084   0.168058  -0.000502
 284   1   2.044170   7.162863   2.045937  -0.000308   0.168058  -0.001833
 285   6   5.224776   6.606348   4.092124  -0.000470   0.124712  -0.003771
 286   1   5.358861   6.225775   4.399975  -0.000384   0.152363  -0.002521
 287   7  -0.914823   4.886366   2.106077  -0.000097   0.069303  -0.001405
 288   7  -0.188613   4.901225   1.260450  -0.000277   0.153843  -0.001799
 289   7   0.743833   4.262977   0.525908  -0.000173   0.153843  -0.001123
 290   7   1.340871   3.342373   0.329137  -0.000094   0.069303  -0.001361
 291   1  -0.487851   5.275813   1.948718  -0.000193   0.151952  -0.001271
 292   1   0.558823   4.994894   0.891480   0.000089   0.151952   0.000585
 293   1   1.495608   3.918160   0.386233   0.000086   0.151952   0.000563
 294   7  -0.481356   1.442671   3.446173  -0.000138   0.067875  -0.002034
 295   7  -0.985689   2.082791   3.685884  -0.000127   0.067875  -0.001875
 296   1  -0.584349   1.735892   3.951550  -0.000326   0.149435  -0.002182
 297   8   0.594332   8.083831   3.569815  -0.000373   0.202527  -0.001843
 298   8  -0.575092   7.236160   3.398894  -0.001402   0.414772  -0.003379
 299   1   0.725154   7.194099   2.712835   0.000403   0.554478   0.000727
 300   1  -0.574640   6.172810   2.658923   0.000524   0.285233   0.001839
 301   1   5.329583   5.664231   5.852480  -0.000317   0.169123  -0.001874
 302   9   5.099444   5.937672   6.527132  -0.000401   0.169123  -0.002372
 303  12   5.765344   5.127114   6.163617  -0.000661   0.169123  -0.003910
 304   9   4.860520   6.639925   6.631507  -0.000328   0.131067  -0.002506
 305   1   5.094702   6.346893   5.559399   0.000146   0.184696   0.000792
 306   1  -0.147690   1.459074   5.419484  -0.000315   0.167654  -0.001878
 307  10  -0.433030   1.695109   6.086725  -0.000450   0.167654  -0.002682
 308  11   0.215495   0.902779   5.773820  -0.000643   0.167654  -0.003834
 309  10  -1.149668   2.198659   6.059379  -0.000340   0.142517  -0.002385
 310   1  -0.647504   1.812870   5.115949   0.000157   0.200819   0.000782
 311  11   0.408158   0.311880   5.465434  -0.000415   0.103158  -0.004027
 312   1  -0.074198   1.093254   4.826750   0.000034   0.145502   0.000234
 313  12   6.463306   4.733952   5.565173  -0.000793   0.184891  -0.004288
 314   1   5.741011   5.530425   5.202520  -0.000074   0.260495  -0.000285
 315  15   4.092125   3.796834  -0.623863  -0.001534   0.416435  -0.003683
 316   1   2.872299   4.425581   0.126332   0.001368   0.593478   0.002305
 317   2   3.556642   3.870728   8.880029   0.000001   0.064516   0.000009
 318   3   4.017560   3.264818   8.541099  -0.000168   0.064516  -0.002599
 319   9   3.692536   4.140066   8.923034  -0.000150   0.064516  -0.002320
 320   2   2.246025   2.242735   8.593409  -0.000124   0.067757  -0.001832
 321   3   2.737381   1.594905   8.409779  -0.000250   0.067757  -0.003687
 322  11   2.569593   1.347218   8.357187  -0.000339   0.067757  -0.005010
 323   3   3.670806   2.367772   8.576351  -0.000771   0.508101  -0.001517
 324   2   2.680231   3.027345   8.939776   0.000338   0.508101   0.000666
 325   6   2.830067   7.781681   2.997716  -0.000415   0.215400  -0.001927
 326   6   4.081878   7.501166   3.867747  -0.001757   0.443400  -0.003963
 327   2   2.732225   8.064583   4.210583   0.000485   0.587688   0.000825
 328   2   4.123001   7.572931   5.174732   0.000468   0.303450   0.001541
 329   7  -1.317890   2.742810   3.699839  -0.000312   0.210545  -0.001480
 330   7  -1.368208   4.062906   2.964109  -0.001298   0.432453  -0.003001
 331   2  -1.665207   3.725540   4.385228   0.000599   0.575243   0.001042
 332   2  -1.554596   5.218779   3.540256   0.000595   0.296558   0.002007
 333   8  -1.555852   6.626049   3.835997  -0.000127   0.068882  -0.001839
 334   8  -2.162816   6.531975   4.762531  -0.000302   0.152911  -0.001977
 335   8  -2.364173   6.866373   6.048651  -0.000290   0.152911  -0.001898
 336   8  -1.858436   7.607068   7.049686  -0.000290   0.152911  -0.001898
 337   8  -0.854547   8.448047   7.352063  -0.000363   0.152911  -0.002375
 338   8   0.232742   9.041864   6.830858  -0.000232   0.152911  -0.001516
 339   8   0.954223   9.143186   5.701403  -0.000336   0.152911  -0.002201
 340   8   1.011821   8.710153   4.430326  -0.000415   0.152911  -0.002717
 341   2  -1.766772   6.151931   4.131455  -0.000226   0.151010  -0.001494
 342   2  -2.375722   6.225686   5.511130  -0.000069   0.151010  -0.000458
 343   2  -2.195175   6.863389   6.867780   0.000042   0.151010   0.000280
 344   2  -1.299724   7.801576   7.640913  -0.000144   0.151010  -0.000957
 345   2  -0.059320   8.652640   7.511113  -0.000069   0.151010  -0.000460
 346   2   1.013572   9.064970   6.532006   0.000019   0.151010   0.000124
 347   2   1.475691   8.868212   5.108105  -0.000136   0.151010  -0.000898
 348   2   1.326655   8.348688   4.006652  -0.000031   0.084154  -0.000371
 349   9   4.517441   7.280197   6.642991  -0.000158   0.067685  -0.002334
 350   9   3.823941   8.045553   6.993945  -0.000365   0.149554  -0.002440
 351   9   2.881762   8.432701   7.833737  -0.000209   0.149554  -0.001401
 352   9   2.156123   8.040491   8.864491  -0.000321   0.149554  -0.002147
 353   9   1.934625   7.024371   9.677678  -0.000345   0.149554  -0.002307
 354   9   2.305055   5.787071   9.950999  -0.000249   0.149554  -0.001664
 355   9   3.120598   4.818983   9.576127  -0.000258   0.149554  -0.001722
 356   2   4.126690   7.619518   6.354456  -0.000230   0.149070  -0.001544
 357   2   3.104254   8.448258   7.038523  -0.000068   0.149070  -0.000459
 358   2   2.117126   8.445262   8.145638  -0.000072   0.149070  -0.000480
 359   2   1.556546   7.611717   9.237008  -0.000074   0.149070  -0.000495
 360   2   1.644694   6.277991   9.880077  -0.000057   0.149070  -0.000384
 361   2   2.346633   4.972693   9.819973   0.000072   0.149070   0.000484
 362   2   3.160146   4.242830   9.314879   0.000049   0.082693   0.000590
 363   2   1.574234   2.402222   8.737171  -0.000108   0.086548  -0.001244
 364  10   1.277858   2.325764   8.745369  -0.000164   0.086548  -0.001896
 365  11   1.918909   1.567520   8.355452  -0.000288   0.086548  -0.003322
 366  10   0.940546   2.789385   9.217950  -0.000100   0.066875  -0.001494
 367  10   0.432681   3.627136   9.669888  -0.000170   0.147431  -0.001156
 368  10  -0.530598   4.509505   9.656380  -0.000295   0.147431  -0.001998
 369  10  -1.569128   4.924843   8.981388  -0.000329   0.147431  -0.002230
 370  10  -2.280474   4.712205   7.906475  -0.000214   0.147431  -0.001451
 371  10  -2.388985   3.953989   6.848176  -0.000266   0.147431  -0.001806
 372  10  -1.852614   2.944007   6.216585  -0.000401   0.147431  -0.002722
 373   2   1.144144   3.301799   9.425961   0.000045   0.147605   0.000305
 374   2   0.270344   4.419060   9.804147   0.000064   0.147605   0.000435
 375   2  -0.913108   5.186253   9.397111  -0.000107   0.147605  -0.000727
 376   2  -1.947620   5.306088   8.362583  -0.000026   0.147605  -0.000176
 377   2  -2.432312   4.732127   7.101447   0.000095   0.147605   0.000641
 378   2  -2.179365   3.686784   6.102398  -0.000086   0.147605  -0.000582
 379   2  -1.539853   2.766604   5.699329  -0.000058   0.081702  -0.000715
 380  11   2.397907   1.132580   8.423354  -0.000148   0.072112  -0.002058
 381   2   1.852249   2.387634   8.896878   0.000249   0.102250   0.002432
 382   3   7.031600  -0.585594   5.202102   0.000517   0.056082   0.009227
 383   4   7.149166  -0.815227   4.809689   0.000813   0.056082   0.014490
 384   5   7.536956  -0.649275   4.607165   0.000563   0.056082   0.010031
 385   3   1.262720   0.125351   2.724937   0.000414   0.092802   0.004466
 386   4   1.538915  -0.073763   2.399634   0.001006   0.092802   0.010841
 387   7   0.839787   0.666098   2.437129   0.000159   0.092802   0.001718
 388   3   3.716303  -1.954095   5.258067   0.000084   0.016223   0.005177
 389   4   3.896255  -2.085774   4.845968   0.000362   0.016223   0.022295
 390  11   3.493767  -1.919766   5.458881  -0.000016   0.016223  -0.000964
 391   3   2.221345  -1.512651   4.293153   0.000076   0.016223   0.004695
 392   4   2.464008  -1.662848   3.921531   0.000290   0.016223   0.017854
 393  11   2.135873  -1.518796   4.582435  -0.000028   0.016223  -0.001709
 394   4   6.662658  -1.205398   4.985208   0.002073   0.170757   0.012141
 395   4   5.113047  -1.979177   4.849601   0.005493   0.355267   0.015461
 396   3   5.912621  -1.264964   5.558407   0.002725   0.366741   0.007430
 397   3   4.264480  -1.952805   5.319292   0.001088   0.186824   0.005825
 398   4   2.232028  -1.293409   3.105887   0.003905   0.307659   0.012691
 399   3   1.727049  -0.741915   3.357403   0.001337   0.336431   0.003974
 400   3   7.677380   0.370587   5.320681  -0.000019   0.062343  -0.000307
 401   5   8.228118   0.273683   4.773655  -0.000122   0.062343  -0.001965
 402  14   8.442786   0.490449   4.781850  -0.000269   0.062343  -0.004323
 403   5   8.021509  -0.183457   4.749991   0.000460   0.232022   0.001983
 404   3   7.221946  -0.244713   5.547466   0.000621   0.232022   0.002675
 405   7   0.159315   0.999920   2.774197  -0.000653   0.243737  -0.002677
 406   3   0.679354   0.309117   3.501588   0.000105   0.343373   0.000306
 407   3   4.578584   3.061070   8.387861  -0.000343   0.089203  -0.003850
 408   9   4.187834   3.961103   8.618779  -0.000164   0.089203  -0.001837
 409  12   4.873037   3.137680   8.342568  -0.000403   0.089203  -0.004519
 410   9   3.847549   4.296427   9.052136  -0.000000   0.042743  -0.000006
 411   3   4.413394   2.994026   8.607850   0.000126   0.060777   0.002066
 412  11   0.674329  -0.207397   5.120990  -0.000229   0.070635  -0.003246
 413  11   1.397584  -1.052765   4.873654  -0.000706   0.157762  -0.004474
 414   3   0.958715  -0.371425   4.613844  -0.000591   0.153945  -0.003840
 415   3   1.813299  -1.275569   4.428672  -0.000087   0.086296  -0.001008
 416  11   3.465957  -1.880866   5.963011  -0.000217   0.067331  -0.003218
 417  11   3.907823  -1.463494   6.867478  -0.000554   0.148863  -0.003722
 418  11   3.882121  -0.577401   7.843911  -0.000469   0.148863  -0.003154
 419  11   3.200183   0.442087   8.328522  -0.000672   0.148863  -0.004513
 420   3   4.018807  -1.715892   6.090643  -0.000370   0.148178  -0.002500
 421   3   4.382852  -0.954048   7.308281  -0.000365   0.148178  -0.002463
 422   3   3.963992   0.173887   8.173090  -0.000275   0.148178  -0.001854
 423   3   3.199806   1.065676   8.432817  -0.000253   0.082259  -0.003075
 424   3   7.528194   0.645112   5.789845  -0.000228   0.083665  -0.002720
 425  12   7.619432   0.896258   5.942002  -0.000350   0.083665  -0.004184
 426  14   8.211720   0.820796   5.163701  -0.000263   0.083665  -0.003146
 427  12   5.301358   2.511460   8.395134  -0.000323   0.067793  -0.004759
 428  12   5.825529   1.579727   8.190856  -0.000524   0.149605  -0.003505
 429  12   6.651146   0.876621   7.442698  -0.000517   0.149605  -0.003458
 430  12   7.307275   0.803198   6.577414  -0.000272   0.067793  -0.004006
 431   3   5.109491   1.950878   8.367188  -0.000468   0.149508  -0.003133
 432   3   5.934254   0.835686   7.850064  -0.000271   0.149508  -0.001810
 433   3   6.871255   0.450538   6.770714  -0.000387   0.149508  -0.002589
 434  14   8.648834   0.620562   4.879729  -0.000065   0.036585  -0.001786
 435   3   7.588669   0.365700   5.747418   0.000125   0.051715   0.002418
 436   4   2.843994   1.254865   0.310494   0.002287   0.132700   0.017236
 437   5   3.170594   1.458636   0.039131   0.001366   0.132700   0.010295
 438   7   2.114658   1.915964   0.566939   0.001097   0.132700   0.008270
 439   4   6.033962  -2.342603   1.112104   0.000254   0.011356   0.022376
 440   5   6.400623  -2.280773   0.829937   0.000048   0.011356   0.004263
 441  13   6.569915  -2.269475   0.581839  -0.000022   0.011356  -0.001937
 442   4   5.224707  -1.891593   0.280415   0.000160   0.011356   0.014111
 443   5   5.555698  -1.809883  -0.038411   0.000019   0.011356   0.001702
 444  13   5.802714  -1.841903  -0.206630  -0.000054   0.011356  -0.004797
 445   5   7.795412  -1.068725   4.104535   0.001008   0.173901   0.005796
 446   5   7.365455  -1.988650   2.750910   0.002546   0.341503   0.007457
 447   5   6.572201  -2.353273   1.301348   0.000822   0.173901   0.004727
 448   4   7.074043  -1.627134   3.889036   0.004880   0.328641   0.014850
 449   4   6.340770  -2.397176   2.208622   0.004291   0.328641   0.013056
 450   5   5.095085  -1.499814  -0.192939   0.000701   0.202362   0.003465
 451   5   4.035719   0.104008  -0.484823   0.002687   0.397270   0.006764
 452   4   4.208386  -1.109136   0.095463   0.005151   0.388710   0.013251
 453   4   3.256094   0.500401  -0.034964   0.002652   0.184958   0.014340
 454   7   1.287656   1.842689   0.641432   0.000188   0.250363   0.000752
 455   7   0.737957   1.115219   1.535912  -0.000122   0.503828  -0.000243
 456   4   2.140676   0.561851   0.784391   0.008352   0.618235   0.013510
 457   4   1.594033  -0.160798   1.843063   0.003363   0.311502   0.010796
 458  11   2.297567  -1.720620   4.877968  -0.000303   0.191575  -0.001580
 459  11   3.107460  -1.959772   5.400709  -0.000247   0.191575  -0.001290
 460   4   3.225438  -2.074825   4.221820   0.004262   0.460858   0.009248
 461  13   6.352567  -2.182046   0.142932  -0.000551   0.270925  -0.002034
 462   4   5.383695  -2.221742   0.707874   0.002893   0.330195   0.008760
 463   5   6.928843   5.291280   1.673813  -0.000218   0.087486  -0.002491
 464   6   6.082493   5.811070   2.005413  -0.000403   0.087486  -0.004609
 465  15   6.763203   5.386338   1.434832  -0.000396   0.087486  -0.004530
 466   6   5.944510   5.988063   3.104027  -0.001358   0.415568  -0.003267
 467   5   7.140737   5.218988   2.447600   0.000257   0.592372   0.000434
 468   7   1.674291   2.624250   0.307230   0.000388   0.251265   0.001545
 469   5   3.237282   1.873475  -0.403430   0.001237   0.370573   0.003338
 470   5   7.847003   4.140560   3.937341  -0.000256   0.080917  -0.003162
 471  12   7.440587   4.065714   4.756913  -0.000337   0.080917  -0.004164
 472  14   8.106194   4.011858   4.038308  -0.000339   0.080917  -0.004184
 473  12   7.095835   4.349122   5.137494  -0.000239   0.084859  -0.002813
 474   5   7.594389   4.442510   3.877902   0.000085   0.119733   0.000706
 475  13   5.955055  -1.734614  -0.662830  -0.000289   0.066548  -0.004347
 476  13   5.910424  -0.989161  -1.444773  -0.000658   0.146987  -0.004478
 477  13   6.486794  -0.045188  -2.144826  -0.000646   0.146987  -0.004397
 478  13   7.607201   0.612784  -2.303331  -0.000663   0.146987  -0.004509
 479  13   8.832831   0.727058  -1.858207  -0.000817   0.146987  -0.005560
 480  13   9.683660   0.252878  -0.983791  -0.000837   0.146987  -0.005694
 481  13   9.826458  -0.624042  -0.022551  -0.000646   0.146987  -0.004396
 482  13   9.205297  -1.560251   0.649038  -0.000630   0.146987  -0.004283
 483  13   8.063458  -2.189079   0.767946  -0.000684   0.146987  -0.004656
 484  13   7.040236  -2.339401   0.452434  -0.000263   0.066548  -0.003947
 485   5   5.563734  -1.311223  -0.776323  -0.000565   0.146579  -0.003852
 486   5   5.790262  -0.244003  -1.762649  -0.000466   0.146579  -0.003181
 487   5   6.793920   0.703562  -2.270493  -0.000416   0.146579  -0.002837
 488   5   8.181620   1.160352  -2.100955  -0.000616   0.146579  -0.004203
 489   5   9.409864   0.947465  -1.320436  -0.000787   0.146579  -0.005369
 490   5   9.997604   0.148277  -0.234630  -0.000607   0.146579  -0.004142
 491   5   9.714648  -0.924204   0.731203  -0.000421   0.146579  -0.002871
 492   5   8.671818  -1.849937   1.198789  -0.000448   0.146579  -0.003056
 493   5   7.277542  -2.266355   0.984996  -0.000496   0.146579  -0.003381
 494  14   9.021389   0.357337   4.462008  -0.000305   0.068631  -0.004442
 495  14   9.731799   0.130241   3.648504  -0.000542   0.151984  -0.003567
 496  14  10.440876   0.539778   2.594147  -0.000535   0.151984  -0.003522
 497  14  10.710821   1.610682   1.844165  -0.000815   0.151984  -0.005363
 498  14  10.432140   2.908572   1.702764  -0.000906   0.151984  -0.005961
 499  14   9.717871   3.907001   2.227300  -0.000723   0.151984  -0.004755
 500  14   8.857736   4.200986   3.205010  -0.000561   0.151984  -0.003692
 501   5   9.034055  -0.077095   4.053707  -0.000478   0.150833  -0.003167
 502   5   9.964211  -0.082078   2.877186  -0.000432   0.150833  -0.002862
 503   5  10.544360   0.795203   1.807970  -0.000477   0.150833  -0.003161
 504   5  10.539184   2.198904   1.279754  -0.000780   0.150833  -0.005174
 505   5   9.950781   3.559659   1.506792  -0.000747   0.150833  -0.004952
 506   5   9.017819   4.325518   2.396994  -0.000428   0.150833  -0.002839
 507   5   8.256666   4.362178   3.347337  -0.000164   0.083848  -0.001961
 508  15   7.325507   5.268936   1.002406  -0.000314   0.068520  -0.004585
 509  15   7.875176   4.922770   0.108300  -0.000755   0.151880  -0.004969
 510  15   7.887496   4.240844  -1.041240  -0.000850   0.151880  -0.005595
 511  15   7.121038   3.498750  -1.846509  -0.000701   0.151880  -0.004614
 512  15   5.888387   2.999139  -1.979094  -0.000584   0.151880  -0.003844
 513  15   4.692256   2.945766  -1.384921  -0.000651   0.151880  -0.004288
 514   5   7.855295   5.004406   0.937210  -0.000510   0.150438  -0.003391
 515   5   8.328543   4.396496  -0.351748  -0.000758   0.150438  -0.005041
 516   5   7.881527   3.552407  -1.510463  -0.000708   0.150438  -0.004707
 517   5   6.696553   2.816386  -2.066377  -0.000402   0.150438  -0.002669
 518   5   5.256891   2.488603  -1.792770  -0.000316   0.150438  -0.002101
 519   5   4.269755   2.576357  -1.081595  -0.000185   0.083712  -0.002216
 520  15   4.591145   4.944089  -0.480852  -0.000733   0.219622  -0.003339
 521  15   5.408590   5.514130  -0.088788  -0.001882   0.439252  -0.004284
 522  15   6.359067   5.688435   0.796686  -0.001386   0.439252  -0.003155
 523   6   4.007486   5.896400   0.465549  -0.000983   0.439252  -0.002238
 524   6   5.019905   6.407417   1.122605  -0.001648   0.439252  -0.003751
 525   6   5.725436   6.369104   1.927363  -0.000648   0.219622  -0.002950
 526  12   6.206933   4.974854   6.594450  -0.000244   0.242734  -0.001005
 527  12   6.121642   4.481245   7.539593  -0.001076   0.485237  -0.002218
 528  12   5.505156   3.627748   8.315477  -0.000912   0.485237  -0.001879
 529   9   5.246845   5.956869   7.481849  -0.000721   0.485237  -0.001485
 530   9   4.934255   5.232795   8.525166  -0.000752   0.485237  -0.001549
 531   9   4.300611   4.505655   8.987750   0.000011   0.242734   0.000047
 532  11   1.856730   0.913808   8.390609  -0.000405   0.248444  -0.001628
 533  11   1.016082   0.457461   7.798971  -0.001435   0.496781  -0.002888
 534  11   0.338127   0.370910   6.609455  -0.001337   0.496781  -0.002690
 535  10   0.602505   1.851085   8.633600  -0.000605   0.496781  -0.001218
 536  10  -0.321680   1.462385   7.697193  -0.001039   0.496781  -0.002092
 537  10  -0.717426   1.551975   6.648224  -0.000207   0.248444  -0.000835
 538  14   8.465137   3.923209   4.335888  -0.000301   0.253605  -0.001186
 539  14   8.965660   2.970108   4.923388  -0.001718   0.507505  -0.003385
 540  14   8.936630   1.496112   5.134618  -0.001590   0.507505  -0.003134
 541  12   7.767869   3.747668   5.626173  -0.001585   0.507505  -0.003123
 542  12   8.144266   2.412115   6.167239  -0.001644   0.507505  -0.003240
 543  12   7.910426   1.208246   6.157297  -0.000238   0.253605  -0.000937
 =====================================================

              2238092  WORDS OF DYNAMIC MEMORY USED
 EXECUTION OF GAMESS TERMINATED NORMALLY Thu Nov 24 21:13:55 2016
 DDI: 263640 bytes (0.3 MB / 0 MWords) used by master data server.

 ----------------------------------------
 CPU timing information for all processes
 ========================================
 0: 559.584 + 0.292 = 559.876
 ----------------------------------------
 ddikick.x: exited gracefully.
