----- GAMESS execution script -----

          ******************************************************
          *         GAMESS VERSION =  5 DEC 2014 (R1)          *
          *             FROM IOWA STATE UNIVERSITY             *
          * M.W.SCHMIDT, K.K.BALDRIDGE, J.A.BOATZ, S.T.ELBERT, *
          *   M.S.GORDON, J.H.JENSEN, S.KOSEKI, N.MATSUNAGA,   *
          *          K.A.NGUYEN, S.J.SU, T.L.WINDUS,           *
          *       TOGETHER WITH M.DUPUIS, J.A.MONTGOMERY       *
          *         J.COMPUT.CHEM.  14, 1347-1363(1993)        *
          **************** 64 BIT LINUX VERSION ****************

 EXECUTION OF GAMESS BEGUN Thu Nov 24 20:21:14 2016

            ECHO OF THE FIRST FEW INPUT CARDS -
 INPUT CARD>! SELECT RESTRICTED HARTREE-FOCK AS DEFAULT                                     
 INPUT CARD>$contrl scftyp=rhf $end                                                         
 INPUT CARD>                                                                                
 INPUT CARD>! THEORY: HF OR DFT                                                             
 INPUT CARD> $contrl mplevl=0 $end                                                          
 INPUT CARD>                                                                                
 INPUT CARD> $system timlim=10000 mwords=20 $end                                            
 INPUT CARD> $SCF DIRSCF=.TRUE. $end                                                        
 INPUT CARD>                                                                                
 INPUT CARD>                                                                                
 INPUT CARD>! BASIS SETS                                                                    
 INPUT CARD>! 6-311G(d,p)                                                                   
 INPUT CARD> $BASIS GBASIS=N311 NGAUSS=6 NDFUNC=1 NPFUNC=1 $END                             
 INPUT CARD>                                                                                
 INPUT CARD>! One of the following                                                          
 INPUT CARD> $guess guess=HUCKEL $end                                                       
 INPUT CARD>                                                                                
 INPUT CARD> $statpt projct=.FALSE. $end                                                    
 INPUT CARD> $STATPT IFREEZ(1)=1,2,3 $END                                                   
 INPUT CARD>                                                                                
 INPUT CARD>! Optimize the geometry with COSMO effects                                      
 INPUT CARD> $statpt opttol=0.0005 nstep=50 $end                                            
 INPUT CARD> $contrl nzvar=1 $end                                                           
 INPUT CARD> $zmat dlc=.t. auto=.t. $end                                                    
 INPUT CARD> $contrl runtyp=OPTIMIZE maxit=200 $end                                         
 INPUT CARD>                                                                                
 INPUT CARD>! Run COSMO on perfect conductor                                                
 INPUT CARD> $COSGMS PRFCND=.TRUE. $end                                                     
 INPUT CARD>                                                                                
 INPUT CARD>! Specifying RSOLV                                                              
 INPUT CARD> $COSGMS COSRAD = 1.4 $end                                                      
 INPUT CARD>                                                                                
 INPUT CARD>! available memory                                                              
 INPUT CARD> $SYSTEM MWORDS=40 $END                                                         
 INPUT CARD>                                                                                
 INPUT CARD> $DATA                                                                          
 INPUT CARD>2-Butanone, 3-methyl-, ID: C563804                                              
 INPUT CARD>C1                                                                              
 INPUT CARD>C      6.0      1.9757000000    2.1813000000    2.5618000000                    
 INPUT CARD>C      6.0      3.2313000000    2.0945000000    1.6975000000                    
 INPUT CARD>C      6.0      4.4832000000    1.8735000000    2.5266000000                    
 INPUT CARD>C      6.0      3.0549000000    0.9813000000    0.6774000000                    
 INPUT CARD>C      6.0      0.9318000000    3.1520000000    2.0762000000                    
 INPUT CARD>O      8.0      1.8135000000    1.5122000000    3.5632000000                    
 INPUT CARD>H      1.0      3.3384000000    3.0650000000    1.1525000000                    
 INPUT CARD>H      1.0      4.4368000000    0.9333000000    3.0925000000                    
 INPUT CARD>H      1.0      4.6328000000    2.6861000000    3.2487000000                    
 INPUT CARD>H      1.0      5.3742000000    1.8294000000    1.8865000000                    
 INPUT CARD>H      1.0      2.1591000000    1.1401000000    0.0622000000                    
 INPUT CARD>H      1.0      2.9572000000    0.0000000000    1.1606000000                    
   40000000 WORDS OF MEMORY AVAILABLE

     BASIS OPTIONS
     -------------
     GBASIS=N311         IGAUSS=       6      POLAR=POPN311 
     NDFUNC=       1     NFFUNC=       0     DIFFSP=       F
     NPFUNC=       1      DIFFS=       F     BASNAM=        


     RUN TITLE
     ---------
 2-Butanone, 3-methyl-, ID: C563804                                              

 THE POINT GROUP OF THE MOLECULE IS C1      
 THE ORDER OF THE PRINCIPAL AXIS IS     0

 ATOM      ATOMIC                      COORDINATES (BOHR)
           CHARGE         X                   Y                   Z
 C           6.0     3.7335316339        4.1220592970        4.8411000353
 C           6.0     6.1062715841        3.9580310813        3.2078098642
 C           6.0     8.4720195482        3.5404016380        4.7745816806
 C           6.0     5.7729239199        1.8543881118        1.2801003841
 C           6.0     1.7608466754        5.9564163133        3.9234490957
 O           8.0     3.4270180787        2.8576436386        6.7334716395
 H           1.0     6.3086612374        5.7920101524        2.1779092008
 H           1.0     8.3843362623        1.7636812643        5.8439776170
 H           1.0     8.7547225559        5.0759929756        6.1391528163
 H           1.0    10.1557654032        3.4570647219        3.5649680758
 H           1.0     4.0801073801        2.1544765986        0.1175409564
 H           1.0     5.5882976909        0.0000000000        2.1932159813
 H           1.0     7.4024346391        1.7557444152        0.0000000000
 H           1.0     1.2967299728        5.5828174855        1.9348904388
 H           1.0     2.4742182357        7.9009443547        4.0489269013
 H           1.0     0.0000000000        5.8602292605        5.0153327714

          INTERNUCLEAR DISTANCES (ANGS.)




     $CONTRL OPTIONS
     ---------------
 SCFTYP=RHF          RUNTYP=OPTIMIZE     EXETYP=RUN     
 MPLEVL=       0     CITYP =NONE         CCTYP =NONE         VBTYP =NONE    
 DFTTYP=NONE         TDDFT =NONE    
 MULT  =       1     ICHARG=       0     NZVAR =       1     COORD =UNIQUE  
 PP    =NONE         RELWFN=NONE         LOCAL =NONE         NUMGRD=       F
 ISPHER=      -1     NOSYM =       0     MAXIT =     200     UNITS =ANGS    
 PLTORB=       F     MOLPLT=       F     AIMPAC=       F     FRIEND=        
 NPRINT=       7     IREST =       0     GEOM  =INPUT   
 NORMF =       0     NORMP =       0     ITOL  =      20     ICUT  =       9
 INTTYP=BEST         GRDTYP=BEST         QMTTOL= 1.0E-06

     $SYSTEM OPTIONS
     ---------------
  REPLICATED MEMORY=    40000000 WORDS (ON EVERY NODE).
 DISTRIBUTED MEMDDI=           0 MILLION WORDS IN AGGREGATE,
 MEMDDI DISTRIBUTED OVER   1 PROCESSORS IS           0 WORDS/PROCESSOR.
 TOTAL MEMORY REQUESTED ON EACH PROCESSOR=    40000000 WORDS.
 TIMLIM=       10000.00 MINUTES, OR       6.9 DAYS.
 PARALL= F  BALTYP=  DLB     KDIAG=    0  COREFL= F
 MXSEQ2=     300 MXSEQ3=     150  mem10=         0

     $COSGMS OPTIONS
     ---------------
     EPSI  =   INFTY     NSPA  =      92     COSRAD=    1.40
     DISEX =   10.00     OUTCHG=DBLCAV       COSBUG=       F
     COSWRT=       F     DCOSMO=       F

     SYMMETRY COORDINATES WILL NOT BE USED FOR 
     THE COSMO CALCULATION, EVEN IF SPECIFIED:
         -- SWITCHING TO C1 POINT GROUP --


     DEFINITION OF CAVITY
     ---------------------------
     ATOM         COORDINATES           RADIUS 
     1    3.7335    4.1221    4.8411    2.0000
     2    6.1063    3.9580    3.2078    2.0000
     3    8.4720    3.5404    4.7746    2.0000
     4    5.7729    1.8544    1.2801    2.0000
     5    1.7608    5.9564    3.9234    2.0000
     6    3.4270    2.8576    6.7335    1.7200
     7    6.3087    5.7920    2.1779    1.3000
     8    8.3843    1.7637    5.8440    1.3000
     9    8.7547    5.0760    6.1392    1.3000
    10   10.1558    3.4571    3.5650    1.3000
    11    4.0801    2.1545    0.1175    1.3000
    12    5.5883    0.0000    2.1932    1.3000
    13    7.4024    1.7557    0.0000    1.3000
    14    1.2967    5.5828    1.9349    1.3000
    15    2.4742    7.9009    4.0489    1.3000
    16    0.0000    5.8602    5.0153    1.3000

          ----------------
          PROPERTIES INPUT
          ----------------

     MOMENTS            FIELD           POTENTIAL          DENSITY
 IEMOM =       1   IEFLD =       0   IEPOT =       0   IEDEN =       0
 WHERE =COMASS     WHERE =NUCLEI     WHERE =NUCLEI     WHERE =NUCLEI  
 OUTPUT=BOTH       OUTPUT=BOTH       OUTPUT=BOTH       OUTPUT=BOTH    
 IEMINT=       0   IEFINT=       0                     IEDINT=       0
                                                       MORB  =       0
          EXTRAPOLATION IN EFFECT
          SOSCF IN EFFECT
 ORBITAL PRINTING OPTION: NPREO=     1   174     2     1

     -------------------------------
     INTEGRAL TRANSFORMATION OPTIONS
     -------------------------------
     NWORD  =            0
     CUTOFF = 1.0E-09     MPTRAN =       0
     DIRTRF =       T     AOINTS =DUP     

          ----------------------
          INTEGRAL INPUT OPTIONS
          ----------------------
 NOPK  =       1 NORDER=       0 SCHWRZ=       T


 -----------------------------------------------
  STATISTICS ON AUTOMATIC COORDINATE GENERATION 
 -----------------------------------------------
  NUMBER OF USER SPECIFIED BONDS                             0
  NUMBER OF BONDS                                           15
  NUMBER OF ANGLES                                          27
  NUMBER OF TORSIONS                                        30
  NUMBER OF EXTRA COORD.                                     0
  NUMBER OF EXTRA COORD. FOR CONSTRAINTS                     0
  NUMBER OF CONSTRAINED COORD.                               0

  TOTAL NUMBER OF PRIMITIVES                                72
 -----------------------------------------------

   --- ENCODED Z MATRIX ---
 COORD  TYPE   I   J   K   L   M   N
    1      1    1   5
    2      1    1   2
    3      1    1   6
    4      1    2   4
    5      1    2   7
    6      1    2   3
    7      1    3   8
    8      1    3  10
    9      1    3   9
   10      1    4  13
   11      1    4  12
   12      1    4  11
   13      1    5  16
   14      1    5  15
   15      1    5  14
   16      2    1   5  16
   17      2    1   5  15
   18      2    1   5  14
   19      2    1   2   7
   20      2    1   2   3
   21      2    1   2   4
   22      2    2   4  11
   23      2    2   1   6
   24      2    2   4  12
   25      2    2   4  13
   26      2    2   3   9
   27      2    2   1   5
   28      2    2   3  10
   29      2    2   3   8
   30      2    3   2   7
   31      2    3   2   4
   32      2    4   2   7
   33      2    5   1   6
   34      2    8   3   9
   35      2    8   3  10
   36      2    9   3  10
   37      2   11   4  12
   38      2   11   4  13
   39      2   12   4  13
   40      2   14   5  15
   41      2   14   5  16
   42      2   15   5  16
   43      3    1   2   3   9
   44      3    1   2   3  10
   45      3    1   2   3   8
   46      3    1   2   4  11
   47      3    1   2   4  12
   48      3    1   2   4  13
   49      3    2   1   5  15
   50      3    2   1   5  14
   51      3    2   1   5  16
   52      3    3   2   4  13
   53      3    3   2   4  12
   54      3    3   2   4  11
   55      3    3   2   1   6
   56      3    3   2   1   5
   57      3    4   2   1   6
   58      3    4   2   1   5
   59      3    4   2   3   8
   60      3    4   2   3  10
   61      3    4   2   3   9
   62      3    5   1   2   7
   63      3    6   1   5  14
   64      3    6   1   2   7
   65      3    6   1   5  15
   66      3    6   1   5  16
   67      3    7   2   4  13
   68      3    7   2   4  12
   69      3    7   2   3   8
   70      3    7   2   3  10
   71      3    7   2   4  11
   72      3    7   2   3   9

          INDEP./SYM. INTERNAL COORDINATES
          --------------------------------
 CRD  1=  -0.1185 (  1) -0.1821 (  2) -0.1122 (  4)  0.1094 ( 16) -0.1449 ( 18)
           0.2726 ( 20) -0.3432 ( 21) -0.1153 ( 22)  0.2931 ( 23) -0.5576 ( 27)
          -0.1131 ( 30)  0.1386 ( 31)  0.2637 ( 33) -0.1532 ( 46) -0.1049 ( 47)
          -0.1579 ( 48)  0.1555 ( 58)
 CRD  2=  -0.2049 (  1) -0.2197 (  2)  0.1517 (  4)  0.1788 ( 19) -0.4307 ( 20)
           0.1009 ( 25) -0.1900 ( 26)  0.1628 ( 28)  0.5186 ( 31) -0.1805 ( 32)
           0.1109 ( 46)  0.1436 ( 47) -0.1529 ( 52) -0.1179 ( 54) -0.1658 ( 55)
          -0.2008 ( 56)  0.1693 ( 57)  0.1343 ( 58) -0.1114 ( 69)
 CRD  3=   0.1303 (  1)  0.2522 (  6) -0.1221 ( 16)  0.1749 ( 17)  0.1457 ( 19)
           0.1498 ( 20) -0.4084 ( 21) -0.1511 ( 22) -0.2336 ( 23)  0.1391 ( 25)
           0.4174 ( 27) -0.1191 ( 30)  0.2093 ( 31) -0.1851 ( 33) -0.1688 ( 43)
          -0.1737 ( 44) -0.1640 ( 45) -0.1127 ( 49) -0.1243 ( 51)  0.1246 ( 56)
           0.2023 ( 58)  0.1063 ( 59)  0.1015 ( 61)
 CRD  4=   0.1382 (  1)  0.1387 (  2)  0.2657 (  4)  0.1338 (  6) -0.2270 ( 17)
           0.2570 ( 18)  0.1307 ( 20) -0.1389 ( 21)  0.1147 ( 25) -0.1296 ( 26)
           0.2531 ( 29) -0.1958 ( 30)  0.1262 ( 32) -0.2881 ( 55) -0.3773 ( 56)
          -0.1819 ( 57) -0.2710 ( 58)  0.1028 ( 60) -0.2044 ( 62) -0.1599 ( 63)
          -0.1152 ( 64) -0.1470 ( 65)
 CRD  5=  -0.1977 (  1) -0.3129 (  2) -0.2919 (  4) -0.3966 (  6) -0.1298 ( 16)
          -0.1248 ( 17)  0.1059 ( 18) -0.1440 ( 21) -0.1656 ( 23) -0.3170 ( 24)
          -0.1782 ( 29)  0.1511 ( 32)  0.1202 ( 34)  0.1148 ( 35)  0.1047 ( 37)
           0.1015 ( 39) -0.1188 ( 44) -0.1089 ( 45)  0.1351 ( 48) -0.2231 ( 57)
          -0.2191 ( 58)  0.1108 ( 59)  0.1009 ( 60)  0.1269 ( 61)
 CRD  6=   0.1619 (  1) -0.1008 (  2)  0.3069 (  4)  0.2204 (  6)  0.1727 ( 16)
           0.2723 ( 22) -0.1512 ( 23) -0.2590 ( 24)  0.2399 ( 25)  0.2600 ( 26)
           0.2309 ( 28) -0.3092 ( 29)  0.1016 ( 30)  0.2456 ( 33) -0.1844 ( 36)
          -0.2012 ( 38) -0.1263 ( 53) -0.1776 ( 54)  0.1076 ( 59)  0.1655 ( 61)
 CRD  7=  -0.4624 (  1)  0.1934 (  2)  0.2948 (  4) -0.2506 ( 16) -0.1879 ( 18)
           0.1516 ( 22)  0.3840 ( 23)  0.1691 ( 25)  0.1380 ( 26) -0.1210 ( 29)
          -0.4007 ( 33) -0.1458 ( 38)  0.1133 ( 40)  0.1918 ( 41)  0.1062 ( 42)
 CRD  8=   0.1811 (  1)  0.2914 (  4) -0.3753 (  6)  0.3549 ( 17) -0.2917 ( 18)
          -0.1864 ( 23)  0.1766 ( 24)  0.1634 ( 25) -0.3488 ( 28) -0.1043 ( 30)
           0.1575 ( 33)  0.1482 ( 35)  0.1722 ( 36) -0.1672 ( 39) -0.1770 ( 42)
          -0.1662 ( 51)  0.1030 ( 62)
 CRD  9=   0.4298 (  2)  0.1067 (  3) -0.1359 (  4) -0.1926 (  6)  0.1180 ( 13)
           0.3670 ( 16) -0.1310 ( 17) -0.1760 ( 18) -0.2743 ( 22)  0.1158 ( 23)
          -0.1332 ( 24)  0.2924 ( 25) -0.2587 ( 26)  0.2778 ( 28) -0.1833 ( 29)
           0.2003 ( 34)  0.1838 ( 37)  0.1121 ( 40)
 CRD 10=  -0.1101 (  4)  0.1068 (  6) -0.1133 (  9)  0.1193 ( 12)  0.2388 ( 17)
          -0.3362 ( 18)  0.4053 ( 22) -0.2946 ( 24) -0.2104 ( 25) -0.3780 ( 26)
           0.1428 ( 28)  0.3313 ( 29) -0.2077 ( 35)  0.2198 ( 39)  0.1074 ( 41)
          -0.1117 ( 42)
 CRD 11=   0.1177 (  1) -0.1107 (  2) -0.1330 ( 13) -0.4117 ( 16)  0.3420 ( 17)
           0.1895 ( 18) -0.1826 ( 19) -0.1797 ( 22)  0.1442 ( 23) -0.1151 ( 24)
           0.2946 ( 25) -0.2791 ( 26)  0.1741 ( 28) -0.1097 ( 35)  0.1172 ( 37)
          -0.2152 ( 40)  0.1608 ( 43)  0.1571 ( 44)  0.1213 ( 45) -0.1431 ( 46)
          -0.1112 ( 48) -0.1049 ( 54)  0.1016 ( 61)
 CRD 12=  -0.1090 (  7)  0.1255 (  8) -0.1181 ( 10)  0.1376 ( 11)  0.1723 ( 17)
           0.4014 ( 24) -0.3680 ( 25) -0.1128 ( 26)  0.4056 ( 28) -0.3461 ( 29)
           0.2055 ( 34) -0.1272 ( 36) -0.1860 ( 37)  0.1608 ( 38) -0.1328 ( 49)
          -0.1180 ( 50) -0.1326 ( 51) -0.1134 ( 57) -0.1067 ( 64)
 CRD 13=  -0.1322 (  1) -0.1081 (  2) -0.2110 (  3) -0.1229 (  4)  0.2249 (  6)
          -0.2580 ( 18) -0.2957 ( 22)  0.1103 ( 25)  0.1182 ( 26)  0.1644 ( 29)
           0.2218 ( 30) -0.1122 ( 32) -0.1646 ( 34)  0.1352 ( 37)  0.1311 ( 41)
          -0.1058 ( 48) -0.1267 ( 49) -0.1346 ( 50) -0.1138 ( 51) -0.1598 ( 52)
          -0.1512 ( 53) -0.1501 ( 54) -0.1445 ( 57) -0.1287 ( 58) -0.2506 ( 62)
          -0.1189 ( 63) -0.2664 ( 64) -0.1110 ( 65)
 CRD 14=  -0.1877 (  1) -0.2152 (  2) -0.4034 (  3)  0.1326 (  4)  0.1253 (  5)
           0.1176 ( 11)  0.1541 ( 16) -0.2205 ( 17) -0.1652 ( 18) -0.1467 ( 19)
           0.1180 ( 20) -0.1236 ( 23)  0.2052 ( 24) -0.1775 ( 26)  0.1673 ( 27)
           0.1264 ( 28)  0.1021 ( 29) -0.1357 ( 31)  0.2101 ( 32) -0.1193 ( 35)
          -0.1227 ( 39)  0.1936 ( 40)  0.1220 ( 43)  0.1242 ( 44)  0.1211 ( 45)
           0.1095 ( 55)  0.1617 ( 59)  0.1649 ( 60)  0.1627 ( 61)  0.1281 ( 62)
           0.1590 ( 64)
 CRD 15=  -0.1038 (  3) -0.1725 (  4) -0.2715 (  5) -0.1706 (  7)  0.1113 (  9)
           0.1186 ( 14) -0.1277 ( 15)  0.2252 ( 17) -0.2396 ( 18) -0.1051 ( 24)
           0.2266 ( 26) -0.1424 ( 29) -0.1264 ( 30) -0.1538 ( 36)  0.1010 ( 38)
           0.1421 ( 41) -0.1558 ( 42)  0.1048 ( 43)  0.1472 ( 44)  0.1190 ( 45)
           0.2289 ( 49)  0.2303 ( 50)  0.2556 ( 51) -0.1614 ( 55) -0.2669 ( 56)
          -0.1429 ( 58) -0.1200 ( 62)  0.1257 ( 63)  0.1242 ( 65)  0.1510 ( 66)
 CRD 16=  -0.1312 (  2) -0.3663 (  3) -0.5572 (  5)  0.1580 (  7)  0.1531 (  8)
           0.1856 (  9) -0.1571 ( 11) -0.1023 ( 14)  0.1263 ( 16)  0.1307 ( 22)
           0.1067 ( 27) -0.1545 ( 29) -0.1356 ( 33)  0.1336 ( 34)  0.1298 ( 35)
          -0.1137 ( 38) -0.1076 ( 41) -0.1697 ( 46) -0.1802 ( 47) -0.2045 ( 48)
           0.1120 ( 57)  0.1359 ( 58)
 CRD 17=  -0.2733 (  5) -0.1359 (  7) -0.1872 ( 11) -0.1215 ( 12)  0.4129 ( 13)
           0.4149 ( 14)  0.4274 ( 15) -0.2114 ( 16) -0.1713 ( 17) -0.1465 ( 18)
          -0.1099 ( 23)  0.1008 ( 25)  0.1088 ( 33)  0.1507 ( 40)  0.1953 ( 41)
           0.2148 ( 42)
 CRD 18=   0.1002 (  4)  0.1729 (  5)  0.1112 (  6)  0.3599 (  7)  0.2974 (  8)
           0.3278 (  9)  0.2653 ( 10)  0.3255 ( 11)  0.2953 ( 12)  0.2024 ( 13)
           0.2016 ( 14)  0.1996 ( 15) -0.1043 ( 22) -0.1346 ( 25) -0.1174 ( 26)
          -0.1467 ( 28) -0.1043 ( 29)  0.1126 ( 34)  0.1348 ( 35)  0.1456 ( 36)
           0.1326 ( 38)  0.1217 ( 39)
 CRD 19=   0.1588 (  4) -0.2399 (  5) -0.1191 (  6) -0.2944 (  7) -0.2457 (  8)
          -0.2751 (  9)  0.3814 ( 10)  0.3249 ( 11)  0.3852 ( 12) -0.1073 ( 22)
          -0.1485 ( 24) -0.1027 ( 25)  0.1193 ( 28) -0.1066 ( 35) -0.1059 ( 36)
           0.1426 ( 37)  0.1019 ( 38)  0.1377 ( 39) -0.1154 ( 49) -0.1080 ( 50)
          -0.1346 ( 51) -0.1054 ( 66)
 CRD 20=   0.1294 (  1)  0.2107 (  5) -0.1898 (  6) -0.3287 (  8) -0.1567 (  9)
           0.1111 ( 13)  0.1032 ( 14)  0.1509 ( 15) -0.1123 ( 21)  0.1055 ( 23)
          -0.1402 ( 33) -0.2118 ( 46) -0.1753 ( 47) -0.2147 ( 48)  0.1011 ( 49)
           0.1542 ( 50)  0.1354 ( 51) -0.2428 ( 52) -0.2034 ( 53) -0.2399 ( 54)
           0.1539 ( 63)  0.1008 ( 65)  0.1352 ( 66) -0.2493 ( 67) -0.2099 ( 68)
          -0.2464 ( 71)
 CRD 21=  -0.5610 ( 13)  0.3662 ( 14)  0.2613 ( 15)  0.4011 ( 40) -0.2330 ( 41)
          -0.1668 ( 42) -0.2407 ( 49)  0.2107 ( 50)  0.2110 ( 63) -0.2404 ( 65)
 CRD 22=   0.4973 ( 14) -0.5455 ( 15) -0.3199 ( 41)  0.3570 ( 42)  0.1563 ( 49)
           0.1115 ( 50) -0.2563 ( 51)  0.1231 ( 63)  0.1679 ( 65) -0.2447 ( 66)
 CRD 23=  -0.1162 (  1)  0.1240 (  4)  0.1619 (  9)  0.2832 ( 10) -0.1908 ( 13)
           0.1114 ( 20) -0.1352 ( 23)  0.1050 ( 28) -0.1025 ( 31)  0.1418 ( 33)
          -0.1392 ( 35) -0.2276 ( 43) -0.2621 ( 44) -0.1627 ( 45)  0.1325 ( 49)
           0.1743 ( 50)  0.1197 ( 51) -0.1671 ( 59) -0.2665 ( 60) -0.2321 ( 61)
           0.1908 ( 63)  0.1490 ( 65)  0.1362 ( 66) -0.1884 ( 69) -0.2879 ( 70)
          -0.2534 ( 72)
 CRD 24=   0.3635 (  7) -0.3741 (  9) -0.4291 ( 11)  0.3910 ( 12)  0.1909 ( 35)
          -0.1955 ( 36)  0.2283 ( 38) -0.2030 ( 39)  0.1345 ( 44)  0.1581 ( 48)
           0.1625 ( 52)  0.1415 ( 60)  0.1463 ( 67)  0.1225 ( 70) -0.1024 ( 71)
 CRD 25=   0.1536 (  9) -0.5870 ( 10)  0.1168 ( 11)  0.4696 ( 12)  0.3016 ( 37)
          -0.2370 ( 39)  0.1160 ( 46) -0.2136 ( 47) -0.2117 ( 53)  0.1179 ( 54)
          -0.2318 ( 68)
 CRD 26=  -0.2763 (  7)  0.6259 (  8) -0.3547 (  9) -0.3205 ( 34)  0.1716 ( 35)
           0.1524 ( 36)  0.1313 ( 43) -0.2212 ( 45) -0.2152 ( 59)  0.1373 ( 61)
          -0.2386 ( 69)  0.1139 ( 72)
 CRD 27=   0.4073 (  7) -0.3211 (  9) -0.1609 ( 10)  0.4268 ( 11) -0.1980 ( 12)
           0.1517 ( 35) -0.2382 ( 36)  0.1406 ( 37) -0.2513 ( 38) -0.1635 ( 43)
           0.1479 ( 46) -0.1142 ( 48)  0.1942 ( 54) -0.1288 ( 59) -0.1992 ( 61)
          -0.1078 ( 67) -0.1098 ( 69)  0.1542 ( 71) -0.1802 ( 72)
 CRD 28=  -0.1457 (  1)  0.3586 (  2)  0.1074 (  3) -0.2036 (  5) -0.3055 ( 13)
          -0.1616 ( 14) -0.1279 ( 15) -0.2149 ( 16) -0.1437 ( 17) -0.1305 ( 18)
          -0.3260 ( 23)  0.3141 ( 33)  0.1053 ( 40)  0.1951 ( 41)  0.2171 ( 42)
          -0.1190 ( 46) -0.1125 ( 47) -0.1817 ( 67) -0.1981 ( 68)  0.1211 ( 69)
           0.1110 ( 70) -0.2047 ( 71)  0.1289 ( 72)
 CRD 29=   0.2676 (  2) -0.6753 (  3)  0.3299 (  5) -0.1474 (  7) -0.1122 ( 11)
          -0.1443 ( 13)  0.1440 ( 14)  0.1541 ( 15)  0.1049 ( 18) -0.1285 ( 27)
          -0.1108 ( 32)  0.2027 ( 33)  0.1111 ( 34) -0.1773 ( 40)  0.1088 ( 54)
           0.1051 ( 70)
 CRD 30=  -0.1882 (  4)  0.1487 (  6) -0.1061 (  7) -0.1420 (  8) -0.2387 (  9)
           0.1645 ( 10)  0.1965 ( 11)  0.2540 ( 12)  0.2088 ( 22)  0.1967 ( 24)
           0.1824 ( 25) -0.1781 ( 26) -0.1471 ( 28) -0.1400 ( 29)  0.1687 ( 30)
          -0.1577 ( 32)  0.1796 ( 34)  0.1063 ( 35)  0.2104 ( 36) -0.2394 ( 37)
          -0.2171 ( 38) -0.1703 ( 39) -0.2144 ( 62) -0.2423 ( 64)  0.1064 ( 66)
           0.1208 ( 68)  0.1408 ( 69)  0.1304 ( 72)
 CRD 31=  -0.1593 (  1) -0.1017 (  3) -0.2223 (  4) -0.1322 (  5) -0.2719 (  6)
           0.2332 (  7)  0.2036 (  8)  0.1375 (  9)  0.1739 ( 10)  0.2076 ( 11)
           0.1519 ( 15)  0.1017 ( 16)  0.1086 ( 17)  0.1110 ( 18)  0.1474 ( 19)
           0.1391 ( 22)  0.1620 ( 24)  0.1579 ( 25)  0.1717 ( 26)  0.1926 ( 28)
           0.1980 ( 29) -0.1901 ( 34) -0.2404 ( 35) -0.1693 ( 36) -0.1496 ( 37)
          -0.1240 ( 38) -0.2160 ( 39) -0.1360 ( 40) -0.1217 ( 41) -0.1238 ( 68)
           0.1133 ( 69) -0.1074 ( 71)  0.1015 ( 72)
 CRD 32=   0.4155 (  1) -0.2024 (  2) -0.2085 (  4)  0.3020 (  5) -0.2073 (  6)
           0.1577 (  8)  0.1294 (  9)  0.1577 ( 10)  0.1482 ( 12) -0.2739 ( 15)
          -0.1598 ( 16) -0.1555 ( 17) -0.1395 ( 18) -0.1856 ( 36) -0.2005 ( 38)
           0.2129 ( 40)  0.1982 ( 41) -0.1164 ( 48)  0.1128 ( 54)  0.1124 ( 57)
          -0.1053 ( 61) -0.1511 ( 65)
 CRD 33=  -0.3656 (  1)  0.1934 (  3) -0.1231 (  4)  0.1841 (  6)  0.1084 ( 10)
           0.1305 ( 13)  0.3377 ( 14) -0.1815 ( 15)  0.1048 ( 16)  0.1476 ( 18)
          -0.1141 ( 23) -0.1069 ( 30) -0.2992 ( 42) -0.1007 ( 48)  0.1914 ( 51)
           0.1654 ( 55)  0.1922 ( 57) -0.2394 ( 63)  0.2496 ( 64) -0.2595 ( 65)
          -0.1343 ( 67) -0.1239 ( 68)
 CRD 34=   0.1659 (  1)  0.2458 (  2) -0.1613 (  3) -0.1191 (  4) -0.1371 (  5)
           0.1755 (  7) -0.1613 (  8) -0.1535 ( 10)  0.1375 ( 11) -0.2181 ( 13)
           0.2480 ( 14) -0.1409 ( 15) -0.1107 ( 17) -0.1556 ( 34) -0.1672 ( 37)
           0.2404 ( 41) -0.1327 ( 44) -0.1399 ( 45)  0.1563 ( 47) -0.1330 ( 50)
           0.1659 ( 51)  0.1363 ( 55)  0.1199 ( 61) -0.2402 ( 63)  0.1462 ( 64)
           0.1400 ( 67)  0.2128 ( 68) -0.2177 ( 69) -0.2105 ( 70)
 CRD 35=   0.3874 (  4) -0.2230 (  6)  0.1816 (  7)  0.1874 (  8) -0.2429 (  9)
          -0.1587 ( 11)  0.1464 ( 14) -0.1811 ( 15) -0.1070 ( 22) -0.1420 ( 32)
          -0.2628 ( 35)  0.1678 ( 39)  0.1142 ( 41) -0.1172 ( 42) -0.2013 ( 44)
           0.1066 ( 45)  0.1986 ( 51)  0.1633 ( 59) -0.1445 ( 60) -0.1452 ( 62)
          -0.1502 ( 64)  0.2036 ( 66)  0.2855 ( 69)  0.1307 ( 72)
 CRD 36=   0.2781 (  1) -0.1996 (  2) -0.1039 (  3) -0.1051 (  5)  0.2623 (  6)
          -0.1716 (  9)  0.1627 ( 10)  0.1398 ( 11) -0.3155 ( 12) -0.1300 ( 13)
           0.1987 ( 19)  0.1856 ( 23) -0.1111 ( 30) -0.1076 ( 33)  0.1004 ( 34)
           0.1306 ( 37)  0.1132 ( 38) -0.2280 ( 39)  0.1149 ( 41) -0.1322 ( 44)
           0.1107 ( 46)  0.2695 ( 48)  0.1703 ( 52) -0.1730 ( 53)  0.1001 ( 64)
          -0.2945 ( 68)  0.1287 ( 69) -0.1099 ( 71)
 CRD 37=  -0.1638 (  2)  0.2007 (  3) -0.3966 ( 13)  0.1544 ( 14)  0.2698 ( 15)
           0.2573 ( 16) -0.1494 ( 18)  0.2303 ( 27) -0.2180 ( 33) -0.2945 ( 40)
           0.1710 ( 42) -0.1081 ( 48)  0.2815 ( 49) -0.2326 ( 50) -0.2298 ( 63)
           0.2844 ( 65)
 CRD 38=   0.2135 (  7) -0.2816 (  8)  0.2782 ( 10) -0.2415 ( 11)  0.1047 ( 20)
          -0.1415 ( 25)  0.1438 ( 28) -0.2204 ( 34)  0.1503 ( 36)  0.2181 ( 37)
          -0.1708 ( 38)  0.2254 ( 43) -0.1421 ( 45)  0.2230 ( 46) -0.1396 ( 47)
           0.2832 ( 54)  0.2802 ( 61) -0.1043 ( 68) -0.1149 ( 69)  0.2583 ( 71)
           0.2527 ( 72)
 CRD 39=  -0.1778 (  4)  0.1421 (  6)  0.1850 (  7) -0.2581 (  9)  0.1559 ( 12)
          -0.1687 ( 14)  0.1357 ( 15)  0.1145 ( 17)  0.1385 ( 26) -0.1304 ( 29)
          -0.1582 ( 30)  0.1349 ( 32) -0.1648 ( 35)  0.1650 ( 36) -0.1062 ( 38)
          -0.1133 ( 41)  0.1037 ( 43) -0.1592 ( 44)  0.1754 ( 45)  0.1248 ( 47)
           0.1150 ( 50) -0.1156 ( 51)  0.1043 ( 53) -0.2188 ( 56) -0.1756 ( 58)
           0.1402 ( 59) -0.1944 ( 60)  0.1814 ( 64) -0.2879 ( 66) -0.1688 ( 67)
          -0.2888 ( 70)
 CRD 40=   0.2075 (  2)  0.1089 (  5) -0.2449 (  6)  0.1061 (  8)  0.1241 ( 10)
          -0.1941 ( 12) -0.2037 ( 19) -0.1138 ( 21)  0.1882 ( 22) -0.1199 ( 23)
          -0.1073 ( 25)  0.1249 ( 26)  0.2314 ( 31) -0.1062 ( 35) -0.1543 ( 39)
           0.1661 ( 45) -0.1063 ( 46) -0.2971 ( 47)  0.1109 ( 52) -0.2003 ( 53)
          -0.1193 ( 56)  0.1963 ( 57)  0.1055 ( 58)  0.1351 ( 59) -0.1106 ( 62)
           0.3401 ( 67) -0.1938 ( 70)  0.2196 ( 71) -0.1555 ( 72)
 CRD 41=  -0.1918 (  2)  0.1082 (  4)  0.1638 (  5)  0.1160 (  7) -0.1370 (  8)
          -0.1228 ( 10)  0.1474 ( 11)  0.1966 ( 20) -0.1505 ( 24)  0.1029 ( 25)
           0.1481 ( 28) -0.2018 ( 32) -0.1091 ( 34)  0.1216 ( 38)  0.1355 ( 43)
          -0.2355 ( 46)  0.1256 ( 49)  0.1118 ( 50)  0.2666 ( 52)  0.2112 ( 53)
          -0.1207 ( 56)  0.2251 ( 57) -0.2674 ( 59) -0.2107 ( 60) -0.1761 ( 62)
          -0.1829 ( 66) -0.1958 ( 71)  0.2626 ( 72)
 CRD 42=   0.1642 (  4) -0.1669 (  5)  0.1090 ( 17) -0.1732 ( 21)  0.1155 ( 29)
           0.1441 ( 30) -0.2448 ( 43) -0.2027 ( 45)  0.1141 ( 46)  0.2136 ( 49)
           0.2426 ( 50) -0.1322 ( 52) -0.1223 ( 53)  0.3689 ( 55)  0.1594 ( 57)
          -0.2224 ( 58)  0.1893 ( 60) -0.2628 ( 62) -0.1348 ( 63)  0.1190 ( 64)
          -0.1638 ( 65) -0.2915 ( 66)  0.1447 ( 70)

 THE DETERMINANT OF THE G MATRIX IS 10**(   -16)


                     --------------------
                     INTERNAL COORDINATES
                     --------------------

                 - - ATOMS - -         COORDINATE      COORDINATE
 NO.   TYPE    I  J  K  L  M  N        (BOHR,RAD)       (ANG,DEG)
 ----------------------------------------------------------------
   1 STRETCH   1  5                     2.8457749       1.5059193
   2 STRETCH   1  2                     2.8852100       1.5267875
   3 STRETCH   1  6                     2.2964686       1.2152389
   4 STRETCH   2  4                     2.8727162       1.5201760
   5 STRETCH   2  7                     2.1130869       1.1181975
   6 STRETCH   2  3                     2.8680920       1.5177290
   7 STRETCH   3  8                     2.0755798       1.0983496
   8 STRETCH   3 10                     2.0748760       1.0979771
   9 STRETCH   3  9                     2.0736480       1.0973274
  10 STRETCH   4 13                     2.0745343       1.0977964
  11 STRETCH   4 12                     2.0752403       1.0981699
  12 STRETCH   4 11                     2.0753856       1.0982468
  13 STRETCH   5 16                     2.0741367       1.0975859
  14 STRETCH   5 15                     2.0750501       1.0980693
  15 STRETCH   5 14                     2.0758964       1.0985172
  16 BEND      1  5 16                  1.9701773     112.8828461
  17 BEND      1  5 15                  1.9243504     110.2571548
  18 BEND      1  5 14                  1.9260930     110.3570000
  19 BEND      1  2  7                  1.8810839     107.7781674
  20 BEND      1  2  3                  1.9577588     112.1713173
  21 BEND      1  2  4                  1.9029427     109.0305833
  22 BEND      2  4 11                  1.9440628     111.3865938
  23 BEND      2  1  6                  2.1471155     123.0206545
  24 BEND      2  4 12                  1.9491754     111.6795219
  25 BEND      2  4 13                  1.9366448     110.9615728
  26 BEND      2  3  9                  1.9434652     111.3523538
  27 BEND      2  1  5                  2.0088481     115.0985200
  28 BEND      2  3 10                  1.9355718     110.9000936
  29 BEND      2  3  8                  1.9511583     111.7931386
  30 BEND      3  2  7                  1.8898058     108.2778971
  31 BEND      3  2  4                  1.9344159     110.8338643
  32 BEND      4  2  7                  1.8961187     108.6395980
  33 BEND      5  1  6                  2.1271606     121.8773272
  34 BEND      8  3  9                  1.8761299     107.4943272
  35 BEND      8  3 10                  1.8757701     107.4737079
  36 BEND      9  3 10                  1.8783668     107.6224928
  37 BEND     11  4 12                  1.8787561     107.6447956
  38 BEND     11  4 13                  1.8774945     107.5725081
  39 BEND     12  4 13                  1.8743348     107.3914747
  40 BEND     14  5 15                  1.8790938     107.6641425
  41 BEND     14  5 16                  1.8819213     107.8261499
  42 BEND     15  5 16                  1.8791416     107.6668834
  43 TORSION   1  2  3  9              -1.0355661     -59.3335647
  44 TORSION   1  2  3 10              -3.1267713    -179.1508011
  45 TORSION   1  2  3  8               1.0633605      60.9260695
  46 TORSION   1  2  4 11               0.9929552      56.8921398
  47 TORSION   1  2  4 12              -1.1083760     -63.5052665
  48 TORSION   1  2  4 13               3.0841751     176.7102155
  49 TORSION   2  1  5 15              -1.1563848     -66.2559673
  50 TORSION   2  1  5 14               0.9172638      52.5553451
  51 TORSION   2  1  5 16               3.0244298     173.2870638
  52 TORSION   3  2  4 13              -1.0357816     -59.3459114
  53 TORSION   3  2  4 12               1.0548527      60.4386066
  54 TORSION   3  2  4 11              -3.1270015    -179.1639870
  55 TORSION   3  2  1  6              -0.6333508     -36.2883275
  56 TORSION   3  2  1  5               2.5199281     144.3812437
  57 TORSION   4  2  1  6               1.5160079      86.8608561
  58 TORSION   4  2  1  5              -1.6138985     -92.4695727
  59 TORSION   4  2  3  8              -1.0681774     -61.2020596
  60 TORSION   4  2  3 10               1.0248760      58.7210697
  61 TORSION   4  2  3  9               3.1160813     178.5383061
  62 TORSION   5  1  2  7               0.4412624      25.2824733
  63 TORSION   6  1  5 14              -2.2127900    -126.7835261
  64 TORSION   6  1  2  7              -2.7120165    -155.3870980
  65 TORSION   6  1  5 15               1.9967467     114.4051615
  66 TORSION   6  1  5 16              -0.1056240      -6.0518074
  67 TORSION   7  2  4 13               1.0385233      59.5030010
  68 TORSION   7  2  4 12               3.1291575     179.2875190
  69 TORSION   7  2  3  8               3.1368949     179.7308408
  70 TORSION   7  2  3 10              -1.0532369     -60.3460299
  71 TORSION   7  2  4 11              -1.0526966     -60.3150747
  72 TORSION   7  2  3  9               1.0379684      59.4712066

     ------------------------------------------
     THE POINT GROUP IS C1 , NAXIS= 1, ORDER= 1
     ------------------------------------------

     DIMENSIONS OF THE SYMMETRY SUBSPACES ARE
 A   =  174

 ..... DONE SETTING UP THE RUN .....
 STEP CPU TIME =     0.01 TOTAL CPU TIME =        0.0 (    0.0 MIN)
 TOTAL WALL CLOCK TIME=        0.0 SECONDS, CPU UTILIZATION IS 100.00%


          -----------------------------
          STATIONARY POINT LOCATION RUN
          -----------------------------

 OBTAINING INITIAL HESSIAN, HESS=GUESS   
 DIAGONAL GUESS HESSIAN IN INTERNAL COORDS IS
     1  0.3848     2  0.3695     3  0.5467     4  0.3742     5  0.3279
     6  0.3760     7  0.3408     8  0.3410     9  0.3415    10  0.3412
    11  0.3409    12  0.3409    13  0.3413    14  0.3410    15  0.3407
    16  0.2251    17  0.2250    18  0.2250    19  0.2226    20  0.2496
    21  0.2494    22  0.2242    23  0.2584    24  0.2242    25  0.2242
    26  0.2244    27  0.2504    28  0.2243    29  0.2243    30  0.2231
    31  0.2500    32  0.2230    33  0.2600    34  0.2026    35  0.2026
    36  0.2026    37  0.2026    38  0.2026    39  0.2026    40  0.2026
    41  0.2026    42  0.2026    43  0.2500    44  0.2500    45  0.2500
    46  0.2500    47  0.2500    48  0.2500    49  0.2500    50  0.2500
    51  0.2500    52  0.2500    53  0.2500    54  0.2500    55  0.2500
    56  0.2500    57  0.2500    58  0.2500    59  0.2500    60  0.2500
    61  0.2500    62  0.2500    63  0.2500    64  0.2500    65  0.2500
    66  0.2500    67  0.2500    68  0.2500    69  0.2500    70  0.2500
    71  0.2500    72  0.2500
 TRANSFORMING HESSIAN TO SYMMETRY COORDINATES

          PARAMETERS CONTROLLING GEOMETRY SEARCH ARE
          METHOD =QA                  UPHESS =BFGS    
          NNEG   =         0          NFRZ   =         3
          NSTEP  =        50          IFOLOW =         1
          HESS   =GUESS               RESTAR =         F
          IHREP  =         0          HSSEND =         F
          NPRT   =         0          NPUN   =         0
          OPTTOL = 5.000E-04          RMIN   = 1.500E-03
          RMAX   = 1.000E-01          RLIM   = 7.000E-02
          DXMAX  = 3.000E-01          PURIFY =         F
          MOVIE  =         F          TRUPD  =         T
          TRMAX  = 5.000E-01          TRMIN  = 5.000E-02
          ITBMAT =         5          STPT   =         F
          STSTEP = 1.000E-02          PROJCT=          F
          FROZEN COORD(S)=   1   2   3


      ***** EQUILIBRIUM GEOMETRY LOCATED *****
            (SUBJECT TO   3 CONSTRAINT(S))
 COORDINATES OF ALL ATOMS ARE (ANGS)
   ATOM   CHARGE       X              Y              Z
 ------------------------------------------------------------
 C           6.0   1.9760394029   2.1883387127   2.5544762683
 C           6.0   3.2314769646   2.0934242478   1.7023204351
 C           6.0   4.4845343228   1.8682732937   2.5468914226
 C           6.0   3.0455253545   0.9681496939   0.6698335399
 C           6.0   0.9163650518   3.1505376604   2.0830234673
 O           8.0   1.8327417164   1.5284329109   3.5426069655
 H           1.0   3.3290778554   3.0319037726   1.1646630035
 H           1.0   4.4359161807   0.9177861338   3.0668920823
 H           1.0   4.6101659914   2.6535812815   3.2861181773
 H           1.0   5.3613213630   1.8637597318   1.9066478804
 H           1.0   2.1436102361   1.1007702344   0.0802421361
 H           1.0   2.9901262157   0.0032913523   1.1651112089
 H           1.0   3.8901435342   0.9547104416  -0.0109628413
 H           1.0   0.7220146887   3.0134258209   1.0243843063
 H           1.0   1.2931054380   4.1617377692   2.2140857871
 H           1.0   0.0037063105   3.0260292745   2.6501910915


                     --------------------
                     INTERNAL COORDINATES
                     --------------------

                 - - ATOMS - -         COORDINATE      COORDINATE
 NO.   TYPE    I  J  K  L  M  N        (BOHR,RAD)       (ANG,DEG)
 ----------------------------------------------------------------
   1 STRETCH   1  5                     2.8477890       1.5069852
   2 STRETCH   1  2                     2.8729440       1.5202966
   3 STRETCH   1  6                     2.2616887       1.1968342
   4 STRETCH   2  4                     2.9072622       1.5384570
   5 STRETCH   2  7                     2.0521983       1.0859766
   6 STRETCH   2  3                     2.8871067       1.5277912
   7 STRETCH   3  8                     2.0494514       1.0845231
   8 STRETCH   3 10                     2.0516261       1.0856738
   9 STRETCH   3  9                     2.0518527       1.0857938
  10 STRETCH   4 13                     2.0501952       1.0849167
  11 STRETCH   4 12                     2.0521769       1.0859653
  12 STRETCH   4 11                     2.0515995       1.0856598
  13 STRETCH   5 16                     2.0441625       1.0817243
  14 STRETCH   5 15                     2.0541907       1.0870310
  15 STRETCH   5 14                     2.0504081       1.0850293
  16 BEND      1  5 16                  1.9345149     110.8395405
  17 BEND      1  5 15                  1.8886491     108.2116232
  18 BEND      1  5 14                  1.9289058     110.5181619
  19 BEND      1  2  7                  1.8731548     107.3238667
  20 BEND      1  2  3                  1.9569531     112.1251557
  21 BEND      1  2  4                  1.8986667     108.7855907
  22 BEND      2  4 11                  1.9557635     112.0569957
  23 BEND      2  1  6                  2.1261275     121.8181303
  24 BEND      2  4 12                  1.9283135     110.4842239
  25 BEND      2  4 13                  1.9135657     109.6392363
  26 BEND      2  3  9                  1.9440757     111.3873345
  27 BEND      2  1  5                  2.0321688     116.4346953
  28 BEND      2  3 10                  1.9145080     109.6932280
  29 BEND      2  3  8                  1.9363269     110.9433592
  30 BEND      3  2  7                  1.9042740     109.1068634
  31 BEND      3  2  4                  1.9415741     111.2440009
  32 BEND      4  2  7                  1.8867110     108.1005768
  33 BEND      5  1  6                  2.1248623     121.7456414
  34 BEND      8  3  9                  1.8887493     108.2173644
  35 BEND      8  3 10                  1.8915856     108.3798711
  36 BEND      9  3 10                  1.8870995     108.1228350
  37 BEND     11  4 12                  1.8900241     108.2904065
  38 BEND     11  4 13                  1.8833391     107.9073829
  39 BEND     12  4 13                  1.8911458     108.3546703
  40 BEND     14  5 15                  1.8726255     107.2935353
  41 BEND     14  5 16                  1.9239896     110.2364854
  42 BEND     15  5 16                  1.9137452     109.6495224
  43 TORSION   1  2  3  9              -0.9965307     -57.0970038
  44 TORSION   1  2  3 10              -3.0851482    -176.7659685
  45 TORSION   1  2  3  8               1.1087370      63.5259523
  46 TORSION   1  2  4 11               0.9503001      54.4481838
  47 TORSION   1  2  4 12              -1.1589835     -66.4048630
  48 TORSION   1  2  4 13               3.0410549     174.2396106
  49 TORSION   2  1  5 15              -1.2107580     -69.3713230
  50 TORSION   2  1  5 14               0.8349617      47.8397831
  51 TORSION   2  1  5 16               2.9733890     170.3626420
  52 TORSION   3  2  4 13              -1.0780792     -61.7693901
  53 TORSION   3  2  4 12               1.0050677      57.5861362
  54 TORSION   3  2  4 11               3.1143513     178.4391830
  55 TORSION   3  2  1  6              -0.6256964     -35.8497637
  56 TORSION   3  2  1  5               2.5236298     144.5933377
  57 TORSION   4  2  1  6               1.5291951      87.6164247
  58 TORSION   4  2  1  5              -1.6046640     -91.9404738
  59 TORSION   4  2  3  8              -1.0218722     -58.5489663
  60 TORSION   4  2  3 10               1.0674279      61.1591128
  61 TORSION   4  2  3  9              -3.1271400    -179.1719224
  62 TORSION   5  1  2  7               0.4327420      24.7942916
  63 TORSION   6  1  5 14              -2.2989034    -131.7174627
  64 TORSION   6  1  2  7              -2.7165842    -155.6488099
  65 TORSION   6  1  5 15               1.9385622     111.0714312
  66 TORSION   6  1  5 16              -0.1604761      -9.1946038
  67 TORSION   7  2  4 13               1.0123380      58.0026939
  68 TORSION   7  2  4 12               3.0954849     177.3582203
  69 TORSION   7  2  3  8              -3.1018283    -177.7216714
  70 TORSION   7  2  3 10              -1.0125282     -58.0135922
  71 TORSION   7  2  4 11              -1.0784168     -61.7887329
  72 TORSION   7  2  3  9               1.0760893      61.6553726

          INTERNUCLEAR DISTANCES (ANGS.)


 =====================================================
   GAMESS/COSab RESULTS
 =====================================================

   Dielectric Constant                  = INFTY
   Basic Grid Size                      =                 1082
   Number of Segments                   =                   92
   Number of Segments located on spheres=                  228
   Number of Segments of the cavity     =                  539
   Solvent Radius (rsolv)               = 1.40
   Outlying Charge Error Method         = double cavity

 =====================================================

  Total solvated Energy (a.u.)          =  -270.1117891268
  Total Energy corrected (a.u.)         =  -270.1114501784

  Outlying charge effect (a.u.)         =     0.0003389484
  Outlying charge effect (kcal/mol)     =     0.2126934829

  Dielectric Energy (a.u.)              =    -0.0130790877
  Dielectric energy corr. (a.u.)        =    -0.0127401394

  Sum of polarization charges           =     0.0217964540
  Sum of polarization charges(cor.)     =    -0.0217964540

  Total surface area of cavity (A**2)   =  135.87
  Total volume of cavity (A**3)         =  127.85

 =====================================================
 NPS=                   539
NR.  ATOM  (X, Y, Z)(a.u.)                  CHARGE(e)  AREA(A**2) SIGMA(e/A**2)
   1   1   0.846193   1.746128   4.342082   0.000267   0.139368   0.001914
   2   1   4.776791   6.331288   7.721227  -0.000231   0.139368  -0.001660
   3   1   1.432912   1.226006   4.103289  -0.000066   0.092912  -0.000709
   4   1   3.772698   6.426109   7.833115  -0.000084   0.139368  -0.000604
   5   1   1.210278   1.627592   3.552377  -0.001097   0.185824  -0.005905
   6   1   4.255453   6.820692   7.435218  -0.000708   0.185824  -0.003808
   7   1   4.896892   6.989588   7.014877  -0.001235   0.185824  -0.006645
   8   2   8.705679   5.328613   0.840997  -0.000121   0.092912  -0.001306
   9   2   6.999407   7.523817   4.087414  -0.000128   0.046456  -0.002746
  10   2   8.441095   5.266417   0.549106  -0.000034   0.046456  -0.000734
  11   3  10.897625   0.770949   3.919803   0.001000   0.232280   0.004303
  12   3  11.245214   2.983817   7.324646   0.000679   0.371649   0.001827
  13   3   7.981640   3.625861   8.558892   0.000545   0.185824   0.002931
  14   3  10.106164   6.483074   3.108688   0.001178   0.464561   0.002537
  15   3  10.951527   6.211447   3.832434   0.000595   0.185824   0.003203
  16   3   9.373500   7.116154   4.025961   0.000665   0.278737   0.002386
  17   3   9.924824   6.999805   4.432200   0.000514   0.185824   0.002766
  18   3   8.224550   2.590849   8.465162   0.000635   0.139368   0.004554
  19   3  10.678195   2.013249   7.482395   0.000935   0.418105   0.002237
  20   3  10.549874   0.383105   4.546421   0.000966   0.232280   0.004159
  21   3  11.621829   5.611455   5.033131   0.001591   0.371649   0.004282
  22   3  11.223730   6.042269   5.458905   0.000889   0.232280   0.003828
  23   3  10.252911   0.469939   3.488354   0.000786   0.185824   0.004231
  24   3  11.406209   1.155092   5.029511   0.002219   0.511017   0.004342
  25   3  11.578239   2.064615   6.394832   0.000973   0.418105   0.002327
  26   3  10.310820   3.303129   8.108475   0.001278   0.418105   0.003057
  27   3   8.925910   3.255194   8.555219   0.001462   0.325193   0.004496
  28   3  12.100644   4.242839   5.605512   0.001053   0.371649   0.002833
  29   3  11.890269   3.426930   6.427331   0.000913   0.464561   0.001965
  30   3  11.213463   4.075318   7.359639   0.000686   0.325193   0.002108
  31   3   9.909549   5.809598   2.161370   0.000013   0.092912   0.000136
  32   3  10.660113   6.598471   4.504457   0.001483   0.371649   0.003991
  33   3   8.557182   7.308097   4.727442   0.000208   0.185824   0.001119
  34   3   9.627624   2.597905   8.289262   0.001088   0.325193   0.003347
  35   3  11.194652   1.235750   6.085436   0.000812   0.278737   0.002915
  36   3   9.744014   0.056879   4.034135   0.000416   0.139368   0.002987
  37   3  11.639909   4.873312   6.381868   0.001292   0.418105   0.003091
  38   3  12.055322   2.519093   5.475687   0.000861   0.371649   0.002317
  39   4   6.015125   2.529785  -2.439097   0.000790   0.232280   0.003401
  40   4   4.903484  -1.102387  -0.961889   0.000471   0.371649   0.001268
  41   4   2.739123  -0.328197   1.995003   0.001182   0.371649   0.003180
  42   4   8.965486  -0.161928   1.154580   0.000379   0.139368   0.002718
  43   4   2.369465   0.149937   1.267021   0.000713   0.278737   0.002560
  44   4   4.019426  -0.435832  -1.211979   0.000679   0.418105   0.001625
  45   4   5.208578   2.761156  -2.356004   0.001227   0.371649   0.003301
  46   4   4.699209   4.584966  -1.095706  -0.000053   0.139368  -0.000379
  47   4   8.058837  -1.024873   0.354856   0.001317   0.325193   0.004051
  48   4   7.861012  -1.301494   1.050315   0.000808   0.232280   0.003479
  49   4   5.671216   4.463899  -1.442942   0.000511   0.325193   0.001572
  50   4   6.086507   3.639136  -2.035680   0.000976   0.325193   0.003002
  51   4   5.650781   1.303568  -2.475406   0.001791   0.511017   0.003505
  52   4   5.231466  -0.181012  -1.891346   0.000704   0.418105   0.001683
  53   4   4.095055  -1.233242  -0.199641   0.000993   0.371649   0.002673
  54   4   3.051180  -0.794223   0.968473   0.001062   0.278737   0.003808
  55   4   7.507677   4.357340  -0.930389   0.000039   0.139368   0.000279
  56   4   7.191625  -0.980054  -0.814362   0.000912   0.371649   0.002453
  57   4   6.072973  -1.037843  -1.175786   0.000720   0.464561   0.001549
  58   4   5.444894  -1.646710  -0.184590   0.000563   0.325193   0.001730
  59   4   8.503024  -0.742745   1.607965   0.001272   0.325193   0.003912
  60   4   3.223686  -0.715056   0.082285   0.000813   0.278737   0.002915
  61   4   4.840543   0.643160  -2.204083   0.000608   0.278737   0.002180
  62   4   5.000274   3.919162  -1.791609   0.000552   0.232280   0.002375
  63   4   6.762926  -1.585772  -0.000836   0.001165   0.418105   0.002787
  64   4   6.716084   4.333370  -1.397229   0.000403   0.232280   0.001737
  65   4   6.347329  -0.018457  -1.977419   0.000648   0.371649   0.001743
  66   4   3.808585  -1.356633   0.679928   0.000456   0.185824   0.002456
  67   5   1.738644   7.008142   7.565709  -0.000194   0.185824  -0.001042
  68   5  -1.750351   5.062998   2.767393   0.000584   0.278737   0.002097
  69   5  -0.308932   8.714187   2.355311   0.000071   0.371649   0.000191
  70   5   3.067880   8.423065   1.406351   0.000245   0.185824   0.001321
  71   5   0.929731   6.990677   7.481164   0.000121   0.325193   0.000373
  72   5   0.355682   7.816578   6.923056   0.000352   0.232280   0.001516
  73   5   2.260759   7.589926   7.301902   0.000202   0.232280   0.000868
  74   5   1.858965   8.259968   6.927836   0.000003   0.232280   0.000014
  75   5   2.613853   7.999934   0.883675   0.000155   0.185824   0.000833
  76   5  -0.141744   8.075571   1.431939   0.000104   0.418105   0.000249
  77   5  -1.335740   4.818760   2.042355   0.000539   0.325193   0.001657
  78   5  -0.512465   8.522551   5.563889   0.000761   0.371649   0.002047
  79   5   0.321269   8.733787   6.073145   0.000988   0.418105   0.002364
  80   5  -0.051052   2.846396   2.731761  -0.000429   0.325193  -0.001319
  81   5  -1.047936   3.706654   2.707948   0.000544   0.325193   0.001673
  82   5  -1.828328   6.211788   2.693772   0.001027   0.464561   0.002211
  83   5  -1.193177   7.696846   2.295981   0.000174   0.418105   0.000415
  84   5   0.840266   9.049185   1.959635   0.000457   0.418105   0.001093
  85   5   2.162663   8.749057   1.429499   0.000669   0.325193   0.002057
  86   5  -1.510848   4.175052   3.157355   0.000451   0.232280   0.001941
  87   5  -1.099615   8.406399   4.438467   0.000420   0.371649   0.001130
  88   5  -0.934830   8.568838   3.357681   0.000168   0.464561   0.000361
  89   5   0.150327   9.296822   3.157323   0.000085   0.325193   0.000261
  90   5   1.073580   8.191717   6.909942   0.000574   0.325193   0.001765
  91   5   2.945588   7.929854   6.920528  -0.000288   0.139368  -0.002069
  92   5   1.218988   8.515674   1.205502   0.000405   0.325193   0.001245
  93   5  -1.322795   6.710359   1.843056   0.000197   0.371649   0.000530
  94   5  -0.518005   3.503380   2.142106   0.000141   0.278737   0.000507
  95   5  -0.164438   9.182978   4.446761   0.000331   0.418105   0.000792
  96   5  -0.662983   3.029711   3.917328  -0.000047   0.511017  -0.000093
  97   5  -1.696277   7.456539   3.412185   0.000261   0.464561   0.000561
  98   6   3.152376   1.047075   9.354944   0.005209   0.377948   0.013783
  99   6   5.161393   2.797248   9.464588   0.002760   0.206154   0.013388
 100   6   2.010786  -0.009223   6.452033   0.003803   0.309230   0.012298
 101   6   0.530411   2.518376   8.045625   0.005732   0.274871   0.020854
 102   6   2.872858   4.523495   9.440839   0.003776   0.274871   0.013737
 103   6   4.166376   1.646284   9.614784   0.005747   0.412307   0.013938
 104   6   5.189758   2.059017   9.320673   0.004706   0.274871   0.017122
 105   6   3.965060   0.515476   8.858470   0.005052   0.343589   0.014702
 106   6   4.539318   0.176596   8.127571   0.006404   0.343589   0.018640
 107   6   2.617047   0.341717   8.528434   0.005564   0.412307   0.013496
 108   6   2.033648   0.094785   7.541084   0.004865   0.377948   0.012873
 109   6   2.017605   1.355232   9.169214   0.005544   0.377948   0.014670
 110   6   1.137361   1.953801   8.763580   0.005706   0.343589   0.016607
 111   6   2.841346   2.161490   9.800897   0.006744   0.481025   0.014020
 112   6   2.836442   3.372022   9.846944   0.005837   0.412307   0.014156
 113   6   4.257404  -0.250279   6.983269   0.005774   0.309230   0.018673
 114   6   3.026805  -0.331528   6.613350   0.005258   0.377948   0.013911
 115   6   1.137208   0.633176   6.955000   0.004627   0.343589   0.013468
 116   6   0.647177   1.548447   7.610144   0.004953   0.309230   0.016017
 117   6   0.917535   3.283541   8.676229   0.006437   0.343589   0.018735
 118   6   1.927326   3.978732   9.343349   0.004969   0.309230   0.016070
 119   6   3.887091   4.077484   9.689711   0.004637   0.377948   0.012268
 120   6   5.073796   3.621924   9.420910   0.005053   0.343589   0.014706
 121   6   2.090073   0.174937   5.547298   0.003602   0.274871   0.013106
 122   6   1.227208   0.721642   5.762010   0.003357   0.309230   0.010857
 123   6   0.367965   1.926483   6.935068   0.002674   0.171795   0.015566
 124   6   2.398545   5.031682   8.893808   0.003705   0.240512   0.015407
 125   6   3.617062   5.120124   9.052530   0.003970   0.343589   0.011554
 126   6   4.987353   1.063256   8.910693   0.005604   0.309230   0.018122
 127   6   3.396287  -0.183645   7.754334   0.006179   0.446666   0.013834
 128   6   1.355612   0.918402   8.191654   0.006075   0.412307   0.014734
 129   6   1.679970   2.791563   9.410185   0.007389   0.446666   0.016543
 130   6   4.096485   2.884040   9.882620   0.005363   0.412307   0.013008
 131   6   0.653853   1.292096   6.343543   0.004229   0.274871   0.015384
 132   6   1.455899   4.320841   8.811741   0.003919   0.206154   0.019010
 133   6   4.644083   4.732296   9.096704   0.003900   0.309230   0.012612
 134   7   7.017517   7.589952   0.770540  -0.002155   0.353299  -0.006099
 135   7   6.721130   6.644278  -0.038134  -0.001371   0.294415  -0.004657
 136   7   8.114211   6.872323   1.015549  -0.001223   0.333671  -0.003666
 137   7   7.133911   7.964717   2.773863  -0.001509   0.314043  -0.004805
 138   7   7.572744   6.557432   0.275582  -0.001536   0.333671  -0.004604
 139   7   7.740933   7.655433   1.728080  -0.001756   0.392554  -0.004474
 140   7   6.631905   8.145266   1.913168  -0.002360   0.353299  -0.006681
 141   7   6.026718   7.821427   0.940377  -0.002537   0.353299  -0.007181
 142   7   5.749348   6.962635   0.146400  -0.002160   0.412182  -0.005241
 143   8   8.920804  -0.310334   7.046481  -0.002027   0.372926  -0.005436
 144   8   9.509914  -0.415056   5.415610  -0.000925   0.353299  -0.002618
 145   8   8.315514   1.081828   8.163039  -0.001047   0.314043  -0.003333
 146   8   9.986244   0.530994   7.215282  -0.000961   0.353299  -0.002721
 147   8   8.696047  -0.700097   5.897063  -0.001863   0.353299  -0.005272
 148   8   7.731569  -0.506988   6.562102  -0.002693   0.392554  -0.006861
 149   8   7.968525   0.084071   7.567637  -0.002076   0.353299  -0.005876
 150   8   9.173989   0.711885   7.884479  -0.001431   0.412182  -0.003472
 151   8   9.881183  -0.111456   6.414040  -0.001223   0.353299  -0.003461
 152   9   9.211968   6.669197   7.955494  -0.003443   0.569203  -0.006049
 153   9   8.026060   7.342681   6.589950  -0.001889   0.353299  -0.005346
 154   9   9.688756   7.259286   6.004639  -0.000649   0.314043  -0.002068
 155   9  10.618095   6.031971   7.378865  -0.001232   0.392554  -0.003138
 156   9   9.115739   5.091867   8.631861  -0.001174   0.372926  -0.003148
 157   9   8.922688   7.428019   6.617125  -0.001932   0.431809  -0.004474
 158   9  10.200655   6.847089   6.888583  -0.001967   0.490692  -0.004008
 159   9  10.059648   5.466741   8.213443  -0.001649   0.451437  -0.003652
 160   9   8.236231   5.578120   8.553190  -0.002049   0.451437  -0.004538
 161   9   7.947337   6.688669   7.837068  -0.002843   0.471065  -0.006036
 162  10  12.370410   3.658851   2.601347  -0.002796   0.471065  -0.005936
 163  10  11.977774   5.094780   3.212541  -0.001105   0.392554  -0.002815
 164  10  10.868044   4.793932   1.634612  -0.001577   0.372926  -0.004230
 165  10  11.593507   1.783399   2.667754  -0.001344   0.392554  -0.003423
 166  10  12.543095   3.342155   4.035082  -0.001083   0.372926  -0.002903
 167  10  11.570486   5.042540   2.317663  -0.001571   0.412182  -0.003811
 168  10  11.544336   3.823065   1.616031  -0.002715   0.431809  -0.006286
 169  10  11.805734   2.642891   2.034909  -0.002585   0.431809  -0.005986
 170  10  12.298917   2.373536   3.468199  -0.001683   0.490692  -0.003431
 171  10  12.456776   4.309321   3.692566  -0.001311   0.372926  -0.003517
 172  11   2.187964   2.187702  -1.446249  -0.003819   0.529948  -0.007206
 173  11   3.669119   2.732775  -2.185765  -0.000971   0.333671  -0.002909
 174  11   1.956567   0.800976   0.038157  -0.001074   0.333671  -0.003219
 175  11   3.052307   0.855106  -1.729136  -0.001207   0.353299  -0.003417
 176  11   3.158912   3.323653  -1.770146  -0.002430   0.412182  -0.005895
 177  11   1.700070   1.628682  -0.400807  -0.002495   0.333671  -0.007478
 178  11   2.361722   0.717825  -0.999919  -0.001644   0.412182  -0.003989
 179  11   3.308120   1.726622  -2.163202  -0.001644   0.412182  -0.003988
 180  12   5.396693  -2.380875   2.723675  -0.002662   0.451437  -0.005897
 181  12   7.310786  -1.742306   2.672086  -0.001150   0.294415  -0.003907
 182  12   6.230366  -2.294449   1.564758  -0.001204   0.372926  -0.003229
 183  12   4.225534  -1.988040   2.036132  -0.001168   0.353299  -0.003306
 184  12   3.726848  -1.389781   2.822850  -0.001020   0.274788  -0.003713
 185  12   6.334340  -1.949066   3.522467  -0.002527   0.392554  -0.006438
 186  12   6.691480  -2.215374   2.328118  -0.001373   0.333671  -0.004114
 187  12   5.090999  -2.281105   1.501639  -0.001144   0.333671  -0.003430
 188  12   4.431010  -1.861625   3.230839  -0.001901   0.333671  -0.005697
 189  12   5.301457  -1.724057   3.910363  -0.002511   0.353299  -0.007107
 190  13   8.959746   1.599687  -1.866329  -0.003173   0.490692  -0.006466
 191  13   9.415859   0.475370  -0.105125  -0.001299   0.353299  -0.003678
 192  13   8.701049   3.519528  -1.148009  -0.001728   0.353299  -0.004890
 193  13   7.673587   2.245696  -2.415778  -0.001365   0.392554  -0.003477
 194  13   8.014201   0.326665  -1.868088  -0.001232   0.372926  -0.003303
 195  13   9.635299   1.342256  -0.798659  -0.002758   0.431809  -0.006388
 196  13   9.420346   2.577411  -1.096024  -0.002908   0.431809  -0.006734
 197  13   8.277402   3.008347  -1.951362  -0.001899   0.451437  -0.004207
 198  13   7.817070   1.224131  -2.362042  -0.001542   0.392554  -0.003929
 199  13   8.832821   0.175766  -1.110971  -0.002000   0.510320  -0.003919
 200  14   0.593724   5.576231  -0.393813  -0.004839   0.529948  -0.009131
 201  14  -0.582141   4.855347   0.694116  -0.001602   0.333671  -0.004800
 202  14   1.919927   7.100810  -0.000397  -0.001525   0.294415  -0.005181
 203  14  -0.073492   6.858359   0.319312  -0.002051   0.392554  -0.005225
 204  14   0.041636   4.371385   0.343756  -0.003004   0.392554  -0.007652
 205  14   1.931128   6.208805  -0.398596  -0.003539   0.372926  -0.009490
 206  14   0.896825   6.956008  -0.119709  -0.002555   0.431809  -0.005918
 207  14  -0.530877   5.877142   0.383505  -0.002338   0.412182  -0.005672
 208  15   3.103749  10.205830   4.527143  -0.004681   0.549575  -0.008517
 209  15   4.163964   9.081693   5.446575  -0.002704   0.333671  -0.008103
 210  15   2.413500   9.410506   6.093003  -0.001646   0.333671  -0.004932
 211  15   1.372508  10.052276   4.502939  -0.001903   0.353299  -0.005385
 212  15   2.634639   9.848002   2.747169  -0.002202   0.412182  -0.005341
 213  15   3.394142   9.373585   5.873518  -0.002873   0.431809  -0.006652
 214  15   1.979670   9.972220   5.357731  -0.002973   0.471065  -0.006312
 215  15   1.999515  10.209694   3.602478  -0.003320   0.510320  -0.006506
 216  15   3.696454   9.672502   3.090036  -0.003819   0.510320  -0.007483
 217  15   4.175897   9.595161   4.382192  -0.003908   0.431809  -0.009051
 218  16  -2.272225   5.588521   5.915491  -0.003465   0.451437  -0.007676
 219  16  -1.045191   6.995500   6.823859  -0.001738   0.392554  -0.004427
 220  16  -0.716770   5.768626   7.355190  -0.002321   0.392554  -0.005912
 221  16  -1.456681   3.861027   5.673704  -0.002120   0.353299  -0.006001
 222  16  -2.262238   4.927665   4.497841  -0.001949   0.412182  -0.004728
 223  16  -2.139362   6.912804   5.046615  -0.001661   0.372926  -0.004454
 224  16  -1.596411   6.034692   6.842264  -0.002563   0.372926  -0.006872
 225  16  -1.541859   4.754369   6.653362  -0.003396   0.451437  -0.007522
 226  16  -2.016311   4.347707   5.258234  -0.002055   0.372926  -0.005511
 227  16  -2.413510   5.976504   4.677181  -0.002004   0.392554  -0.005104
 228  16  -1.832332   7.021088   5.985273  -0.002255   0.412182  -0.005470
 229   1   1.393959   1.941078   2.759228  -0.001154   0.105154  -0.010973
 230   4   1.825360   1.590257   2.155965  -0.000966   0.105154  -0.009185
 231   5   1.079551   2.295748   2.621345  -0.001088   0.105154  -0.010348
 232   1   2.298856   0.684045   4.098163  -0.000089   0.074324  -0.001200
 233   4   2.716220   0.356261   3.473838  -0.000269   0.074324  -0.003625
 234   6   2.319116   0.575550   4.478793   0.000374   0.074324   0.005028
 235   4   2.408628   0.481147   2.568268  -0.000663   0.468071  -0.001416
 236   1   1.751910   1.264568   3.232486  -0.002597   0.468071  -0.005549
 237   1   0.534478   2.106583   4.876160   0.000109   0.040253   0.002701
 238   5   0.220502   2.452136   4.722722  -0.000080   0.040253  -0.001996
 239   6   0.595427   1.949487   5.233931   0.000422   0.040253   0.010486
 240   1   2.855122   6.150369   7.913246   0.000049   0.040253   0.001228
 241   5   2.510758   6.442971   7.720040  -0.000126   0.040253  -0.003141
 242   6   2.827213   5.838436   8.154727   0.000328   0.040253   0.008140
 243   1   4.008425   7.534093   6.684811  -0.000450   0.029091  -0.015452
 244   5   3.676421   7.873787   6.559120  -0.000339   0.029091  -0.011657
 245  15   3.682807   8.125232   6.389574  -0.000271   0.029091  -0.009331
 246   5   0.350577   2.520802   3.460206  -0.001540   0.303379  -0.005077
 247   1   0.716169   2.095447   4.021601  -0.001493   0.303379  -0.004922
 248   5   2.897636   7.181978   7.248446  -0.001397   0.318534  -0.004385
 249   1   3.659159   6.932383   7.278624  -0.001986   0.318534  -0.006234
 250   1   5.490800   5.557140   7.934149   0.000174   0.113296   0.001539
 251   6   5.395091   5.257557   8.179564   0.000942   0.113296   0.008314
 252   9   6.491688   5.564668   7.898559   0.000060   0.113296   0.000527
 253   6   1.214142   1.211222   5.232807   0.002248   0.243422   0.009235
 254   1   1.472752   1.215275   4.604568   0.000734   0.259739   0.002825
 255   6   4.157270   5.394020   8.453000   0.002479   0.266446   0.009305
 256   1   3.840000   5.879285   8.062615   0.000818   0.284306   0.002876
 257   1   5.539030   7.325886   5.793922  -0.001566   0.090212  -0.017362
 258   9   6.486036   7.064246   5.953899  -0.000842   0.090212  -0.009329
 259  15   5.040179   7.774131   5.500603  -0.001173   0.090212  -0.013002
 260   9   7.205387   7.012625   6.717050  -0.001287   0.311159  -0.004136
 261   9   7.061037   6.213297   7.745038  -0.000970   0.311159  -0.003118
 262   1   5.691922   6.604188   7.021836  -0.004897   0.865389  -0.005659
 263  15   4.031068   8.358269   5.988238  -0.002196   0.260705  -0.008424
 264   1   4.782650   7.558075   6.226149  -0.003202   0.367378  -0.008717
 265   2   8.849059   5.843771   1.411195  -0.000106   0.028241  -0.003757
 266   3   9.233302   5.749499   1.713910  -0.000058   0.028241  -0.002068
 267   7   8.665823   6.077740   1.353239  -0.000161   0.028241  -0.005716
 268   2   7.440560   7.429666   3.923687  -0.000090   0.028241  -0.003198
 269   3   7.843004   7.314899   4.193933  -0.000042   0.028241  -0.001477
 270   7   7.383308   7.521783   3.640998  -0.000117   0.028241  -0.004141
 271   2   7.414647   7.284736   4.743595  -0.000095   0.025264  -0.003744
 272   3   7.824678   7.254598   5.024746  -0.000088   0.025264  -0.003484
 273   9   7.917566   7.263494   5.312576  -0.000090   0.025264  -0.003575
 274   2   9.256490   5.470419   1.516018  -0.000065   0.027507  -0.002378
 275   3   9.686395   5.419772   1.762514  -0.000067   0.027507  -0.002448
 276  10   9.937736   5.252150   1.745075  -0.000101   0.027507  -0.003686
 277   3   9.575809   5.578236   1.759451   0.000007   0.024689   0.000268
 278   2   8.984603   5.708492   1.379638  -0.000016   0.024689  -0.000647
 279   3   7.951167   7.320536   4.634317  -0.000022   0.086538  -0.000259
 280   2   7.306858   7.420273   4.325154  -0.000125   0.086538  -0.001445
 281   2   7.847564   5.193866   0.088495  -0.000112   0.029527  -0.003787
 282   4   7.763523   4.806974  -0.219673  -0.000065   0.029527  -0.002207
 283   7   7.731430   5.471891   0.118825  -0.000136   0.029527  -0.004594
 284   2   8.006709   4.720427  -0.088072  -0.000077   0.027622  -0.002786
 285   4   7.968702   4.377545  -0.452277  -0.000087   0.027622  -0.003142
 286  13   8.139102   4.161174  -0.576783  -0.000100   0.027622  -0.003615
 287   4   7.873411   4.539758  -0.439224   0.000000   0.014926   0.000015
 288   2   7.975140   5.057798   0.049288  -0.000012   0.014926  -0.000789
 289   2   6.149718   7.750173   3.928203  -0.000604   0.093774  -0.006446
 290   7   6.149155   7.853896   3.639983  -0.000640   0.093774  -0.006822
 291  15   5.241131   8.251650   4.053615  -0.000950   0.093774  -0.010132
 292   7   6.840104   7.768646   3.470226  -0.000384   0.057484  -0.006672
 293   2   6.996768   7.582784   3.850429  -0.000279   0.070229  -0.003974
 294   7   8.199647   6.087115   0.781914  -0.000652   0.121196  -0.005383
 295   2   8.239725   5.608584   0.630100  -0.000630   0.148067  -0.004257
 296   2   6.334228   7.329507   4.969471  -0.001583   0.162624  -0.009734
 297   9   6.864956   7.143541   5.478037  -0.000944   0.162624  -0.005804
 298  15   5.383954   7.755556   4.990492  -0.002011   0.162624  -0.012363
 299   9   7.837057   7.303627   5.609583  -0.000356   0.107536  -0.003313
 300   2   6.986271   7.386502   4.863605  -0.000219   0.151558  -0.001443
 301   2   9.006404   4.479300   0.731410  -0.000437   0.167314  -0.002613
 302  10   9.661487   4.283887   1.052878  -0.000531   0.167314  -0.003175
 303  13   9.039777   3.899602   0.243133  -0.000643   0.167314  -0.003843
 304  10  10.092210   4.809863   1.454738  -0.000523   0.160743  -0.003253
 305   2   9.112564   5.256507   1.119427  -0.000083   0.226576  -0.000368
 306  13   8.497988   3.971309  -0.530130  -0.000603   0.167011  -0.003611
 307   2   8.509352   4.772852   0.270401  -0.000149   0.235345  -0.000634
 308  15   4.898250   8.574625   4.693042  -0.001421   0.182709  -0.007775
 309   2   6.195670   7.783426   4.408199  -0.000614   0.260785  -0.002353
 310   3  10.145701   1.093997   2.395294   0.000069   0.065553   0.001055
 311   4   9.610113   0.850079   1.803426   0.000055   0.065553   0.000838
 312  10  10.349516   1.301803   2.307155  -0.000150   0.065553  -0.002295
 313   3   8.626648  -0.255061   3.492846   0.000081   0.066341   0.001226
 314   4   8.195918  -0.623516   2.880103   0.000044   0.066341   0.000657
 315  12   7.971458  -0.803454   2.979382  -0.000173   0.066341  -0.002600
 316   4   9.016858   0.039526   2.044272   0.000721   0.570521   0.001263
 317   3   9.482926   0.241255   3.196615   0.000911   0.570521   0.001597
 318   3   7.429730   2.168548   8.256720   0.000612   0.087287   0.007007
 319   6   6.462890   2.103610   8.432717   0.001931   0.087287   0.022119
 320   8   7.456261   1.871805   8.190646   0.000153   0.087287   0.001748
 321   3   7.308672   4.115821   8.411549   0.000313   0.074146   0.004222
 322   6   6.348417   3.957970   8.554879   0.001177   0.074146   0.015875
 323   9   7.423976   4.397201   8.401051   0.000070   0.074146   0.000946
 324   6   5.999248   2.804103   8.864728   0.007828   0.516709   0.015150
 325   3   7.323198   3.297990   8.532133   0.003230   0.576411   0.005603
 326   7   7.624137   7.563563   3.208801  -0.000871   0.217286  -0.004008
 327   7   8.357812   6.870724   2.012234  -0.002671   0.447706  -0.005965
 328   3   8.728640   7.036876   3.463121  -0.000337   0.592502  -0.000570
 329   3   9.431615   6.124013   2.106992   0.000175   0.306135   0.000571
 330   3   8.817667  -0.212286   3.994023  -0.000017   0.088061  -0.000194
 331   8   8.732118  -0.314509   4.268521  -0.000138   0.088061  -0.001562
 332  12   8.074680  -0.627297   3.476160  -0.000016   0.088061  -0.000181
 333   8   9.338597  -0.256427   4.720824  -0.000130   0.069318  -0.001873
 334   8  10.110315   0.102231   5.448550  -0.000288   0.154179  -0.001866
 335   8  10.402626   0.724887   6.613996  -0.000380   0.154179  -0.002464
 336   8   9.824341   1.334761   7.674680  -0.000401   0.154179  -0.002601
 337   8   8.618304   1.675746   8.185183  -0.000280   0.154179  -0.001819
 338   3   9.841431   0.061697   4.653379  -0.000066   0.151676  -0.000435
 339   3  10.632496   0.653374   5.808835  -0.000033   0.151676  -0.000215
 340   3  10.462718   1.385110   7.130458  -0.000198   0.151676  -0.001305
 341   3   9.403391   1.949621   8.063249  -0.000046   0.151676  -0.000304
 342   3   8.212874   2.153525   8.324641   0.000102   0.084688   0.001209
 343   9   8.161738   4.531705   8.554773  -0.000079   0.068941  -0.001152
 344   9   9.266174   4.430848   8.474215  -0.000386   0.153035  -0.002522
 345   9  10.418743   4.798494   7.887760  -0.000442   0.153035  -0.002889
 346   9  10.922644   5.609127   6.940941  -0.000413   0.153035  -0.002696
 347   9  10.569662   6.527790   6.024987  -0.000280   0.153035  -0.001832
 348   9   9.505651   7.174886   5.518375  -0.000461   0.153035  -0.003015
 349   9   8.407841   7.351673   5.517143  -0.000187   0.068941  -0.002706
 350   3   8.519267   4.055349   8.508534  -0.000014   0.151149  -0.000091
 351   3   9.988870   4.138625   8.170300  -0.000121   0.151149  -0.000799
 352   3  10.971430   4.837539   7.260815  -0.000232   0.151149  -0.001537
 353   3  11.060950   5.863297   6.155883  -0.000023   0.151149  -0.000151
 354   3  10.220439   6.792052   5.312066  -0.000068   0.151149  -0.000447
 355   3   8.797200   7.240036   5.078034  -0.000333   0.151149  -0.002201
 356  10  10.424960   5.344180   1.984733  -0.000161   0.071484  -0.002249
 357  10  11.087037   5.601648   2.889604  -0.000448   0.159948  -0.002803
 358  10  11.859225   5.147196   3.950284  -0.000358   0.159948  -0.002239
 359  10  12.289054   3.969584   4.547211  -0.000453   0.159948  -0.002829
 360  10  12.185840   2.591229   4.415575  -0.000458   0.159948  -0.002866
 361  10  11.595373   1.623600   3.613773  -0.000303   0.159948  -0.001895
 362  10  10.931314   1.381646   2.706077  -0.000185   0.071484  -0.002588
 363   3  10.357023   5.721227   2.456353  -0.000366   0.155540  -0.002351
 364   3  11.276624   5.730672   3.715640  -0.000060   0.155540  -0.000383
 365   3  11.992460   4.758731   4.702793  -0.000058   0.155540  -0.000374
 366   3  12.186968   3.236579   4.979887  -0.000235   0.155540  -0.001511
 367   3  11.773862   1.839479   4.423998  -0.000090   0.155540  -0.000581
 368   3  10.936404   1.187215   3.281730  -0.000044   0.155540  -0.000284
 369  12   7.902130  -1.010475   3.039421   0.000006   0.013713   0.000464
 370   3   8.942591  -0.320912   3.816343   0.000101   0.019475   0.005180
 371   4   1.917375   1.458184   1.627263  -0.000527   0.102285  -0.005149
 372   5   1.296833   2.263647   2.109496  -0.001050   0.102285  -0.010262
 373  11   1.828084   1.582212   1.361361  -0.000545   0.102285  -0.005326
 374   5   0.775761   2.330095   2.458434  -0.000047   0.025080  -0.001881
 375   4   1.799719   1.277384   1.792638   0.000069   0.025080   0.002768
 376   4   3.183916  -0.177394   3.324809  -0.000197   0.098939  -0.001990
 377   6   2.901687   0.180404   4.327210   0.000385   0.098939   0.003887
 378  12   3.379005  -0.400269   3.403186  -0.000220   0.098939  -0.002222
 379   6   2.298747   0.304056   4.691349   0.000565   0.103187   0.005471
 380   4   2.851323  -0.126783   3.269080   0.000198   0.116117   0.001702
 381   4   4.460982   5.255097  -0.229358  -0.000787   0.242079  -0.003253
 382   7   4.656148   5.891464   0.129924  -0.001330   0.242079  -0.005495
 383  14   3.550275   5.852772   0.137421  -0.001579   0.242079  -0.006525
 384   7   7.391744   5.731616  -0.035140  -0.000735   0.190489  -0.003858
 385   7   6.023417   5.953970  -0.178386  -0.002287   0.389363  -0.005874
 386   4   6.825514   4.890079  -0.712004  -0.000326   0.522609  -0.000623
 387   4   5.256442   5.111884  -0.737923  -0.000050   0.268499  -0.000186
 388   4   9.449188   0.758034   1.304182  -0.000068   0.088467  -0.000764
 389  10  10.074933   1.316922   1.851262  -0.000034   0.088467  -0.000385
 390  13   9.518328   0.873100   1.029926  -0.000216   0.088467  -0.002440
 391  10  10.555337   1.344703   2.226846   0.000006   0.010601   0.000530
 392   4   9.563056   0.590078   1.432559   0.000083   0.015064   0.005527
 393   4   3.825895   4.502343  -0.796419  -0.000418   0.097330  -0.004299
 394  11   3.560329   4.368009  -0.868790  -0.000535   0.097330  -0.005495
 395  14   2.956353   5.109627  -0.372033  -0.000797   0.097330  -0.008186
 396  11   3.926420   3.967146  -1.413576  -0.000287   0.071273  -0.004021
 397  11   4.199363   3.044600  -2.038607  -0.000534   0.159373  -0.003352
 398  11   4.110196   1.673322  -2.210644  -0.000467   0.159373  -0.002929
 399  11   3.560986   0.545298  -1.624229  -0.000609   0.159373  -0.003818
 400  11   2.794004   0.158132  -0.538047  -0.000528   0.159373  -0.003315
 401  11   2.147588   0.682611   0.568758  -0.000717   0.159373  -0.004501
 402   4   4.448912   3.761115  -1.643179  -0.000411   0.155175  -0.002651
 403   4   4.640040   2.343684  -2.254370  -0.000209   0.155175  -0.001344
 404   4   4.259992   0.855766  -2.007677  -0.000370   0.155175  -0.002383
 405   4   3.476419  -0.046278  -1.011923  -0.000404   0.155175  -0.002601
 406   4   2.634976   0.035469   0.293636  -0.000209   0.155175  -0.001348
 407   4   2.135109   0.742598   1.217344  -0.000228   0.087075  -0.002613
 408  12   3.442703  -0.903993   2.775856  -0.000233   0.069536  -0.003358
 409  12   3.747944  -1.410232   1.823784  -0.000431   0.154619  -0.002786
 410  12   4.736593  -1.877307   1.024448  -0.000518   0.154619  -0.003348
 411  12   6.083642  -1.994906   0.946021  -0.000530   0.154619  -0.003427
 412  12   7.223483  -1.713651   1.621432  -0.000337   0.154619  -0.002182
 413  12   7.719159  -1.277333   2.526873  -0.000169   0.069536  -0.002435
 414   4   3.292139  -0.812896   2.202472  -0.000277   0.152205  -0.001820
 415   4   4.006799  -1.458529   1.024637  -0.000284   0.152205  -0.001869
 416   4   5.393461  -1.805639   0.503525  -0.000324   0.152205  -0.002130
 417   4   6.869884  -1.708480   0.857943  -0.000161   0.152205  -0.001057
 418   4   7.816135  -1.207846   1.939076  -0.000162   0.152205  -0.001063
 419  13   9.272414   0.368394   0.501625  -0.000173   0.071479  -0.002425
 420  13   8.639078  -0.201860  -0.272853  -0.000373   0.160018  -0.002332
 421  13   7.768247  -0.143543  -1.354382  -0.000531   0.160018  -0.003317
 422  13   7.122616   0.774966  -2.173501  -0.000558   0.160018  -0.003488
 423  13   6.989495   2.144926  -2.365699  -0.000482   0.160018  -0.003010
 424  13   7.428121   3.356701  -1.845448  -0.000534   0.160018  -0.003338
 425  13   8.067934   3.907921  -1.062559  -0.000229   0.071479  -0.003205
 426   4   8.870845  -0.085525   0.544638  -0.000152   0.155447  -0.000976
 427   4   7.930132  -0.543872  -0.613389  -0.000175   0.155447  -0.001124
 428   4   7.026872   0.037961  -1.745485  -0.000373   0.155447  -0.002402
 429   4   6.563019   1.401057  -2.347862  -0.000238   0.155447  -0.001533
 430   4   6.744989   2.938833  -2.152462  -0.000193   0.155447  -0.001243
 431   4   7.491805   3.966973  -1.246237  -0.000444   0.155447  -0.002854
 432  14   2.854037   5.875877  -0.233833  -0.000910   0.176076  -0.005169
 433   4   4.092127   4.885619  -0.812898   0.000145   0.254643   0.000570
 434   5   0.726937   5.732071   7.611213   0.000053   0.063636   0.000832
 435   6   1.117321   5.122635   7.971211   0.001056   0.063636   0.016596
 436  16   0.439243   5.668455   7.544097  -0.000152   0.063636  -0.002381
 437   5  -0.339662   3.056651   5.307526  -0.000071   0.063636  -0.001109
 438   6   0.111067   2.598582   5.797859   0.000639   0.063636   0.010041
 439  16  -0.528295   3.241516   5.454366  -0.000201   0.063636  -0.003152
 440   6   2.224423   5.433055   8.356884   0.004482   0.433780   0.010333
 441   5   1.442085   6.131408   7.757483   0.000399   0.478629   0.000834
 442   6   0.357360   2.021746   5.737928   0.001996   0.190226   0.010494
 443   5  -0.148865   2.659896   4.898265   0.000055   0.209952   0.000262
 444   5   3.371113   7.051490   0.660371  -0.000287   0.071615  -0.004009
 445   7   4.271713   6.847789   0.622647  -0.000447   0.071615  -0.006247
 446  14   3.179218   6.878537   0.500189  -0.000444   0.071615  -0.006202
 447   5   3.952840   8.381670   1.979831  -0.000273   0.075900  -0.003592
 448   7   4.799253   8.051085   1.810063  -0.000544   0.075900  -0.007167
 449  15   3.955946   8.584673   2.207883  -0.000431   0.075900  -0.005680
 450   7   5.004573   7.364152   0.854411  -0.002718   0.399161  -0.006810
 451   5   3.792926   7.906032   1.289170  -0.000572   0.562193  -0.001017
 452   5   0.578667   3.270942   1.368460  -0.000600   0.097212  -0.006176
 453  11   1.306861   2.662718   0.730875  -0.000826   0.097212  -0.008496
 454  14   0.614597   3.404005   1.095289  -0.000755   0.097212  -0.007762
 455  11   1.573562   1.755881   0.895907  -0.001276   0.313141  -0.004075
 456   5   0.540263   2.775345   1.772766  -0.000939   0.452646  -0.002075
 457  14  -0.017886   3.792159   1.221074  -0.000439   0.066973  -0.006562
 458  14  -0.685149   4.645550   1.233037  -0.000795   0.147860  -0.005379
 459  14  -0.880884   5.935688   1.101864  -0.000727   0.147860  -0.004916
 460  14  -0.280089   7.072649   0.844300  -0.000835   0.147860  -0.005649
 461  14   0.881840   7.610965   0.561259  -0.000792   0.147860  -0.005357
 462  14   2.149651   7.339719   0.363639  -0.000932   0.147860  -0.006302
 463   5  -0.420017   3.968435   1.614462  -0.000664   0.147600  -0.004501
 464   5  -1.077379   5.286323   1.564443  -0.000529   0.147600  -0.003582
 465   5  -0.837778   6.722001   1.334497  -0.000676   0.147600  -0.004581
 466   5   0.204908   7.712961   1.014718  -0.000680   0.147600  -0.004606
 467   5   1.642149   7.870939   0.730397  -0.000535   0.147600  -0.003625
 468   5   2.734398   7.404836   0.590248  -0.000315   0.081822  -0.003851
 469  15   3.377047   9.038261   2.237635  -0.000351   0.068387  -0.005132
 470  15   2.345099   9.409021   2.343395  -0.000897   0.151432  -0.005924
 471  15   1.302936   9.696298   3.122625  -0.000909   0.151432  -0.006001
 472  15   0.887859   9.686817   4.388899  -0.000942   0.151432  -0.006221
 473  15   1.267811   9.384415   5.629875  -0.000782   0.151432  -0.005164
 474  15   2.289061   8.911446   6.343443  -0.000913   0.151432  -0.006029
 475  15   3.318965   8.522536   6.383591  -0.000426   0.068387  -0.006224
 476   5   2.874071   8.902240   1.949761  -0.000630   0.150300  -0.004191
 477   5   1.517391   9.349625   2.397771  -0.000664   0.150300  -0.004417
 478   5   0.653972   9.514220   3.609738  -0.000740   0.150300  -0.004924
 479   5   0.633160   9.329429   5.095290  -0.000598   0.150300  -0.003980
 480   5   1.463377   8.870020   6.253363  -0.000575   0.150300  -0.003823
 481   5   2.808709   8.321873   6.615390  -0.000867   0.150300  -0.005768
 482  16   0.026551   6.193278   7.419514  -0.000299   0.066229  -0.004516
 483  16  -0.380981   7.077117   6.957769  -0.000659   0.146192  -0.004510
 484  16  -1.056405   7.640332   5.994552  -0.000634   0.146192  -0.004335
 485  16  -1.709768   7.402644   4.891005  -0.000664   0.146192  -0.004539
 486  16  -2.086966   6.456493   4.076316  -0.000696   0.146192  -0.004763
 487  16  -2.041299   5.169856   3.867333  -0.000618   0.146192  -0.004227
 488  16  -1.590528   4.043127   4.345333  -0.000646   0.146192  -0.004420
 489  16  -1.047148   3.500047   5.100491  -0.000333   0.066229  -0.005022
 490   5   0.268856   6.711389   7.290743  -0.000528   0.145961  -0.003617
 491   5  -0.387619   7.721499   6.456129  -0.000376   0.145961  -0.002576
 492   5  -1.173331   7.913983   5.234053  -0.000493   0.145961  -0.003378
 493   5  -1.782701   7.213981   4.099801  -0.000568   0.145961  -0.003892
 494   5  -1.978735   5.893734   3.494505  -0.000508   0.145961  -0.003478
 495   5  -1.685192   4.466712   3.653575  -0.000469   0.145961  -0.003216
 496   5  -1.016235   3.487909   4.515145  -0.000600   0.145961  -0.004113
 497   6   5.367461  -0.011645   5.972042   0.004605   0.331427   0.013895
 498   8   6.404746  -0.131351   5.779384   0.000150   0.331427   0.000452
 499  12   5.793268  -0.493423   4.953847  -0.000323   0.331427  -0.000976
 500   8   7.422794   1.402559   8.223959   0.000591   0.244751   0.002414
 501   8   7.075397   0.425604   7.577015   0.000263   0.491909   0.000535
 502   8   6.748780  -0.179800   6.566833   0.000019   0.244751   0.000077
 503   6   5.867490   1.243062   8.466463   0.009566   0.606844   0.015763
 504   6   5.405886   0.159370   7.331566   0.009639   0.606844   0.015885
 505   9   7.195686   5.279254   8.322477  -0.000154   0.469369  -0.000329
 506   6   5.735813   4.485688   8.769277   0.005244   0.593960   0.008829
 507  12   5.179579  -1.064022   4.601040  -0.000576   0.306376  -0.001880
 508  12   3.990752  -0.944219   3.945459  -0.001267   0.615228  -0.002059
 509   6   4.018745  -0.390007   5.802364   0.007689   0.772095   0.009959
 510   6   2.765854  -0.133440   5.027863   0.002627   0.388801   0.006757
 511  16  -0.759927   3.390842   5.864191  -0.000395   0.269623  -0.001465
 512  16  -0.580391   4.266689   6.966016  -0.001447   0.544519  -0.002657
 513  16   0.035644   5.386424   7.582500  -0.000316   0.269623  -0.001174
 514   6   0.126667   2.755517   6.891259   0.008564   0.661304   0.012950
 515   6   0.669449   4.117014   8.063585   0.009215   0.661304   0.013935
 516  14   3.136530   6.655643   0.144547  -0.000417   0.229812  -0.001816
 517   7   4.711662   6.551025   0.175222  -0.000369   0.229812  -0.001607
 518  15   4.918785   8.855802   3.914966  -0.001150   0.266772  -0.004311
 519  15   4.412278   8.943523   2.837855  -0.002170   0.533504  -0.004067
 520   7   5.963670   8.239626   2.867126  -0.002084   0.533504  -0.003906
 521   7   5.412978   8.230725   1.808319  -0.000889   0.266772  -0.003332
 522  12   7.685565  -1.199598   3.450606  -0.000124   0.293549  -0.000422
 523  12   6.661443  -1.239257   4.248242  -0.001634   0.587288  -0.002783
 524   8   8.170830  -0.701993   4.912043  -0.000898   0.587288  -0.001529
 525   8   7.120469  -0.620757   5.671494  -0.000439   0.293549  -0.001495
 526  15   4.989287   8.437479   5.364918  -0.000246   0.178875  -0.001373
 527   9   7.215070   7.448522   6.013954   0.000200   0.178875   0.001117
 528  13   9.384772   3.556568  -0.172796  -0.000310   0.247133  -0.001255
 529  13   9.872523   2.571914  -0.080218  -0.001260   0.494096  -0.002550
 530  13   9.899036   1.347863   0.479706  -0.000737   0.494096  -0.001492
 531  10  10.476150   3.736256   0.998274  -0.001000   0.494096  -0.002023
 532  10  10.865130   2.481877   1.294492  -0.001050   0.494096  -0.002126
 533  10  10.698339   1.551990   1.863268  -0.000007   0.247133  -0.000029
 534  14   2.315415   5.419536  -0.557244  -0.001196   0.262226  -0.004559
 535  14   1.392558   4.701035  -0.491240  -0.003293   0.524369  -0.006281
 536  14   0.662799   3.767681   0.300762  -0.002570   0.524369  -0.004901
 537  11   2.809131   4.002277  -1.129770  -0.002090   0.524369  -0.003985
 538  11   1.798597   3.068240  -0.759147  -0.002610   0.524369  -0.004978
 539  11   1.383407   2.350974   0.068750  -0.000956   0.262226  -0.003644
 =====================================================

              2746063  WORDS OF DYNAMIC MEMORY USED
 EXECUTION OF GAMESS TERMINATED NORMALLY Thu Nov 24 20:36:24 2016
 DDI: 263640 bytes (0.3 MB / 0 MWords) used by master data server.

 ----------------------------------------
 CPU timing information for all processes
 ========================================
 0: 909.152 + 0.372 = 909.524
 ----------------------------------------
 ddikick.x: exited gracefully.
