----- GAMESS execution script -----

          ******************************************************
          *         GAMESS VERSION =  5 DEC 2014 (R1)          *
          *             FROM IOWA STATE UNIVERSITY             *
          * M.W.SCHMIDT, K.K.BALDRIDGE, J.A.BOATZ, S.T.ELBERT, *
          *   M.S.GORDON, J.H.JENSEN, S.KOSEKI, N.MATSUNAGA,   *
          *          K.A.NGUYEN, S.J.SU, T.L.WINDUS,           *
          *       TOGETHER WITH M.DUPUIS, J.A.MONTGOMERY       *
          *         J.COMPUT.CHEM.  14, 1347-1363(1993)        *
          **************** 64 BIT LINUX VERSION ****************

 EXECUTION OF GAMESS BEGUN Thu Nov 24 20:51:37 2016

            ECHO OF THE FIRST FEW INPUT CARDS -
 INPUT CARD>! SELECT RESTRICTED HARTREE-FOCK AS DEFAULT                                     
 INPUT CARD>$contrl scftyp=rhf $end                                                         
 INPUT CARD>                                                                                
 INPUT CARD>! THEORY: HF OR DFT                                                             
 INPUT CARD> $contrl mplevl=0 $end                                                          
 INPUT CARD>                                                                                
 INPUT CARD> $system timlim=10000 mwords=20 $end                                            
 INPUT CARD> $SCF DIRSCF=.TRUE. $end                                                        
 INPUT CARD>                                                                                
 INPUT CARD>                                                                                
 INPUT CARD>! BASIS SETS                                                                    
 INPUT CARD>! 6-311G(d,p)                                                                   
 INPUT CARD> $BASIS GBASIS=N311 NGAUSS=6 NDFUNC=1 NPFUNC=1 $END                             
 INPUT CARD>                                                                                
 INPUT CARD>! One of the following                                                          
 INPUT CARD> $guess guess=HUCKEL $end                                                       
 INPUT CARD>                                                                                
 INPUT CARD> $statpt projct=.FALSE. $end                                                    
 INPUT CARD> $STATPT IFREEZ(1)=1,2,3 $END                                                   
 INPUT CARD>                                                                                
 INPUT CARD>! Optimize the geometry with COSMO effects                                      
 INPUT CARD> $statpt opttol=0.0005 nstep=50 $end                                            
 INPUT CARD> $contrl nzvar=1 $end                                                           
 INPUT CARD> $zmat dlc=.t. auto=.t. $end                                                    
 INPUT CARD> $contrl runtyp=OPTIMIZE maxit=200 $end                                         
 INPUT CARD>                                                                                
 INPUT CARD>! Run COSMO on perfect conductor                                                
 INPUT CARD> $COSGMS PRFCND=.TRUE. $end                                                     
 INPUT CARD>                                                                                
 INPUT CARD>! Specifying RSOLV                                                              
 INPUT CARD> $COSGMS COSRAD = 1.4 $end                                                      
 INPUT CARD>                                                                                
 INPUT CARD>! available memory                                                              
 INPUT CARD> $SYSTEM MWORDS=40 $END                                                         
 INPUT CARD>                                                                                
 INPUT CARD> $DATA                                                                          
 INPUT CARD>2-Pentanone, ID: C107879                                                        
 INPUT CARD>C1                                                                              
 INPUT CARD>C      6.0      3.3052000000    2.7876000000    2.3439000000                    
 INPUT CARD>C      6.0      1.9233000000    2.3469000000    2.8021000000                    
 INPUT CARD>C      6.0      0.9970000000    3.5309000000    2.9655000000                    
 INPUT CARD>C      6.0      4.2117000000    1.5893000000    2.1393000000                    
 INPUT CARD>C      6.0      4.0995000000    0.8991000000    0.8072000000                    
 INPUT CARD>O      8.0      4.9873000000    1.2162000000    2.9983000000                    
 INPUT CARD>H      1.0      3.7410000000    3.4863000000    3.0860000000                    
 INPUT CARD>H      1.0      3.2328000000    3.3596000000    1.3974000000                    
 INPUT CARD>H      1.0      2.0030000000    1.7934000000    3.7583000000                    
 INPUT CARD>H      1.0      1.4933000000    1.6299000000    2.0738000000                    
 INPUT CARD>H      1.0      0.8701000000    4.0812000000    2.0237000000                    
 INPUT CARD>H      1.0      1.3771000000    4.2432000000    3.7097000000                    
   40000000 WORDS OF MEMORY AVAILABLE

     BASIS OPTIONS
     -------------
     GBASIS=N311         IGAUSS=       6      POLAR=POPN311 
     NDFUNC=       1     NFFUNC=       0     DIFFSP=       F
     NPFUNC=       1      DIFFS=       F     BASNAM=        


     RUN TITLE
     ---------
 2-Pentanone, ID: C107879                                                        

 THE POINT GROUP OF THE MOLECULE IS C1      
 THE ORDER OF THE PRINCIPAL AXIS IS     0

 ATOM      ATOMIC                      COORDINATES (BOHR)
           CHARGE         X                   Y                   Z
 C           6.0     6.2459223346        5.2678001634        4.4293287426
 C           6.0     3.6345099922        4.4349979206        5.2952011902
 C           6.0     1.8840568098        6.6724334900        5.6039824166
 C           6.0     7.9589589425        3.0033415123        4.0426908055
 C           6.0     7.7469316867        1.6990526356        1.5253868173
 O           8.0     9.4246304186        2.2982847463        5.6659654290
 H           1.0     7.0694649201        6.5881517110        5.8316943981
 H           1.0     6.1091061731        6.3487234284        2.6407030952
 H           1.0     3.7851211534        3.3890345864        7.1021571797
 H           1.0     2.8219278175        3.0800643874        3.9189137533
 H           1.0     1.6442505819        7.7123497011        3.8242384814
 H           1.0     2.6023416577        8.0184853111        7.0103164967
 H           1.0     0.0000000000        6.0697998726        6.2272140473
 H           1.0     8.9297111824        0.0000000000        1.3959405871
 H           1.0     8.3189517431        2.9836883620        0.0000000000
 H           1.0     5.7825615224        1.1321348392        1.1650160714

          INTERNUCLEAR DISTANCES (ANGS.)




     $CONTRL OPTIONS
     ---------------
 SCFTYP=RHF          RUNTYP=OPTIMIZE     EXETYP=RUN     
 MPLEVL=       0     CITYP =NONE         CCTYP =NONE         VBTYP =NONE    
 DFTTYP=NONE         TDDFT =NONE    
 MULT  =       1     ICHARG=       0     NZVAR =       1     COORD =UNIQUE  
 PP    =NONE         RELWFN=NONE         LOCAL =NONE         NUMGRD=       F
 ISPHER=      -1     NOSYM =       0     MAXIT =     200     UNITS =ANGS    
 PLTORB=       F     MOLPLT=       F     AIMPAC=       F     FRIEND=        
 NPRINT=       7     IREST =       0     GEOM  =INPUT   
 NORMF =       0     NORMP =       0     ITOL  =      20     ICUT  =       9
 INTTYP=BEST         GRDTYP=BEST         QMTTOL= 1.0E-06

     $SYSTEM OPTIONS
     ---------------
  REPLICATED MEMORY=    40000000 WORDS (ON EVERY NODE).
 DISTRIBUTED MEMDDI=           0 MILLION WORDS IN AGGREGATE,
 MEMDDI DISTRIBUTED OVER   1 PROCESSORS IS           0 WORDS/PROCESSOR.
 TOTAL MEMORY REQUESTED ON EACH PROCESSOR=    40000000 WORDS.
 TIMLIM=       10000.00 MINUTES, OR       6.9 DAYS.
 PARALL= F  BALTYP=  DLB     KDIAG=    0  COREFL= F
 MXSEQ2=     300 MXSEQ3=     150  mem10=         0

     $COSGMS OPTIONS
     ---------------
     EPSI  =   INFTY     NSPA  =      92     COSRAD=    1.40
     DISEX =   10.00     OUTCHG=DBLCAV       COSBUG=       F
     COSWRT=       F     DCOSMO=       F

     SYMMETRY COORDINATES WILL NOT BE USED FOR 
     THE COSMO CALCULATION, EVEN IF SPECIFIED:
         -- SWITCHING TO C1 POINT GROUP --


     DEFINITION OF CAVITY
     ---------------------------
     ATOM         COORDINATES           RADIUS 
     1    6.2459    5.2678    4.4293    2.0000
     2    3.6345    4.4350    5.2952    2.0000
     3    1.8841    6.6724    5.6040    2.0000
     4    7.9590    3.0033    4.0427    2.0000
     5    7.7469    1.6991    1.5254    2.0000
     6    9.4246    2.2983    5.6660    1.7200
     7    7.0695    6.5882    5.8317    1.3000
     8    6.1091    6.3487    2.6407    1.3000
     9    3.7851    3.3890    7.1022    1.3000
    10    2.8219    3.0801    3.9189    1.3000
    11    1.6443    7.7123    3.8242    1.3000
    12    2.6023    8.0185    7.0103    1.3000
    13    0.0000    6.0698    6.2272    1.3000
    14    8.9297    0.0000    1.3959    1.3000
    15    8.3190    2.9837    0.0000    1.3000
    16    5.7826    1.1321    1.1650    1.3000

          ----------------
          PROPERTIES INPUT
          ----------------

     MOMENTS            FIELD           POTENTIAL          DENSITY
 IEMOM =       1   IEFLD =       0   IEPOT =       0   IEDEN =       0
 WHERE =COMASS     WHERE =NUCLEI     WHERE =NUCLEI     WHERE =NUCLEI  
 OUTPUT=BOTH       OUTPUT=BOTH       OUTPUT=BOTH       OUTPUT=BOTH    
 IEMINT=       0   IEFINT=       0                     IEDINT=       0
                                                       MORB  =       0
          EXTRAPOLATION IN EFFECT
          SOSCF IN EFFECT
 ORBITAL PRINTING OPTION: NPREO=     1   174     2     1

     -------------------------------
     INTEGRAL TRANSFORMATION OPTIONS
     -------------------------------
     NWORD  =            0
     CUTOFF = 1.0E-09     MPTRAN =       0
     DIRTRF =       T     AOINTS =DUP     

          ----------------------
          INTEGRAL INPUT OPTIONS
          ----------------------
 NOPK  =       1 NORDER=       0 SCHWRZ=       T


 -----------------------------------------------
  STATISTICS ON AUTOMATIC COORDINATE GENERATION 
 -----------------------------------------------
  NUMBER OF USER SPECIFIED BONDS                             0
  NUMBER OF BONDS                                           15
  NUMBER OF ANGLES                                          27
  NUMBER OF TORSIONS                                        30
  NUMBER OF EXTRA COORD.                                     0
  NUMBER OF EXTRA COORD. FOR CONSTRAINTS                     0
  NUMBER OF CONSTRAINED COORD.                               0

  TOTAL NUMBER OF PRIMITIVES                                72
 -----------------------------------------------

   --- ENCODED Z MATRIX ---
 COORD  TYPE   I   J   K   L   M   N
    1      1    1   2
    2      1    1   8
    3      1    1   7
    4      1    1   4
    5      1    2  10
    6      1    2   9
    7      1    2   3
    8      1    3  13
    9      1    3  12
   10      1    3  11
   11      1    4   6
   12      1    4   5
   13      1    5  16
   14      1    5  15
   15      1    5  14
   16      2    1   2   9
   17      2    1   4   5
   18      2    1   4   6
   19      2    1   2  10
   20      2    1   2   3
   21      2    2   1   8
   22      2    2   3  13
   23      2    2   1   4
   24      2    2   1   7
   25      2    2   3  11
   26      2    2   3  12
   27      2    3   2   9
   28      2    3   2  10
   29      2    4   5  14
   30      2    4   5  16
   31      2    4   5  15
   32      2    4   1   7
   33      2    4   1   8
   34      2    5   4   6
   35      2    7   1   8
   36      2    9   2  10
   37      2   11   3  12
   38      2   11   3  13
   39      2   12   3  13
   40      2   14   5  15
   41      2   14   5  16
   42      2   15   5  16
   43      3    1   4   5  16
   44      3    1   2   3  11
   45      3    1   2   3  12
   46      3    1   2   3  13
   47      3    1   4   5  14
   48      3    1   4   5  15
   49      3    2   1   4   6
   50      3    2   1   4   5
   51      3    3   2   1   4
   52      3    3   2   1   7
   53      3    3   2   1   8
   54      3    4   1   2  10
   55      3    4   1   2   9
   56      3    5   4   1   7
   57      3    5   4   1   8
   58      3    6   4   5  15
   59      3    6   4   5  16
   60      3    6   4   5  14
   61      3    6   4   1   7
   62      3    6   4   1   8
   63      3    7   1   2  10
   64      3    7   1   2   9
   65      3    8   1   2  10
   66      3    8   1   2   9
   67      3    9   2   3  13
   68      3    9   2   3  12
   69      3    9   2   3  11
   70      3   10   2   3  13
   71      3   10   2   3  12
   72      3   10   2   3  11

          INDEP./SYM. INTERNAL COORDINATES
          --------------------------------
 CRD  1=   0.1614 (  4)  0.1029 ( 16)  0.3908 ( 17) -0.1970 ( 18)  0.1255 ( 19)
          -0.2859 ( 20) -0.1378 ( 21)  0.5685 ( 23) -0.2251 ( 24)  0.1095 ( 30)
          -0.2072 ( 32) -0.1204 ( 33) -0.1944 ( 34)  0.1395 ( 50) -0.1224 ( 51)
          -0.1067 ( 54)  0.1003 ( 56)
 CRD  2=  -0.1715 (  4) -0.1005 (  7)  0.1393 ( 16) -0.4815 ( 17)  0.2482 ( 18)
           0.1701 ( 19) -0.4734 ( 20)  0.2351 ( 23) -0.1420 ( 25)  0.2002 ( 27)
          -0.1546 ( 33)  0.2331 ( 34)  0.1816 ( 51)  0.1498 ( 55)
 CRD  3=  -0.2768 (  1) -0.1986 (  4) -0.2634 (  7)  0.1575 ( 16)  0.2196 ( 17)
          -0.2144 ( 18) -0.4167 ( 20) -0.3116 ( 23)  0.1232 ( 24) -0.2086 ( 26)
           0.2319 ( 28) -0.1315 ( 29)  0.2606 ( 33) -0.1122 ( 50) -0.1875 ( 51)
          -0.1358 ( 54) -0.1093 ( 55) -0.1524 ( 56)
 CRD  4=   0.1288 (  7)  0.1401 ( 16) -0.1719 ( 19) -0.3128 ( 21)  0.2063 ( 23)
           0.2131 ( 24) -0.1012 ( 27) -0.2509 ( 30)  0.1749 ( 31) -0.1995 ( 32)
          -0.1524 ( 44) -0.1634 ( 45) -0.1487 ( 46) -0.3659 ( 49) -0.4126 ( 50)
          -0.1377 ( 56) -0.1855 ( 57) -0.1438 ( 58) -0.1390 ( 59) -0.1388 ( 62)
 CRD  5=  -0.1247 (  3) -0.1956 (  4) -0.4272 ( 12) -0.1969 ( 17)  0.1050 ( 20)
           0.1020 ( 23)  0.3198 ( 25) -0.2639 ( 26) -0.1613 ( 27) -0.1077 ( 30)
          -0.2384 ( 31) -0.1751 ( 32)  0.1136 ( 34)  0.1179 ( 40)  0.1382 ( 42)
           0.1683 ( 46)  0.1316 ( 50) -0.3023 ( 51) -0.1460 ( 52) -0.2085 ( 53)
          -0.1306 ( 54) -0.1342 ( 55)
 CRD  6=  -0.1069 ( 11) -0.4727 ( 12)  0.3407 ( 18) -0.1740 ( 25)  0.1560 ( 26)
           0.1054 ( 27) -0.1101 ( 28) -0.4799 ( 29) -0.4299 ( 34)  0.1959 ( 40)
           0.1858 ( 41)
 CRD  7=   0.3313 (  1)  0.1681 (  4)  0.3281 (  7)  0.1114 (  8) -0.1571 ( 20)
           0.1191 ( 21)  0.4794 ( 22) -0.1711 ( 23) -0.1664 ( 26)  0.1088 ( 27)
          -0.2749 ( 30)  0.2117 ( 31) -0.1982 ( 38) -0.1507 ( 39)  0.1188 ( 43)
           0.1775 ( 47)  0.1137 ( 48)  0.1011 ( 49)
 CRD  8=  -0.4657 (  1)  0.2102 (  4)  0.4147 (  7)  0.1472 ( 18) -0.1490 ( 19)
          -0.1153 ( 21)  0.2086 ( 25)  0.1244 ( 27)  0.1921 ( 28)  0.1559 ( 30)
          -0.2744 ( 31)  0.1267 ( 32)  0.1192 ( 33) -0.1267 ( 34) -0.1636 ( 37)
          -0.1316 ( 38)  0.1071 ( 57) -0.1231 ( 64)  0.1154 ( 65)
 CRD  9=  -0.4752 (  4)  0.3536 (  7) -0.2891 ( 18)  0.2419 ( 22)  0.1697 ( 24)
          -0.1328 ( 25)  0.1956 ( 26) -0.1929 ( 29)  0.2333 ( 30) -0.1736 ( 32)
           0.2603 ( 34) -0.1993 ( 39)  0.1124 ( 52)  0.1232 ( 63) -0.1319 ( 66)
 CRD 10=   0.2695 (  1)  0.1063 (  2)  0.1632 (  4) -0.1537 (  7) -0.1101 ( 14)
           0.2275 ( 16)  0.1058 ( 18) -0.1409 ( 19)  0.2342 ( 22) -0.1033 ( 23)
           0.1708 ( 24) -0.2084 ( 25) -0.1623 ( 26) -0.1732 ( 27)  0.3422 ( 30)
          -0.4348 ( 31) -0.1016 ( 34)  0.1741 ( 37)  0.1207 ( 40) -0.1641 ( 41)
          -0.1651 ( 44) -0.1318 ( 45) -0.1427 ( 46)  0.1279 ( 56)
 CRD 11=  -0.1584 ( 12)  0.1265 ( 15) -0.1258 ( 16) -0.1423 ( 18)  0.1326 ( 19)
          -0.1177 ( 21) -0.3406 ( 25)  0.3229 ( 26)  0.1459 ( 27) -0.1458 ( 28)
           0.3811 ( 29) -0.2631 ( 30) -0.2756 ( 31) -0.1689 ( 32)  0.2144 ( 33)
           0.1381 ( 38) -0.1300 ( 39)  0.2229 ( 42) -0.1835 ( 54) -0.1787 ( 55)
 CRD 12=  -0.1478 (  3)  0.1684 (  9)  0.3096 ( 16) -0.2436 ( 19) -0.1765 ( 22)
          -0.1352 ( 24) -0.1182 ( 25)  0.3671 ( 26) -0.2364 ( 27)  0.2836 ( 28)
          -0.1711 ( 30)  0.1117 ( 32) -0.1197 ( 37)  0.1536 ( 38) -0.1117 ( 39)
           0.1068 ( 43) -0.1704 ( 44) -0.1895 ( 45) -0.1756 ( 46)  0.1063 ( 47)
           0.1012 ( 48)  0.1568 ( 49)  0.1326 ( 50) -0.1009 ( 51) -0.1503 ( 52)
          -0.1461 ( 53)  0.1074 ( 62)
 CRD 13=  -0.3488 (  1) -0.1420 (  3) -0.1766 (  5) -0.2046 (  6) -0.1502 (  7)
           0.1398 (  8) -0.1208 ( 10) -0.1162 ( 16) -0.2104 ( 19)  0.2635 ( 20)
           0.3695 ( 22)  0.1360 ( 23) -0.1944 ( 24) -0.3487 ( 25) -0.1756 ( 26)
          -0.1182 ( 27) -0.1372 ( 30)  0.1057 ( 31) -0.1064 ( 33)  0.1540 ( 36)
           0.2585 ( 37)
 CRD 14=   0.1747 (  4)  0.1124 (  5) -0.1699 (  6)  0.5263 ( 11)  0.1390 ( 12)
          -0.1324 ( 15) -0.2451 ( 17) -0.2060 ( 21) -0.1393 ( 25)  0.1025 ( 26)
          -0.2112 ( 29)  0.2362 ( 30)  0.1642 ( 31) -0.1262 ( 32)  0.2190 ( 33)
           0.1508 ( 34) -0.2125 ( 42)  0.1042 ( 43) -0.1861 ( 51) -0.1483 ( 54)
          -0.1323 ( 55)  0.1115 ( 62)
 CRD 15=   0.1069 (  1)  0.1624 (  2)  0.2336 (  5) -0.1255 (  6)  0.1135 (  9)
           0.1067 ( 19)  0.3264 ( 21) -0.1614 ( 24) -0.1210 ( 25)  0.1802 ( 26)
           0.1645 ( 32) -0.1598 ( 33)  0.1040 ( 38) -0.2012 ( 43)  0.1019 ( 44)
           0.1022 ( 45)  0.1237 ( 46) -0.1609 ( 47) -0.1986 ( 48) -0.1129 ( 51)
          -0.1588 ( 52) -0.1473 ( 53) -0.1684 ( 56) -0.2748 ( 57) -0.1898 ( 58)
          -0.1923 ( 59) -0.1520 ( 60) -0.1776 ( 61) -0.2840 ( 62)
 CRD 16=   0.4395 (  2) -0.2584 (  3)  0.1060 (  4) -0.3403 (  5)  0.3685 (  6)
           0.2278 ( 11)  0.1777 ( 13)  0.2006 ( 14)  0.1679 ( 15)  0.1114 ( 27)
          -0.1243 ( 29)  0.1292 ( 41) -0.1050 ( 43) -0.1138 ( 44) -0.1126 ( 45)
          -0.1350 ( 46) -0.1186 ( 47) -0.1221 ( 48)  0.1073 ( 50)  0.1013 ( 52)
           0.1177 ( 53) -0.1282 ( 54) -0.1348 ( 55) -0.1007 ( 58)
 CRD 17=   0.1943 (  2) -0.1364 (  3) -0.1202 (  5)  0.1513 (  6) -0.1263 ( 12)
          -0.4651 ( 13) -0.4203 ( 14) -0.4469 ( 15)  0.1937 ( 29)  0.1276 ( 30)
           0.2078 ( 31) -0.2302 ( 40) -0.1653 ( 41) -0.1661 ( 42)
 CRD 18=   0.1727 (  7)  0.4768 (  8)  0.5066 (  9)  0.4942 ( 10) -0.1928 ( 22)
          -0.1793 ( 25) -0.1725 ( 26)  0.1872 ( 37)  0.2020 ( 38)  0.1952 ( 39)
 CRD 19=   0.2469 (  3)  0.1582 (  5) -0.1099 (  6)  0.1504 ( 14) -0.1033 ( 23)
           0.2533 ( 24)  0.1334 ( 28) -0.1528 ( 30)  0.1328 ( 31) -0.1241 ( 32)
           0.1078 ( 33) -0.1298 ( 40)  0.1595 ( 41) -0.2361 ( 43) -0.3218 ( 47)
          -0.2396 ( 48)  0.1515 ( 50)  0.3176 ( 56)  0.2163 ( 57) -0.1370 ( 58)
          -0.1334 ( 59) -0.2192 ( 60)  0.2149 ( 61)  0.1136 ( 62)  0.1394 ( 63)
           0.1152 ( 64)  0.1161 ( 65)
 CRD 20=  -0.3135 ( 13) -0.3199 ( 14)  0.5724 ( 15)  0.2017 ( 40)  0.2036 ( 41)
          -0.4069 ( 42)  0.2308 ( 43) -0.2279 ( 48) -0.2272 ( 58)  0.2314 ( 59)
 CRD 21=  -0.5282 ( 13)  0.5285 ( 14)  0.3376 ( 40) -0.3348 ( 41) -0.1462 ( 43)
           0.2429 ( 47) -0.1487 ( 48) -0.1573 ( 58) -0.1549 ( 59)  0.2342 ( 60)
 CRD 22=  -0.1753 (  5) -0.1738 (  6)  0.6324 (  8) -0.2862 (  9) -0.2963 ( 10)
          -0.3254 ( 37)  0.1544 ( 38)  0.1599 ( 39) -0.1694 ( 44)  0.1708 ( 45)
           0.1872 ( 68) -0.1530 ( 69)  0.1554 ( 71) -0.1848 ( 72)
 CRD 23=  -0.5521 (  9)  0.5459 ( 10)  0.2946 ( 38) -0.2916 ( 39)  0.2337 ( 46)
           0.2286 ( 67)  0.2275 ( 70)
 CRD 24=   0.5368 (  2)  0.6348 (  3) -0.1106 ( 21) -0.1308 ( 24)  0.2792 ( 35)
          -0.1151 ( 53) -0.1567 ( 56)  0.1266 ( 57) -0.1404 ( 61)  0.1429 ( 62)
          -0.1251 ( 65) -0.1268 ( 66)
 CRD 25=   0.5866 (  5)  0.5885 (  6)  0.1518 (  8) -0.1365 (  9) -0.1343 ( 10)
           0.2396 ( 36) -0.1000 ( 54) -0.1049 ( 63) -0.1009 ( 65) -0.1067 ( 67)
          -0.1581 ( 69)  0.1026 ( 70)  0.1520 ( 71)
 CRD 26=   0.3054 (  2) -0.2668 (  3)  0.1255 ( 16) -0.1187 ( 19) -0.1465 ( 27)
           0.1226 ( 28) -0.1021 ( 32)  0.1542 ( 44)  0.1507 ( 45)  0.1160 ( 46)
           0.1659 ( 52)  0.1501 ( 53)  0.1084 ( 54)  0.1214 ( 55) -0.1793 ( 56)
          -0.1236 ( 57) -0.1338 ( 61)  0.2461 ( 63)  0.2590 ( 64)  0.2302 ( 65)
           0.2432 ( 66)  0.1807 ( 67)  0.2154 ( 68)  0.2189 ( 69)  0.1760 ( 70)
           0.2106 ( 71)  0.2142 ( 72)
 CRD 27=   0.2760 (  2) -0.2656 (  3)  0.3701 (  5) -0.3688 (  6) -0.1142 ( 11)
          -0.1439 ( 44) -0.1429 ( 45) -0.1525 ( 46)  0.1097 ( 52)  0.1452 ( 63)
           0.1407 ( 64)  0.1137 ( 65)  0.1093 ( 66) -0.2468 ( 67) -0.2372 ( 68)
          -0.2382 ( 69) -0.2434 ( 70) -0.2337 ( 71) -0.2347 ( 72)
 CRD 28=   0.3112 (  4) -0.1722 ( 12) -0.1380 ( 14) -0.3274 ( 15) -0.3688 ( 18)
          -0.1331 ( 24) -0.2287 ( 29) -0.1166 ( 31)  0.1847 ( 32)  0.1061 ( 33)
           0.3726 ( 34)  0.2135 ( 40)  0.1864 ( 41)  0.1665 ( 53)  0.1328 ( 55)
           0.1380 ( 65)  0.2149 ( 66)
 CRD 29=   0.1688 (  8)  0.1071 (  9) -0.5513 ( 11)  0.2028 ( 13)  0.1733 ( 14)
          -0.1363 ( 17)  0.1432 ( 19) -0.1656 ( 21)  0.1200 ( 22) -0.1248 ( 27)
          -0.1544 ( 28)  0.1632 ( 30)  0.1428 ( 31)  0.1857 ( 33) -0.1078 ( 38)
          -0.1521 ( 39) -0.1057 ( 41) -0.1986 ( 42) -0.1347 ( 52) -0.1683 ( 54)
           0.1046 ( 57)  0.1317 ( 62) -0.2191 ( 63)  0.1064 ( 66)
 CRD 30=   0.1087 (  1)  0.2970 (  4)  0.1531 (  7) -0.2610 (  8) -0.1566 (  9)
          -0.1768 ( 10) -0.4291 ( 11)  0.1061 ( 13)  0.1287 ( 14) -0.1179 ( 15)
          -0.1537 ( 16) -0.1080 ( 17) -0.1260 ( 19) -0.2058 ( 22) -0.1742 ( 25)
          -0.1800 ( 26)  0.1609 ( 27)  0.1372 ( 28)  0.1376 ( 34)  0.1508 ( 37)
           0.2340 ( 38)  0.2163 ( 39) -0.1438 ( 42) -0.1488 ( 55) -0.1491 ( 64)
          -0.1276 ( 66)
 CRD 31=  -0.1530 (  1)  0.1767 (  2)  0.2346 (  4) -0.3130 (  7)  0.1579 (  9)
           0.1967 ( 10) -0.1462 ( 11) -0.1321 ( 13)  0.1588 ( 14) -0.1257 ( 15)
           0.1508 ( 21)  0.1350 ( 22)  0.1748 ( 24)  0.1553 ( 25)  0.1409 ( 26)
          -0.1214 ( 33) -0.1326 ( 35) -0.2046 ( 37) -0.1428 ( 38) -0.1149 ( 39)
           0.1675 ( 41)  0.1176 ( 43) -0.1565 ( 49)  0.1601 ( 56) -0.1224 ( 57)
           0.1963 ( 58)  0.2658 ( 59) -0.2699 ( 62)  0.1008 ( 70)  0.1421 ( 71)
 CRD 32=   0.1472 (  2) -0.2020 (  3) -0.1337 (  4)  0.1111 (  5)  0.1273 (  7)
          -0.1570 ( 11)  0.5727 ( 12) -0.2441 ( 13) -0.1321 ( 14) -0.1474 ( 15)
           0.1039 ( 18) -0.1960 ( 29) -0.1581 ( 30) -0.1918 ( 31)  0.1438 ( 40)
           0.2233 ( 41)  0.2134 ( 42)  0.1053 ( 57) -0.1236 ( 63) -0.1157 ( 64)
          -0.1265 ( 65) -0.1187 ( 66)  0.1384 ( 69)
 CRD 33=   0.1221 (  1) -0.1452 (  5)  0.1023 (  6) -0.2535 (  7)  0.2196 (  9)
          -0.1542 ( 11)  0.2586 ( 12)  0.2119 ( 13) -0.2965 ( 14) -0.1187 ( 15)
          -0.1341 ( 16)  0.1065 ( 28) -0.1282 ( 30) -0.1516 ( 32) -0.1574 ( 37)
          -0.1097 ( 39)  0.2708 ( 40)  0.2113 ( 47)  0.1533 ( 49) -0.2272 ( 58)
          -0.1870 ( 59)  0.1444 ( 61)  0.1415 ( 62)  0.1556 ( 63)  0.1040 ( 64)
          -0.1056 ( 68) -0.2108 ( 69)
 CRD 34=  -0.1612 (  1)  0.1454 (  3) -0.2223 (  5)  0.2712 (  6)  0.1272 (  7)
           0.1481 (  9) -0.3026 ( 10)  0.1444 ( 12) -0.1202 ( 13)  0.1105 ( 14)
           0.1583 ( 19) -0.1034 ( 27)  0.1059 ( 37)  0.1624 ( 38) -0.1760 ( 39)
           0.1311 ( 41)  0.1941 ( 46) -0.1148 ( 49) -0.1044 ( 57)  0.1462 ( 59)
          -0.1214 ( 61) -0.1880 ( 62)  0.1337 ( 63)  0.1629 ( 64)  0.1607 ( 65)
           0.1899 ( 66) -0.1937 ( 68) -0.2939 ( 71) -0.1903 ( 72)
 CRD 35=  -0.2868 (  1)  0.2180 (  4)  0.1763 (  5)  0.2681 (  8) -0.1846 (  9)
           0.2125 ( 13) -0.1889 ( 15)  0.1282 ( 16)  0.1073 ( 21) -0.1273 ( 32)
          -0.1371 ( 33) -0.2027 ( 36)  0.1851 ( 37) -0.1536 ( 38)  0.1317 ( 40)
          -0.1479 ( 42)  0.1477 ( 44) -0.1334 ( 45) -0.1357 ( 48)  0.1070 ( 52)
          -0.1006 ( 53) -0.1528 ( 58)  0.1474 ( 63) -0.1865 ( 66)  0.2975 ( 69)
          -0.1413 ( 70) -0.2132 ( 71)
 CRD 36=  -0.2837 (  1)  0.1929 (  2)  0.1255 (  3)  0.2168 (  7) -0.3077 ( 14)
           0.2211 ( 15)  0.1002 ( 21)  0.1354 ( 24) -0.1243 ( 29)  0.1570 ( 31)
           0.1038 ( 34) -0.2325 ( 35) -0.2144 ( 41)  0.1552 ( 42) -0.1613 ( 43)
           0.2177 ( 47)  0.1129 ( 48)  0.2368 ( 56)  0.1303 ( 58) -0.1439 ( 59)
           0.2351 ( 60)  0.2200 ( 61) -0.1129 ( 62) -0.1688 ( 63)  0.1295 ( 66)
 CRD 37=   0.1239 (  3) -0.2276 (  4) -0.1201 (  6)  0.2390 (  7) -0.1442 (  8)
           0.1127 ( 11)  0.2264 ( 13) -0.3287 ( 15)  0.1375 ( 17) -0.1058 ( 27)
           0.1866 ( 29) -0.1509 ( 30) -0.2032 ( 34) -0.1315 ( 35)  0.1580 ( 36)
           0.1226 ( 39)  0.1727 ( 40) -0.2152 ( 42)  0.1904 ( 43) -0.2154 ( 48)
          -0.1330 ( 54) -0.2093 ( 58)  0.1965 ( 59) -0.1667 ( 63)  0.1772 ( 66)
           0.1267 ( 71)
 CRD 38=  -0.2048 (  2)  0.2407 (  3) -0.2510 (  9)  0.2303 ( 10) -0.1448 ( 11)
           0.1602 ( 12) -0.1724 ( 17)  0.1638 ( 18) -0.1233 ( 25)  0.1415 ( 26)
           0.1188 ( 28) -0.1510 ( 32)  0.1555 ( 33) -0.1904 ( 38)  0.1681 ( 39)
          -0.2410 ( 46)  0.1086 ( 49)  0.1003 ( 50) -0.2518 ( 51) -0.1404 ( 54)
          -0.1550 ( 55) -0.1057 ( 56) -0.1327 ( 57) -0.1244 ( 62)  0.1320 ( 65)
           0.1174 ( 66) -0.2663 ( 67) -0.2511 ( 70)
 CRD 39=   0.2110 (  1)  0.1233 (  2) -0.2835 (  4) -0.2204 (  7)  0.2469 (  8)
          -0.1024 ( 10) -0.1663 ( 16) -0.1636 ( 19) -0.1065 ( 21) -0.1230 ( 22)
           0.1189 ( 23)  0.1071 ( 25)  0.1696 ( 27)  0.1571 ( 28)  0.1272 ( 32)
           0.1057 ( 33) -0.1657 ( 35)  0.1402 ( 37) -0.1015 ( 38) -0.1213 ( 39)
           0.1527 ( 44) -0.1639 ( 45) -0.1586 ( 52)  0.1592 ( 53)  0.1082 ( 54)
          -0.2620 ( 64)  0.2488 ( 65) -0.2554 ( 68)  0.1086 ( 70)  0.2492 ( 72)
 CRD 40=  -0.1469 (  1) -0.1314 (  4)  0.1670 (  5)  0.1829 (  6) -0.1666 (  7)
          -0.1517 (  8)  0.1038 ( 10)  0.2374 ( 20)  0.1712 ( 22) -0.2628 ( 36)
          -0.1382 ( 37) -0.1244 ( 44)  0.1400 ( 45) -0.1064 ( 52)  0.1551 ( 54)
          -0.1540 ( 55)  0.1879 ( 60) -0.1043 ( 62) -0.2502 ( 64)  0.2592 ( 65)
           0.1512 ( 67)  0.2962 ( 68) -0.1764 ( 70) -0.2958 ( 72)
 CRD 41=   0.1649 (  1) -0.1392 (  3) -0.1259 (  5)  0.1080 ( 13) -0.1131 ( 14)
          -0.1737 ( 23) -0.1152 ( 30)  0.1266 ( 31)  0.1325 ( 35) -0.2579 ( 43)
           0.1256 ( 44) -0.2460 ( 48) -0.2832 ( 49)  0.1343 ( 50) -0.1633 ( 53)
           0.1172 ( 55)  0.3210 ( 57)  0.1729 ( 58)  0.1610 ( 59)  0.3509 ( 60)
          -0.3241 ( 61)  0.1212 ( 64) -0.1400 ( 67)
 CRD 42=   0.1835 (  2) -0.1204 (  3) -0.1682 (  5)  0.1971 (  6) -0.1062 (  9)
           0.1146 ( 10) -0.1490 ( 16)  0.1434 ( 19) -0.1271 ( 21)  0.1527 ( 24)
          -0.1242 ( 25)  0.1155 ( 26) -0.1326 ( 27)  0.1314 ( 28) -0.1199 ( 33)
           0.1166 ( 43)  0.2385 ( 44)  0.2522 ( 45) -0.2485 ( 50) -0.2732 ( 52)
          -0.2360 ( 53)  0.2431 ( 54)  0.2143 ( 55) -0.1387 ( 60)  0.2068 ( 61)
           0.1249 ( 62) -0.2005 ( 67) -0.2262 ( 70)

 THE DETERMINANT OF THE G MATRIX IS 10**(   -16)


                     --------------------
                     INTERNAL COORDINATES
                     --------------------

                 - - ATOMS - -         COORDINATE      COORDINATE
 NO.   TYPE    I  J  K  L  M  N        (BOHR,RAD)       (ANG,DEG)
 ----------------------------------------------------------------
   1 STRETCH   1  2                     2.8745033       1.5211217
   2 STRETCH   1  8                     2.0943485       1.1082816
   3 STRETCH   1  7                     2.0947983       1.1085196
   4 STRETCH   1  4                     2.8656162       1.5164189
   5 STRETCH   2 10                     2.0953047       1.1087876
   6 STRETCH   2  9                     2.0932780       1.1077151
   7 STRETCH   2  3                     2.8575427       1.5121466
   8 STRETCH   3 13                     2.0739467       1.0974854
   9 STRETCH   3 12                     2.0749853       1.0980350
  10 STRETCH   3 11                     2.0751919       1.0981443
  11 STRETCH   4  6                     2.2978943       1.2159934
  12 STRETCH   4  5                     2.8430520       1.5044784
  13 STRETCH   5 16                     2.0760571       1.0986022
  14 STRETCH   5 15                     2.0746809       1.0978739
  15 STRETCH   5 14                     2.0742477       1.0976447
  16 BEND      1  2  9                  1.9171019     109.8418485
  17 BEND      1  4  5                  2.0235076     115.9384469
  18 BEND      1  4  6                  2.1275557     121.8999638
  19 BEND      1  2 10                  1.9196353     109.9869992
  20 BEND      1  2  3                  1.9414315     111.2358336
  21 BEND      2  1  8                  1.9256309     110.3305223
  22 BEND      2  3 13                  1.9406094     111.1887274
  23 BEND      2  1  4                  1.9334719     110.7797815
  24 BEND      2  1  7                  1.9157043     109.7617697
  25 BEND      2  3 11                  1.9503286     111.7455974
  26 BEND      2  3 12                  1.9488555     111.6611969
  27 BEND      3  2  9                  1.9198837     110.0012320
  28 BEND      3  2 10                  1.9174357     109.8609753
  29 BEND      4  5 14                  1.9698123     112.8619312
  30 BEND      4  5 16                  1.9278735     110.4590166
  31 BEND      4  5 15                  1.9244960     110.2654970
  32 BEND      4  1  7                  1.9319834     110.6944978
  33 BEND      4  1  8                  1.9088654     109.3699291
  34 BEND      5  4  6                  2.1320946     122.1600234
  35 BEND      7  1  8                  1.8463746     105.7894715
  36 BEND      9  2 10                  1.8460437     105.7705115
  37 BEND     11  3 12                  1.8714952     107.2287784
  38 BEND     11  3 13                  1.8737653     107.3588446
  39 BEND     12  3 13                  1.8747512     107.4153317
  40 BEND     14  5 15                  1.8797825     107.7036063
  41 BEND     14  5 16                  1.8807681     107.7600733
  42 BEND     15  5 16                  1.8779458     107.5983661
  43 TORSION   1  4  5 16              -0.9656435     -55.3272988
  44 TORSION   1  2  3 11               1.0473970      60.0114264
  45 TORSION   1  2  3 12              -1.0487616     -60.0896114
  46 TORSION   1  2  3 13               3.1407821     179.9535573
  47 TORSION   1  4  5 14              -3.0723482    -176.0325868
  48 TORSION   1  4  5 15               1.1077907      63.4717325
  49 TORSION   2  1  4  6              -1.6847968     -96.5317472
  50 TORSION   2  1  4  5               1.4645812      83.9143193
  51 TORSION   3  2  1  4              -3.1089397    -178.1291237
  52 TORSION   3  2  1  7               1.0354423      59.3264729
  53 TORSION   3  2  1  8              -0.9925734     -56.8702677
  54 TORSION   4  1  2 10              -0.9805028     -56.1786751
  55 TORSION   4  1  2  9               1.0444466      59.8423796
  56 TORSION   5  4  1  7              -2.6893001    -154.0855435
  57 TORSION   5  4  1  8              -0.6616462     -37.9095336
  58 TORSION   6  4  5 15              -2.0259945    -116.0809327
  59 TORSION   6  4  5 16               2.1837566     125.1200361
  60 TORSION   6  4  5 14               0.0770519       4.4147480
  61 TORSION   6  4  1  7               0.4445073      25.4683901
  62 TORSION   6  4  1  8               2.4721611     141.6444000
  63 TORSION   7  1  2 10              -3.1193062    -178.7230785
  64 TORSION   7  1  2  9              -1.0943568     -62.7020237
  65 TORSION   8  1  2 10               1.1358634      65.0801810
  66 TORSION   8  1  2  9              -3.1223725    -178.8987643
  67 TORSION   9  2  3 13              -1.0142187     -58.1104512
  68 TORSION   9  2  3 12               1.0794230      61.8463800
  69 TORSION   9  2  3 11              -3.1076038    -178.0525822
  70 TORSION  10  2  3 13               1.0110687      57.9299690
  71 TORSION  10  2  3 12               3.1047104     177.8868003
  72 TORSION  10  2  3 11              -1.0823164     -62.0121619

     ------------------------------------------
     THE POINT GROUP IS C1 , NAXIS= 1, ORDER= 1
     ------------------------------------------

     DIMENSIONS OF THE SYMMETRY SUBSPACES ARE
 A   =  174

 ..... DONE SETTING UP THE RUN .....
 STEP CPU TIME =     0.00 TOTAL CPU TIME =        0.0 (    0.0 MIN)
 TOTAL WALL CLOCK TIME=        0.0 SECONDS, CPU UTILIZATION IS   0.00%


          -----------------------------
          STATIONARY POINT LOCATION RUN
          -----------------------------

 OBTAINING INITIAL HESSIAN, HESS=GUESS   
 DIAGONAL GUESS HESSIAN IN INTERNAL COORDS IS
     1  0.3736     2  0.3343     3  0.3341     4  0.3770     5  0.3339
     6  0.3346     7  0.3801     8  0.3414     9  0.3410    10  0.3409
    11  0.5459    12  0.3858    13  0.3406    14  0.3411    15  0.3413
    16  0.2236    17  0.2513    18  0.2591    19  0.2235    20  0.2504
    21  0.2235    22  0.2247    23  0.2501    24  0.2235    25  0.2247
    26  0.2247    27  0.2241    28  0.2240    29  0.2251    30  0.2251
    31  0.2251    32  0.2238    33  0.2238    34  0.2600    35  0.2016
    36  0.2016    37  0.2026    38  0.2026    39  0.2026    40  0.2026
    41  0.2026    42  0.2026    43  0.2500    44  0.2500    45  0.2500
    46  0.2500    47  0.2500    48  0.2500    49  0.2500    50  0.2500
    51  0.2500    52  0.2500    53  0.2500    54  0.2500    55  0.2500
    56  0.2500    57  0.2500    58  0.2500    59  0.2500    60  0.2500
    61  0.2500    62  0.2500    63  0.2500    64  0.2500    65  0.2500
    66  0.2500    67  0.2500    68  0.2500    69  0.2500    70  0.2500
    71  0.2500    72  0.2500
 TRANSFORMING HESSIAN TO SYMMETRY COORDINATES

          PARAMETERS CONTROLLING GEOMETRY SEARCH ARE
          METHOD =QA                  UPHESS =BFGS    
          NNEG   =         0          NFRZ   =         3
          NSTEP  =        50          IFOLOW =         1
          HESS   =GUESS               RESTAR =         F
          IHREP  =         0          HSSEND =         F
          NPRT   =         0          NPUN   =         0
          OPTTOL = 5.000E-04          RMIN   = 1.500E-03
          RMAX   = 1.000E-01          RLIM   = 7.000E-02
          DXMAX  = 3.000E-01          PURIFY =         F
          MOVIE  =         F          TRUPD  =         T
          TRMAX  = 5.000E-01          TRMIN  = 5.000E-02
          ITBMAT =         5          STPT   =         F
          STSTEP = 1.000E-02          PROJCT=          F
          FROZEN COORD(S)=   1   2   3


      ***** EQUILIBRIUM GEOMETRY LOCATED *****
            (SUBJECT TO   3 CONSTRAINT(S))
 COORDINATES OF ALL ATOMS ARE (ANGS)
   ATOM   CHARGE       X              Y              Z
 ------------------------------------------------------------
 C           6.0   3.3177909740   2.7837240447   2.3564712225
 C           6.0   1.9162329280   2.3416265696   2.8055014118
 C           6.0   0.9844132003   3.5390234871   2.9635813390
 C           6.0   4.2213790600   1.5945493624   2.1349660420
 C           6.0   4.1012878535   0.8891235146   0.8089849095
 O           8.0   4.9816248583   1.2229188598   2.9823072038
 H           1.0   3.7656087430   3.4161044042   3.1152189214
 H           1.0   3.2367957152   3.3535471491   1.4355707037
 H           1.0   1.9961485785   1.8032289122   3.7463522028
 H           1.0   1.4959843887   1.6502169153   2.0804551969
 H           1.0   0.8847756515   4.0705112551   2.0209528714
 H           1.0   1.3728588319   4.2347615100   3.7020954708
 H           1.0  -0.0048851653   3.2249131425   3.2804465809
 H           1.0   4.7207989019   0.0030598354   0.7938801602
 H           1.0   4.4076033597   1.5688996685   0.0192895697
 H           1.0   3.0668417252   0.6202242995   0.6219683660


                     --------------------
                     INTERNAL COORDINATES
                     --------------------

                 - - ATOMS - -         COORDINATE      COORDINATE
 NO.   TYPE    I  J  K  L  M  N        (BOHR,RAD)       (ANG,DEG)
 ----------------------------------------------------------------
   1 STRETCH   1  2                     2.9039397       1.5366988
   2 STRETCH   1  8                     2.0521731       1.0859633
   3 STRETCH   1  7                     2.0494109       1.0845016
   4 STRETCH   1  4                     2.8532187       1.5098584
   5 STRETCH   2 10                     2.0530707       1.0864383
   6 STRETCH   2  9                     2.0540363       1.0869493
   7 STRETCH   2  3                     2.8827066       1.5254628
   8 STRETCH   3 13                     2.0508361       1.0852558
   9 STRETCH   3 12                     2.0530675       1.0864366
  10 STRETCH   3 11                     2.0535986       1.0867177
  11 STRETCH   4  6                     2.2629971       1.1975266
  12 STRETCH   4  5                     2.8473308       1.5067427
  13 STRETCH   5 16                     2.0504709       1.0850626
  14 STRETCH   5 15                     2.0523708       1.0860679
  15 STRETCH   5 14                     2.0432919       1.0812636
  16 BEND      1  2  9                  1.9053783     109.1701370
  17 BEND      1  4  5                  2.0377279     116.7532061
  18 BEND      1  4  6                  2.1182835     121.3687067
  19 BEND      1  2 10                  1.9186470     109.9303768
  20 BEND      1  2  3                  1.9407622     111.1974835
  21 BEND      2  1  8                  1.9078658     109.3126596
  22 BEND      2  3 13                  1.9389585     111.0941412
  23 BEND      2  1  4                  1.9413249     111.2297233
  24 BEND      2  1  7                  1.9176417     109.8727774
  25 BEND      2  3 11                  1.9283828     110.4881945
  26 BEND      2  3 12                  1.9333938     110.7753036
  27 BEND      3  2  9                  1.9219869     110.1217363
  28 BEND      3  2 10                  1.9096547     109.4151561
  29 BEND      4  5 14                  1.9286740     110.5048829
  30 BEND      4  5 16                  1.9216362     110.1016440
  31 BEND      4  5 15                  1.9011397     108.9272819
  32 BEND      4  1  7                  1.8910211     108.3475286
  33 BEND      4  1  8                  1.9108086     109.4812665
  34 BEND      5  4  6                  2.1270369     121.8702371
  35 BEND      7  1  8                  1.8945405     108.5491751
  36 BEND      9  2 10                  1.8659342     106.9101528
  37 BEND     11  3 12                  1.8851614     108.0117920
  38 BEND     11  3 13                  1.8872891     108.1337015
  39 BEND     12  3 13                  1.8889423     108.2284211
  40 BEND     14  5 15                  1.9189452     109.9474603
  41 BEND     14  5 16                  1.9184955     109.9216955
  42 BEND     15  5 16                  1.8740985     107.3779373
  43 TORSION   1  4  5 16              -0.9248382     -52.9893274
  44 TORSION   1  2  3 11               1.0466442      59.9682974
  45 TORSION   1  2  3 12              -1.0417575     -59.6883102
  46 TORSION   1  2  3 13               3.1413293     179.9849098
  47 TORSION   1  4  5 14              -3.0474708    -174.6072126
  48 TORSION   1  4  5 15               1.1258967      64.5091276
  49 TORSION   2  1  4  6              -1.6897952     -96.8181323
  50 TORSION   2  1  4  5               1.4343271      82.1808871
  51 TORSION   3  2  1  4              -3.0934252    -177.2402092
  52 TORSION   3  2  1  7               1.0959461      62.7930835
  53 TORSION   3  2  1  8              -0.9813302     -56.2260778
  54 TORSION   4  1  2 10              -0.9759292     -55.9166233
  55 TORSION   4  1  2  9               1.0656947      61.0598085
  56 TORSION   5  4  1  7              -2.7393331    -156.9522246
  57 TORSION   5  4  1  8              -0.6760412     -38.7343047
  58 TORSION   6  4  5 15              -2.0332608    -116.4972626
  59 TORSION   6  4  5 16               2.1991896     126.0042824
  60 TORSION   6  4  5 14               0.0765571       4.3863972
  61 TORSION   6  4  1  7               0.4197300      24.0487560
  62 TORSION   6  4  1  8               2.4830219     142.2666759
  63 TORSION   7  1  2 10              -3.0697432    -175.8833307
  64 TORSION   7  1  2  9              -1.0281193     -58.9068989
  65 TORSION   8  1  2 10               1.1361658      65.0975080
  66 TORSION   8  1  2  9              -3.1053956    -177.9260602
  67 TORSION   9  2  3 13              -1.0274958     -58.8711701
  68 TORSION   9  2  3 12               1.0726027      61.4556099
  69 TORSION   9  2  3 11              -3.1221808    -178.8877825
  70 TORSION  10  2  3 13               1.0185817      58.3604304
  71 TORSION  10  2  3 12               3.1186802     178.6872104
  72 TORSION  10  2  3 11              -1.0761034     -61.6561821

          INTERNUCLEAR DISTANCES (ANGS.)


 =====================================================
   GAMESS/COSab RESULTS
 =====================================================

   Dielectric Constant                  = INFTY
   Basic Grid Size                      =                 1082
   Number of Segments                   =                   92
   Number of Segments located on spheres=                  236
   Number of Segments of the cavity     =                  581
   Solvent Radius (rsolv)               = 1.40
   Outlying Charge Error Method         = double cavity

 =====================================================

  Total solvated Energy (a.u.)          =  -270.1111002115
  Total Energy corrected (a.u.)         =  -270.1107275317

  Outlying charge effect (a.u.)         =     0.0003726798
  Outlying charge effect (kcal/mol)     =     0.2338602729

  Dielectric Energy (a.u.)              =    -0.0136878775
  Dielectric energy corr. (a.u.)        =    -0.0133151977

  Sum of polarization charges           =     0.0219997892
  Sum of polarization charges(cor.)     =    -0.0219997892

  Total surface area of cavity (A**2)   =  138.77
  Total volume of cavity (A**3)         =  129.11

 =====================================================
 NPS=                   581
NR.  ATOM  (X, Y, Z)(a.u.)                  CHARGE(e)  AREA(A**2) SIGMA(e/A**2)
   1   1   9.298459   7.304777   3.487770   0.000059   0.232280   0.000254
   2   1   6.308198   9.005750   3.947458   0.000774   0.371649   0.002082
   3   1   6.772453   8.992754   4.771785   0.000456   0.278737   0.001635
   4   1   9.364795   7.429490   4.464534  -0.000113   0.371649  -0.000304
   5   1   6.868407   5.092020   8.181005  -0.000232   0.092912  -0.002499
   6   1   8.724350   7.946117   3.430160   0.000619   0.325193   0.001902
   7   1   7.448388   8.791218   3.798234   0.000837   0.278737   0.003004
   8   1   8.941883   7.139464   2.552236  -0.000142   0.325193  -0.000436
   9   1   8.239354   8.466606   4.098823   0.000690   0.278737   0.002475
  10   1   7.968825   8.347766   3.087093   0.000312   0.185824   0.001678
  11   2   0.665800   2.342211   6.402541   0.000289   0.232280   0.001245
  12   2   3.457251   0.651243   5.428029   0.000591   0.278737   0.002119
  13   2   2.745231   4.800385   1.644287  -0.000084   0.092912  -0.000904
  14   2   3.554085   0.759881   6.221676   0.000646   0.278737   0.002318
  15   2   1.159826   2.326574   7.256776   0.000553   0.371649   0.001487
  16   2   5.114820   5.190912   8.687867  -0.000038   0.139368  -0.000272
  17   2   1.242384   1.587190   6.058194   0.001102   0.371649   0.002966
  18   2   2.442394   0.865618   5.776403   0.001127   0.278737   0.004042
  19   2   0.572054   2.191995   5.330156   0.000328   0.278737   0.001175
  20   2   2.956990   4.470879   1.581270  -0.000151   0.046456  -0.003252
  21   2   1.938257   1.235461   6.432464   0.000902   0.278737   0.003237
  22   2   4.599027   5.360546   8.830480   0.000031   0.046456   0.000674
  23   3  -1.485596   6.796468   3.846035   0.000991   0.232280   0.004268
  24   3   0.045466   9.992966   5.858201   0.000755   0.371649   0.002031
  25   3   3.715359   9.944240   5.112172   0.001563   0.371649   0.004205
  26   3   0.858862   5.487784   9.041504   0.001198   0.418105   0.002866
  27   3   0.225919   6.413279   8.997098   0.000656   0.185824   0.003529
  28   3   1.984877   6.028500   9.319781   0.000699   0.278737   0.002508
  29   3   1.590721   6.598352   9.369128   0.000585   0.185824   0.003148
  30   3   3.277073   9.930774   4.273757   0.001124   0.278737   0.004031
  31   3   0.280539  10.013747   4.747927   0.001098   0.418105   0.002627
  32   3  -1.025041   7.047442   3.185841   0.001613   0.371649   0.004340
  33   3   0.842958   5.725253   2.089963   0.000259   0.185824   0.001395
  34   3  -0.173161   7.799832   8.585787   0.001714   0.371649   0.004611
  35   3   0.460254   8.046583   8.837315   0.000967   0.232280   0.004161
  36   3  -0.119967   5.321845   2.685370   0.000682   0.278737   0.002446
  37   3  -1.022943   5.719236   3.356859   0.001383   0.371649   0.003723
  38   3  -1.447674   7.986864   4.314217   0.002239   0.511017   0.004382
  39   3  -0.855375   9.277986   5.152735   0.001044   0.418105   0.002497
  40   3   1.234440  10.409250   5.808296   0.001433   0.418105   0.003428
  41   3   2.591900  10.382091   5.282542   0.001597   0.325193   0.004910
  42   3  -0.687620   4.168993   4.396920   0.000158   0.139368   0.001134
  43   3  -0.860312   8.576080   7.421632   0.001174   0.371649   0.003158
  44   3  -0.673612   9.330666   6.537837   0.001020   0.464561   0.002196
  45   3   0.443712   9.951769   6.874719   0.000795   0.325193   0.002443
  46   3   0.596448   4.684633   8.545602   0.000281   0.185824   0.001514
  47   3   0.830816   6.929722   9.228853   0.001575   0.371649   0.004237
  48   3   3.000464   6.413030   9.193232   0.000256   0.185824   0.001377
  49   3   1.667188  10.398368   4.908634   0.001254   0.325193   0.003857
  50   3  -0.888852   8.909499   4.262241   0.000858   0.278737   0.003079
  51   3  -0.338701   6.117618   2.579810   0.000708   0.232280   0.003046
  52   3   0.008712   9.121522   7.821372   0.001442   0.418105   0.003449
  53   3  -0.692697   4.760767   3.587085   0.000714   0.278737   0.002561
  54   3  -1.428988   8.539664   5.789000   0.000906   0.371649   0.002437
  55   4   9.989598   5.679354   2.266283  -0.001517   0.185824  -0.008164
  56   4  11.530299   3.448344   2.821774   0.000125   0.139368   0.000895
  57   4  11.373649   4.415527   3.150025  -0.000414   0.232280  -0.001783
  58   4  10.955831   5.339551   4.009348  -0.000085   0.139368  -0.000611
  59   4   6.890044  -0.432896   5.141874  -0.000047   0.092912  -0.000505
  60   4  11.174156   4.284144   2.469633  -0.000888   0.185824  -0.004777
  61   4  10.631361   5.084926   2.317505  -0.002105   0.278737  -0.007554
  62   4  10.475475   5.716920   3.178174  -0.001541   0.232280  -0.006635
  63   4  10.620832   5.675829   4.488840  -0.000180   0.185824  -0.000967
  64   4   6.303677  -0.051218   5.481024  -0.000935   0.278737  -0.003353
  65   4  11.054062   5.114516   3.400351  -0.000902   0.232280  -0.003883
  66   5   6.158053  -1.715277   1.060099   0.000552   0.278737   0.001981
  67   5   8.094309   0.076034  -1.876021   0.000136   0.371649   0.000365
  68   5  11.098229   1.935057  -0.206387   0.000932   0.418105   0.002229
  69   5   4.942326   3.326110  -0.392306  -0.000156   0.185824  -0.000838
  70   5  11.089601   0.860497  -0.040141   0.000415   0.278737   0.001491
  71   5   8.758695  -0.630816  -1.286655   0.000303   0.418105   0.000725
  72   5   6.913882  -2.002590   1.381670   0.000634   0.325193   0.001949
  73   5   7.869149  -1.471421   3.611395  -0.000162   0.139368  -0.001165
  74   5   5.600883   2.386138  -1.498760   0.000598   0.325193   0.001839
  75   5   6.056051   3.007301  -1.578098   0.000265   0.232280   0.001143
  76   5   6.950468  -1.369019   3.613640  -0.000017   0.325193  -0.000053
  77   5   6.439903  -1.691750   2.622827   0.000643   0.371649   0.001729
  78   5   6.442531  -1.490012  -0.059845   0.000833   0.418105   0.001991
  79   5   7.366359  -0.864586  -1.239063   0.000312   0.418105   0.000746
  80   5   9.282447   0.352424  -1.660877   0.000496   0.325193   0.001524
  81   5  10.459648   1.301591  -1.078993   0.000794   0.371649   0.002136
  82   5  11.468013   1.919825   0.891959   0.000276   0.371649   0.000741
  83   5   5.861325  -1.559068   2.001072   0.000393   0.232280   0.001691
  84   5   5.999693   1.008620  -1.752788   0.000224   0.371649   0.000603
  85   5   6.958025   0.348289  -1.918343   0.000176   0.511017   0.000344
  86   5   8.144375   1.133235  -2.190080   0.000156   0.371649   0.000419
  87   5  11.156470   2.874106   0.407630  -0.000064   0.232280  -0.000277
  88   5  11.036862   3.469691   0.999064  -0.000194   0.139368  -0.001393
  89   5   5.582607   3.659349  -0.852064   0.000494   0.371649   0.001328
  90   5  11.500318   1.212330   1.476044  -0.000026   0.278737  -0.000094
  91   5  10.123824   0.364825  -1.101913   0.000563   0.278737   0.002019
  92   5   7.426287  -1.556795  -0.395053   0.000382   0.371649   0.001027
  93   5   7.268499  -1.850976   2.786874   0.000083   0.185824   0.000445
  94   5   6.746858   1.732001  -2.114679   0.000378   0.418105   0.000903
  95   5   5.675093  -0.922773   3.318236  -0.000650   0.464561  -0.001399
  96   5   6.219465  -0.511184  -1.143048   0.000085   0.418105   0.000204
  97   5   9.406274   1.194096  -1.833638   0.000134   0.232280   0.000576
  98   5  11.370955   2.714820   1.205091  -0.000162   0.139368  -0.001162
  99   6  11.494868   1.224422   7.883767   0.005143   0.377948   0.013609
 100   6  12.552194   1.824864   4.943254   0.003948   0.274871   0.014364
 101   6  10.609985  -0.709306   5.526658   0.005325   0.274871   0.019371
 102   6   8.422670   0.119784   7.822217   0.003257   0.274871   0.011849
 103   6   9.112202   3.385075   8.688591   0.005214   0.274871   0.018970
 104   6  11.579180   4.512149   6.651186   0.004306   0.309230   0.013924
 105   6  12.248412   1.440550   6.967129   0.005683   0.412307   0.013785
 106   6  12.553846   1.498803   5.849824   0.005008   0.343589   0.014576
 107   6  11.440150   0.279078   7.162288   0.006113   0.412307   0.014827
 108   6  11.109969  -0.386722   6.276376   0.005860   0.343589   0.017055
 109   6  10.487617   0.632583   8.203763   0.005507   0.412307   0.013357
 110   6   9.333000   0.447538   8.297624   0.004777   0.377948   0.012640
 111   6  10.776139   1.893157   8.557104   0.005508   0.377948   0.014573
 112   6  10.004851   2.692725   8.809014   0.005631   0.343589   0.016390
 113   6  11.762968   2.435055   7.878767   0.006721   0.481025   0.013972
 114   6  11.842038   3.548141   7.407259   0.005843   0.412307   0.014172
 115   6  12.199621   0.789115   4.936882   0.004647   0.274871   0.016907
 116   6  11.536907  -0.119461   5.247822   0.004851   0.240512   0.020170
 117   6   9.912625  -0.806964   6.406657   0.005389   0.343589   0.015685
 118   6   8.972941  -0.489623   7.225318   0.005386   0.412307   0.013063
 119   6   8.349046   1.209290   8.502257   0.005597   0.377948   0.014808
 120   6   8.616971   2.238006   8.786002   0.005562   0.343589   0.016189
 121   6   9.864967   3.970344   8.393942   0.006859   0.343589   0.019962
 122   6  10.849646   4.442596   7.625595   0.007137   0.412307   0.017311
 123   6  12.230175   3.852112   6.143913   0.005524   0.446666   0.012367
 124   6  12.614155   2.819328   5.381393   0.005682   0.446666   0.012721
 125   6  12.162690   1.415431   4.150183   0.003965   0.240512   0.016485
 126   6   9.429722  -0.938287   5.554366   0.003710   0.206154   0.017998
 127   6   7.963170  -0.477055   6.464473   0.002195   0.206154   0.010647
 128   6   7.688479  -0.044810   7.063228   0.002647   0.240512   0.011005
 129   6   7.770755   0.522146   7.795529   0.002264   0.171795   0.013179
 130   6   8.492093   3.065168   8.659984   0.003405   0.171795   0.019821
 131   6  10.939386   4.990576   6.664017   0.002805   0.171795   0.016329
 132   6  11.532604   4.775898   5.636103   0.003192   0.274871   0.011612
 133   6  12.287552   2.655838   4.156570   0.004635   0.377948   0.012265
 134   6  12.047359   0.457683   6.077195   0.006761   0.412307   0.016397
 135   6  10.238847  -0.274625   7.424239   0.006846   0.481025   0.014233
 136   6   9.584052   1.565999   8.794956   0.005914   0.412307   0.014343
 137   6  10.864760   3.370337   8.344508   0.007399   0.446666   0.016564
 138   6  12.487615   2.642223   6.639373   0.005318   0.412307   0.012898
 139   6  11.729033   0.301187   4.556113   0.002484   0.137436   0.018076
 140   6   8.761381  -0.831584   6.148663   0.003960   0.274871   0.014405
 141   6  12.157971   3.861643   4.841847   0.004433   0.412307   0.010751
 142   7   8.055242   8.028965   7.523077  -0.002731   0.412182  -0.006626
 143   7   7.280540   6.354636   8.335957  -0.002001   0.372926  -0.005365
 144   7   7.597489   8.864262   5.919565  -0.001114   0.314043  -0.003547
 145   7   9.247644   7.673024   5.980118  -0.001655   0.372926  -0.004438
 146   7   8.388515   6.751472   7.967322  -0.002676   0.431809  -0.006198
 147   7   7.240641   7.487549   8.112759  -0.002878   0.412182  -0.006982
 148   7   7.379728   8.663171   6.931743  -0.002551   0.372926  -0.006839
 149   7   8.520269   8.447763   6.193347  -0.001999   0.431809  -0.004629
 150   7   9.047801   7.425174   7.054319  -0.002770   0.431809  -0.006415
 151   8   6.040289   7.777285   0.723961  -0.001940   0.294415  -0.006591
 152   8   7.723099   7.645521   1.392647  -0.001576   0.333671  -0.004722
 153   8   6.936243   8.530318   1.968563  -0.001346   0.372926  -0.003610
 154   8   5.035564   6.526463   0.514990  -0.003499   0.471065  -0.007427
 155   8   6.503709   7.153078   0.428166  -0.002431   0.294415  -0.008258
 156   8   6.960837   7.929914   1.043723  -0.001718   0.274788  -0.006253
 157   8   5.905237   8.646825   1.902648  -0.002502   0.431809  -0.005795
 158   8   5.259907   7.809382   0.942529  -0.002759   0.353299  -0.007808
 159   9   3.519899   2.227423   9.219344  -0.002523   0.451437  -0.005589
 160   9   3.197342   3.703061   9.449681  -0.001108   0.294415  -0.003764
 161   9   4.954691   3.776331   9.201088  -0.001640   0.372926  -0.004398
 162   9   3.546826   1.040029   7.695076  -0.001187   0.392554  -0.003024
 163   9   2.129830   2.358705   8.575437  -0.001163   0.372926  -0.003120
 164   9   4.062053   3.738430   9.496526  -0.001438   0.372926  -0.003857
 165   9   4.638057   2.481940   9.183970  -0.002579   0.431809  -0.005973
 166   9   4.280027   1.395734   8.394684  -0.002432   0.431809  -0.005633
 167   9   2.727330   1.531897   8.273342  -0.001459   0.431809  -0.003378
 168   9   2.570175   2.995904   9.182146  -0.001161   0.353299  -0.003287
 169  10   1.427038   1.503401   2.720376  -0.002910   0.451437  -0.006447
 170  10   1.851665   3.457804   1.702435  -0.001273   0.314043  -0.004055
 171  10   0.576189   2.345231   3.322363  -0.001259   0.314043  -0.004007
 172  10   1.553038   1.035655   4.203572  -0.000423   0.196277  -0.002157
 173  10   1.561300   2.446443   1.936117  -0.001610   0.255160  -0.006308
 174  10   0.941471   2.782934   2.392889  -0.001129   0.314043  -0.003595
 175  10   0.938684   1.551235   3.816841  -0.001096   0.353299  -0.003101
 176  10   2.202281   0.745360   3.816467  -0.001723   0.353299  -0.004877
 177  11   0.978617   9.051720   1.893982  -0.002580   0.471065  -0.005477
 178  11  -0.118070   7.902157   2.149706  -0.000934   0.392554  -0.002378
 179  11   1.493501   7.046021   1.455630  -0.001435   0.372926  -0.003848
 180  11   2.545364   9.796605   2.900611  -0.001177   0.392554  -0.002999
 181  11   0.336933   9.623744   3.096788  -0.000921   0.372926  -0.002469
 182  11   0.603209   7.497188   1.615687  -0.001397   0.412182  -0.003389
 183  11   1.815000   8.184177   1.416441  -0.002492   0.431809  -0.005771
 184  11   2.254258   9.235331   1.998444  -0.002376   0.431809  -0.005502
 185  11   1.395086  10.006900   3.044245  -0.001406   0.471065  -0.002984
 186  11  -0.088421   8.854714   2.560277  -0.001126   0.372926  -0.003019
 187  12   2.983209   9.379793   8.992712  -0.002411   0.451437  -0.005341
 188  12   2.715920   7.992441   9.449562  -0.000953   0.392554  -0.002428
 189  12   1.602438   9.623431   8.552872  -0.001058   0.392554  -0.002694
 190  12   2.957836  10.431860   7.033321  -0.000922   0.392554  -0.002349
 191  12   4.039513   9.988747   7.035033  -0.001505   0.392554  -0.003833
 192  12   3.799965   8.093312   9.134474  -0.002237   0.490692  -0.004559
 193  12   1.922692   8.771902   9.230253  -0.001091   0.392554  -0.002779
 194  12   2.207913  10.247914   7.914709  -0.001700   0.471065  -0.003609
 195  12   3.521633  10.014805   8.057086  -0.001818   0.353299  -0.005146
 196  12   4.128484   9.224983   8.474833  -0.002385   0.392554  -0.006076
 197  13  -2.276308   5.404655   6.847166  -0.003565   0.588831  -0.006055
 198  13  -1.212920   6.310364   8.329741  -0.000802   0.372926  -0.002149
 199  13  -0.826040   4.482829   7.863881  -0.001041   0.353299  -0.002946
 200  13  -1.493998   4.215619   5.650081  -0.001182   0.353299  -0.003344
 201  13  -2.206581   6.068505   5.100931  -0.000873   0.372926  -0.002341
 202  13  -2.076566   7.316221   6.716688  -0.001069   0.412182  -0.002594
 203  13  -1.390207   5.268132   8.055364  -0.002059   0.490692  -0.004195
 204  13  -1.444928   4.204134   6.832765  -0.002051   0.490692  -0.004180
 205  13  -2.075800   5.014692   5.425180  -0.001828   0.471065  -0.003881
 206  13  -2.406509   6.587514   5.987576  -0.001895   0.471065  -0.004022
 207  13  -1.911782   6.701308   7.629795  -0.001947   0.490692  -0.003968
 208  14  10.164331  -2.062124   1.038639  -0.002613   0.353299  -0.007395
 209  14   8.438751  -2.399355   1.633943  -0.001696   0.392554  -0.004320
 210  14   9.164285  -2.061754   2.804541  -0.002467   0.431809  -0.005713
 211  14  11.328030  -0.465125   1.640301  -0.002272   0.392554  -0.005787
 212  14  10.975781  -0.597617   0.296499  -0.001556   0.372926  -0.004172
 213  14   9.303232  -1.765415  -0.158663  -0.001611   0.372926  -0.004320
 214  14   9.535961  -2.347742   1.843590  -0.002571   0.372926  -0.006893
 215  14  10.543517  -1.611661   2.387061  -0.003545   0.471065  -0.007525
 216  14  10.962652  -1.328762   1.207265  -0.002727   0.392554  -0.006946
 217  14  10.245818  -1.313243  -0.093574  -0.002174   0.412182  -0.005274
 218  14   8.926372  -2.283417   0.608775  -0.002128   0.392554  -0.005420
 219  15   9.159136   4.194061  -1.921898  -0.004408   0.529948  -0.008317
 220  15  10.282951   3.058161  -1.449839  -0.001830   0.372926  -0.004907
 221  15  10.221491   4.513449  -0.199879  -0.002096   0.353299  -0.005934
 222  15   7.202691   4.206103  -1.759467  -0.002684   0.431809  -0.006216
 223  15   8.522708   2.749441  -2.403064  -0.001898   0.372926  -0.005089
 224  15  10.270734   3.987360  -1.067966  -0.002784   0.431809  -0.006447
 225  15   9.317522   5.056800  -0.789236  -0.003951   0.451437  -0.008752
 226  15   8.193031   4.910194  -1.457535  -0.003740   0.431809  -0.008661
 227  15   7.822821   3.521185  -2.302167  -0.002797   0.451437  -0.006195
 228  15   9.483018   2.874289  -2.130457  -0.002333   0.392554  -0.005944
 229  16   3.669222   0.448296   0.180245  -0.004118   0.451437  -0.009122
 230  16   4.413863  -0.722074   1.909140  -0.002129   0.353299  -0.006025
 231  16   4.624314  -0.479042  -0.216532  -0.001933   0.353299  -0.005472
 232  16   4.316691   1.391967  -0.773983  -0.001460   0.294415  -0.004958
 233  16   3.796206  -0.253146   1.093308  -0.002740   0.314043  -0.008723
 234  16   4.595933  -0.930203   0.755030  -0.001904   0.372926  -0.005105
 235  16   4.447433   0.401271  -0.728264  -0.001969   0.353299  -0.005573
 236  16   3.896350   1.912634  -0.195741  -0.002816   0.372926  -0.007551
 237   1   6.366818   5.401979   8.236355  -0.000091   0.027276  -0.003346
 238   2   5.899104   5.255889   8.341106  -0.000074   0.027276  -0.002703
 239   7   6.529841   5.656212   8.232907  -0.000145   0.027276  -0.005305
 240   1   6.068406   4.864306   8.315110  -0.000082   0.028334  -0.002883
 241   2   5.625194   4.723438   8.501708  -0.000086   0.028334  -0.003039
 242   9   5.502545   4.470537   8.615522  -0.000118   0.028334  -0.004178
 243   2   5.681160   4.939714   8.498209  -0.000013   0.039628  -0.000320
 244   1   6.322377   5.191584   8.289631  -0.000018   0.039628  -0.000456
 245   1   5.292287   8.807968   3.427176  -0.000152   0.067660  -0.002245
 246   3   4.509173   8.980947   3.653912  -0.000033   0.067660  -0.000484
 247   8   5.307350   8.745103   3.129658  -0.000312   0.067660  -0.004609
 248   1   5.342966   9.008018   5.550168  -0.000050   0.065309  -0.000768
 249   3   4.605133   9.336053   5.755892   0.000016   0.065309   0.000250
 250  12   4.560757   9.382011   6.053580  -0.000131   0.065309  -0.002000
 251   3   4.488183   9.375611   4.896659   0.000613   0.515290   0.001189
 252   1   5.487321   8.998697   4.255318  -0.000124   0.515290  -0.000240
 253   1   9.735058   6.504391   5.342678  -0.000120   0.028794  -0.004184
 254   4   9.996270   6.095044   5.261806  -0.000080   0.028794  -0.002763
 255   7   9.634249   6.648569   5.588284  -0.000162   0.028794  -0.005619
 256   1   8.965266   6.004090   1.700976  -0.001145   0.096796  -0.011830
 257   4   9.289095   5.643397   1.603664  -0.001322   0.096796  -0.013653
 258  15   9.207398   5.369131   0.920771  -0.001184   0.096796  -0.012235
 259   4   9.608956   5.946190   2.264207  -0.001643   0.192330  -0.008545
 260   4  10.128184   6.018406   3.994661  -0.002682   0.389101  -0.006894
 261   1   9.418488   6.557196   3.016829  -0.002751   0.389101  -0.007069
 262   1   9.827292   6.539779   4.778038  -0.000524   0.192330  -0.002724
 263   1   7.460073   4.896230   8.061504   0.000052   0.064726   0.000797
 264   6   8.036461   4.332187   8.111509   0.000974   0.064726   0.015041
 265   7   7.575531   5.176907   8.069824  -0.000141   0.064726  -0.002182
 266   1   6.786515   4.250035   8.124803  -0.000091   0.176739  -0.000513
 267   6   7.370707   3.687477   8.164686   0.001667   0.176739   0.009433
 268   9   6.167067   3.876150   8.343960  -0.000403   0.176739  -0.002282
 269   6   8.122710   3.840158   8.354859   0.001841   0.111029   0.016585
 270   1   7.230629   4.569133   8.195213   0.000312   0.122546   0.002548
 271   1   5.922636   8.869127   5.735700  -0.000207   0.088152  -0.002353
 272   7   6.108920   8.833656   5.974707  -0.000356   0.088152  -0.004035
 273  12   5.076464   9.093074   6.223119  -0.000073   0.088152  -0.000827
 274   7   7.036225   5.726524   8.237576  -0.000253   0.059727  -0.004230
 275   1   6.949346   5.287336   8.177966  -0.000183   0.072970  -0.002505
 276   7   9.458970   7.150001   5.621276  -0.000282   0.066291  -0.004259
 277   7   8.875489   7.981349   5.272763  -0.000555   0.146106  -0.003799
 278   7   7.790270   8.696495   5.317225  -0.000510   0.146106  -0.003492
 279   7   6.817909   8.890429   5.729481  -0.000333   0.066291  -0.005020
 280   1   9.321298   7.326188   5.078760  -0.000563   0.146334  -0.003850
 281   1   8.327392   8.361199   4.802739  -0.000289   0.146334  -0.001975
 282   1   7.002744   8.854088   5.173752  -0.000378   0.146334  -0.002582
 283   1   8.497396   6.358075   1.502518  -0.000763   0.092671  -0.008238
 284   8   8.279238   6.479942   1.325539  -0.000741   0.092671  -0.007995
 285  15   8.709923   5.666651   0.764972  -0.000984   0.092671  -0.010623
 286   8   5.970489   8.781127   2.842629  -0.000337   0.075557  -0.004461
 287   8   7.115887   8.501015   2.568551  -0.000811   0.171276  -0.004736
 288   8   8.004562   7.555960   1.905603  -0.001066   0.171276  -0.006226
 289   1   6.502776   8.742416   3.166617  -0.000543   0.162427  -0.003343
 290   1   7.889918   8.065756   2.625901  -0.000581   0.162427  -0.003578
 291   1   8.456788   7.060141   1.953786  -0.000556   0.092309  -0.006018
 292   9   5.569569   4.123497   8.700986  -0.000303   0.088411  -0.003425
 293   1   6.410225   4.765271   8.325215   0.000024   0.124682   0.000190
 294  12   4.611234   9.506137   6.303366   0.000012   0.046292   0.000265
 295   1   5.809344   9.088723   5.543399   0.000151   0.065780   0.002293
 296  15   9.176392   5.412708   0.411560  -0.000400   0.068890  -0.005807
 297   1   8.853578   6.345596   1.573120  -0.000032   0.098219  -0.000329
 298   2   1.317201   3.487748   8.157219  -0.000031   0.027040  -0.001155
 299   3   1.036097   3.897513   8.178198   0.000002   0.027040   0.000069
 300   9   1.543635   3.357595   8.311216  -0.000071   0.027040  -0.002634
 301   2   3.782498   5.297205   8.983252  -0.000023   0.027040  -0.000860
 302   3   3.469072   5.683247   8.993402   0.000023   0.027040   0.000864
 303   9   3.787846   5.004782   9.063171  -0.000053   0.027040  -0.001958
 304   2   1.767924   4.653810   2.006601  -0.000047   0.027881  -0.001699
 305   3   1.477806   5.047355   2.097960  -0.000012   0.027881  -0.000428
 306  10   1.737062   4.352855   1.990034  -0.000093   0.027881  -0.003352
 307   2   0.187358   3.108274   4.396530  -0.000037   0.027881  -0.001323
 308   3  -0.082283   3.521843   4.456928   0.000011   0.027881   0.000379
 309  10   0.297967   2.945654   4.166050  -0.000068   0.027881  -0.002440
 310   2   1.979173   5.404360   1.916688  -0.000035   0.026547  -0.001309
 311   3   1.665366   5.790077   1.926707  -0.000052   0.026547  -0.001943
 312  11   1.654521   6.081872   1.845542  -0.000085   0.026547  -0.003193
 313   2   4.011833   6.078966   8.798354  -0.000022   0.026143  -0.000825
 314   3   3.722339   6.472730   8.890471  -0.000039   0.026143  -0.001493
 315  12   3.738245   6.774434   8.912422  -0.000060   0.026143  -0.002283
 316   2  -0.106638   3.386959   4.922871   0.000008   0.025615   0.000301
 317   3  -0.443299   3.750520   4.965443  -0.000019   0.025615  -0.000738
 318  13  -0.650091   3.859296   5.157294  -0.000044   0.025615  -0.001723
 319   2   0.721781   3.655075   7.775141  -0.000001   0.025615  -0.000022
 320   3   0.396297   4.022252   7.856194  -0.000020   0.025615  -0.000774
 321  13   0.114043   4.106606   7.788229  -0.000055   0.025615  -0.002144
 322   3   1.527984   5.527209   1.963646   0.000031   0.076289   0.000411
 323   2   1.895548   4.911363   1.915067   0.000012   0.076289   0.000157
 324   3  -0.361218   3.697524   4.686590   0.000063   0.050369   0.001245
 325   2   0.067972   3.125199   4.671620   0.000045   0.050369   0.000888
 326   3   0.601668   4.005077   8.032750   0.000064   0.064497   0.000987
 327   2   1.083749   3.474449   8.013713   0.000049   0.064497   0.000766
 328   3   3.505590   6.135330   9.014405   0.000073   0.086896   0.000841
 329   2   4.018550   5.639744   8.911960   0.000043   0.086896   0.000498
 330   2   4.705702   0.563107   4.896708  -0.001084   0.111082  -0.009762
 331   4   5.439823   0.231668   4.695690  -0.001447   0.111082  -0.013022
 332   5   5.423271   0.037789   4.241560  -0.001189   0.111082  -0.010702
 333   2   4.673601   0.934877   6.435045  -0.000272   0.065551  -0.004142
 334   4   5.445050   0.765475   6.182973  -0.000543   0.065551  -0.008285
 335   9   4.650592   1.008879   6.729771  -0.000258   0.065551  -0.003942
 336   4   5.617408   0.340235   5.588907  -0.001805   0.315954  -0.005712
 337   2   4.455964   0.646134   5.692932  -0.000602   0.315954  -0.001905
 338   2   3.950360   4.714327   1.361482  -0.000968   0.215310  -0.004498
 339   5   4.705356   4.217324   0.718806  -0.001226   0.215310  -0.005693
 340   8   4.521729   5.111019   1.054895  -0.001411   0.215310  -0.006554
 341   2   3.744695   0.672891   4.345250  -0.000403   0.098464  -0.004098
 342   5   4.513282   0.285583   3.655708  -0.000982   0.098464  -0.009969
 343  10   3.584321   0.671656   4.083663  -0.000572   0.098464  -0.005809
 344   2   3.725428   3.762562   1.238294  -0.000636   0.098564  -0.006450
 345   5   4.395159   3.311245   0.487359  -0.000580   0.098564  -0.005880
 346  16   4.201664   3.076923   0.524836  -0.000769   0.098564  -0.007804
 347   5   5.122129  -0.220608   3.876255  -0.000799   0.264817  -0.003016
 348   2   3.978548   0.479422   4.722258  -0.000159   0.264817  -0.000600
 349   5   4.459319   3.647713   0.336591  -0.000021   0.153287  -0.000137
 350   2   3.458384   4.415254   1.289596   0.000008   0.153287   0.000053
 351   2   5.016841   6.330938   8.348112  -0.000337   0.168610  -0.001997
 352   7   5.679146   6.656840   8.170717  -0.000624   0.168610  -0.003699
 353  12   4.667946   7.002796   8.418561  -0.000472   0.168610  -0.002797
 354   7   6.385417   6.242561   8.267162  -0.000805   0.181992  -0.004422
 355   2   5.515811   5.550799   8.500034  -0.000052   0.256407  -0.000203
 356   2   3.120151   5.738883   1.707824  -0.000462   0.167570  -0.002756
 357   8   3.740549   6.098072   1.465101  -0.000831   0.167570  -0.004961
 358  11   2.748307   6.400613   1.712386  -0.000517   0.167570  -0.003085
 359   8   4.285218   5.716565   1.092379  -0.000593   0.096065  -0.006170
 360   2   3.348672   5.242394   1.492799  -0.000142   0.135465  -0.001045
 361   9   1.713472   2.845875   8.297212  -0.000157   0.068623  -0.002293
 362   9   1.997994   1.929448   7.748636  -0.000438   0.152071  -0.002881
 363   9   2.950712   1.152644   7.223200  -0.000324   0.152071  -0.002131
 364   9   4.021499   0.964011   7.024308  -0.000248   0.068623  -0.003612
 365   2   1.512986   2.606149   7.789469  -0.000364   0.150707  -0.002415
 366   2   2.192907   1.469542   7.081314  -0.000125   0.150707  -0.000831
 367   2   3.541677   0.952044   6.670622  -0.000218   0.150707  -0.001443
 368   9   5.044319   4.423877   8.917281  -0.000195   0.070956  -0.002742
 369   9   4.221286   4.677549   9.132347  -0.000189   0.070956  -0.002668
 370   2   4.695935   4.912957   8.839147  -0.000493   0.154773  -0.003183
 371   2   3.176828   3.850117   1.482546  -0.000469   0.087105  -0.005379
 372  10   3.051630   3.573031   1.448994  -0.000527   0.087105  -0.006048
 373  16   3.753098   3.098774   0.925708  -0.000722   0.087105  -0.008287
 374  10   2.156337   3.961957   1.744615  -0.000374   0.091586  -0.004081
 375   2   2.456446   4.330128   1.721732  -0.000344   0.111893  -0.003075
 376  10   2.869626   0.716846   4.425722  -0.000230   0.074804  -0.003077
 377  10   1.768737   1.113091   4.685947  -0.000575   0.169085  -0.003399
 378  10   0.728884   2.066095   4.379870  -0.000710   0.169085  -0.004202
 379   2   2.576058   0.870969   4.951054  -0.000244   0.161238  -0.001516
 380   2   1.157318   1.649670   5.030798  -0.000335   0.161238  -0.002077
 381   2   0.389908   2.615791   4.554303  -0.000170   0.091389  -0.001861
 382  11   1.991930   6.423786   1.675732  -0.000417   0.146541  -0.002848
 383   2   2.381616   5.363491   1.730706   0.000034   0.206536   0.000164
 384  12   3.951824   7.047473   8.886899  -0.000325   0.130489  -0.002491
 385   2   4.522364   6.086316   8.712234   0.000090   0.183920   0.000487
 386  13  -0.767569   3.797502   5.595574  -0.000434   0.199972  -0.002170
 387  13  -0.396026   3.859660   6.982843  -0.001513   0.409232  -0.003698
 388   2   0.148632   3.024076   5.910934   0.000003   0.547805   0.000006
 389   2   0.627183   3.231876   7.460179   0.000277   0.281639   0.000984
 390  16   4.013542   2.964784   0.415274  -0.000007   0.019646  -0.000354
 391   2   3.203688   4.058865   1.292310   0.000082   0.028241   0.002898
 392   3   3.917038   9.117322   3.443106  -0.000084   0.087043  -0.000961
 393   8   4.694780   8.736930   2.977449  -0.000219   0.087043  -0.002512
 394  11   3.728389   9.117111   3.201993  -0.000224   0.087043  -0.002574
 395   8   5.288674   8.801709   2.842202  -0.000098   0.052462  -0.001872
 396   3   4.147869   9.285671   3.597992   0.000213   0.074409   0.002861
 397   9   3.475257   4.669538   9.201806  -0.000480   0.209568  -0.002292
 398   9   2.269846   3.822851   8.882290  -0.001745   0.430371  -0.004055
 399   3   2.404675   5.292500   9.069909   0.000247   0.572664   0.000432
 400   3   1.103107   4.302529   8.556946   0.000401   0.295200   0.001358
 401  10   0.360127   2.993816   3.680689  -0.000635   0.215084  -0.002953
 402  10   1.038394   3.730447   2.498123  -0.002129   0.442767  -0.004808
 403   3   0.004175   4.175040   3.491160   0.000113   0.586829   0.000192
 404   3   0.924980   5.008587   2.241810   0.000382   0.303023   0.001260
 405  11   1.214936   6.404878   1.779572  -0.000144   0.071708  -0.002010
 406  11   0.204595   6.834523   2.128616  -0.000373   0.160447  -0.002327
 407  11  -0.480584   7.855974   2.776971  -0.000303   0.160447  -0.001890
 408  11  -0.257401   9.061369   3.433026  -0.000385   0.160447  -0.002397
 409  11   0.774973   9.915090   3.805262  -0.000408   0.160447  -0.002546
 410  11   2.157802  10.037785   3.728276  -0.000252   0.160447  -0.001573
 411  11   3.159034   9.593202   3.371772  -0.000176   0.071708  -0.002452
 412   3   0.743284   6.167633   2.082243  -0.000286   0.156039  -0.001835
 413   3  -0.432558   7.004474   2.678372  -0.000098   0.156039  -0.000629
 414   3  -0.707716   8.330751   3.455260  -0.000000   0.156039  -0.000001
 415   3   0.040076   9.557132   4.067696  -0.000191   0.156039  -0.001222
 416   3   1.478536  10.138671   4.243542  -0.000033   0.156039  -0.000212
 417   3   2.968483   9.816963   3.904662  -0.000074   0.156039  -0.000473
 418  12   4.064164   9.824167   6.245633  -0.000119   0.066960  -0.001773
 419  12   3.083397  10.267972   6.343395  -0.000260   0.147698  -0.001763
 420  12   1.909898  10.309745   6.921281  -0.000307   0.147698  -0.002076
 421  12   1.167347   9.748050   7.841018  -0.000355   0.147698  -0.002401
 422  12   1.144803   8.801540   8.744573  -0.000236   0.147698  -0.001598
 423  12   1.851041   7.838672   9.280213  -0.000268   0.147698  -0.001813
 424  12   3.011140   7.234266   9.239425  -0.000453   0.147698  -0.003065
 425   3   3.654341   9.956955   5.843090  -0.000105   0.147711  -0.000711
 426   3   2.281794  10.353590   6.191361  -0.000058   0.147711  -0.000392
 427   3   1.148782  10.046146   7.076946  -0.000112   0.147711  -0.000761
 428   3   0.696361   9.154304   8.155107  -0.000043   0.147711  -0.000290
 429   3   1.100648   8.025238   9.006141   0.000034   0.147711   0.000228
 430   3   2.204263   7.098467   9.298761  -0.000119   0.147711  -0.000807
 431   3   3.309534   6.698239   9.094458  -0.000089   0.081806  -0.001085
 432  13  -0.206436   4.467644   8.029131  -0.000144   0.069110  -0.002085
 433  13  -0.376903   5.469115   8.489672  -0.000344   0.153543  -0.002243
 434  13  -0.818525   6.737282   8.367997  -0.000300   0.153543  -0.001956
 435  13  -1.372843   7.595098   7.487676  -0.000314   0.153543  -0.002042
 436  13  -1.809167   7.685564   6.215072  -0.000394   0.153543  -0.002567
 437  13  -1.945910   6.971032   5.079806  -0.000270   0.153543  -0.001760
 438  13  -1.726165   5.748868   4.554344  -0.000343   0.153543  -0.002234
 439  13  -1.241383   4.527702   4.857368  -0.000448   0.153543  -0.002916
 440   3   0.146966   4.830303   8.347295  -0.000264   0.151387  -0.001744
 441   3  -0.201212   6.265672   8.683117  -0.000012   0.151387  -0.000079
 442   3  -0.792198   7.527219   8.088537   0.000061   0.151387   0.000401
 443   3  -1.380039   8.089925   6.811003  -0.000150   0.151387  -0.000992
 444   3  -1.720094   7.719607   5.382186  -0.000108   0.151387  -0.000714
 445   3  -1.670841   6.570382   4.396719   0.000032   0.151387   0.000212
 446   3  -1.252778   5.120523   4.264725  -0.000090   0.151387  -0.000597
 447   3  -0.770235   4.103588   4.763212  -0.000072   0.084432  -0.000850
 448   4  11.554190   2.642342   2.841280   0.000081   0.040168   0.002028
 449   5  11.471030   2.408837   2.417007  -0.000096   0.040168  -0.002388
 450   6  11.695864   2.513913   3.187716   0.000441   0.040168   0.010984
 451   4   7.599533  -0.644447   4.947994   0.000083   0.040168   0.002056
 452   5   7.568246  -0.834839   4.496088  -0.000092   0.040168  -0.002300
 453   6   7.892753  -0.646923   5.213698   0.000352   0.040168   0.008755
 454   4  10.468084   4.478742   1.440179  -0.000397   0.028222  -0.014077
 455   5  10.460256   4.271709   0.994772  -0.000307   0.028222  -0.010867
 456  15  10.352910   4.345787   0.721460  -0.000340   0.028222  -0.012031
 457   5  10.806316   3.914888   1.280811  -0.001019   0.192625  -0.005288
 458   5  11.369468   2.776625   1.835363  -0.000572   0.192625  -0.002971
 459   4  11.110142   3.663312   2.187300  -0.002675   0.389781  -0.006862
 460   5   6.702186  -0.762261   4.140731  -0.001323   0.309424  -0.004276
 461   4   6.412658  -0.298565   4.720433  -0.002093   0.309424  -0.006765
 462   4  10.229711   5.756887   5.422349   0.000154   0.076588   0.002006
 463   6  10.413988   5.528398   5.689915   0.000606   0.076588   0.007914
 464   7   9.796498   6.267064   5.732328  -0.000091   0.076588  -0.001189
 465   4   6.316764   0.739555   6.631204  -0.000152   0.103242  -0.001476
 466   6   6.648233   0.710091   6.849642   0.000572   0.103242   0.005541
 467   9   5.518460   1.139736   7.066574  -0.000394   0.103242  -0.003818
 468   6   7.444555  -0.054580   6.345736   0.001985   0.248202   0.007998
 469   4   7.210749  -0.186576   5.717142   0.000825   0.264839   0.003116
 470   6  11.898174   3.034626   3.704677   0.001461   0.169156   0.008636
 471   6  11.378672   4.559836   4.839733   0.003454   0.369440   0.009349
 472   4  11.481543   3.882715   3.669974   0.001344   0.352137   0.003816
 473   4  10.799272   5.336289   4.919654   0.000815   0.180495   0.004514
 474   7   9.623718   6.748622   5.763344  -0.000065   0.013355  -0.004871
 475   4  10.220113   5.961702   5.280170   0.000026   0.018860   0.001400
 476   9   4.721264   0.991273   7.084111  -0.000288   0.141743  -0.002028
 477   4   5.959424   0.538010   6.433525  -0.000175   0.201211  -0.000872
 478  15   9.782915   4.892955   0.493313  -0.002379   0.256185  -0.009285
 479   4  10.126459   5.025727   1.558205  -0.002706   0.360945  -0.007498
 480   5   8.541704  -1.228711   3.869600  -0.000031   0.064102  -0.000484
 481   6   8.844491  -0.953239   4.567393   0.000686   0.064102   0.010705
 482  14   8.754538  -1.339275   3.686040  -0.000185   0.064102  -0.002891
 483   5  11.341035   0.752992   2.431315   0.000022   0.064102   0.000349
 484   6  11.486015   0.916749   3.210190   0.000815   0.064102   0.012711
 485  14  11.294541   0.458845   2.380998  -0.000174   0.064102  -0.002717
 486   6   8.350846  -0.841932   5.242677   0.002252   0.247038   0.009114
 487   5   8.075232  -1.188154   4.151910   0.000184   0.272652   0.000674
 488   6  11.815886   1.626435   3.459990   0.003894   0.363714   0.010708
 489   5  11.536363   1.725896   2.302355   0.000100   0.401375   0.000248
 490   5   6.231594   4.602674  -0.442546  -0.000398   0.083457  -0.004766
 491   8   6.037915   5.393884   0.076116  -0.000583   0.083457  -0.006980
 492  15   6.492289   4.674123  -0.584866  -0.000525   0.083457  -0.006291
 493   8   5.297156   5.665129   0.423530  -0.002068   0.348924  -0.005928
 494   5   5.337609   4.316142  -0.096977  -0.000715   0.493346  -0.001450
 495   5   4.674128  -0.051788   3.153236  -0.000756   0.087204  -0.008673
 496  10   3.816606   0.511285   3.532078  -0.000728   0.087204  -0.008346
 497  16   4.440833  -0.012449   2.960309  -0.000739   0.087204  -0.008473
 498  10   3.403875   0.544542   3.952924   0.000008   0.027432   0.000292
 499   5   4.704589  -0.223611   3.389985   0.000039   0.039408   0.000997
 500  14   8.543871  -1.743943   3.184862  -0.000330   0.065825  -0.005006
 501  14   8.035325  -2.084502   2.305047  -0.000705   0.145164  -0.004858
 502  14   7.931290  -2.135205   1.012269  -0.000595   0.145164  -0.004096
 503  14   8.471803  -1.738356  -0.099048  -0.000668   0.145164  -0.004600
 504  14   9.448743  -1.046760  -0.600995  -0.000675   0.145164  -0.004650
 505  14  10.485944  -0.326714  -0.300301  -0.000563   0.145164  -0.003881
 506  14  11.184035   0.144533   0.687253  -0.000671   0.145164  -0.004624
 507  14  11.355395   0.246393   1.740313  -0.000303   0.065825  -0.004597
 508   5   7.978538  -1.732439   3.036285  -0.000547   0.145200  -0.003768
 509   5   7.498312  -2.045336   1.695157  -0.000410   0.145200  -0.002824
 510   5   7.756272  -1.840763   0.274329  -0.000418   0.145200  -0.002880
 511   5   8.653092  -1.197488  -0.679116  -0.000533   0.145200  -0.003667
 512   5   9.843456  -0.363202  -0.798057  -0.000433   0.145200  -0.002985
 513   5  10.869019   0.340856  -0.036698  -0.000373   0.145200  -0.002571
 514   5  11.334892   0.643593   1.311804  -0.000511   0.145200  -0.003517
 515  15  10.484066   4.124891   0.244059  -0.000446   0.069555  -0.006414
 516  15  10.666435   3.252798  -0.435908  -0.000874   0.154660  -0.005652
 517  15  10.192872   2.387588  -1.364377  -0.000840   0.154660  -0.005429
 518  15   9.076793   2.075673  -2.065790  -0.000899   0.154660  -0.005812
 519  15   7.786863   2.448033  -2.245607  -0.000904   0.154660  -0.005844
 520  15   6.864754   3.348306  -1.828320  -0.000736   0.154660  -0.004760
 521  15   6.603484   4.222381  -1.177252  -0.000512   0.069555  -0.007360
 522   5  10.729054   3.584899   0.334763  -0.000918   0.152249  -0.006031
 523   5  10.666273   2.444790  -0.671004  -0.000621   0.152249  -0.004081
 524   5   9.722526   1.745949  -1.638640  -0.000569   0.152249  -0.003740
 525   5   8.294115   1.781835  -2.161813  -0.000739   0.152249  -0.004855
 526   5   6.980861   2.537377  -2.020831  -0.000638   0.152249  -0.004189
 527   5   6.334230   3.695308  -1.274895  -0.000710   0.152249  -0.004666
 528  16   4.391182   2.702023  -0.133849  -0.000450   0.070934  -0.006350
 529  16   4.734233   1.883486  -0.854386  -0.000922   0.158511  -0.005816
 530  16   5.109979   0.568806  -1.042399  -0.001002   0.158511  -0.006323
 531  16   5.290963  -0.610256  -0.348154  -0.001006   0.158511  -0.006350
 532  16   5.197878  -1.137052   0.924143  -0.000872   0.158511  -0.005504
 533  16   4.871515  -0.780749   2.216990  -0.001045   0.158511  -0.006592
 534   5   4.824279   2.677730  -0.556116  -0.000644   0.154527  -0.004171
 535   5   5.289418   1.375104  -1.255900  -0.000671   0.154527  -0.004342
 536   5   5.620730  -0.108932  -0.954640  -0.000784   0.154527  -0.005073
 537   5   5.673039  -1.124095   0.215658  -0.000648   0.154527  -0.004197
 538   5   5.423424  -1.225556   1.742185  -0.000655   0.154527  -0.004237
 539   5   5.083073  -0.666386   2.820709  -0.000457   0.086662  -0.005273
 540   7   7.884448   5.466766   8.173693  -0.000054   0.217120  -0.000250
 541   7   8.820038   6.012437   7.729373  -0.000528   0.436741  -0.001209
 542   7   9.560281   6.490872   6.607268  -0.000809   0.436741  -0.001852
 543   6   8.977425   4.502016   8.177057   0.007227   0.533486   0.013548
 544   6  10.094513   5.174210   7.305521   0.006615   0.533486   0.012400
 545   6  10.570133   5.506746   6.169862   0.002312   0.268693   0.008604
 546   9   5.152667   1.196322   7.711535  -0.000473   0.301269  -0.001572
 547   9   5.546458   2.154895   8.522192  -0.001693   0.604329  -0.002802
 548   9   5.854038   3.409727   8.770968  -0.000356   0.301269  -0.001181
 549   6   6.994485   1.044454   7.767852   0.005361   0.762976   0.007026
 550   6   7.477198   2.567813   8.496999   0.006855   0.762976   0.008984
 551  14  11.336521   0.038604   2.483912  -0.000186   0.217364  -0.000855
 552  14  10.779118  -0.828973   3.033950  -0.000802   0.437197  -0.001834
 553  14   9.574387  -1.422913   3.508613  -0.000755   0.437197  -0.001728
 554   6  11.501169   0.273565   3.917542   0.006759   0.534281   0.012651
 555   6  10.497616  -0.721452   4.591794   0.007528   0.534281   0.014090
 556   6   9.312394  -1.053369   4.918074   0.002774   0.269079   0.010308
 557  12   4.674880   7.595290   8.654614  -0.000156   0.243694  -0.000640
 558  12   4.886969   8.549920   8.187658  -0.000975   0.487191  -0.002002
 559  12   4.883659   9.315044   7.106857  -0.000626   0.487191  -0.001285
 560   7   6.206254   7.475600   8.146953  -0.001165   0.487191  -0.002391
 561   7   6.369437   8.522224   7.352281  -0.001274   0.487191  -0.002615
 562   7   6.280988   8.968717   6.368833  -0.000102   0.243694  -0.000419
 563  11   3.618505   9.198092   2.762390   0.000016   0.250139   0.000066
 564  11   3.215851   8.584364   1.896236  -0.001098   0.500193  -0.002196
 565  11   2.732538   7.369264   1.442545  -0.001053   0.500193  -0.002106
 566   8   4.880679   8.556609   2.061845  -0.001405   0.500193  -0.002809
 567   8   4.374166   7.592345   1.207719  -0.001758   0.500193  -0.003515
 568   8   4.013441   6.525294   1.065253  -0.000495   0.250139  -0.001979
 569  15   6.770485   4.978198  -0.805201  -0.000719   0.264152  -0.002723
 570  15   7.815569   5.465872  -0.555765  -0.002770   0.528235  -0.005244
 571  15   8.798590   5.604721   0.081914  -0.001116   0.264152  -0.004224
 572   8   6.463367   6.257518   0.116061  -0.002394   0.528235  -0.004532
 573   8   7.728222   6.648257   0.669323  -0.002428   0.528235  -0.004596
 574  16   4.072544  -0.116019   2.733919  -0.000870   0.224500  -0.003874
 575  16   3.484526   0.196320   1.880021  -0.002863   0.449000  -0.006376
 576  16   3.201460   1.089698   0.944238  -0.003073   0.449000  -0.006844
 577  16   3.543759   2.279094   0.472950  -0.002519   0.449000  -0.005610
 578  10   2.895388   0.596055   3.281822  -0.001902   0.449000  -0.004236
 579  10   2.326806   1.194976   2.246471  -0.002334   0.449000  -0.005198
 580  10   2.358007   2.292077   1.505297  -0.002194   0.449000  -0.004886
 581  10   2.783822   3.261629   1.279215  -0.000531   0.224500  -0.002366
 =====================================================

              2746063  WORDS OF DYNAMIC MEMORY USED
 EXECUTION OF GAMESS TERMINATED NORMALLY Thu Nov 24 21:04:32 2016
 DDI: 263640 bytes (0.3 MB / 0 MWords) used by master data server.

 ----------------------------------------
 CPU timing information for all processes
 ========================================
 0: 775.00 + 0.312 = 775.312
 ----------------------------------------
 ddikick.x: exited gracefully.
