----- GAMESS execution script -----

          ******************************************************
          *         GAMESS VERSION =  5 DEC 2014 (R1)          *
          *             FROM IOWA STATE UNIVERSITY             *
          * M.W.SCHMIDT, K.K.BALDRIDGE, J.A.BOATZ, S.T.ELBERT, *
          *   M.S.GORDON, J.H.JENSEN, S.KOSEKI, N.MATSUNAGA,   *
          *          K.A.NGUYEN, S.J.SU, T.L.WINDUS,           *
          *       TOGETHER WITH M.DUPUIS, J.A.MONTGOMERY       *
          *         J.COMPUT.CHEM.  14, 1347-1363(1993)        *
          **************** 64 BIT LINUX VERSION ****************

 EXECUTION OF GAMESS BEGUN Thu Nov 24 20:51:06 2016

            ECHO OF THE FIRST FEW INPUT CARDS -
 INPUT CARD>! SELECT RESTRICTED HARTREE-FOCK AS DEFAULT                                     
 INPUT CARD>$contrl scftyp=rhf $end                                                         
 INPUT CARD>                                                                                
 INPUT CARD>! THEORY: HF OR DFT                                                             
 INPUT CARD> $contrl mplevl=0 $end                                                          
 INPUT CARD>                                                                                
 INPUT CARD> $system timlim=10000 mwords=20 $end                                            
 INPUT CARD> $SCF DIRSCF=.TRUE. $end                                                        
 INPUT CARD>                                                                                
 INPUT CARD>                                                                                
 INPUT CARD>! BASIS SETS                                                                    
 INPUT CARD>! 6-311G(d,p)                                                                   
 INPUT CARD> $BASIS GBASIS=N311 NGAUSS=6 NDFUNC=1 NPFUNC=1 $END                             
 INPUT CARD>                                                                                
 INPUT CARD>! One of the following                                                          
 INPUT CARD> $guess guess=HUCKEL $end                                                       
 INPUT CARD>                                                                                
 INPUT CARD> $statpt projct=.FALSE. $end                                                    
 INPUT CARD> $STATPT IFREEZ(1)=1,2,3 $END                                                   
 INPUT CARD>                                                                                
 INPUT CARD>! Optimize the geometry with COSMO effects                                      
 INPUT CARD> $statpt opttol=0.0005 nstep=50 $end                                            
 INPUT CARD> $contrl nzvar=1 $end                                                           
 INPUT CARD> $zmat dlc=.t. auto=.t. $end                                                    
 INPUT CARD> $contrl runtyp=OPTIMIZE maxit=200 $end                                         
 INPUT CARD>                                                                                
 INPUT CARD>! Run COSMO on perfect conductor                                                
 INPUT CARD> $COSGMS PRFCND=.TRUE. $end                                                     
 INPUT CARD>                                                                                
 INPUT CARD>! Specifying RSOLV                                                              
 INPUT CARD> $COSGMS COSRAD = 1.4 $end                                                      
 INPUT CARD>                                                                                
 INPUT CARD>! available memory                                                              
 INPUT CARD> $SYSTEM MWORDS=40 $END                                                         
 INPUT CARD>                                                                                
 INPUT CARD> $DATA                                                                          
 INPUT CARD>http://cactus.nci.nih.gov/chemical/structure/METHYL%20N-HEPTYL%20KETONE/file?for
 INPUT CARD>C1                                                                              
 INPUT CARD>C      6.0      0.9030000000   -0.2398000000    0.0000000000                    
 INPUT CARD>C      6.0     -0.4009000000    0.5608000000    0.0000000000                    
 INPUT CARD>C      6.0      2.0924000000    0.7227000000    0.0000000000                    
 INPUT CARD>C      6.0     -1.5902000000   -0.4017000000    0.0000000000                    
 INPUT CARD>C      6.0     -2.8941000000    0.3988000000    0.0000000000                    
 INPUT CARD>C      6.0     -4.0834000000   -0.5637000000    0.0000000000                    
 INPUT CARD>C      6.0      4.7016000000    0.6522000000    0.0000000000                    
 INPUT CARD>C      6.0     -5.3873000000    0.2368000000    0.0000000000                    
 INPUT CARD>O      8.0      3.3440000000   -1.2729000000    0.0000000000                    
 INPUT CARD>C      6.0      3.3766000000   -0.0658000000    0.0000000000                    
 INPUT CARD>H      1.0      0.9438000000   -0.8677000000    0.8900000000                    
 INPUT CARD>H      1.0      0.9438000000   -0.8677000000   -0.8900000000                    
   40000000 WORDS OF MEMORY AVAILABLE

     BASIS OPTIONS
     -------------
     GBASIS=N311         IGAUSS=       6      POLAR=POPN311 
     NDFUNC=       1     NFFUNC=       0     DIFFSP=       F
     NPFUNC=       1      DIFFS=       F     BASNAM=        


     RUN TITLE
     ---------
 http://cactus.nci.nih.gov/chemical/structure/METHYL%20N-HEPTYL%20KETONE/file?for

 THE POINT GROUP OF THE MOLECULE IS C1      
 THE ORDER OF THE PRINCIPAL AXIS IS     0

 ATOM      ATOMIC                      COORDINATES (BOHR)
           CHARGE         X                   Y                   Z
 C           6.0     1.7064225669       -0.4531562919        0.0000000000
 C           6.0    -0.7575911485        1.0597583339        0.0000000000
 C           6.0     3.9540626567        1.3657049713        0.0000000000
 C           6.0    -3.0050422657       -0.7591029293        0.0000000000
 C           6.0    -5.4690559811        0.7536227239        0.0000000000
 C           6.0    -7.7165070983       -1.0652385393        0.0000000000
 C           6.0     8.8847357039        1.2324792892        0.0000000000
 C           6.0   -10.1805208137        0.4474871139        0.0000000000
 O           8.0     6.3192437029       -2.4054322098        0.0000000000
 C           6.0     6.3808487701       -0.1243439700        0.0000000000
 H           1.0     1.7835233872       -1.6397152395        1.6818561291
 H           1.0     1.7835233872       -1.6397152395       -1.6818561291
 H           1.0    -0.8345029962        2.2463172816        1.6818561291
 H           1.0    -0.8345029962        2.2463172816       -1.6818561291
 H           1.0     3.8769618364        2.5524528916       -1.6818561291
 H           1.0     3.8769618364        2.5524528916        1.6818561291
 H           1.0    -2.9279414454       -1.9458508496       -1.6818561291
 H           1.0    -2.9279414454       -1.9458508496        1.6818561291
 H           1.0    -5.5461568014        1.9403706442        1.6818561291
 H           1.0    -5.5461568014        1.9403706442       -1.6818561291
 H           1.0     8.5632933134        3.2671472602        0.0000000000
 H           1.0     9.9511080787        0.7060016290        1.6818561291
 H           1.0     9.9511080787        0.7060016290       -1.6818561291
 H           1.0    -7.6394062780       -2.2519864596       -1.6818561291
 H           1.0    -7.6394062780       -2.2519864596        1.6818561291
 H           1.0   -10.2576216340        1.6342350342        1.6818561291
 H           1.0   -10.2576216340        1.6342350342       -1.6818561291
 H           1.0   -11.7816856431       -0.8482979959        0.0000000000

          INTERNUCLEAR DISTANCES (ANGS.)




     $CONTRL OPTIONS
     ---------------
 SCFTYP=RHF          RUNTYP=OPTIMIZE     EXETYP=RUN     
 MPLEVL=       0     CITYP =NONE         CCTYP =NONE         VBTYP =NONE    
 DFTTYP=NONE         TDDFT =NONE    
 MULT  =       1     ICHARG=       0     NZVAR =       1     COORD =UNIQUE  
 PP    =NONE         RELWFN=NONE         LOCAL =NONE         NUMGRD=       F
 ISPHER=      -1     NOSYM =       0     MAXIT =     200     UNITS =ANGS    
 PLTORB=       F     MOLPLT=       F     AIMPAC=       F     FRIEND=        
 NPRINT=       7     IREST =       0     GEOM  =INPUT   
 NORMF =       0     NORMP =       0     ITOL  =      20     ICUT  =       9
 INTTYP=BEST         GRDTYP=BEST         QMTTOL= 1.0E-06

     $SYSTEM OPTIONS
     ---------------
  REPLICATED MEMORY=    40000000 WORDS (ON EVERY NODE).
 DISTRIBUTED MEMDDI=           0 MILLION WORDS IN AGGREGATE,
 MEMDDI DISTRIBUTED OVER   1 PROCESSORS IS           0 WORDS/PROCESSOR.
 TOTAL MEMORY REQUESTED ON EACH PROCESSOR=    40000000 WORDS.
 TIMLIM=       10000.00 MINUTES, OR       6.9 DAYS.
 PARALL= F  BALTYP=  DLB     KDIAG=    0  COREFL= F
 MXSEQ2=     300 MXSEQ3=     150  mem10=         0

     $COSGMS OPTIONS
     ---------------
     EPSI  =   INFTY     NSPA  =      92     COSRAD=    1.40
     DISEX =   10.00     OUTCHG=DBLCAV       COSBUG=       F
     COSWRT=       F     DCOSMO=       F

     SYMMETRY COORDINATES WILL NOT BE USED FOR 
     THE COSMO CALCULATION, EVEN IF SPECIFIED:
         -- SWITCHING TO C1 POINT GROUP --


     DEFINITION OF CAVITY
     ---------------------------
     ATOM         COORDINATES           RADIUS 
     1    1.7064   -0.4532    0.0000    2.0000
     2   -0.7576    1.0598    0.0000    2.0000
     3    3.9541    1.3657    0.0000    2.0000
     4   -3.0050   -0.7591    0.0000    2.0000
     5   -5.4691    0.7536    0.0000    2.0000
     6   -7.7165   -1.0652    0.0000    2.0000
     7    8.8847    1.2325    0.0000    2.0000
     8  -10.1805    0.4475    0.0000    2.0000
     9    6.3192   -2.4054    0.0000    1.7200
    10    6.3808   -0.1243    0.0000    2.0000
    11    1.7835   -1.6397    1.6819    1.3000
    12    1.7835   -1.6397   -1.6819    1.3000
    13   -0.8345    2.2463    1.6819    1.3000
    14   -0.8345    2.2463   -1.6819    1.3000
    15    3.8770    2.5525   -1.6819    1.3000
    16    3.8770    2.5525    1.6819    1.3000
    17   -2.9279   -1.9459   -1.6819    1.3000
    18   -2.9279   -1.9459    1.6819    1.3000
    19   -5.5462    1.9404    1.6819    1.3000
    20   -5.5462    1.9404   -1.6819    1.3000
    21    8.5633    3.2671    0.0000    1.3000
    22    9.9511    0.7060    1.6819    1.3000
    23    9.9511    0.7060   -1.6819    1.3000
    24   -7.6394   -2.2520   -1.6819    1.3000
    25   -7.6394   -2.2520    1.6819    1.3000
    26  -10.2576    1.6342    1.6819    1.3000
    27  -10.2576    1.6342   -1.6819    1.3000
    28  -11.7817   -0.8483    0.0000    1.3000

          ----------------
          PROPERTIES INPUT
          ----------------

     MOMENTS            FIELD           POTENTIAL          DENSITY
 IEMOM =       1   IEFLD =       0   IEPOT =       0   IEDEN =       0
 WHERE =COMASS     WHERE =NUCLEI     WHERE =NUCLEI     WHERE =NUCLEI  
 OUTPUT=BOTH       OUTPUT=BOTH       OUTPUT=BOTH       OUTPUT=BOTH    
 IEMINT=       0   IEFINT=       0                     IEDINT=       0
                                                       MORB  =       0
          EXTRAPOLATION IN EFFECT
          SOSCF IN EFFECT
 ORBITAL PRINTING OPTION: NPREO=     1   298     2     1

     -------------------------------
     INTEGRAL TRANSFORMATION OPTIONS
     -------------------------------
     NWORD  =            0
     CUTOFF = 1.0E-09     MPTRAN =       0
     DIRTRF =       T     AOINTS =DUP     

          ----------------------
          INTEGRAL INPUT OPTIONS
          ----------------------
 NOPK  =       1 NORDER=       0 SCHWRZ=       T


 -----------------------------------------------
  STATISTICS ON AUTOMATIC COORDINATE GENERATION 
 -----------------------------------------------
  NUMBER OF USER SPECIFIED BONDS                             0
  NUMBER OF BONDS                                           27
  NUMBER OF ANGLES                                          51
  NUMBER OF TORSIONS                                        66
  NUMBER OF EXTRA COORD.                                     0
  NUMBER OF EXTRA COORD. FOR CONSTRAINTS                     0
  NUMBER OF CONSTRAINED COORD.                               0

  TOTAL NUMBER OF PRIMITIVES                               144
 -----------------------------------------------

   --- ENCODED Z MATRIX ---
 COORD  TYPE   I   J   K   L   M   N
    1      1    1   3
    2      1    1  11
    3      1    1  12
    4      1    1   2
    5      1    2  13
    6      1    2  14
    7      1    2   4
    8      1    3  15
    9      1    3  10
   10      1    3  16
   11      1    4   5
   12      1    4  17
   13      1    4  18
   14      1    5   6
   15      1    5  20
   16      1    5  19
   17      1    6  25
   18      1    6   8
   19      1    6  24
   20      1    7  23
   21      1    7  22
   22      1    7  21
   23      1    7  10
   24      1    8  28
   25      1    8  27
   26      1    8  26
   27      1    9  10
   28      2    1   2  13
   29      2    1   3  10
   30      2    1   2  14
   31      2    1   3  16
   32      2    1   3  15
   33      2    1   2   4
   34      2    2   1  12
   35      2    2   1   3
   36      2    2   4   5
   37      2    2   4  18
   38      2    2   4  17
   39      2    2   1  11
   40      2    3  10   7
   41      2    3   1  11
   42      2    3  10   9
   43      2    3   1  12
   44      2    4   2  14
   45      2    4   5  19
   46      2    4   2  13
   47      2    4   5   6
   48      2    4   5  20
   49      2    5   4  18
   50      2    5   4  17
   51      2    5   6  24
   52      2    5   6   8
   53      2    5   6  25
   54      2    6   5  19
   55      2    6   5  20
   56      2    6   8  26
   57      2    6   8  27
   58      2    6   8  28
   59      2    7  10   9
   60      2    8   6  24
   61      2    8   6  25
   62      2   10   7  22
   63      2   10   7  23
   64      2   10   3  16
   65      2   10   7  21
   66      2   10   3  15
   67      2   11   1  12
   68      2   13   2  14
   69      2   15   3  16
   70      2   17   4  18
   71      2   19   5  20
   72      2   21   7  22
   73      2   21   7  23
   74      2   22   7  23
   75      2   24   6  25
   76      2   26   8  27
   77      2   26   8  28
   78      2   27   8  28
   79      3    1   3  10   7
   80      3    1   2   4  18
   81      3    1   2   4  17
   82      3    1   2   4   5
   83      3    1   3  10   9
   84      3    2   1   3  16
   85      3    2   1   3  10
   86      3    2   4   5  19
   87      3    2   4   5  20
   88      3    2   4   5   6
   89      3    2   1   3  15
   90      3    3   1   2  13
   91      3    3  10   7  21
   92      3    3  10   7  22
   93      3    3  10   7  23
   94      3    3   1   2  14
   95      3    3   1   2   4
   96      3    4   2   1  12
   97      3    4   2   1  11
   98      3    4   5   6  24
   99      3    4   5   6   8
  100      3    4   5   6  25
  101      3    5   6   8  26
  102      3    5   6   8  27
  103      3    5   6   8  28
  104      3    5   4   2  14
  105      3    5   4   2  13
  106      3    6   5   4  18
  107      3    6   5   4  17
  108      3    7  10   3  16
  109      3    7  10   3  15
  110      3    8   6   5  19
  111      3    8   6   5  20
  112      3    9  10   3  16
  113      3    9  10   7  21
  114      3    9  10   3  15
  115      3    9  10   7  22
  116      3    9  10   7  23
  117      3   10   3   1  12
  118      3   10   3   1  11
  119      3   11   1   3  15
  120      3   11   1   3  16
  121      3   11   1   2  13
  122      3   11   1   2  14
  123      3   12   1   3  16
  124      3   12   1   2  13
  125      3   12   1   2  14
  126      3   12   1   3  15
  127      3   13   2   4  17
  128      3   13   2   4  18
  129      3   14   2   4  17
  130      3   14   2   4  18
  131      3   17   4   5  20
  132      3   17   4   5  19
  133      3   18   4   5  20
  134      3   18   4   5  19
  135      3   19   5   6  25
  136      3   19   5   6  24
  137      3   20   5   6  25
  138      3   20   5   6  24
  139      3   24   6   8  28
  140      3   24   6   8  27
  141      3   24   6   8  26
  142      3   25   6   8  28
  143      3   25   6   8  27
  144      3   25   6   8  26

          INDEP./SYM. INTERNAL COORDINATES
          --------------------------------
 CRD  1=  -0.1219 ( 28)  0.2904 ( 29) -0.1219 ( 30)  0.4170 ( 33)  0.1158 ( 34)
          -0.3907 ( 35) -0.3875 ( 36)  0.1152 ( 37)  0.1152 ( 38)  0.1158 ( 39)
          -0.1575 ( 40)  0.1126 ( 41)  0.1126 ( 43) -0.1221 ( 44) -0.1221 ( 46)
           0.2793 ( 47)  0.1114 ( 49)  0.1114 ( 50) -0.1578 ( 52)
 CRD  2=   0.1033 ( 28) -0.1033 ( 30)  0.1030 ( 49) -0.1030 ( 50) -0.2117 ( 79)
           0.1539 ( 80)  0.1539 ( 81)  0.3304 ( 82) -0.1279 ( 83)  0.1346 ( 84)
           0.2784 ( 85) -0.1324 ( 86) -0.1324 ( 87) -0.2591 ( 88)  0.1346 ( 89)
          -0.1397 ( 90) -0.1397 ( 94) -0.3226 ( 95) -0.1485 ( 96) -0.1485 ( 97)
           0.1058 ( 98)  0.1876 ( 99)  0.1058 (100)  0.1440 (104)  0.1440 (105)
           0.1099 (117)  0.1099 (118)
 CRD  3=  -0.4154 ( 29)  0.1158 ( 31)  0.1158 ( 32)  0.2574 ( 35) -0.3085 ( 36)
           0.2544 ( 40) -0.1702 ( 42) -0.1122 ( 45)  0.3693 ( 47) -0.1122 ( 48)
           0.1136 ( 51) -0.3509 ( 52)  0.1136 ( 53) -0.1086 ( 54) -0.1086 ( 55)
           0.1278 ( 64)  0.1278 ( 66)
 CRD  4=  -0.2906 (  1) -0.3099 (  4) -0.3304 (  7) -0.2096 (  9) -0.2953 ( 11)
          -0.2189 ( 14) -0.1490 ( 18) -0.1666 ( 23) -0.1179 ( 29) -0.2841 ( 33)
          -0.2574 ( 35) -0.1636 ( 36) -0.1844 ( 40) -0.2546 ( 47) -0.1436 ( 52)
           0.1331 ( 59)
 CRD  5=  -0.1474 ( 28)  0.1474 ( 30)  0.1419 ( 31) -0.1419 ( 32)  0.1277 ( 34)
           0.1348 ( 37) -0.1348 ( 38) -0.1277 ( 39)  0.1368 ( 41) -0.1368 ( 43)
          -0.1507 ( 44) -0.1356 ( 45)  0.1507 ( 46)  0.1356 ( 48) -0.1436 ( 49)
           0.1436 ( 50) -0.1845 ( 79) -0.1336 ( 80) -0.1336 ( 81) -0.2270 ( 82)
          -0.1883 ( 83) -0.1160 ( 84) -0.1316 ( 85) -0.1204 ( 86) -0.1204 ( 87)
          -0.1570 ( 88) -0.1160 ( 89) -0.1332 ( 90) -0.1332 ( 94) -0.2276 ( 95)
          -0.1382 ( 96) -0.1382 ( 97) -0.1349 ( 98) -0.1888 ( 99) -0.1349 (100)
          -0.1387 (104) -0.1387 (105)
 CRD  6=   0.3455 ( 29) -0.3204 ( 33)  0.1595 ( 35)  0.2170 ( 36) -0.2878 ( 40)
           0.2056 ( 42)  0.2207 ( 47)  0.1469 ( 51) -0.4350 ( 52)  0.1469 ( 53)
           0.1073 ( 58)  0.1159 ( 60)  0.1159 ( 61) -0.1296 ( 64) -0.1296 ( 66)
 CRD  7=  -0.2223 (  1) -0.2621 (  9)  0.2145 ( 11)  0.2561 ( 14)  0.2228 ( 18)
          -0.2642 ( 23) -0.2120 ( 29) -0.3302 ( 40)  0.1212 ( 42) -0.1213 ( 45)
           0.3486 ( 47) -0.1213 ( 48)  0.2495 ( 52)  0.2091 ( 59) -0.1685 ( 65)
 CRD  8=   0.1025 ( 34)  0.1133 ( 37) -0.1133 ( 38) -0.1025 ( 39)  0.1010 ( 54)
          -0.1010 ( 55)  0.1372 ( 56) -0.1372 ( 57) -0.1648 ( 62)  0.1648 ( 63)
           0.2876 ( 79)  0.1553 ( 83) -0.1276 ( 84) -0.2909 ( 85) -0.1435 ( 86)
          -0.1435 ( 87) -0.3072 ( 88) -0.1276 ( 89) -0.1292 ( 92) -0.1292 ( 93)
           0.1223 ( 98)  0.2534 ( 99)  0.1223 (100) -0.1071 (101) -0.1071 (102)
          -0.1661 (103) -0.1610 (106) -0.1610 (107)  0.1203 (108)  0.1203 (109)
           0.1115 (110)  0.1115 (111) -0.1568 (117) -0.1568 (118)
 CRD  9=   0.1285 (  1) -0.1227 (  7)  0.1028 (  9) -0.1402 ( 11)  0.1077 ( 28)
           0.1840 ( 29)  0.1077 ( 30) -0.1294 ( 33) -0.1559 ( 34)  0.4009 ( 35)
          -0.4551 ( 36)  0.1376 ( 37)  0.1376 ( 38) -0.1559 ( 39) -0.1948 ( 40)
           0.1518 ( 42)  0.1420 ( 49)  0.1420 ( 50) -0.1027 ( 51)  0.2880 ( 52)
          -0.1027 ( 53) -0.1018 ( 58) -0.1040 ( 70)
 CRD 10=  -0.1954 (  4) -0.1664 (  7)  0.1587 (  9)  0.1376 ( 14)  0.1559 ( 18)
           0.2104 ( 23)  0.1029 ( 28)  0.2009 ( 29)  0.1029 ( 30) -0.1312 ( 31)
          -0.1312 ( 32) -0.3883 ( 33) -0.2479 ( 35)  0.3045 ( 40)  0.1317 ( 41)
          -0.1287 ( 42)  0.1317 ( 43)  0.1339 ( 44) -0.1086 ( 45)  0.1339 ( 46)
           0.2521 ( 47) -0.1086 ( 48)  0.1656 ( 52) -0.1757 ( 59)  0.1857 ( 65)
 CRD 11=   0.1697 ( 31) -0.1697 ( 32)  0.1128 ( 34) -0.1128 ( 39)  0.1029 ( 41)
          -0.1029 ( 43)  0.1438 ( 45) -0.1438 ( 48)  0.1249 ( 51) -0.1249 ( 53)
          -0.1417 ( 54)  0.1417 ( 55)  0.1906 ( 56) -0.1906 ( 57) -0.1480 ( 60)
           0.1480 ( 61)  0.1476 ( 62) -0.1476 ( 63) -0.1499 ( 64)  0.1499 ( 66)
          -0.2093 ( 79) -0.2214 ( 83) -0.1105 ( 84) -0.1902 ( 85)  0.1630 ( 88)
          -0.1105 ( 89) -0.1172 ( 91)  0.1267 ( 98)  0.2315 ( 99)  0.1267 (100)
           0.1001 (101)  0.1001 (102)  0.1142 (106)  0.1142 (107)  0.1421 (110)
           0.1421 (111) -0.1054 (112) -0.1051 (113) -0.1054 (114) -0.1151 (117)
          -0.1151 (118)
 CRD 12=  -0.1116 (  5)  0.1116 (  6) -0.1051 ( 41)  0.1051 ( 43) -0.1170 ( 51)
           0.1170 ( 53)  0.1030 ( 54) -0.1030 ( 55)  0.2791 ( 56) -0.2791 ( 57)
           0.3412 ( 62) -0.3412 ( 63) -0.1681 ( 82)  0.1149 ( 90)  0.1569 ( 92)
           0.1569 ( 93)  0.1149 ( 94)  0.1945 ( 95) -0.1341 (101) -0.1341 (102)
          -0.1959 (103) -0.1053 (104) -0.1053 (105) -0.1092 (106) -0.1092 (107)
          -0.1063 (108) -0.1063 (109)
 CRD 13=   0.1223 (  1) -0.1250 (  4) -0.1150 (  9)  0.4712 ( 23) -0.4052 ( 42)
           0.4899 ( 59)  0.2922 ( 62)  0.2922 ( 63) -0.1605 ( 65) -0.1054 ( 72)
          -0.1054 ( 73) -0.2132 ( 74)
 CRD 14=  -0.1475 (  1)  0.1544 (  4) -0.2186 (  7)  0.1370 (  9)  0.1326 ( 11)
          -0.1730 ( 14)  0.5412 ( 18) -0.1110 ( 47) -0.1111 ( 52)  0.3546 ( 58)
           0.1673 ( 60)  0.1673 ( 61) -0.1282 ( 65) -0.1116 ( 76) -0.1941 ( 77)
          -0.1941 ( 78) -0.1064 (135)  0.1064 (138)
 CRD 15=   0.1076 (  2) -0.1076 (  3) -0.1310 ( 28)  0.1310 ( 30) -0.1468 ( 44)
           0.1468 ( 46) -0.1175 ( 49)  0.1175 ( 50)  0.1567 ( 51) -0.1567 ( 53)
           0.2779 ( 56) -0.2779 ( 57) -0.1577 ( 60)  0.1577 ( 61) -0.2278 ( 62)
           0.2278 ( 63)  0.1487 ( 64) -0.1487 ( 66) -0.1847 ( 82)  0.1464 ( 85)
           0.1083 ( 91) -0.1589 ( 95) -0.1185 ( 96) -0.1185 ( 97)  0.1209 (101)
           0.1209 (102) -0.1141 (104) -0.1141 (105)  0.1095 (106)  0.1095 (107)
           0.1136 (110)  0.1136 (111)  0.1465 (117)  0.1465 (118)
 CRD 16=   0.2883 (  1) -0.2212 (  4)  0.1679 (  7) -0.2574 (  9) -0.2275 ( 11)
           0.2116 ( 14)  0.2853 ( 18) -0.1199 ( 47)  0.1027 ( 54)  0.1027 ( 55)
           0.3834 ( 58) -0.1482 ( 62) -0.1482 ( 63) -0.1074 ( 64)  0.2282 ( 65)
          -0.1074 ( 66)  0.1138 ( 74) -0.1434 ( 77) -0.1434 ( 78)
 CRD 17=  -0.2172 (  1)  0.3262 (  9) -0.2374 ( 11)  0.4340 ( 14)  0.1181 ( 42)
           0.1252 ( 54)  0.1252 ( 55) -0.1790 ( 56) -0.1790 ( 57)  0.2765 ( 58)
          -0.1233 ( 59)  0.1319 ( 62)  0.1319 ( 63)  0.1044 ( 64) -0.2677 ( 65)
           0.1044 ( 66) -0.1018 ( 74)  0.1534 ( 76)
 CRD 18=  -0.3405 (  4)  0.3697 (  7)  0.2488 (  9) -0.1584 ( 11) -0.2464 ( 14)
           0.1709 ( 18) -0.1102 ( 28) -0.1102 ( 30)  0.1417 ( 42)  0.1051 ( 44)
           0.1051 ( 46)  0.1877 ( 56)  0.1877 ( 57) -0.2076 ( 58) -0.1460 ( 59)
          -0.2470 ( 65) -0.1664 ( 76)
 CRD 19=  -0.1205 ( 28)  0.1205 ( 30) -0.1564 ( 31)  0.1564 ( 32) -0.1355 ( 44)
           0.1355 ( 46)  0.1475 ( 51) -0.1475 ( 53) -0.2802 ( 56)  0.2802 ( 57)
           0.3214 ( 62) -0.3214 ( 63)  0.1039 ( 64) -0.1039 ( 66) -0.1199 ( 72)
           0.1199 ( 73)  0.1185 ( 77) -0.1185 ( 78)  0.1248 ( 79)  0.1827 ( 83)
          -0.1128 ( 86) -0.1128 ( 87)  0.1146 ( 92)  0.1146 ( 93)  0.1269 (101)
           0.1269 (102)  0.1534 (103)
 CRD 20=   0.3559 (  1) -0.3125 (  4) -0.1035 (  5) -0.1035 (  6) -0.2157 (  7)
           0.1293 (  9)  0.4027 ( 11) -0.1339 ( 18) -0.1153 ( 23)  0.1041 ( 41)
           0.1006 ( 42)  0.1041 ( 43)  0.1009 ( 49)  0.1009 ( 50) -0.1537 ( 56)
          -0.1537 ( 57)  0.1699 ( 58) -0.1093 ( 59) -0.2299 ( 65)  0.1348 ( 76)
           0.1018 (127) -0.1018 (130)
 CRD 21=   0.1045 ( 28) -0.1045 ( 30) -0.2031 ( 34)  0.1376 ( 37) -0.1376 ( 38)
           0.2031 ( 39) -0.1818 ( 41)  0.1818 ( 43) -0.1649 ( 45)  0.1649 ( 48)
          -0.1400 ( 49)  0.1400 ( 50)  0.2405 ( 51) -0.2405 ( 53) -0.2124 ( 60)
           0.2124 ( 61) -0.1617 ( 64)  0.1617 ( 66)  0.1138 ( 80)  0.1138 ( 81)
           0.1348 ( 84) -0.1105 ( 88)  0.1348 ( 89)  0.1055 ( 90)  0.1055 ( 94)
          -0.1436 ( 98) -0.1436 (100)  0.1730 (101)  0.1730 (102)  0.1537 (103)
           0.1128 (110)  0.1128 (111) -0.1435 (117) -0.1435 (118)
 CRD 22=   0.3666 (  1)  0.1318 (  2)  0.1318 (  3)  0.2202 (  4) -0.3280 (  7)
          -0.3044 ( 11) -0.1403 ( 12) -0.1403 ( 13)  0.1776 ( 14) -0.1258 ( 23)
          -0.1144 ( 27)  0.1017 ( 31)  0.1017 ( 32) -0.1284 ( 35)  0.1272 ( 36)
           0.1498 ( 56)  0.1498 ( 57) -0.1949 ( 58) -0.2145 ( 65) -0.1010 ( 67)
           0.1055 ( 70) -0.1306 ( 76)
 CRD 23=  -0.1386 (  5)  0.1386 (  6) -0.1039 (  8)  0.1039 ( 10)  0.1036 ( 17)
          -0.1036 ( 19) -0.1143 ( 34)  0.2138 ( 37) -0.2138 ( 38)  0.1143 ( 39)
          -0.1100 ( 41)  0.1100 ( 43)  0.2547 ( 45) -0.2547 ( 48) -0.1992 ( 49)
           0.1992 ( 50) -0.2247 ( 54)  0.2247 ( 55) -0.1405 ( 56)  0.1405 ( 57)
          -0.1273 ( 62)  0.1273 ( 63) -0.1087 ( 79) -0.1273 ( 82) -0.1099 ( 83)
          -0.1411 ( 86) -0.1411 ( 87)  0.1879 ( 98)  0.1373 ( 99)  0.1879 (100)
          -0.1283 (104) -0.1283 (105)  0.1180 (106)  0.1180 (107)
 CRD 24=  -0.2853 ( 28)  0.2853 ( 30) -0.2088 ( 34) -0.1661 ( 37)  0.1661 ( 38)
           0.2088 ( 39) -0.2387 ( 41)  0.2387 ( 43) -0.2763 ( 44)  0.2763 ( 46)
           0.1955 ( 49) -0.1955 ( 50) -0.1864 ( 80) -0.1864 ( 81)  0.1169 ( 84)
           0.1169 ( 89)  0.1646 ( 90)  0.1646 ( 94) -0.1636 ( 96) -0.1636 ( 97)
           0.1316 (104)  0.1316 (105)
 CRD 25=   0.1186 (  5) -0.1186 (  6)  0.1278 (  8) -0.1278 ( 10)  0.1434 ( 15)
          -0.1434 ( 16) -0.1420 ( 25)  0.1420 ( 26) -0.1788 ( 54)  0.1788 ( 55)
           0.2417 ( 56) -0.2417 ( 57)  0.1649 ( 60) -0.1649 ( 61)  0.1857 ( 62)
          -0.1857 ( 63) -0.1024 ( 64)  0.1024 ( 66) -0.1319 ( 77)  0.1319 ( 78)
           0.1436 ( 79)  0.1070 ( 80)  0.1070 ( 81)  0.1065 ( 82)  0.1009 ( 83)
          -0.1135 ( 95) -0.1409 ( 96) -0.1409 ( 97) -0.1567 ( 99)  0.1687 (106)
           0.1687 (107) -0.1684 (110) -0.1684 (111) -0.1370 (117) -0.1370 (118)
 CRD 26=  -0.1677 (  1) -0.1354 (  2) -0.1354 (  3) -0.3464 (  4) -0.1554 (  5)
          -0.1554 (  6) -0.2501 (  7)  0.2997 ( 14)  0.1270 ( 17)  0.1270 ( 19)
           0.1074 ( 23)  0.1553 ( 27)  0.2023 ( 33)  0.1881 ( 35)  0.1170 ( 51)
          -0.1775 ( 52)  0.1170 ( 53)  0.1545 ( 56)  0.1545 ( 57) -0.2160 ( 58)
           0.1845 ( 65)  0.1129 ( 67)  0.1266 ( 68) -0.1061 ( 75) -0.1399 ( 76)
 CRD 27=  -0.1452 (  4) -0.1206 (  5) -0.1206 (  6) -0.2409 (  7) -0.2996 ( 11)
          -0.1660 ( 12) -0.1660 ( 13) -0.2764 ( 14) -0.1791 ( 15) -0.1791 ( 16)
          -0.1288 ( 17) -0.1288 ( 19)  0.1527 ( 27)  0.1758 ( 33)  0.2385 ( 36)
           0.2423 ( 47) -0.1100 ( 51)  0.1924 ( 52) -0.1100 ( 53) -0.1155 ( 56)
          -0.1155 ( 57)  0.1626 ( 58)  0.1328 ( 65)  0.1001 ( 68)  0.1370 ( 70)
           0.1444 ( 71)  0.1080 ( 75)  0.1094 ( 76)
 CRD 28=  -0.1701 (  1) -0.1093 (  2) -0.1093 (  3) -0.1146 (  4) -0.1720 (  8)
          -0.2762 (  9) -0.1720 ( 10) -0.1660 ( 23) -0.4798 ( 27)  0.2521 ( 29)
          -0.1083 ( 31) -0.1083 ( 32)  0.1581 ( 35)  0.2697 ( 40) -0.2444 ( 42)
          -0.3225 ( 65)  0.1529 ( 69)  0.1349 ( 72)  0.1349 ( 73)
 CRD 29=   0.3060 ( 31) -0.3060 ( 32) -0.2203 ( 64)  0.2203 ( 66)  0.2314 ( 91)
           0.1905 ( 92)  0.1905 ( 93)  0.2706 (108)  0.2706 (109)  0.2542 (112)
           0.2477 (113)  0.2542 (114)  0.2068 (115)  0.2068 (116)
 CRD 30=  -0.2147 (  2)  0.2147 (  3) -0.1145 (  5)  0.1145 (  6) -0.1458 (  8)
           0.1458 ( 10) -0.2549 ( 12)  0.2549 ( 13) -0.2574 ( 17)  0.2574 ( 19)
           0.1243 ( 31) -0.1243 ( 32) -0.1252 ( 79) -0.1332 ( 86) -0.1332 ( 87)
          -0.1122 ( 88)  0.1046 ( 90)  0.1426 ( 91)  0.1509 ( 92)  0.1509 ( 93)
           0.1046 ( 94)  0.1252 ( 95)  0.1094 (101)  0.1094 (102)  0.1325 (103)
           0.1298 (104)  0.1298 (105) -0.1413 (110) -0.1413 (111)  0.1044 (113)
           0.1126 (115)  0.1126 (116)
 CRD 31=  -0.3095 (  2)  0.3095 (  3)  0.2288 (  5) -0.2288 (  6) -0.1033 (  8)
           0.1033 ( 10)  0.2797 ( 15) -0.2797 ( 16)  0.2804 ( 17) -0.2804 ( 19)
          -0.1072 ( 84) -0.1072 ( 89)  0.1156 ( 90)  0.1156 ( 94) -0.1057 (103)
           0.1138 (106)  0.1138 (107)  0.1057 (110)  0.1057 (111)
 CRD 32=  -0.4769 ( 20) -0.4769 ( 21) -0.5042 ( 22) -0.1263 ( 23) -0.1240 ( 27)
          -0.1043 ( 59)  0.2122 ( 62)  0.2122 ( 63)  0.1583 ( 65) -0.1801 ( 72)
          -0.1801 ( 73) -0.2226 ( 74)
 CRD 33=  -0.1817 ( 18) -0.4902 ( 24) -0.5104 ( 25) -0.5104 ( 26)  0.1711 ( 56)
           0.1711 ( 57)  0.1868 ( 58) -0.1684 ( 76) -0.1803 ( 77) -0.1803 ( 78)
 CRD 34=  -0.2216 (  2)  0.2216 (  3)  0.3104 (  5) -0.3104 (  6)  0.3354 ( 12)
          -0.3354 ( 13) -0.2998 ( 15)  0.2998 ( 16) -0.1952 ( 17)  0.1952 ( 19)
 CRD 35=   0.1825 (  8) -0.1825 ( 10) -0.1451 ( 20)  0.1451 ( 21)  0.1033 ( 28)
          -0.1033 ( 30) -0.1055 ( 34)  0.1055 ( 39) -0.1118 ( 41)  0.1118 ( 43)
           0.1066 ( 44) -0.1066 ( 46)  0.1011 ( 49) -0.1011 ( 50)  0.1970 ( 72)
          -0.1970 ( 73)  0.2176 ( 92)  0.2176 ( 93) -0.1303 (108) -0.1303 (109)
          -0.1014 (112) -0.1014 (114)  0.1887 (115)  0.1887 (116) -0.1099 (117)
          -0.1099 (118) -0.1095 (119) -0.1095 (120) -0.1377 (121) -0.1377 (122)
          -0.1095 (123) -0.1377 (124) -0.1377 (125) -0.1095 (126) -0.1304 (127)
          -0.1304 (128) -0.1304 (129) -0.1304 (130) -0.1140 (131) -0.1140 (132)
          -0.1140 (133) -0.1140 (134)
 CRD 36=  -0.2907 ( 20) -0.2907 ( 21)  0.6064 ( 22)  0.2027 ( 72)  0.2027 ( 73)
          -0.4081 ( 74)  0.2246 ( 92) -0.2246 ( 93)  0.2246 (115) -0.2246 (116)
 CRD 37=   0.4897 ( 20) -0.4897 ( 21) -0.3038 ( 72)  0.3038 ( 73)  0.2823 ( 91)
           0.2862 (113)
 CRD 38=  -0.1001 (  5)  0.1001 (  6)  0.3192 (  8) -0.3192 ( 10)  0.1376 ( 20)
          -0.1376 ( 21) -0.1019 ( 45)  0.1019 ( 48)  0.1033 ( 54) -0.1033 ( 55)
           0.1006 ( 60) -0.1006 ( 61)  0.1576 ( 91)  0.1570 ( 92)  0.1570 ( 93)
          -0.1704 (108) -0.1704 (109) -0.1455 (112)  0.1328 (113) -0.1455 (114)
           0.1321 (115)  0.1321 (116)  0.1438 (131)  0.1438 (132)  0.1438 (133)
           0.1438 (134)  0.1426 (135)  0.1426 (136)  0.1426 (137)  0.1426 (138)
 CRD 39=  -0.6114 (  8) -0.6114 ( 10)  0.1109 ( 31)  0.1109 ( 32) -0.2642 ( 69)
           0.1287 (108) -0.1287 (109)  0.1287 (112) -0.1287 (114)  0.1008 (119)
          -0.1008 (123)
 CRD 40=   0.2585 ( 17)  0.2585 ( 19) -0.6031 ( 24)  0.2687 ( 25)  0.2687 ( 26)
           0.3182 ( 76) -0.1503 ( 77) -0.1503 ( 78) -0.1599 (101)  0.1599 (102)
           0.1896 (140) -0.1303 (141)  0.1303 (143) -0.1896 (144)
 CRD 41=   0.5486 ( 25) -0.5486 ( 26) -0.2978 ( 77)  0.2978 ( 78)  0.2265 (103)
           0.2197 (139)  0.2197 (142)
 CRD 42=  -0.2189 (  2) -0.2189 (  3)  0.3506 (  5)  0.3506 (  6) -0.3747 ( 12)
          -0.3747 ( 13)  0.2909 ( 15)  0.2909 ( 16) -0.1192 ( 17) -0.1192 ( 19)
           0.1105 ( 68) -0.1180 ( 70)  0.1073 (127) -0.1073 (130)
 CRD 43=   0.3336 (  2)  0.3336 (  3) -0.2825 (  5) -0.2825 (  6)  0.3481 ( 15)
           0.3481 ( 16) -0.2519 ( 17) -0.2519 ( 19) -0.1374 ( 24)  0.1173 ( 67)
           0.1209 ( 71) -0.1035 (122)  0.1035 (124)
 CRD 44=  -0.3431 (  2) -0.3431 (  3)  0.3514 ( 12)  0.3514 ( 13) -0.3361 ( 17)
          -0.3361 ( 19) -0.1381 ( 24)  0.1076 ( 25)  0.1076 ( 26) -0.1355 ( 67)
           0.1370 ( 70) -0.1259 ( 75)
 CRD 45=   0.2809 (  2)  0.2809 (  3)  0.3108 (  5)  0.3108 (  6) -0.2795 ( 15)
          -0.2795 ( 16) -0.3091 ( 17) -0.3091 ( 19) -0.1032 ( 24)  0.1242 ( 67)
           0.1356 ( 68) -0.1217 ( 71) -0.1318 ( 75)
 CRD 46=   0.1603 (  2)  0.1603 (  3)  0.2857 (  5)  0.2857 (  6)  0.3353 ( 12)
           0.3353 ( 13)  0.2999 ( 15)  0.2999 ( 16)  0.1811 ( 17)  0.1811 ( 19)
           0.1360 ( 68)  0.1596 ( 70)  0.1426 ( 71)  0.1096 (128) -0.1096 (129)
           0.1121 (131) -0.1121 (134)
 CRD 47=   0.2461 (  8) -0.2461 ( 10)  0.1430 ( 12) -0.1430 ( 13) -0.1001 ( 44)
           0.1001 ( 46) -0.1115 ( 60)  0.1115 ( 61)  0.1117 ( 90)  0.1117 ( 94)
           0.1035 ( 96)  0.1035 ( 97)  0.1249 (119)  0.1249 (120)  0.1804 (121)
           0.1804 (122)  0.1249 (123)  0.1804 (124)  0.1804 (125)  0.1249 (126)
           0.1050 (127)  0.1050 (128)  0.1050 (129)  0.1050 (130) -0.1778 (135)
          -0.1778 (136) -0.1778 (137) -0.1778 (138) -0.1098 (139) -0.1300 (140)
          -0.1300 (141) -0.1098 (142) -0.1300 (143) -0.1300 (144)
 CRD 48=   0.1091 (  2) -0.1091 (  3) -0.1363 (  5)  0.1363 (  6) -0.1999 (  8)
           0.1999 ( 10) -0.1583 ( 15)  0.1583 ( 16) -0.1361 ( 84)  0.1017 ( 86)
           0.1017 ( 87) -0.1361 ( 89) -0.1022 (101) -0.1022 (102)  0.1124 (104)
           0.1124 (105) -0.1093 (117) -0.1093 (118) -0.2038 (119) -0.2038 (120)
          -0.2038 (123) -0.2038 (126)  0.1556 (127)  0.1556 (128)  0.1556 (129)
           0.1556 (130)  0.1353 (131)  0.1353 (132)  0.1353 (133)  0.1353 (134)
          -0.1114 (135) -0.1114 (136) -0.1114 (137) -0.1114 (138) -0.1337 (139)
          -0.1492 (140) -0.1492 (141) -0.1337 (142) -0.1492 (143) -0.1492 (144)
 CRD 49=  -0.2408 (  2)  0.2408 (  3) -0.3224 (  5)  0.3224 (  6)  0.2916 ( 12)
          -0.2916 ( 13)  0.2140 ( 15) -0.2140 ( 16) -0.1411 ( 17)  0.1411 ( 19)
          -0.1445 (121) -0.1445 (122) -0.1445 (124) -0.1445 (125)  0.1457 (127)
           0.1457 (128)  0.1457 (129)  0.1457 (130)
 CRD 50=   0.2582 (  2) -0.2582 (  3) -0.1663 (  8)  0.1663 ( 10)  0.2036 ( 12)
          -0.2036 ( 13)  0.2261 ( 15) -0.2261 ( 16) -0.1028 ( 84) -0.1273 ( 86)
          -0.1273 ( 87) -0.1028 ( 89)  0.1187 ( 96)  0.1187 ( 97) -0.1184 (106)
          -0.1184 (107) -0.1145 (117) -0.1145 (118) -0.1660 (119) -0.1660 (120)
           0.1445 (121)  0.1445 (122) -0.1660 (123)  0.1445 (124)  0.1445 (125)
          -0.1660 (126) -0.1847 (131) -0.1847 (132) -0.1847 (133) -0.1847 (134)
 CRD 51=   0.1340 (  5) -0.1340 (  6)  0.1583 ( 15) -0.1583 ( 16) -0.3366 ( 17)
           0.3366 ( 19)  0.1202 ( 98)  0.1202 (100) -0.1466 (101) -0.1466 (102)
          -0.1621 (103)  0.1049 (110)  0.1049 (111) -0.1027 (127) -0.1027 (128)
          -0.1027 (129) -0.1027 (130)  0.1450 (135)  0.1450 (136)  0.1450 (137)
           0.1450 (138) -0.2479 (139) -0.2324 (140) -0.2324 (141) -0.2479 (142)
          -0.2324 (143) -0.2324 (144)
 CRD 52=  -0.1294 (  1) -0.2541 (  9)  0.2605 ( 20)  0.2605 ( 21)  0.1183 ( 22)
           0.2372 ( 23) -0.1984 ( 27)  0.1598 ( 31)  0.1598 ( 32)  0.3735 ( 42)
          -0.3681 ( 59)  0.1926 ( 62)  0.1926 ( 63) -0.1213 ( 64)  0.1024 ( 65)
          -0.1213 ( 66) -0.1310 ( 72) -0.1310 ( 73) -0.2256 ( 74) -0.1390 (119)
           0.1390 (123)
 CRD 53=   0.2088 ( 24)  0.1128 ( 25)  0.1128 ( 26)  0.1232 ( 28)  0.1232 ( 30)
           0.1464 ( 37)  0.1464 ( 38) -0.1120 ( 44)  0.1531 ( 45) -0.1120 ( 46)
           0.1531 ( 48) -0.1408 ( 49) -0.1408 ( 50)  0.1323 ( 51)  0.1323 ( 53)
          -0.1491 ( 54) -0.1491 ( 55)  0.1305 ( 56)  0.1305 ( 57)  0.1688 ( 58)
          -0.1692 ( 60) -0.1692 ( 61) -0.1702 ( 77) -0.1702 ( 78) -0.1107 ( 98)
           0.1107 (100)  0.1207 (122) -0.1207 (124) -0.1604 (127)  0.1604 (130)
          -0.1788 (132)  0.1788 (133) -0.2051 (136)  0.2051 (137)
 CRD 54=   0.2507 (  9)  0.2947 ( 22) -0.7035 ( 27) -0.2088 ( 40)  0.1793 ( 59)
           0.1284 ( 64)  0.1958 ( 65)  0.1284 ( 66) -0.1216 ( 69) -0.1635 ( 72)
          -0.1635 ( 73)  0.1116 (119) -0.1116 (123)
 CRD 55=   0.2286 (  9) -0.1335 ( 11) -0.1128 ( 14) -0.1934 ( 18)  0.2064 ( 24)
           0.1520 ( 25)  0.1520 ( 26) -0.1841 ( 27) -0.1324 ( 28) -0.1324 ( 30)
           0.1199 ( 34)  0.1199 ( 39) -0.1410 ( 41) -0.1410 ( 43)  0.1410 ( 44)
           0.1410 ( 46)  0.1710 ( 56)  0.1710 ( 57)  0.1901 ( 58) -0.1059 ( 60)
          -0.1059 ( 61)  0.1009 ( 74) -0.1477 ( 76) -0.1921 ( 77) -0.1921 ( 78)
          -0.1692 (122)  0.1692 (124)  0.1366 (127) -0.1366 (130)
 CRD 56=   0.1550 (  4)  0.1604 (  7) -0.2059 (  9) -0.1160 ( 14) -0.2734 ( 18)
           0.1309 ( 20)  0.1309 ( 21) -0.2554 ( 23)  0.1348 ( 25)  0.1348 ( 26)
           0.1300 ( 27) -0.1214 ( 31) -0.1214 ( 32) -0.1125 ( 34) -0.1161 ( 37)
          -0.1161 ( 38) -0.1125 ( 39)  0.1016 ( 41)  0.1016 ( 43) -0.1099 ( 45)
          -0.1099 ( 48)  0.1326 ( 54)  0.1326 ( 55)  0.1324 ( 56)  0.1324 ( 57)
           0.1250 ( 58)  0.1300 ( 62)  0.1300 ( 63)  0.1159 ( 64)  0.1044 ( 65)
           0.1159 ( 66) -0.1074 ( 72) -0.1074 ( 73) -0.1496 ( 74) -0.1567 ( 76)
          -0.1166 ( 77) -0.1166 ( 78)  0.1077 (119) -0.1077 (123)  0.1455 (132)
          -0.1455 (133)
 CRD 57=   0.2039 (  1) -0.1388 (  7) -0.1583 ( 11)  0.2543 ( 18)  0.1377 ( 20)
           0.1377 ( 21)  0.1281 ( 22) -0.4717 ( 23) -0.1124 ( 25) -0.1124 ( 26)
           0.1616 ( 27) -0.1009 ( 28) -0.1009 ( 30)  0.1070 ( 44)  0.1006 ( 45)
           0.1070 ( 46)  0.1006 ( 48)  0.1571 ( 62)  0.1571 ( 63)  0.1446 ( 65)
          -0.1509 ( 72) -0.1509 ( 73) -0.1570 ( 74)  0.1462 ( 76) -0.1071 (141)
           0.1071 (143)
 CRD 58=   0.1892 (  8) -0.1892 ( 10)  0.2927 ( 20) -0.2927 ( 21)  0.2120 ( 72)
          -0.2120 ( 73)  0.1923 ( 83) -0.1829 ( 91)  0.1018 ( 92)  0.1018 ( 93)
           0.3212 (112) -0.4249 (113)  0.3212 (114) -0.1403 (115) -0.1403 (116)
          -0.1034 (119) -0.1034 (120) -0.1034 (123) -0.1034 (126)
 CRD 59=  -0.2209 (  4)  0.2192 (  9)  0.1891 ( 11)  0.1702 ( 14) -0.2365 ( 18)
          -0.3461 ( 23) -0.1089 ( 24)  0.1270 ( 25)  0.1270 ( 26)  0.1066 ( 27)
           0.1074 ( 34)  0.1005 ( 37)  0.1005 ( 38)  0.1074 ( 39) -0.1605 ( 42)
          -0.1212 ( 49) -0.1212 ( 50) -0.1314 ( 51) -0.1314 ( 53) -0.1111 ( 64)
          -0.1111 ( 66) -0.1807 ( 76) -0.1098 (119)  0.1098 (123) -0.1118 (127)
           0.1118 (130)  0.1049 (139)  0.1823 (141) -0.1049 (142) -0.1823 (143)
 CRD 60=  -0.1728 (  2)  0.1728 (  3) -0.1242 (  5)  0.1242 (  6)  0.1113 (  8)
          -0.1113 ( 10) -0.1764 ( 15)  0.1764 ( 16)  0.2446 ( 17) -0.2446 ( 19)
          -0.1724 ( 25)  0.1724 ( 26) -0.1349 ( 77)  0.1349 ( 78)  0.1269 (103)
          -0.1201 (119) -0.1201 (120)  0.1264 (121)  0.1264 (122) -0.1201 (123)
           0.1264 (124)  0.1264 (125) -0.1201 (126)  0.1815 (135)  0.1815 (136)
           0.1815 (137)  0.1815 (138) -0.1710 (140) -0.1710 (141) -0.1710 (143)
          -0.1710 (144)
 CRD 61=  -0.1861 (  2)  0.1861 (  3) -0.1873 (  5)  0.1873 (  6)  0.1319 (  8)
          -0.1319 ( 10)  0.1660 ( 12) -0.1660 ( 13)  0.1481 ( 15) -0.1481 ( 16)
          -0.1261 ( 17)  0.1261 ( 19) -0.1396 (119) -0.1396 (120)  0.1705 (121)
           0.1705 (122) -0.1396 (123)  0.1705 (124)  0.1705 (125) -0.1396 (126)
          -0.1653 (127) -0.1653 (128) -0.1653 (129) -0.1653 (130)  0.1481 (131)
           0.1481 (132)  0.1481 (133)  0.1481 (134) -0.1264 (135) -0.1264 (136)
          -0.1264 (137) -0.1264 (138)
 CRD 62=  -0.1182 (  5)  0.1182 (  6) -0.1652 (  8)  0.1652 ( 10)  0.2196 ( 12)
          -0.2196 ( 13)  0.1213 ( 17) -0.1213 ( 19)  0.2016 ( 20) -0.2016 ( 21)
          -0.1683 ( 25)  0.1683 ( 26)  0.1468 ( 72) -0.1468 ( 73) -0.1329 ( 77)
           0.1329 ( 78)  0.1222 ( 82) -0.1406 ( 85) -0.1070 ( 88) -0.1114 ( 91)
           0.1172 ( 92)  0.1172 ( 93)  0.1877 (103) -0.1205 (113)  0.1080 (115)
           0.1080 (116) -0.1344 (127) -0.1344 (128) -0.1344 (129) -0.1344 (130)
           0.1210 (131)  0.1210 (132)  0.1210 (133)  0.1210 (134) -0.1016 (140)
          -0.1016 (141) -0.1016 (143) -0.1016 (144)
 CRD 63=  -0.1765 (  1) -0.1436 (  4)  0.1874 (  7)  0.2057 (  9)  0.1224 ( 11)
          -0.2663 ( 14) -0.1820 ( 23)  0.2374 ( 24) -0.1214 ( 25) -0.1214 ( 26)
           0.1098 ( 31)  0.1098 ( 32) -0.1304 ( 42) -0.1134 ( 44) -0.1041 ( 45)
          -0.1134 ( 46) -0.1041 ( 48)  0.1101 ( 51)  0.1101 ( 53) -0.1269 ( 64)
          -0.1269 ( 66) -0.1697 ( 75)  0.1895 ( 76) -0.1268 (101)  0.1268 (102)
           0.1264 (136) -0.1264 (137) -0.1074 (139) -0.2342 (141)  0.1074 (142)
           0.2342 (143)
 CRD 64=   0.1244 (  2)  0.1244 (  3) -0.1102 (  5) -0.1102 (  6) -0.1262 (  8)
          -0.1262 ( 10) -0.1167 ( 20) -0.1167 ( 21)  0.2000 ( 22)  0.1001 ( 42)
          -0.1014 ( 59) -0.1125 ( 65) -0.2176 ( 67)  0.1926 ( 68)  0.2060 ( 69)
          -0.1642 ( 70)  0.1180 ( 71)  0.1671 ( 74) -0.1245 ( 92)  0.1245 ( 93)
          -0.1265 (108)  0.1265 (109) -0.1265 (112)  0.1265 (114) -0.1245 (115)
           0.1245 (116)  0.1125 (117) -0.1125 (118) -0.1924 (119)  0.1749 (122)
           0.1924 (123) -0.1749 (124)  0.1590 (127) -0.1590 (130) -0.1412 (132)
           0.1412 (133)
 CRD 65=   0.1489 (  7) -0.1030 ( 12) -0.1030 ( 13) -0.1094 ( 14)  0.1147 ( 15)
           0.1147 ( 16)  0.1753 ( 18) -0.1499 ( 20) -0.1499 ( 21)  0.3043 ( 22)
           0.1173 ( 40) -0.1331 ( 59) -0.1566 ( 65)  0.1771 ( 70) -0.1961 ( 71)
          -0.1121 ( 72) -0.1121 ( 73)  0.2187 ( 74)  0.1146 ( 75) -0.1836 ( 92)
           0.1836 ( 93) -0.1054 (106)  0.1054 (107) -0.1836 (115)  0.1836 (116)
          -0.1142 (127)  0.1142 (130)  0.1949 (132) -0.1949 (133) -0.1652 (136)
           0.1652 (137)
 CRD 66=   0.2588 (  1)  0.1025 (  5)  0.1025 (  6) -0.2143 (  7) -0.2103 (  9)
           0.2326 ( 11) -0.1797 ( 18)  0.1488 ( 22)  0.1635 ( 24) -0.1223 ( 59)
          -0.1121 ( 65)  0.1387 ( 67) -0.1733 ( 68)  0.1320 ( 74) -0.1425 ( 75)
          -0.1017 ( 92)  0.1017 ( 93) -0.1017 (115)  0.1017 (116) -0.1881 (122)
           0.1881 (124) -0.1310 (127)  0.1310 (130)  0.1453 (136) -0.1453 (137)
          -0.1163 (141)  0.1163 (143)
 CRD 67=  -0.2157 (  1)  0.2280 (  4)  0.1152 (  8)  0.1152 ( 10) -0.1309 ( 11)
           0.1508 ( 14)  0.2079 ( 22)  0.1366 ( 27)  0.1169 ( 31)  0.1169 ( 32)
          -0.1024 ( 34) -0.1024 ( 39)  0.1943 ( 40) -0.1043 ( 42) -0.1102 ( 65)
           0.1518 ( 67) -0.1807 ( 69) -0.1415 ( 70)  0.1227 ( 71)  0.1321 ( 74)
          -0.1258 ( 92)  0.1258 ( 93)  0.1468 (108) -0.1468 (109)  0.1468 (112)
          -0.1468 (114) -0.1258 (115)  0.1258 (116) -0.1218 (117)  0.1218 (118)
           0.1609 (119) -0.1609 (123)  0.1067 (127) -0.1067 (130) -0.1285 (132)
           0.1285 (133)
 CRD 68=   0.1630 (  5) -0.1630 (  6)  0.1472 (  8) -0.1472 ( 10)  0.1724 ( 15)
          -0.1724 ( 16) -0.1496 ( 20)  0.1496 ( 21) -0.2033 ( 25)  0.2033 ( 26)
          -0.1084 ( 72)  0.1084 ( 73) -0.1587 ( 77)  0.1587 ( 78) -0.1629 ( 79)
          -0.1464 ( 88)  0.1255 ( 91)  0.1639 ( 95)  0.1144 ( 99)  0.2127 (103)
          -0.1563 (115) -0.1563 (116)  0.1033 (117)  0.1033 (118)  0.1772 (139)
           0.1772 (142)
 CRD 69=   0.2419 (  1) -0.1850 (  4) -0.1676 (  9) -0.1856 ( 14)  0.2330 ( 18)
          -0.1617 ( 24)  0.1011 ( 28)  0.1011 ( 30)  0.1065 ( 34)  0.1065 ( 39)
          -0.1310 ( 41) -0.1310 ( 43) -0.1003 ( 45) -0.1003 ( 48)  0.1147 ( 51)
           0.1147 ( 53) -0.1361 ( 60) -0.1361 ( 61) -0.1158 ( 70)  0.1160 ( 96)
          -0.1160 ( 97) -0.1153 ( 98)  0.1153 (100) -0.1090 (120) -0.1948 (121)
           0.1948 (125)  0.1090 (126) -0.1094 (128)  0.1094 (129)  0.2069 (135)
          -0.2069 (138) -0.1292 (140)  0.1292 (144)
 CRD 70=  -0.1975 (  4)  0.1038 (  5)  0.1038 (  6)  0.1584 (  7)  0.1138 (  9)
          -0.1226 ( 11)  0.1350 ( 14) -0.1187 ( 24) -0.1389 ( 37) -0.1389 ( 38)
           0.1276 ( 49)  0.1276 ( 50) -0.1032 ( 54) -0.1032 ( 55) -0.1751 ( 68)
           0.1440 ( 69)  0.1669 ( 71) -0.1057 ( 76) -0.1446 ( 86)  0.1446 ( 87)
           0.1418 (104) -0.1418 (105) -0.1031 (106)  0.1031 (107) -0.2020 (128)
           0.2020 (129)  0.2476 (131) -0.2476 (134) -0.1443 (140)  0.1443 (144)
 CRD 71=   0.1426 (  1) -0.1736 (  4)  0.2666 (  7) -0.1517 (  9) -0.2814 ( 11)
           0.1913 ( 14) -0.1359 ( 18)  0.1464 ( 24)  0.1063 ( 34)  0.1063 ( 39)
          -0.1062 ( 41) -0.1062 ( 43) -0.1153 ( 44)  0.1082 ( 45) -0.1153 ( 46)
           0.1082 ( 48) -0.1126 ( 51) -0.1126 ( 53)  0.1044 ( 60)  0.1044 ( 61)
          -0.1122 ( 90)  0.1122 ( 94) -0.1081 (110)  0.1081 (111) -0.1402 (120)
          -0.1903 (121)  0.1903 (125)  0.1402 (126) -0.1680 (135)  0.1680 (138)
           0.1661 (140) -0.1661 (144)
 CRD 72=  -0.1315 (  7) -0.1014 (  8)  0.1504 (  9) -0.1014 ( 10) -0.1070 ( 11)
           0.1152 ( 12)  0.1152 ( 13) -0.1071 ( 17) -0.1071 ( 19)  0.1270 ( 24)
          -0.1347 ( 29)  0.1306 ( 36) -0.1271 ( 52) -0.1224 ( 58)  0.1354 ( 67)
           0.1618 ( 69) -0.1898 ( 70)  0.1767 ( 75)  0.1116 ( 76) -0.1120 ( 80)
           0.1120 ( 81)  0.1157 ( 84) -0.1157 ( 89)  0.1023 (106) -0.1023 (107)
          -0.1007 (117)  0.1007 (118)  0.2164 (120) -0.2164 (126) -0.1824 (128)
           0.1824 (129) -0.1358 (131)  0.1358 (134)  0.1198 (139)  0.2184 (140)
          -0.1198 (142) -0.2184 (144)
 CRD 73=  -0.1573 (  2)  0.1573 (  3) -0.1511 ( 12)  0.1511 ( 13) -0.1223 ( 17)
           0.1223 ( 19) -0.1685 ( 25)  0.1685 ( 26) -0.1178 ( 56)  0.1178 ( 57)
          -0.1159 ( 60)  0.1159 ( 61) -0.1297 ( 77)  0.1297 ( 78)  0.1670 ( 79)
          -0.1520 ( 82)  0.1248 ( 84)  0.1204 ( 86)  0.1204 ( 87)  0.1248 ( 89)
          -0.1181 ( 90) -0.1416 ( 91) -0.1181 ( 94) -0.1363 ( 95)  0.1986 ( 99)
          -0.1295 (101) -0.1295 (102)  0.1016 (103) -0.1080 (104) -0.1080 (105)
           0.1565 (115)  0.1565 (116)  0.2194 (139)  0.2194 (142)
 CRD 74=  -0.1393 (  1)  0.1139 (  2)  0.1139 (  3) -0.1634 (  4)  0.1782 ( 14)
          -0.1111 ( 17)  0.1111 ( 18) -0.1111 ( 19)  0.1184 ( 29)  0.1087 ( 33)
           0.1662 ( 35) -0.1336 ( 47) -0.1620 ( 52) -0.1852 ( 67) -0.1228 ( 68)
          -0.1158 ( 69)  0.1511 ( 71)  0.1806 ( 75) -0.1082 ( 96)  0.1082 ( 97)
          -0.1082 ( 98)  0.1082 (100)  0.1128 (117) -0.1128 (118) -0.2002 (120)
           0.1922 (121) -0.1922 (125)  0.2002 (126)  0.1113 (131) -0.1113 (134)
           0.2060 (135) -0.2060 (138)  0.1074 (139)  0.1755 (140) -0.1074 (142)
          -0.1755 (144)
 CRD 75=   0.1587 (  4) -0.1027 (  5) -0.1027 (  6)  0.1844 (  7)  0.1797 ( 11)
          -0.1098 ( 12) -0.1098 ( 13)  0.1475 ( 14) -0.1693 ( 33) -0.1289 ( 35)
          -0.1817 ( 36) -0.1610 ( 47) -0.1140 ( 52)  0.1253 ( 67)  0.1656 ( 68)
           0.1770 ( 70)  0.1575 ( 71)  0.1108 ( 75)  0.1095 ( 80) -0.1095 ( 81)
          -0.1011 ( 86)  0.1011 ( 87) -0.1051 (104)  0.1051 (105) -0.1087 (106)
           0.1087 (107)  0.1192 (120) -0.1811 (121)  0.1811 (125) -0.1192 (126)
           0.2146 (128) -0.2146 (129)  0.2097 (131) -0.2097 (134)  0.1665 (135)
          -0.1665 (138)
 CRD 76=  -0.1018 (  2)  0.1018 (  3)  0.1403 (  5) -0.1403 (  6)  0.1452 ( 17)
          -0.1452 ( 19) -0.1049 ( 28)  0.1049 ( 30)  0.1059 ( 51) -0.1059 ( 53)
           0.1046 ( 60) -0.1046 ( 61)  0.1240 ( 79) -0.1489 ( 80) -0.1489 ( 81)
          -0.1148 ( 82) -0.1129 ( 83)  0.1581 ( 85) -0.1690 ( 88) -0.1226 ( 90)
          -0.1831 ( 91) -0.1226 ( 94)  0.1570 ( 96)  0.1570 ( 97)  0.1168 ( 98)
           0.1168 (100)  0.1738 (101)  0.1738 (102)  0.1388 (108)  0.1388 (109)
          -0.1739 (110) -0.1739 (111)  0.1650 (115)  0.1650 (116) -0.1634 (139)
          -0.1634 (142)
 CRD 77=   0.1212 (  8) -0.1212 ( 10) -0.1224 ( 15)  0.1224 ( 16)  0.1096 ( 64)
          -0.1096 ( 66) -0.2611 ( 83) -0.1391 ( 86) -0.1391 ( 87) -0.2308 ( 91)
          -0.1256 ( 92) -0.1256 ( 93)  0.1214 ( 95) -0.1661 ( 98) -0.1661 (100)
          -0.1293 (101) -0.1293 (102)  0.1251 (104)  0.1251 (105)  0.1662 (106)
           0.1662 (107)  0.2059 (108)  0.2059 (109)  0.1411 (110)  0.1411 (111)
           0.1778 (115)  0.1778 (116)  0.1591 (117)  0.1591 (118)
 CRD 78=   0.1125 (  2) -0.1125 (  3) -0.1216 (  5)  0.1216 (  6) -0.1130 ( 12)
           0.1130 ( 13)  0.1017 ( 28) -0.1017 ( 30)  0.1001 ( 34) -0.1001 ( 37)
           0.1001 ( 38) -0.1001 ( 39) -0.1020 ( 44)  0.1020 ( 46)  0.1838 ( 80)
           0.1838 ( 81) -0.2112 ( 83) -0.1741 ( 84)  0.1690 ( 86)  0.1690 ( 87)
          -0.1741 ( 89)  0.1779 ( 90) -0.1461 ( 91)  0.1779 ( 94) -0.1840 ( 96)
          -0.1840 ( 97)  0.1308 ( 98)  0.1308 (100) -0.1739 (104) -0.1739 (105)
          -0.1395 (106) -0.1395 (107)  0.1395 (108)  0.1395 (109)  0.1032 (115)
           0.1032 (116)  0.1586 (117)  0.1586 (118)

 THE DETERMINANT OF THE G MATRIX IS 10**(   -31)


                     --------------------
                     INTERNAL COORDINATES
                     --------------------

                 - - ATOMS - -         COORDINATE      COORDINATE
 NO.   TYPE    I  J  K  L  M  N        (BOHR,RAD)       (ANG,DEG)
 ----------------------------------------------------------------
   1 STRETCH   1  3                     2.8913911       1.5300584
   2 STRETCH   1 11                     2.0597346       1.0899647
   3 STRETCH   1 12                     2.0597346       1.0899647
   4 STRETCH   1  2                     2.8914139       1.5300704
   5 STRETCH   2 13                     2.0597276       1.0899610
   6 STRETCH   2 14                     2.0597276       1.0899610
   7 STRETCH   2  4                     2.8912442       1.5299806
   8 STRETCH   3 15                     2.0598435       1.0900223
   9 STRETCH   3 10                     2.8477248       1.5069512
  10 STRETCH   3 16                     2.0598435       1.0900223
  11 STRETCH   4  5                     2.8913150       1.5300181
  12 STRETCH   4 17                     2.0598435       1.0900223
  13 STRETCH   4 18                     2.0598435       1.0900223
  14 STRETCH   5  6                     2.8912442       1.5299806
  15 STRETCH   5 20                     2.0598435       1.0900223
  16 STRETCH   5 19                     2.0598435       1.0900223
  17 STRETCH   6 25                     2.0598435       1.0900223
  18 STRETCH   6  8                     2.8913150       1.5300181
  19 STRETCH   6 24                     2.0598435       1.0900223
  20 STRETCH   7 23                     2.0598468       1.0900241
  21 STRETCH   7 22                     2.0598468       1.0900241
  22 STRETCH   7 21                     2.0599027       1.0900536
  23 STRETCH   7 10                     2.8478798       1.5070332
  24 STRETCH   8 28                     2.0598029       1.0900008
  25 STRETCH   8 27                     2.0598435       1.0900223
  26 STRETCH   8 26                     2.0598435       1.0900223
  27 STRETCH   9 10                     2.2819200       1.2075401
  28 BEND      1  2 13                  1.9105441     109.4661113
  29 BEND      1  3 10                  1.9105973     109.4691596
  30 BEND      1  2 14                  1.9105441     109.4661113
  31 BEND      1  3 16                  1.9106268     109.4708524
  32 BEND      1  3 15                  1.9106268     109.4708524
  33 BEND      1  2  4                  1.9105538     109.4666705
  34 BEND      2  1 12                  1.9106258     109.4707931
  35 BEND      2  1  3                  1.9105949     109.4690262
  36 BEND      2  4  5                  1.9106095     109.4698617
  37 BEND      2  4 18                  1.9106474     109.4720302
  38 BEND      2  4 17                  1.9106474     109.4720302
  39 BEND      2  1 11                  1.9106258     109.4707931
  40 BEND      3 10  7                  2.0943490     119.9973572
  41 BEND      3  1 11                  1.9105843     109.4684157
  42 BEND      3 10  9                  2.0944468     120.0029599
  43 BEND      3  1 12                  1.9105843     109.4684157
  44 BEND      4  2 14                  1.9106817     109.4739970
  45 BEND      4  5 19                  1.9106302     109.4710441
  46 BEND      4  2 13                  1.9106817     109.4739970
  47 BEND      4  5  6                  1.9106095     109.4698617
  48 BEND      4  5 20                  1.9106302     109.4710441
  49 BEND      5  4 18                  1.9106302     109.4710441
  50 BEND      5  4 17                  1.9106302     109.4710441
  51 BEND      5  6 24                  1.9106474     109.4720302
  52 BEND      5  6  8                  1.9106095     109.4698617
  53 BEND      5  6 25                  1.9106474     109.4720302
  54 BEND      6  5 19                  1.9106474     109.4720302
  55 BEND      6  5 20                  1.9106474     109.4720302
  56 BEND      6  8 26                  1.9106302     109.4710441
  57 BEND      6  8 27                  1.9106302     109.4710441
  58 BEND      6  8 28                  1.9106235     109.4706601
  59 BEND      7 10  9                  2.0943896     119.9996829
  60 BEND      8  6 24                  1.9106302     109.4710441
  61 BEND      8  6 25                  1.9106302     109.4710441
  62 BEND     10  7 22                  1.9106947     109.4747435
  63 BEND     10  7 23                  1.9106947     109.4747435
  64 BEND     10  3 16                  1.9106568     109.4725730
  65 BEND     10  7 21                  1.9107015     109.4751337
  66 BEND     10  3 15                  1.9106568     109.4725730
  67 BEND     11  1 12                  1.9107844     109.4798794
  68 BEND     13  2 14                  1.9107941     109.4804354
  69 BEND     15  3 16                  1.9106349     109.4713134
  70 BEND     17  4 18                  1.9106349     109.4713134
  71 BEND     19  5 20                  1.9106349     109.4713134
  72 BEND     21  7 22                  1.9105391     109.4658244
  73 BEND     21  7 23                  1.9105391     109.4658244
  74 BEND     22  7 23                  1.9106303     109.4710536
  75 BEND     24  6 25                  1.9106349     109.4713134
  76 BEND     26  8 27                  1.9106349     109.4713134
  77 BEND     26  8 28                  1.9106404     109.4716310
  78 BEND     27  8 28                  1.9106404     109.4716310
  79 TORSION   1  3 10  7               3.1415927     180.0000000
  80 TORSION   1  2  4 18               1.0472072      60.0005526
  81 TORSION   1  2  4 17              -1.0472072     -60.0005526
  82 TORSION   1  2  4  5               3.1415927     180.0000000
  83 TORSION   1  3 10  9               0.0000000       0.0000000
  84 TORSION   2  1  3 16               1.0471946      59.9998313
  85 TORSION   2  1  3 10               3.1415927     180.0000000
  86 TORSION   2  4  5 19              -1.0471967     -59.9999487
  87 TORSION   2  4  5 20               1.0471967      59.9999487
  88 TORSION   2  4  5  6               3.1415927     180.0000000
  89 TORSION   2  1  3 15              -1.0471946     -59.9998313
  90 TORSION   3  1  2 13              -1.0472414     -60.0025141
  91 TORSION   3 10  7 21               0.0000000       0.0000000
  92 TORSION   3 10  7 22               2.0943592     119.9979447
  93 TORSION   3 10  7 23              -2.0943592    -119.9979447
  94 TORSION   3  1  2 14               1.0472414      60.0025141
  95 TORSION   3  1  2  4               3.1415927     180.0000000
  96 TORSION   4  2  1 12               1.0472855      60.0050407
  97 TORSION   4  2  1 11              -1.0472855     -60.0050407
  98 TORSION   4  5  6 24              -1.0472072     -60.0005526
  99 TORSION   4  5  6  8               3.1415927     180.0000000
 100 TORSION   4  5  6 25               1.0472072      60.0005526
 101 TORSION   5  6  8 26              -1.0471967     -59.9999487
 102 TORSION   5  6  8 27               1.0471967      59.9999487
 103 TORSION   5  6  8 28               3.1415927     180.0000000
 104 TORSION   5  4  2 14              -1.0473257     -60.0073438
 105 TORSION   5  4  2 13               1.0473257      60.0073438
 106 TORSION   6  5  4 18              -1.0471967     -59.9999487
 107 TORSION   6  5  4 17               1.0471967      59.9999487
 108 TORSION   7 10  3 16              -1.0472130     -60.0008850
 109 TORSION   7 10  3 15               1.0472130      60.0008850
 110 TORSION   8  6  5 19               1.0472072      60.0005526
 111 TORSION   8  6  5 20              -1.0472072     -60.0005526
 112 TORSION   9 10  3 16               2.0943797     119.9991150
 113 TORSION   9 10  7 21               3.1415927     180.0000000
 114 TORSION   9 10  3 15              -2.0943797    -119.9991150
 115 TORSION   9 10  7 22              -1.0472334     -60.0020553
 116 TORSION   9 10  7 23               1.0472334      60.0020553
 117 TORSION  10  3  1 12              -1.0472601     -60.0035847
 118 TORSION  10  3  1 11               1.0472601      60.0035847
 119 TORSION  11  1  3 15              -3.1415271    -179.9962466
 120 TORSION  11  1  3 16              -1.0471379     -59.9965840
 121 TORSION  11  1  2 13               1.0470657      59.9924452
 122 TORSION  11  1  2 14               3.1415486     179.9974734
 123 TORSION  12  1  3 16               3.1415271     179.9962466
 124 TORSION  12  1  2 13              -3.1415486    -179.9974734
 125 TORSION  12  1  2 14              -1.0470657     -59.9924452
 126 TORSION  12  1  3 15               1.0471379      59.9965840
 127 TORSION  13  2  4 17              -3.1414741    -179.9932088
 128 TORSION  13  2  4 18              -1.0470597     -59.9921036
 129 TORSION  14  2  4 17               1.0470597      59.9921036
 130 TORSION  14  2  4 18               3.1414741     179.9932088
 131 TORSION  17  4  5 20              -1.0471993     -60.0001026
 132 TORSION  17  4  5 19               3.1415927     180.0000000
 133 TORSION  18  4  5 20               3.1415927     180.0000000
 134 TORSION  18  4  5 19               1.0471993      60.0001026
 135 TORSION  19  5  6 25              -1.0471783     -59.9988948
 136 TORSION  19  5  6 24               3.1415927     180.0000000
 137 TORSION  20  5  6 25               3.1415927     180.0000000
 138 TORSION  20  5  6 24               1.0471783      59.9988948
 139 TORSION  24  6  8 28               1.0471967      59.9999487
 140 TORSION  24  6  8 27              -1.0471993     -60.0001026
 141 TORSION  24  6  8 26               3.1415927     180.0000000
 142 TORSION  25  6  8 28              -1.0471967     -59.9999487
 143 TORSION  25  6  8 27               3.1415927     180.0000000
 144 TORSION  25  6  8 26               1.0471993      60.0001026

     ------------------------------------------
     THE POINT GROUP IS C1 , NAXIS= 1, ORDER= 1
     ------------------------------------------

     DIMENSIONS OF THE SYMMETRY SUBSPACES ARE
 A   =  298

 ..... DONE SETTING UP THE RUN .....
 STEP CPU TIME =     0.02 TOTAL CPU TIME =        0.0 (    0.0 MIN)
 TOTAL WALL CLOCK TIME=        0.0 SECONDS, CPU UTILIZATION IS  66.67%


          -----------------------------
          STATIONARY POINT LOCATION RUN
          -----------------------------

 OBTAINING INITIAL HESSIAN, HESS=GUESS   
 DIAGONAL GUESS HESSIAN IN INTERNAL COORDS IS
     1  0.3671     2  0.3464     3  0.3464     4  0.3671     5  0.3464
     6  0.3464     7  0.3672     8  0.3464     9  0.3840    10  0.3464
    11  0.3672    12  0.3464    13  0.3464    14  0.3672    15  0.3464
    16  0.3464    17  0.3464    18  0.3672    19  0.3464    20  0.3464
    21  0.3464    22  0.3463    23  0.3839    24  0.3464    25  0.3464
    26  0.3464    27  0.5549    28  0.2241    29  0.2501    30  0.2241
    31  0.2241    32  0.2241    33  0.2485    34  0.2241    35  0.2485
    36  0.2485    37  0.2241    38  0.2241    39  0.2241    40  0.2518
    41  0.2241    42  0.2605    43  0.2241    44  0.2241    45  0.2241
    46  0.2241    47  0.2485    48  0.2241    49  0.2241    50  0.2241
    51  0.2241    52  0.2485    53  0.2241    54  0.2241    55  0.2241
    56  0.2241    57  0.2241    58  0.2241    59  0.2605    60  0.2241
    61  0.2241    62  0.2254    63  0.2254    64  0.2255    65  0.2254
    66  0.2255    67  0.2034    68  0.2034    69  0.2034    70  0.2034
    71  0.2034    72  0.2034    73  0.2034    74  0.2034    75  0.2034
    76  0.2034    77  0.2034    78  0.2034    79  0.2500    80  0.2500
    81  0.2500    82  0.2500    83  0.2500    84  0.2500    85  0.2500
    86  0.2500    87  0.2500    88  0.2500    89  0.2500    90  0.2500
    91  0.2500    92  0.2500    93  0.2500    94  0.2500    95  0.2500
    96  0.2500    97  0.2500    98  0.2500    99  0.2500   100  0.2500
   101  0.2500   102  0.2500   103  0.2500   104  0.2500   105  0.2500
   106  0.2500   107  0.2500   108  0.2500   109  0.2500   110  0.2500
   111  0.2500   112  0.2500   113  0.2500   114  0.2500   115  0.2500
   116  0.2500   117  0.2500   118  0.2500   119  0.2500   120  0.2500
   121  0.2500   122  0.2500   123  0.2500   124  0.2500   125  0.2500
   126  0.2500   127  0.2500   128  0.2500   129  0.2500   130  0.2500
   131  0.2500   132  0.2500   133  0.2500   134  0.2500   135  0.2500
   136  0.2500   137  0.2500   138  0.2500   139  0.2500   140  0.2500
   141  0.2500   142  0.2500   143  0.2500   144  0.2500
 TRANSFORMING HESSIAN TO SYMMETRY COORDINATES

          PARAMETERS CONTROLLING GEOMETRY SEARCH ARE
          METHOD =QA                  UPHESS =BFGS    
          NNEG   =         0          NFRZ   =         3
          NSTEP  =        50          IFOLOW =         1
          HESS   =GUESS               RESTAR =         F
          IHREP  =         0          HSSEND =         F
          NPRT   =         0          NPUN   =         0
          OPTTOL = 5.000E-04          RMIN   = 1.500E-03
          RMAX   = 1.000E-01          RLIM   = 7.000E-02
          DXMAX  = 3.000E-01          PURIFY =         F
          MOVIE  =         F          TRUPD  =         T
          TRMAX  = 5.000E-01          TRMIN  = 5.000E-02
          ITBMAT =         5          STPT   =         F
          STSTEP = 1.000E-02          PROJCT=          F
          FROZEN COORD(S)=   1   2   3


      ***** EQUILIBRIUM GEOMETRY LOCATED *****
            (SUBJECT TO   3 CONSTRAINT(S))
 COORDINATES OF ALL ATOMS ARE (ANGS)
   ATOM   CHARGE       X              Y              Z
 ------------------------------------------------------------
 C           6.0   0.9125556183  -0.1925640369   0.0000213605
 C           6.0  -0.4143277451   0.5620182231  -0.0000077261
 C           6.0   2.1493589936   0.6982709917   0.0000347678
 C           6.0  -1.6146093824  -0.3882072932  -0.0000449032
 C           6.0  -2.9511808863   0.3496123106  -0.0000287539
 C           6.0  -4.1825694608  -0.5561608971  -0.0000150022
 C           6.0   4.7448970500   0.6716053005  -0.0000389221
 C           6.0  -5.4802302774   0.2518080215   0.0000376522
 O           8.0   3.4504861025  -1.2866252420   0.0000286071
 C           6.0   3.4396206695  -0.0895783880   0.0000143085
 H           1.0   0.9526129955  -0.8425312292   0.8696850353
 H           1.0   0.9526390170  -0.8425099932  -0.8696591495
 H           1.0  -0.4702425451   1.2111979934   0.8731751969
 H           1.0  -0.4701897781   1.2112402414  -0.8731639564
 H           1.0   2.1715668279   1.3570775575  -0.8675760764
 H           1.0   2.1715616769   1.3571150886   0.8676320695
 H           1.0  -1.5563323946  -1.0384758558  -0.8725842454
 H           1.0  -1.5563321822  -1.0385042592   0.8724764709
 H           1.0  -2.9954547889   1.0007063254   0.8723377038
 H           1.0  -2.9954720948   1.0007444157  -0.8723664465
 H           1.0   4.6118682681   1.7453513007   0.0000081959
 H           1.0   5.3119524708   0.3767811447   0.8771356727
 H           1.0   5.3118448797   0.3768686921  -0.8773144338
 H           1.0  -4.1591020490  -1.2075016479  -0.8724581362
 H           1.0  -4.1590621008  -1.2075594536   0.8723802514
 H           1.0  -5.5352735137   0.8913991962   0.8778727185
 H           1.0  -5.5353376089   0.8913985072  -0.8777948243
 H           1.0  -6.3553720821  -0.3914133110   0.0000840254


                     --------------------
                     INTERNAL COORDINATES
                     --------------------

                 - - ATOMS - -         COORDINATE      COORDINATE
 NO.   TYPE    I  J  K  L  M  N        (BOHR,RAD)       (ANG,DEG)
 ----------------------------------------------------------------
   1 STRETCH   1  3                     2.8803724       1.5242276
   2 STRETCH   1 11                     2.0530956       1.0864515
   3 STRETCH   1 12                     2.0530989       1.0864532
   4 STRETCH   1  2                     2.8845501       1.5264383
   5 STRETCH   2 13                     2.0588556       1.0894995
   6 STRETCH   2 14                     2.0588576       1.0895006
   7 STRETCH   2  4                     2.8929505       1.5308836
   8 STRETCH   3 15                     2.0590799       1.0896182
   9 STRETCH   3 10                     2.8568519       1.5117810
  10 STRETCH   3 16                     2.0591022       1.0896300
  11 STRETCH   4  5                     2.8850374       1.5266962
  12 STRETCH   4 17                     2.0593421       1.0897570
  13 STRETCH   4 18                     2.0593470       1.0897596
  14 STRETCH   5  6                     2.8887124       1.5286409
  15 STRETCH   5 20                     2.0587676       1.0894530
  16 STRETCH   5 19                     2.0587668       1.0894525
  17 STRETCH   6 25                     2.0579334       1.0890115
  18 STRETCH   6  8                     2.8887090       1.5286391
  19 STRETCH   6 24                     2.0579389       1.0890145
  20 STRETCH   7 23                     2.0509507       1.0853165
  21 STRETCH   7 22                     2.0509477       1.0853149
  22 STRETCH   7 21                     2.0445989       1.0819552
  23 STRETCH   7 10                     2.8553923       1.5110086
  24 STRETCH   8 28                     2.0524259       1.0860971
  25 STRETCH   8 27                     2.0551173       1.0875213
  26 STRETCH   8 26                     2.0551159       1.0875206
  27 STRETCH   9 10                     2.2621837       1.1970962
  28 BEND      1  2 13                  1.9168107     109.8251639
  29 BEND      1  3 10                  1.9692044     112.8271010
  30 BEND      1  2 14                  1.9168184     109.8256071
  31 BEND      1  3 16                  1.9497283     111.7112010
  32 BEND      1  3 15                  1.9497000     111.7095794
  33 BEND      1  2  4                  1.9548749     112.0060821
  34 BEND      2  1 12                  1.9047535     109.1343340
  35 BEND      2  1  3                  2.0003129     114.6094870
  36 BEND      2  4  5                  1.9675566     112.7326863
  37 BEND      2  4 18                  1.9054557     109.1745701
  38 BEND      2  4 17                  1.9054807     109.1760041
  39 BEND      2  1 11                  1.9047745     109.1355392
  40 BEND      3 10  7                  2.0654623     118.3422717
  41 BEND      3  1 11                  1.8962320     108.6460906
  42 BEND      3 10  9                  2.1280589     121.9287954
  43 BEND      3  1 12                  1.8962138     108.6450453
  44 BEND      4  2 14                  1.9067304     109.2476030
  45 BEND      4  5 19                  1.9011843     108.9298376
  46 BEND      4  2 13                  1.9067062     109.2462199
  47 BEND      4  5  6                  2.0029947     114.7631406
  48 BEND      4  5 20                  1.9011988     108.9306695
  49 BEND      5  4 18                  1.9126116     109.5845732
  50 BEND      5  4 17                  1.9126169     109.5848750
  51 BEND      5  6 24                  1.9145566     109.6960141
  52 BEND      5  6  8                  1.9504937     111.7550598
  53 BEND      5  6 25                  1.9145749     109.6970621
  54 BEND      6  5 19                  1.8979782     108.7461395
  55 BEND      6  5 20                  1.8980016     108.7474827
  56 BEND      6  8 26                  1.9324766     110.7227539
  57 BEND      6  8 27                  1.9324700     110.7223768
  58 BEND      6  8 28                  1.9508700     111.7766150
  59 BEND      7 10  9                  2.0896641     119.7289329
  60 BEND      8  6 24                  1.9118176     109.5390773
  61 BEND      8  6 25                  1.9118228     109.5393755
  62 BEND     10  7 22                  1.8906922     108.3286860
  63 BEND     10  7 23                  1.8907043     108.3293795
  64 BEND     10  3 16                  1.8731072     107.3211351
  65 BEND     10  7 21                  1.9754766     113.1864710
  66 BEND     10  3 15                  1.8730649     107.3187157
  67 BEND     11  1 12                  1.8561566     106.3499395
  68 BEND     13  2 14                  1.8594001     106.5357773
  69 BEND     15  3 16                  1.8421143     105.5453752
  70 BEND     17  4 18                  1.8568058     106.3871361
  71 BEND     19  5 20                  1.8570091     106.3987845
  72 BEND     21  7 22                  1.9111201     109.4991132
  73 BEND     21  7 23                  1.9110964     109.4977560
  74 BEND     22  7 23                  1.8824066     107.8539508
  75 BEND     24  6 25                  1.8582950     106.4724583
  76 BEND     26  8 27                  1.8787452     107.6441706
  77 BEND     26  8 28                  1.8833457     107.9077572
  78 BEND     27  8 28                  1.8833676     107.9090128
  79 TORSION   1  3 10  7               3.1415447     179.9972517
  80 TORSION   1  2  4 18               1.0116065      57.9607848
  81 TORSION   1  2  4 17              -1.0116468     -57.9630896
  82 TORSION   1  2  4  5               3.1415603     179.9981447
  83 TORSION   1  3 10  9              -0.0000377      -0.0021627
  84 TORSION   2  1  3 16               1.0294849      58.9851386
  85 TORSION   2  1  3 10              -3.1415573    -179.9979766
  86 TORSION   2  4  5 19              -1.0093786     -57.8331315
  87 TORSION   2  4  5 20               1.0094086      57.8348506
  88 TORSION   2  4  5  6              -3.1415569    -179.9979494
  89 TORSION   2  1  3 15              -1.0294899     -58.9854235
  90 TORSION   3  1  2 13              -1.0197036     -58.4247107
  91 TORSION   3 10  7 21               0.0000661       0.0037867
  92 TORSION   3 10  7 22               2.1228965     121.6330087
  93 TORSION   3 10  7 23              -2.1227428    -121.6242037
  94 TORSION   3  1  2 14               1.0196324      58.4206343
  95 TORSION   3  1  2  4               3.1415751     179.9989947
  96 TORSION   4  2  1 12               1.0108505      57.9174648
  97 TORSION   4  2  1 11              -1.0108458     -57.9172008
  98 TORSION   4  5  6 24              -1.0177224     -58.3111970
  99 TORSION   4  5  6  8               3.1415667     179.9985105
 100 TORSION   4  5  6 25               1.0176512      58.3071172
 101 TORSION   5  6  8 26              -1.0411956     -59.6561140
 102 TORSION   5  6  8 27               1.0412448      59.6589352
 103 TORSION   5  6  8 28              -3.1415564    -179.9979215
 104 TORSION   5  4  2 14              -1.0138964     -58.0919828
 105 TORSION   5  4  2 13               1.0138581      58.0897925
 106 TORSION   6  5  4 18              -1.0156437     -58.1920956
 107 TORSION   6  5  4 17               1.0156795      58.1941473
 108 TORSION   7 10  3 16              -0.9864420     -56.5189616
 109 TORSION   7 10  3 15               0.9864119      56.5172379
 110 TORSION   8  6  5 19               1.0076524      57.7342273
 111 TORSION   8  6  5 20              -1.0076677     -57.7351036
 112 TORSION   9 10  3 16               2.1551609     123.4816240
 113 TORSION   9 10  7 21              -3.1415366    -179.9967856
 114 TORSION   9 10  3 15              -2.1551705    -123.4821765
 115 TORSION   9 10  7 22              -1.0187062     -58.3675636
 116 TORSION   9 10  7 23               1.0188399      58.3752240
 117 TORSION  10  3  1 12              -1.0061951     -57.6507308
 118 TORSION  10  3  1 11               1.0062246      57.6524232
 119 TORSION  11  1  3 15               3.1182921     178.6649762
 120 TORSION  11  1  3 16              -1.1059185     -63.3644617
 121 TORSION  11  1  2 13               1.1110608      63.6590937
 122 TORSION  11  1  2 14              -3.1327885    -179.4955612
 123 TORSION  12  1  3 16              -3.1183382    -178.6676157
 124 TORSION  12  1  2 13               3.1327571     179.4937593
 125 TORSION  12  1  2 14              -1.1110922     -63.6608957
 126 TORSION  12  1  3 15               1.1058724      63.3618222
 127 TORSION  13  2  4 17              -3.1393489    -179.8714417
 128 TORSION  13  2  4 18              -1.1160956     -63.9475673
 129 TORSION  14  2  4 17               1.1160819      63.9467829
 130 TORSION  14  2  4 18               3.1393352     179.8706573
 131 TORSION  17  4  5 20              -1.1165404     -63.9730526
 132 TORSION  17  4  5 19              -3.1353275    -179.6410347
 133 TORSION  18  4  5 20               3.1353218     179.6407044
 134 TORSION  18  4  5 19               1.1165346      63.9727223
 135 TORSION  19  5  6 25              -1.1162631     -63.9571661
 136 TORSION  19  5  6 24               3.1315486     179.4245198
 137 TORSION  20  5  6 25              -3.1315831    -179.4264969
 138 TORSION  20  5  6 24               1.1162286      63.9551890
 139 TORSION  24  6  8 28               1.0161541      58.2213419
 140 TORSION  24  6  8 27              -1.0842300     -62.1218014
 141 TORSION  24  6  8 26               3.1165149     178.5631494
 142 TORSION  25  6  8 28              -1.0160548     -58.2156533
 143 TORSION  25  6  8 27              -3.1164389    -178.5587966
 144 TORSION  25  6  8 26               1.0843059      62.1261541

          INTERNUCLEAR DISTANCES (ANGS.)


 =====================================================
   GAMESS/COSab RESULTS
 =====================================================

   Dielectric Constant                  = INFTY
   Basic Grid Size                      =                 1082
   Number of Segments                   =                   92
   Number of Segments located on spheres=                  356
   Number of Segments of the cavity     =                  989
   Solvent Radius (rsolv)               = 1.40
   Outlying Charge Error Method         = double cavity

 =====================================================

  Total solvated Energy (a.u.)          =  -426.2884381177
  Total Energy corrected (a.u.)         =  -426.2880730954

  Outlying charge effect (a.u.)         =     0.0003650223
  Outlying charge effect (kcal/mol)     =     0.2290551407

  Dielectric Energy (a.u.)              =    -0.0138111655
  Dielectric energy corr. (a.u.)        =    -0.0134461432

  Sum of polarization charges           =     0.0313945657
  Sum of polarization charges(cor.)     =    -0.0313945657

  Total surface area of cavity (A**2)   =  218.49
  Total volume of cavity (A**3)         =  215.54

 =====================================================
 NPS=                   989
NR.  ATOM  (X, Y, Z)(a.u.)                  CHARGE(e)  AREA(A**2) SIGMA(e/A**2)
   1   1   1.670410   0.387422  -3.703595   0.000119   0.092912   0.001286
   2   1   1.215849  -0.043979  -3.731349   0.000038   0.046456   0.000812
   3   1   2.013886  -4.123377   0.258549   0.000744   0.139368   0.005338
   4   1   2.041920   0.244500   3.716662   0.000144   0.185824   0.000776
   5   1   0.804949  -4.017890  -0.295026   0.001037   0.232280   0.004466
   6   1   1.684030  -4.131522  -0.296003   0.001066   0.232280   0.004589
   7   1   1.994208   0.160119  -3.733186   0.000047   0.046456   0.001016
   8   1   1.094509  -4.052855   0.528227   0.000530   0.139368   0.003805
   9   1   1.433871   0.159816   3.731723   0.000077   0.046456   0.001653
  10   2  -2.095933   4.590693  -0.330252   0.001452   0.325193   0.004465
  11   2  -0.711002   0.318353  -3.704880   0.000180   0.092912   0.001943
  12   2  -1.897185   4.635190   0.524812   0.001363   0.278737   0.004889
  13   2   0.413510   4.538023   0.877663   0.000121   0.046456   0.002611
  14   2  -1.038799   0.493035   3.727584   0.000258   0.139368   0.001850
  15   2   0.047450   4.737795  -0.289117   0.001141   0.232280   0.004910
  16   2  -0.908218   4.835906  -0.163072   0.001900   0.325193   0.005842
  17   2  -1.040233   0.537766  -3.734078   0.000091   0.046456   0.001955
  18   2  -0.242795   4.764358   0.534209   0.000657   0.139368   0.004713
  19   2  -0.479340   0.539423   3.730789   0.000095   0.046456   0.002040
  20   3   4.626783   5.026080   0.475922   0.000149   0.139368   0.001068
  21   3   4.027645   0.541098   3.698332  -0.000123   0.092912  -0.001320
  22   3   3.561234   0.959463   3.728897  -0.000080   0.046456  -0.001730
  23   3   4.725529   5.019661  -0.390609   0.000227   0.185824   0.001219
  24   3   2.766622   4.816878  -0.612811   0.000143   0.139368   0.001027
  25   3   4.396886   0.746235  -3.720579  -0.000243   0.185824  -0.001308
  26   3   2.759959   4.827930   0.530065   0.000361   0.278737   0.001296
  27   3   3.926260   5.093516   0.151616   0.000796   0.278737   0.002856
  28   3   4.344976   0.777121   3.729654  -0.000112   0.046456  -0.002408
  29   3   3.302572   5.014337  -0.237442   0.000448   0.185824   0.002412
  30   3   3.786717   0.814049  -3.735319  -0.000047   0.046456  -0.001016
  31   4  -3.728818  -4.436696   0.334848   0.001595   0.325193   0.004903
  32   4  -3.110522   0.016037   3.703811   0.000189   0.092912   0.002037
  33   4  -2.596257  -0.342114   3.731418   0.000068   0.046456   0.001473
  34   4  -3.525233  -4.446962  -0.520174   0.001430   0.278737   0.005132
  35   4  -3.401777  -0.222732  -3.728392   0.000301   0.139368   0.002160
  36   4  -1.592614  -4.207871   0.293723   0.001083   0.232280   0.004663
  37   4  -2.516517  -4.471275   0.167887   0.001943   0.325193   0.005976
  38   4  -3.396456  -0.257382   3.733322   0.000104   0.046456   0.002247
  39   4  -1.873662  -4.285699  -0.529543   0.000639   0.139368   0.004588
  40   4  -2.842799  -0.170865  -3.731584   0.000109   0.046456   0.002345
  41   5  -6.689615   4.262578  -0.269348   0.001199   0.232280   0.005163
  42   5  -5.518191  -0.088575  -3.704026   0.000206   0.092912   0.002214
  43   5  -5.066377   0.345714  -3.731593   0.000072   0.046456   0.001549
  44   5  -6.505424   4.297506   0.442276   0.001225   0.232280   0.005274
  45   5  -5.890384   0.048568   3.716306   0.000351   0.185824   0.001887
  46   5  -4.680592   4.320567  -0.293449   0.001109   0.232280   0.004772
  47   5  -5.634347   4.435982  -0.167578   0.001990   0.325193   0.006119
  48   5  -5.843426   0.136683  -3.733504   0.000106   0.046456   0.002288
  49   5  -4.970344   4.353315   0.529828   0.000662   0.139368   0.004750
  50   5  -5.282884   0.137100   3.731390   0.000115   0.046456   0.002481
  51   6  -8.870062  -4.689111   0.338867   0.001774   0.371649   0.004772
  52   6  -7.923026  -0.302065   3.704420   0.000188   0.092912   0.002028
  53   6  -7.428590  -0.687151   3.731712   0.000068   0.046456   0.001464
  54   6  -8.575317  -4.733388  -0.522908   0.001339   0.278737   0.004802
  55   6  -6.293577  -4.356136  -0.875891   0.000148   0.046456   0.003187
  56   6  -8.279375  -0.472311  -3.716005   0.000333   0.185824   0.001792
  57   6  -6.632663  -4.598312   0.291009   0.001210   0.232280   0.005208
  58   6  -7.569303  -4.811979   0.165050   0.001866   0.325193   0.005740
  59   6  -9.787231  -4.313527  -0.305278   0.001287   0.371649   0.003464
  60   6 -10.371133  -3.850169  -0.601379   0.000297   0.139368   0.002132
  61   6  -9.967287  -4.081871   0.916722   0.001050   0.325193   0.003228
  62   6  -8.223132  -0.559871   3.733747   0.000103   0.046456   0.002222
  63   6 -10.085039  -3.834380  -1.334066   0.000417   0.185824   0.002242
  64   6  -6.917497  -4.660417  -0.532293   0.000637   0.139368   0.004574
  65   6  -7.665969  -0.497325  -3.731137   0.000108   0.046456   0.002335
  66   7  12.607096   0.264784   0.148275   0.001180   0.418105   0.002823
[...]
 732   6  -8.525411   0.093121  -3.674948   0.000340   0.189661   0.001791
 733  28 -11.774194  -3.032986  -0.960049  -0.000173   0.193705  -0.000894
 734  28 -11.779299  -3.101149   0.426719  -0.000907   0.395490  -0.002292
 735   6 -10.743595  -3.534267  -0.491039   0.000849   0.531560   0.001597
 736   6 -10.738814  -3.472177   1.086872   0.000683   0.272758   0.002504
 737   7  10.307453  -1.999832   1.419039   0.000056   0.053285   0.001055
 738   9   9.741122  -2.562066   1.351324   0.000774   0.053285   0.014524
 739  22  10.401108  -1.852544   1.666822  -0.000172   0.053285  -0.003235
 740   7  10.307142  -1.999708  -1.419762   0.000058   0.053277   0.001088
 741   9   9.740824  -2.561943  -1.351959   0.000755   0.053277   0.014176
 742  23  10.400777  -1.852385  -1.667527  -0.000175   0.053277  -0.003294
 743   9   9.678007  -3.101220  -0.774312   0.005161   0.335891   0.015366
 744   9   9.678187  -3.101284   0.773631   0.004885   0.335891   0.014544
 745   7  10.373151  -2.192633  -0.000384   0.002517   0.736783   0.003416
 746   7   7.031058   1.777851  -3.368827  -0.001128   0.097908  -0.011517
 747  10   6.601138   1.536483  -3.412107  -0.001296   0.097908  -0.013234
 748  15   6.048097   2.020352  -3.431894  -0.001083   0.097908  -0.011066
 749   7   7.031226   1.777986   3.368755  -0.001142   0.097910  -0.011667
 750  10   6.601309   1.536620   3.412069  -0.001228   0.097910  -0.012538
 751  16   6.048249   2.020487   3.431873  -0.001099   0.097910  -0.011227
 752   7   8.262672   0.561966   3.653954  -0.000294   0.028889  -0.010182
 753  10   7.838456   0.314790   3.613238  -0.000409   0.028889  -0.014157
 754  22   8.550324   0.485463   3.707922  -0.000235   0.028889  -0.008129
 755   7   8.262224   0.562261  -3.654078  -0.000266   0.028887  -0.009208
 756  10   7.838014   0.315082  -3.613328  -0.000432   0.028887  -0.014963
 757  23   8.549870   0.485773  -3.708087  -0.000229   0.028887  -0.007940
 758  10   7.250810   0.676558   3.612409  -0.001732   0.212481  -0.008152
 759   7   7.732594   1.252202   3.578422  -0.001285   0.212481  -0.006046
 760  10   7.122279   0.896493  -3.578495  -0.001831   0.212397  -0.008620
 761   7   7.860489   1.032416  -3.612484  -0.001211   0.212397  -0.005701
 762   7   7.449174   3.964000  -2.287445  -0.000380   0.088867  -0.004281
 763  15   6.441715   3.965478  -2.387844  -0.000612   0.088867  -0.006887
 764  21   7.479253   4.191488  -2.088159  -0.000505   0.088867  -0.005686
 765  15   5.943447   3.744016  -2.983669  -0.001827   0.288491  -0.006334
 766  15   5.839616   2.667970  -3.525916  -0.001735   0.288491  -0.006013
 767   7   7.337006   2.972880  -3.068983  -0.002700   0.805396  -0.003353
 768   7   7.449298   3.963847   2.287561  -0.000392   0.088869  -0.004406
 769  16   6.441823   3.965359   2.387990  -0.000619   0.088869  -0.006960
 770  21   7.479365   4.191352   2.088293  -0.000506   0.088869  -0.005692
 771  16   5.839756   2.668048   3.525921  -0.001840   0.288446  -0.006377
 772  16   5.943567   3.743931   2.983784  -0.001755   0.288446  -0.006083
 773   7   7.337161   2.972861   3.068992  -0.002720   0.805276  -0.003377
 774  21   8.214718   4.437870   2.115518  -0.000408   0.070901  -0.005757
 775  21   9.338763   4.577134   1.929546  -0.000707   0.158762  -0.004455
 776  21  10.370567   4.705001   1.014036  -0.000894   0.158762  -0.005630
 777  21  10.602811   4.733829  -0.351380  -0.000917   0.158762  -0.005773
 778  21   9.932447   4.650827  -1.560864  -0.000762   0.158762  -0.004799
 779  21   8.656917   4.492824  -2.077765  -0.000796   0.158762  -0.005016
 780   7   8.708721   4.164752   2.333569  -0.000599   0.154124  -0.003885
 781   7  10.141195   4.342244   1.752982  -0.000564   0.154124  -0.003658
 782   7  10.893980   4.435561   0.394612  -0.000695   0.154124  -0.004506
 783   7  10.633064   4.403299  -1.138831  -0.000643   0.154124  -0.004170
 784   7   9.474216   4.259772  -2.166954  -0.000521   0.154124  -0.003379
 785   7   8.236437   4.106434  -2.388239  -0.000318   0.086621  -0.003674
 786  22  11.013268  -1.539564   1.736204  -0.000368   0.071063  -0.005175
 787  22  11.858578  -0.832103   1.427535  -0.000760   0.158836  -0.004784
 788  22  12.414155   0.431529   1.493095  -0.000895   0.158836  -0.005633
 789  22  12.197948   1.677002   2.051471  -0.000907   0.158836  -0.005710
 790  22  11.304926   2.357242   2.857397  -0.000835   0.158836  -0.005259
 791  22  10.127347   2.173453   3.556870  -0.000784   0.158836  -0.004936
 792  22   9.182464   1.206365   3.842647  -0.001021   0.158836  -0.006428
 793   7  11.267873  -1.406537   1.202727  -0.000618   0.154777  -0.003995
 794   7  12.243326  -0.221891   0.970310  -0.000531   0.154777  -0.003432
 795   7  12.445315   1.271496   1.341668  -0.000668   0.154777  -0.004314
 796   7  11.785116   2.417655   2.153683  -0.000713   0.154777  -0.004604
 797   7  10.552721   2.713137   3.049677  -0.000568   0.154777  -0.003667
 798   7   9.289459   2.028150   3.636085  -0.000676   0.154777  -0.004370
 799   7   8.575341   0.992247   3.749555  -0.000450   0.086819  -0.005185
 800  23   8.956766   0.822115  -3.859165  -0.000364   0.071064  -0.005118
 801  23   9.594409   1.768109  -3.764897  -0.000856   0.158839  -0.005387
 802  23  10.719271   2.377983  -3.242839  -0.000837   0.158839  -0.005269
 803  23  11.816688   2.114798  -2.445207  -0.000866   0.158839  -0.005449
 804  23  12.404595   1.094166  -1.722380  -0.000859   0.158839  -0.005407
 805  23  12.224741  -0.235580  -1.391874  -0.000740   0.158839  -0.004660
 806  23  11.356131  -1.290319  -1.598873  -0.000870   0.158839  -0.005475
 807   7   8.825790   1.397983  -3.723729  -0.000876   0.154778  -0.005658
 808   7   9.887041   2.484146  -3.402793  -0.000599   0.154778  -0.003868
 809   7  11.209717   2.690492  -2.617328  -0.000569   0.154778  -0.003673
 810   7  12.212803   1.926379  -1.712368  -0.000712   0.154778  -0.004601
 811   7  12.455671   0.527459  -1.085436  -0.000564   0.154778  -0.003642
 812   7  11.831637  -0.891760  -1.011925  -0.000602   0.154778  -0.003887
 813   7  10.905635  -1.684343  -1.344087  -0.000259   0.086820  -0.002987
 814   8  -8.763608   3.734739   1.277118   0.000078   0.087477   0.000887
 815  19  -7.816190   3.683735   1.549132   0.000196   0.087477   0.002238
 816  26  -8.884428   3.722987   1.558595  -0.000014   0.087477  -0.000160
 817  19  -7.260773   3.943055   1.519814   0.000038   0.030733   0.001244
 818   8  -8.662461   3.923094   1.122755   0.000186   0.043607   0.004264
 819   8  -8.763720   3.734746  -1.277077   0.000109   0.087479   0.001246
 820  20  -7.816302   3.683756  -1.549127   0.000218   0.087479   0.002497
 821  27  -8.884563   3.722989  -1.558548  -0.000095   0.087479  -0.001091
 822  20  -7.267551   3.939157  -1.542224   0.000071   0.030771   0.002298
 823   8  -8.656327   3.926786  -1.101796   0.000213   0.043661   0.004888
 824  24 -10.008797  -3.107650  -2.580177  -0.000175   0.215438  -0.000814
 825  24  -9.370875  -2.005172  -3.458200  -0.001100   0.443348  -0.002481
 826   8 -10.696397  -2.077201  -2.753888   0.000988   0.587872   0.001681
 827   8  -9.855900  -0.798120  -3.620551   0.000778   0.303470   0.002565
 828  25  -9.046245  -1.562144   3.708247  -0.000149   0.215448  -0.000691
 829  25  -9.796359  -2.688986   2.959176  -0.001067   0.443371  -0.002406
 830   8 -10.206673  -1.291095   3.327786   0.001020   0.587898   0.001735
 831   8 -10.945140  -2.547982   2.343520   0.000762   0.303484   0.002512
 832  26  -9.583126   3.975757   1.505763  -0.000033   0.066968  -0.000488
 833  26 -10.650206   4.067797   1.371803  -0.000122   0.147625  -0.000830
 834  26 -11.863005   3.641006   1.606734  -0.000205   0.147625  -0.001386
 835  26 -12.555212   2.724777   2.230913  -0.000248   0.147625  -0.001681
 836  26 -12.458539   1.674225   3.002417  -0.000152   0.147625  -0.001029
 837  26 -11.610456   0.896527   3.622226  -0.000184   0.147625  -0.001249
 838  26 -10.339664   0.693104   3.850111  -0.000328   0.147625  -0.002219
 839   8  -9.910109   4.043574   1.019689   0.000170   0.147827   0.001151
 840   8 -11.373990   3.926088   1.013516   0.000119   0.147827   0.000807
 841   8 -12.500225   3.132098   1.521419  -0.000006   0.147827  -0.000040
 842   8 -12.852303   1.969343   2.346543   0.000058   0.147827   0.000389
 843   8 -12.293766   0.888486   3.169084   0.000124   0.147827   0.000841
 844   8 -11.041092   0.308450   3.670238  -0.000093   0.147827  -0.000630
 845   8  -9.852050   0.307532   3.745451   0.000026   0.081816   0.000316
 846  27  -9.921629   0.721611  -3.855413  -0.000066   0.066968  -0.000986
 847  27 -10.999258   0.712000  -3.794767  -0.000211   0.147625  -0.001430
 848  27 -12.114012   1.228240  -3.348656  -0.000156   0.147625  -0.001059
 849  27 -12.610989   2.190166  -2.616599  -0.000190   0.147625  -0.001288
 850  27 -12.297576   3.224962  -1.882321  -0.000230   0.147625  -0.001560
 851  27 -11.295242   3.931571  -1.430407  -0.000135   0.147625  -0.000918
 852  27  -9.992463   4.036130  -1.436007  -0.000218   0.147625  -0.001478
 853   8 -10.300800   0.287112  -3.732018  -0.000124   0.147828  -0.000836
 854   8 -11.728680   0.515736  -3.475807   0.000100   0.147828   0.000679
 855   8 -12.681529   1.389622  -2.779278   0.000097   0.147828   0.000655
 856   8 -12.790051   2.570077  -1.912386   0.000003   0.147828   0.000017
 857   8 -12.012186   3.599589  -1.211114   0.000058   0.147828   0.000393
 858   8 -10.649412   4.079149  -0.947255   0.000162   0.147828   0.001099
 859   8  -9.469655   3.989072  -1.086945   0.000147   0.081817   0.001799
 860  28 -12.054966  -2.675581   1.510506  -0.000089   0.069998  -0.001269
 861  28 -12.650113  -1.865817   2.021549  -0.000282   0.155856  -0.001810
 862  28 -13.454498  -0.771408   1.917520  -0.000149   0.155856  -0.000955
 863  28 -14.049955   0.038694   0.998416  -0.000288   0.155856  -0.001849
 864  28 -14.183349   0.220108  -0.345044  -0.000307   0.155856  -0.001973
 865  28 -13.797974  -0.304288  -1.541740  -0.000181   0.155856  -0.001162
 866  28 -13.057655  -1.311568  -2.082946  -0.000216   0.155856  -0.001388
 867  28 -12.277111  -2.373527  -1.738589  -0.000321   0.155856  -0.002062
 868   8 -11.922567  -2.290277   1.953208  -0.000119   0.153022  -0.000775
 869   8 -12.799288  -1.097421   2.340102  -0.000018   0.153022  -0.000115
 870   8 -13.630915   0.034024   1.732272   0.000101   0.153022   0.000657
 871   8 -14.063916   0.623070   0.388112  -0.000085   0.153022  -0.000558
 872   8 -13.914218   0.419309  -1.120961  -0.000072   0.153022  -0.000469
 873   8 -13.245458  -0.490640  -2.153426   0.000094   0.153022   0.000611
 874   8 -12.341933  -1.719948  -2.270371  -0.000041   0.153022  -0.000266
 875   8 -11.680880  -2.619320  -1.720450   0.000009   0.085518   0.000106
 876   9   5.095662  -2.295996   3.036854   0.001253   0.114837   0.010915
 877  10   5.063841  -1.909323   3.132741   0.000423   0.114837   0.003682
 878  11   4.090146  -2.081770   3.157365   0.000364   0.114837   0.003171
 879   9   5.095680  -2.296082  -3.036759   0.001287   0.114835   0.011205
 880  10   5.063858  -1.909413  -3.132660   0.000422   0.114835   0.003675
 881  12   4.090174  -2.081836  -3.157284   0.000344   0.114835   0.002998
 882   9   8.216576  -2.025690   2.901973   0.000552   0.067349   0.008189
 883  10   8.266722  -1.652113   3.024288  -0.000001   0.067349  -0.000011
 884  22   8.914561  -1.303703   3.078177  -0.000340   0.067349  -0.005045
 885   9   8.216436  -2.025755  -2.901964   0.000581   0.067344   0.008622
 886  10   8.266578  -1.652184  -3.024297   0.000011   0.067344   0.000166
 887  23   8.914384  -1.303719  -3.078264  -0.000337   0.067344  -0.005008
 888  10   6.011886  -1.870691   3.324442   0.000779   0.171505   0.004542
 889  10   7.496131  -1.857228   3.216112   0.000667   0.171505   0.003890
 890   9   6.746679  -2.416071   3.101243   0.003096   0.347449   0.008911
 891  10   7.496027  -1.857332  -3.216061   0.000809   0.171494   0.004718
 892  10   6.011867  -1.870799  -3.324357   0.000785   0.171494   0.004576
 893   9   6.746622  -2.416171  -3.101162   0.003169   0.347423   0.009120
 894  11   2.680990  -4.064341   1.594923   0.000879   0.253638   0.003467
 895  11   3.145639  -3.516441   2.649726   0.000474   0.510248   0.000930
 896  11   3.563134  -2.531815   3.346084   0.000028   0.253638   0.000109
 897   9   4.224828  -4.340487   1.617186   0.009311   0.627531   0.014837
 898   9   4.828466  -3.291803   2.815479   0.007119   0.627531   0.011345
 899  12   3.563164  -2.531857  -3.345992   0.000033   0.253623   0.000128
 900  12   3.145667  -3.516414  -2.649661   0.000400   0.510216   0.000783
 901  12   2.681023  -4.064292  -1.594925   0.000885   0.253623   0.003490
 902   9   4.828479  -3.291838  -2.815379   0.007369   0.627493   0.011743
 903   9   4.224844  -4.340461  -1.617150   0.009916   0.627493   0.015803
 904  22   9.550878  -1.421637   3.062690  -0.001160   0.319248  -0.003633
 905  22  10.322024  -1.819717   2.181049  -0.000854   0.319248  -0.002676
 906   9   8.971582  -2.655375   2.245115   0.006813   0.786516   0.008662
 907  23  10.321679  -1.819536  -2.181633  -0.000891   0.319157  -0.002790
 908  23   9.550627  -1.421565  -3.062908  -0.001206   0.319157  -0.003778
 909   9   8.971343  -2.655330  -2.245424   0.007251   0.786297   0.009222
 910  11   3.525977  -1.704014   3.539231  -0.000413   0.257433  -0.001603
 911  10   4.896832  -1.179739   3.484950  -0.000199   0.365006  -0.000545
 912  12   3.482899  -1.515372  -3.579230  -0.000452   0.257499  -0.001757
 913  10   4.936838  -1.354844  -3.447690  -0.000031   0.365098  -0.000086
 914  15   5.339276   1.922019  -3.698625  -0.001423   0.193135  -0.007370
 915  10   5.970162   1.011270  -3.648806  -0.002012   0.272484  -0.007384
 916  16   5.199803   1.781640   3.728879  -0.001346   0.193125  -0.006969
 917  10   6.097560   1.139408   3.621313  -0.001979   0.272469  -0.007264
 918  22   8.808532   0.138953   3.750511  -0.001148   0.176579  -0.006500
 919  22   9.166974  -0.767020   3.467070  -0.001165   0.176579  -0.006595
 920  10   7.974484  -0.673042   3.474909  -0.002527   0.485849  -0.005202
 921  23   9.166711  -0.766973  -3.467239  -0.001201   0.176624  -0.006800
 922  23   8.808107   0.139200  -3.750712  -0.001139   0.176624  -0.006446
 923  10   7.974176  -0.672937  -3.474968  -0.002483   0.485966  -0.005110
 924  18  -1.159316  -3.939344   1.921258   0.000306   0.255783   0.001196
 925  18  -1.199378  -3.411702   2.956951  -0.000334   0.511528  -0.000653
 926  18  -1.293912  -2.191246   3.668563  -0.000357   0.511528  -0.000698
 927  11   0.334475  -3.647810   2.329842  -0.000135   0.511528  -0.000264
 928  11   0.265317  -2.746871   3.419966  -0.000567   0.511528  -0.001109
 929  11   0.179370  -1.641479   3.771236   0.000023   0.255783   0.000089
 930  17  -1.327418  -1.759119  -3.773013   0.000085   0.255781   0.000331
 931  17  -1.241487  -2.864494  -3.421758  -0.000445   0.511523  -0.000871
 932  17  -1.172385  -3.765441  -2.331671  -0.000021   0.511523  -0.000042
 933  12   0.213140  -2.073475  -3.666916  -0.000477   0.511523  -0.000932
 934  12   0.307639  -3.293921  -2.955331  -0.000445   0.511523  -0.000869
 935  12   0.347648  -3.821579  -1.919669   0.000300   0.255781   0.001172
 936  16   2.291665   4.533122   1.997922  -0.000095   0.250397  -0.000380
 937  16   2.322429   4.012666   2.959340  -0.001243   0.500551  -0.002484
 938  16   2.387402   2.861949   3.633958  -0.001262   0.500551  -0.002522
 939  13   0.707448   4.271142   2.381195  -0.000143   0.500551  -0.000285
 940  13   0.757352   3.406251   3.397538  -0.000473   0.500551  -0.000945
 941  13   0.815316   2.369905   3.742174   0.000059   0.250397   0.000234
 942  19  -4.028353   1.957548   3.771091   0.000122   0.255385   0.000476
 943  19  -4.119627   3.053903   3.420505  -0.000322   0.510701  -0.000630
 944  19  -4.193956   3.949870   2.339224   0.000115   0.510701   0.000224
 945  13  -2.546400   2.512455   3.667132  -0.000322   0.510701  -0.000631
 946  13  -2.647132   3.723695   2.959883  -0.000306   0.510701  -0.000600
 947  13  -2.690673   4.250100   1.933122   0.000349   0.255385   0.001366
 948  15   2.409995   2.457938  -3.738771  -0.000387   0.250396  -0.001544
 949  15   2.352050   3.494301  -3.394143  -0.001446   0.500549  -0.002888
 950  15   2.302150   4.359212  -2.377797  -0.001069   0.500549  -0.002135
 951  14   0.792884   2.773878  -3.637277  -0.000370   0.500549  -0.000739
 952  14   0.727927   3.924616  -2.962664  -0.000429   0.500549  -0.000858
 953  14   0.697160   4.445087  -2.001239   0.000246   0.250396   0.000981
 954  20  -4.208293   4.123660  -1.932615   0.000364   0.255382   0.001426
 955  20  -4.164744   3.597300  -2.959352  -0.000195   0.510694  -0.000382
 956  20  -4.064014   2.386131  -3.666627  -0.000245   0.510694  -0.000479
 957  14  -2.676265   4.076455  -2.339688   0.000053   0.510694   0.000104
 958  14  -2.601932   3.180553  -3.420960  -0.000412   0.510694  -0.000808
 959  14  -2.510663   2.084254  -3.771586   0.000111   0.255382   0.000436
 960  21   7.370589   4.635755  -1.902815  -0.000653   0.291776  -0.002239
 961  21   7.017743   5.064888  -1.102386  -0.000887   0.291776  -0.003039
 962  15   5.721977   4.586120  -2.009928  -0.002136   0.583556  -0.003660
 963  21   7.017777   5.064899   1.102409  -0.001011   0.291826  -0.003465
 964  21   7.370687   4.635667   1.902946  -0.000671   0.291826  -0.002301
 965  16   5.722043   4.586092   2.010027  -0.002068   0.583656  -0.003543
 966  24  -6.186519  -2.145446  -3.753558   0.000185   0.253251   0.000730
 967  24  -6.117702  -3.204882  -3.401959  -0.000200   0.506313  -0.000396
 968  24  -6.060961  -4.077878  -2.355300   0.000219   0.506313   0.000432
 969  17  -4.591008  -2.457092  -3.647152  -0.000075   0.506313  -0.000148
 970  17  -4.514831  -3.629616  -2.954174  -0.000135   0.506313  -0.000266
 971  17  -4.481115  -4.148095  -1.963817   0.000393   0.253251   0.001552
 972  25  -6.049694  -4.250066   1.963446   0.000426   0.253258   0.001682
 973  25  -6.083404  -3.731624   2.953865  -0.000120   0.506328  -0.000237
 974  25  -6.159589  -2.559087   3.646908  -0.000045   0.506328  -0.000089
 975  18  -4.492250  -3.976106   2.355079   0.000170   0.506328   0.000337
 976  18  -4.548990  -3.103132   3.401814  -0.000203   0.506328  -0.000402
 977  18  -4.617819  -2.043670   3.753456   0.000184   0.253258   0.000725
 978  26  -8.815814   1.676873   3.776076   0.000053   0.251392   0.000210
 979  26  -8.863185   2.760739   3.442496  -0.000525   0.502682  -0.001045
 980  26  -8.904410   3.665717   2.396597  -0.000032   0.502682  -0.000063
 981  19  -7.307358   2.165289   3.673959  -0.000256   0.502682  -0.000509
 982  19  -7.360670   3.369719   2.994918  -0.000210   0.502682  -0.000418
 983  19  -7.386197   3.912438   1.998379   0.000322   0.251392   0.001282
 984  27  -8.913220   3.846735  -2.001646   0.000316   0.251384   0.001256
 985  27  -8.887725   3.304044  -2.998141  -0.000449   0.502666  -0.000893
 986  27  -8.834422   2.099684  -3.677187  -0.000391   0.502666  -0.000778
 987  20  -7.377690   3.731470  -2.393255   0.000069   0.502666   0.000137
 988  20  -7.336495   2.826544  -3.439122  -0.000326   0.502666  -0.000649
 989  20  -7.289120   1.742740  -3.772727   0.000107   0.251384   0.000426
 =====================================================


   1 warning(s) detected.
     A line exceeding 80 characters begins with "http://cactus.nci.ni".
 There may be a problem in your input file.

              7886121  WORDS OF DYNAMIC MEMORY USED
 EXECUTION OF GAMESS TERMINATED NORMALLY Thu Nov 24 21:33:50 2016
 DDI: 263640 bytes (0.3 MB / 0 MWords) used by master data server.

 ----------------------------------------
 CPU timing information for all processes
 ========================================
 0: 2562.440 + 0.712 = 2563.152
 ----------------------------------------
 ddikick.x: exited gracefully.
