----- GAMESS execution script -----

          ******************************************************
          *         GAMESS VERSION =  5 DEC 2014 (R1)          *
          *             FROM IOWA STATE UNIVERSITY             *
          * M.W.SCHMIDT, K.K.BALDRIDGE, J.A.BOATZ, S.T.ELBERT, *
          *   M.S.GORDON, J.H.JENSEN, S.KOSEKI, N.MATSUNAGA,   *
          *          K.A.NGUYEN, S.J.SU, T.L.WINDUS,           *
          *       TOGETHER WITH M.DUPUIS, J.A.MONTGOMERY       *
          *         J.COMPUT.CHEM.  14, 1347-1363(1993)        *
          **************** 64 BIT LINUX VERSION ****************

 EXECUTION OF GAMESS BEGUN Thu Nov 24 21:46:14 2016

            ECHO OF THE FIRST FEW INPUT CARDS -
 INPUT CARD>! SELECT RESTRICTED HARTREE-FOCK AS DEFAULT                                     
 INPUT CARD>$contrl scftyp=rhf $end                                                         
 INPUT CARD>                                                                                
 INPUT CARD>! THEORY: HF OR DFT                                                             
 INPUT CARD> $contrl mplevl=0 $end                                                          
 INPUT CARD>                                                                                
 INPUT CARD> $system timlim=10000 mwords=20 $end                                            
 INPUT CARD> $SCF DIRSCF=.TRUE. $end                                                        
 INPUT CARD>                                                                                
 INPUT CARD>                                                                                
 INPUT CARD>! BASIS SETS                                                                    
 INPUT CARD>! 6-311G(d,p)                                                                   
 INPUT CARD> $BASIS GBASIS=N311 NGAUSS=6 NDFUNC=1 NPFUNC=1 $END                             
 INPUT CARD>                                                                                
 INPUT CARD>! One of the following                                                          
 INPUT CARD> $guess guess=HUCKEL $end                                                       
 INPUT CARD>                                                                                
 INPUT CARD> $statpt projct=.FALSE. $end                                                    
 INPUT CARD> $STATPT IFREEZ(1)=1,2,3 $END                                                   
 INPUT CARD>                                                                                
 INPUT CARD>! Optimize the geometry with COSMO effects                                      
 INPUT CARD> $statpt opttol=0.0005 nstep=50 $end                                            
 INPUT CARD> $contrl nzvar=1 $end                                                           
 INPUT CARD> $zmat dlc=.t. auto=.t. $end                                                    
 INPUT CARD> $contrl runtyp=OPTIMIZE maxit=200 $end                                         
 INPUT CARD>                                                                                
 INPUT CARD>! Run COSMO on perfect conductor                                                
 INPUT CARD> $COSGMS PRFCND=.TRUE. $end                                                     
 INPUT CARD>                                                                                
 INPUT CARD>! Specifying RSOLV                                                              
 INPUT CARD> $COSGMS COSRAD = 1.4 $end                                                      
 INPUT CARD>                                                                                
 INPUT CARD>! available memory                                                              
 INPUT CARD> $SYSTEM MWORDS=40 $END                                                         
 INPUT CARD>                                                                                
 INPUT CARD> $DATA                                                                          
 INPUT CARD>http://cactus.nci.nih.gov/chemical/structure/N,N-Diethylacetamide/file?format=sd
 INPUT CARD>C1                                                                              
 INPUT CARD>C      6.0      0.3938000000   -1.4241000000    0.7036000000                    
 INPUT CARD>C      6.0      0.9026000000   -2.0947000000   -0.5740000000                    
 INPUT CARD>N      7.0      0.1329000000   -0.0067000000    0.4405000000                    
 INPUT CARD>C      6.0     -1.0848000000    0.3872000000    0.0178000000                    
 INPUT CARD>C      6.0     -2.1420000000   -0.6398000000   -0.2963000000                    
 INPUT CARD>O      8.0     -1.3297000000    1.5681000000   -0.1097000000                    
 INPUT CARD>C      6.0      1.1955000000    0.9825000000    0.6368000000                    
 INPUT CARD>C      6.0      1.8997000000    1.2458000000   -0.6958000000                    
 INPUT CARD>H      1.0     -0.5273000000   -1.9092000000    1.0266000000                    
 INPUT CARD>H      1.0      1.1466000000   -1.5157000000    1.4866000000                    
 INPUT CARD>H      1.0      0.1498000000   -2.0031000000   -1.3570000000                    
 INPUT CARD>H      1.0      1.8237000000   -1.6096000000   -0.8970000000                    
   40000000 WORDS OF MEMORY AVAILABLE

     BASIS OPTIONS
     -------------
     GBASIS=N311         IGAUSS=       6      POLAR=POPN311 
     NDFUNC=       1     NFFUNC=       0     DIFFSP=       F
     NPFUNC=       1      DIFFS=       F     BASNAM=        


     RUN TITLE
     ---------
 http://cactus.nci.nih.gov/chemical/structure/N,N-Diethylacetamide/file?format=sd

 THE POINT GROUP OF THE MOLECULE IS C1      
 THE ORDER OF THE PRINCIPAL AXIS IS     0

 ATOM      ATOMIC                      COORDINATES (BOHR)
           CHARGE         X                   Y                   Z
 C           6.0     0.7441740940       -2.6911587791        1.3296112050
 C           6.0     1.7056666765       -3.9584090265       -1.0847027170
 N           7.0     0.2511445838       -0.0126611641        0.8324242976
 C           6.0    -2.0499747515        0.7317019024        0.0336371226
 C           6.0    -4.0477930657       -1.2090466869       -0.5599258102
 O           8.0    -2.5127686459        2.9632793213       -0.2073029409
 C           6.0     2.2591674183        1.8566557829        1.2033775090
 C           6.0     3.5899124589        2.3542206355       -1.3148713423
 H           1.0    -0.9964525133       -3.6078648558        1.9399926990
 H           1.0     2.1667598175       -2.8642576796        2.8092666533
 H           1.0     0.2830809530       -3.7853101260       -2.5643581653
 H           1.0     3.4462932838       -3.0417029498       -1.6950842110
 H           1.0     2.0724624907       -5.9513140531       -0.7146943686
 H           1.0    -5.2456903693       -1.4887261331        1.0920726483
 H           1.0    -5.1967464662       -0.5512330706       -2.1378470099
 H           1.0    -3.1456378792       -2.9910582934       -1.0635377859
 H           1.0     1.4420499012        3.6116443077        1.9065445490
 H           1.0     3.6224157459        1.1378040172        2.5700273433
 H           1.0     4.4070299760        0.5990431381       -2.0182273549
 H           1.0     2.2266641313        3.0728834286       -2.6815211766
 H           1.0     5.0839298248        3.7450589625       -1.0387823755

          INTERNUCLEAR DISTANCES (ANGS.)




     $CONTRL OPTIONS
     ---------------
 SCFTYP=RHF          RUNTYP=OPTIMIZE     EXETYP=RUN     
 MPLEVL=       0     CITYP =NONE         CCTYP =NONE         VBTYP =NONE    
 DFTTYP=NONE         TDDFT =NONE    
 MULT  =       1     ICHARG=       0     NZVAR =       1     COORD =UNIQUE  
 PP    =NONE         RELWFN=NONE         LOCAL =NONE         NUMGRD=       F
 ISPHER=      -1     NOSYM =       0     MAXIT =     200     UNITS =ANGS    
 PLTORB=       F     MOLPLT=       F     AIMPAC=       F     FRIEND=        
 NPRINT=       7     IREST =       0     GEOM  =INPUT   
 NORMF =       0     NORMP =       0     ITOL  =      20     ICUT  =       9
 INTTYP=BEST         GRDTYP=BEST         QMTTOL= 1.0E-06

     $SYSTEM OPTIONS
     ---------------
  REPLICATED MEMORY=    40000000 WORDS (ON EVERY NODE).
 DISTRIBUTED MEMDDI=           0 MILLION WORDS IN AGGREGATE,
 MEMDDI DISTRIBUTED OVER   1 PROCESSORS IS           0 WORDS/PROCESSOR.
 TOTAL MEMORY REQUESTED ON EACH PROCESSOR=    40000000 WORDS.
 TIMLIM=       10000.00 MINUTES, OR       6.9 DAYS.
 PARALL= F  BALTYP=  DLB     KDIAG=    0  COREFL= F
 MXSEQ2=     300 MXSEQ3=     150  mem10=         0

     $COSGMS OPTIONS
     ---------------
     EPSI  =   INFTY     NSPA  =      92     COSRAD=    1.40
     DISEX =   10.00     OUTCHG=DBLCAV       COSBUG=       F
     COSWRT=       F     DCOSMO=       F

     SYMMETRY COORDINATES WILL NOT BE USED FOR 
     THE COSMO CALCULATION, EVEN IF SPECIFIED:
         -- SWITCHING TO C1 POINT GROUP --


     DEFINITION OF CAVITY
     ---------------------------
     ATOM         COORDINATES           RADIUS 
     1    0.7442   -2.6912    1.3296    2.0000
     2    1.7057   -3.9584   -1.0847    2.0000
     3    0.2511   -0.0127    0.8324    1.8300
     4   -2.0500    0.7317    0.0336    2.0000
     5   -4.0478   -1.2090   -0.5599    2.0000
     6   -2.5128    2.9633   -0.2073    1.7200
     7    2.2592    1.8567    1.2034    2.0000
     8    3.5899    2.3542   -1.3149    2.0000
     9   -0.9965   -3.6079    1.9400    1.3000
    10    2.1668   -2.8643    2.8093    1.3000
    11    0.2831   -3.7853   -2.5644    1.3000
    12    3.4463   -3.0417   -1.6951    1.3000
    13    2.0725   -5.9513   -0.7147    1.3000
    14   -5.2457   -1.4887    1.0921    1.3000
    15   -5.1967   -0.5512   -2.1378    1.3000
    16   -3.1456   -2.9911   -1.0635    1.3000
    17    1.4420    3.6116    1.9065    1.3000
    18    3.6224    1.1378    2.5700    1.3000
    19    4.4070    0.5990   -2.0182    1.3000
    20    2.2267    3.0729   -2.6815    1.3000
    21    5.0839    3.7451   -1.0388    1.3000

          ----------------
          PROPERTIES INPUT
          ----------------

     MOMENTS            FIELD           POTENTIAL          DENSITY
 IEMOM =       1   IEFLD =       0   IEPOT =       0   IEDEN =       0
 WHERE =COMASS     WHERE =NUCLEI     WHERE =NUCLEI     WHERE =NUCLEI  
 OUTPUT=BOTH       OUTPUT=BOTH       OUTPUT=BOTH       OUTPUT=BOTH    
 IEMINT=       0   IEFINT=       0                     IEDINT=       0
                                                       MORB  =       0
          EXTRAPOLATION IN EFFECT
          SOSCF IN EFFECT
 ORBITAL PRINTING OPTION: NPREO=     1   230     2     1

     -------------------------------
     INTEGRAL TRANSFORMATION OPTIONS
     -------------------------------
     NWORD  =            0
     CUTOFF = 1.0E-09     MPTRAN =       0
     DIRTRF =       T     AOINTS =DUP     

          ----------------------
          INTEGRAL INPUT OPTIONS
          ----------------------
 NOPK  =       1 NORDER=       0 SCHWRZ=       T


 -----------------------------------------------
  STATISTICS ON AUTOMATIC COORDINATE GENERATION 
 -----------------------------------------------
  NUMBER OF USER SPECIFIED BONDS                             0
  NUMBER OF BONDS                                           20
  NUMBER OF ANGLES                                          36
  NUMBER OF TORSIONS                                        40
  NUMBER OF EXTRA COORD.                                     0
  NUMBER OF EXTRA COORD. FOR CONSTRAINTS                     0
  NUMBER OF CONSTRAINED COORD.                               0

  TOTAL NUMBER OF PRIMITIVES                                96
 -----------------------------------------------

   --- ENCODED Z MATRIX ---
 COORD  TYPE   I   J   K   L   M   N
    1      1    1   9
    2      1    1  10
    3      1    1   2
    4      1    1   3
    5      1    2  13
    6      1    2  11
    7      1    2  12
    8      1    3   4
    9      1    3   7
   10      1    4   6
   11      1    4   5
   12      1    5  15
   13      1    5  14
   14      1    5  16
   15      1    7   8
   16      1    7  18
   17      1    7  17
   18      1    8  21
   19      1    8  20
   20      1    8  19
   21      2    1   2  12
   22      2    1   2  13
   23      2    1   3   4
   24      2    1   3   7
   25      2    1   2  11
   26      2    2   1   3
   27      2    2   1   9
   28      2    2   1  10
   29      2    3   1   9
   30      2    3   1  10
   31      2    3   7  17
   32      2    3   7   8
   33      2    3   4   5
   34      2    3   4   6
   35      2    3   7  18
   36      2    4   5  16
   37      2    4   3   7
   38      2    4   5  14
   39      2    4   5  15
   40      2    5   4   6
   41      2    7   8  21
   42      2    7   8  20
   43      2    7   8  19
   44      2    8   7  18
   45      2    8   7  17
   46      2    9   1  10
   47      2   11   2  12
   48      2   11   2  13
   49      2   12   2  13
   50      2   14   5  16
   51      2   14   5  15
   52      2   15   5  16
   53      2   17   7  18
   54      2   19   8  20
   55      2   19   8  21
   56      2   20   8  21
   57      3    1   3   7   8
   58      3    1   3   4   5
   59      3    1   3   4   6
   60      3    1   3   7  17
   61      3    1   3   7  18
   62      3    2   1   3   7
   63      3    2   1   3   4
   64      3    3   1   2  12
   65      3    3   1   2  13
   66      3    3   4   5  16
   67      3    3   4   5  14
   68      3    3   4   5  15
   69      3    3   7   8  19
   70      3    3   7   8  20
   71      3    3   7   8  21
   72      3    3   1   2  11
   73      3    4   3   1   9
   74      3    4   3   7  18
   75      3    4   3   7   8
   76      3    4   3   7  17
   77      3    4   3   1  10
   78      3    5   4   3   7
   79      3    6   4   5  15
   80      3    6   4   5  14
   81      3    6   4   5  16
   82      3    6   4   3   7
   83      3    7   3   1  10
   84      3    7   3   1   9
   85      3    9   1   2  11
   86      3    9   1   2  12
   87      3    9   1   2  13
   88      3   10   1   2  13
   89      3   10   1   2  11
   90      3   10   1   2  12
   91      3   17   7   8  19
   92      3   17   7   8  20
   93      3   17   7   8  21
   94      3   18   7   8  19
   95      3   18   7   8  20
   96      3   18   7   8  21

          INDEP./SYM. INTERNAL COORDINATES
          --------------------------------
 CRD  1=  -0.1131 (  4) -0.1224 (  8)  0.1038 (  9) -0.5593 ( 23)  0.1711 ( 24)
          -0.1400 ( 26)  0.1066 ( 28)  0.1821 ( 32) -0.4526 ( 33)  0.2518 ( 34)
           0.3883 ( 37)  0.2008 ( 40) -0.1151 ( 62) -0.1161 ( 63)
 CRD  2=   0.2098 (  4)  0.1592 (  9)  0.3280 ( 24)  0.5046 ( 26) -0.1842 ( 27)
          -0.1579 ( 29) -0.1364 ( 30) -0.1350 ( 31)  0.4047 ( 32) -0.1036 ( 35)
          -0.2321 ( 37) -0.1749 ( 45)  0.1738 ( 57)  0.1247 ( 60) -0.1353 ( 62)
          -0.1221 ( 84)
 CRD  3=   0.2119 (  8)  0.1384 (  9)  0.1533 ( 11)  0.1229 ( 23) -0.3971 ( 24)
          -0.1052 ( 26) -0.1379 ( 31)  0.5124 ( 32)  0.1839 ( 33) -0.1797 ( 35)
           0.2742 ( 37) -0.1367 ( 40)  0.1158 ( 42) -0.1982 ( 44)  0.1308 ( 58)
          -0.1112 ( 74) -0.1503 ( 75)  0.1901 ( 78)  0.1055 ( 82)
 CRD  4=   0.1252 ( 22)  0.4213 ( 24) -0.1153 ( 25) -0.4902 ( 26)  0.1539 ( 28)
           0.1479 ( 29)  0.1966 ( 30) -0.1571 ( 31)  0.1747 ( 32)  0.1963 ( 33)
          -0.1620 ( 34) -0.3866 ( 37)  0.1030 ( 58)  0.1051 ( 59) -0.1204 ( 69)
          -0.1065 ( 71)
 CRD  5=  -0.1112 (  3)  0.1323 ( 21) -0.1240 ( 24) -0.2039 ( 25) -0.1708 ( 27)
           0.2005 ( 28)  0.1130 ( 29) -0.1008 ( 30)  0.1225 ( 33)  0.2030 ( 38)
          -0.1204 ( 39) -0.3253 ( 58) -0.1856 ( 59) -0.3113 ( 62) -0.3328 ( 63)
          -0.1748 ( 73) -0.1671 ( 77) -0.3468 ( 78) -0.1566 ( 81) -0.2071 ( 82)
          -0.1455 ( 83) -0.1532 ( 84)
 CRD  6=   0.2309 (  3) -0.1460 (  8) -0.2510 (  9) -0.2577 ( 11) -0.1928 ( 15)
           0.1444 ( 21)  0.2045 ( 23)  0.1095 ( 26) -0.1252 ( 27) -0.1157 ( 30)
          -0.1190 ( 31) -0.1974 ( 33) -0.1121 ( 36) -0.1556 ( 37) -0.1409 ( 38)
           0.1075 ( 40)  0.1355 ( 42) -0.1994 ( 43) -0.1345 ( 44)  0.1833 ( 45)
          -0.2578 ( 57)  0.1105 ( 58) -0.1306 ( 61) -0.1374 ( 62) -0.1055 ( 63)
          -0.1625 ( 74) -0.2897 ( 75) -0.1242 ( 76)  0.1424 ( 78)
 CRD  7=  -0.1760 (  3) -0.2204 (  8) -0.3001 (  9) -0.2272 ( 11)  0.2638 ( 23)
          -0.1858 ( 24) -0.1369 ( 26)  0.1261 ( 29)  0.2181 ( 32) -0.1994 ( 33)
          -0.2102 ( 35) -0.1152 ( 36)  0.1503 ( 40) -0.1354 ( 41)  0.2150 ( 43)
           0.1410 ( 44) -0.1896 ( 45)  0.2521 ( 57)  0.1410 ( 60)  0.2632 ( 75)
           0.1521 ( 76)
 CRD  8=   0.1668 (  3)  0.1068 (  8)  0.1056 (  9)  0.1589 ( 11) -0.3149 ( 15)
           0.2269 ( 21) -0.1105 ( 25) -0.1280 ( 27)  0.1324 ( 28)  0.1285 ( 31)
          -0.1573 ( 32)  0.1575 ( 36)  0.1002 ( 37) -0.1294 ( 38)  0.1016 ( 39)
          -0.2409 ( 42)  0.1150 ( 44)  0.1213 ( 54)  0.1119 ( 57)  0.2327 ( 58)
           0.2780 ( 59) -0.1899 ( 62) -0.2332 ( 63)  0.1439 ( 66)  0.1251 ( 67)
          -0.1035 ( 73)  0.1552 ( 75)  0.1894 ( 78)  0.2346 ( 82)
 CRD  9=   0.1677 (  3)  0.5538 (  4)  0.2850 (  8)  0.2813 (  9)  0.1092 ( 10)
          -0.1160 ( 11)  0.1492 ( 15)  0.2488 ( 22)  0.1034 ( 23) -0.1100 ( 26)
           0.1512 ( 29) -0.1738 ( 33)  0.2448 ( 34) -0.2582 ( 36)  0.1058 ( 39)
           0.1233 ( 41)
 CRD 10=  -0.1008 ( 10) -0.4438 ( 11) -0.1124 ( 23)  0.1075 ( 33)  0.3666 ( 34)
           0.2396 ( 36)  0.1143 ( 37) -0.1911 ( 38) -0.4485 ( 39) -0.4741 ( 40)
           0.2327 ( 51)  0.1168 ( 52)
 CRD 11=   0.4446 (  3) -0.1006 (  4) -0.3004 (  8)  0.2673 ( 15)  0.1569 ( 22)
           0.2210 ( 25)  0.1356 ( 28) -0.1530 ( 30) -0.1504 ( 34) -0.1252 ( 35)
           0.2163 ( 38) -0.3054 ( 39)  0.1343 ( 41)  0.1243 ( 42) -0.1328 ( 47)
          -0.1723 ( 48) -0.1063 ( 50) -0.1186 ( 56)  0.1336 ( 67)  0.1239 ( 68)
 CRD 12=   0.3045 (  3)  0.2053 (  8) -0.2078 (  9) -0.2179 ( 15)  0.1315 ( 21)
           0.1846 ( 22)  0.2172 ( 27) -0.2181 ( 29)  0.1073 ( 30)  0.1029 ( 34)
          -0.1955 ( 36)  0.3044 ( 38) -0.1025 ( 40) -0.3491 ( 41)  0.2165 ( 43)
          -0.1458 ( 49)  0.1696 ( 56)  0.1243 ( 64)  0.1394 ( 65)  0.1478 ( 72)
 CRD 13=   0.1165 (  4) -0.1590 (  8)  0.1895 (  9) -0.4740 ( 15) -0.3468 ( 21)
           0.2124 ( 25)  0.1867 ( 31) -0.1205 ( 39) -0.2660 ( 41) -0.2170 ( 43)
          -0.1247 ( 44) -0.1993 ( 45) -0.1058 ( 48)  0.1139 ( 54)  0.2129 ( 55)
           0.1123 ( 56) -0.1024 ( 60)  0.1066 ( 61) -0.1226 ( 65)  0.1183 ( 74)
 CRD 14=  -0.1838 (  4)  0.1010 (  6)  0.1577 (  9) -0.1202 ( 19) -0.2076 ( 21)
          -0.1057 ( 22)  0.3551 ( 25)  0.1182 ( 29) -0.1676 ( 30) -0.1726 ( 31)
           0.2050 ( 35)  0.1117 ( 41) -0.4177 ( 42)  0.2894 ( 43)  0.1202 ( 49)
          -0.1565 ( 55)  0.1197 ( 56) -0.1284 ( 64) -0.1730 ( 65) -0.1692 ( 69)
          -0.1823 ( 70) -0.2231 ( 71) -0.1408 ( 72)
 CRD 15=   0.2171 (  3) -0.1137 ( 13)  0.4284 ( 22) -0.1339 ( 25)  0.1402 ( 28)
          -0.1046 ( 30)  0.2035 ( 36) -0.3923 ( 38)  0.2053 ( 39) -0.1515 ( 42)
           0.1323 ( 43) -0.1281 ( 48) -0.1427 ( 49) -0.1484 ( 52) -0.1184 ( 58)
          -0.2333 ( 59) -0.1578 ( 66) -0.1940 ( 67) -0.2264 ( 68)  0.1224 ( 77)
          -0.1114 ( 79) -0.1596 ( 82) -0.1101 ( 84)
 CRD 16=  -0.1002 (  3) -0.1129 (  9) -0.1348 ( 15) -0.1105 ( 17)  0.1447 ( 18)
          -0.1875 ( 21)  0.2861 ( 22) -0.2021 ( 25) -0.1200 ( 29) -0.1375 ( 31)
           0.1431 ( 32) -0.1251 ( 36)  0.2129 ( 38) -0.1094 ( 39)  0.4596 ( 41)
          -0.2522 ( 42) -0.3469 ( 43)  0.1655 ( 47)  0.2548 ( 54)
 CRD 17=  -0.1426 (  1) -0.1551 (  4) -0.1232 (  7)  0.1394 (  8)  0.1160 ( 15)
           0.1619 ( 16)  0.1042 ( 19) -0.3799 ( 21)  0.2350 ( 22)  0.1270 ( 26)
          -0.1087 ( 29) -0.1357 ( 31)  0.1364 ( 35) -0.1077 ( 38)  0.1150 ( 39)
          -0.1488 ( 41)  0.3693 ( 42)  0.1863 ( 45)  0.1251 ( 47) -0.1404 ( 48)
          -0.1272 ( 54)  0.1494 ( 60) -0.1048 ( 63)  0.1219 ( 66)  0.1189 ( 67)
           0.1129 ( 68) -0.1081 ( 69) -0.1153 ( 73)  0.1693 ( 76)
 CRD 18=   0.2068 (  2)  0.1597 (  3) -0.1109 (  5)  0.1119 (  6) -0.1280 (  9)
          -0.2622 ( 22)  0.4098 ( 25) -0.1562 ( 26)  0.2003 ( 27)  0.1798 ( 30)
           0.1247 ( 32) -0.1332 ( 35) -0.1769 ( 38)  0.1876 ( 39)  0.2016 ( 41)
          -0.2595 ( 43) -0.1082 ( 46) -0.1998 ( 47)  0.1064 ( 50)  0.1133 ( 54)
          -0.1124 ( 58)  0.1142 ( 64) -0.1520 ( 73) -0.1149 ( 78) -0.1496 ( 84)
 CRD 19=   0.1423 (  1) -0.2069 (  4)  0.2070 (  9) -0.2597 ( 10) -0.1906 ( 11)
           0.1103 ( 16) -0.1197 ( 17)  0.2371 ( 21) -0.1414 ( 25)  0.1697 ( 28)
          -0.1706 ( 30)  0.1237 ( 33)  0.1356 ( 35) -0.3225 ( 36)  0.1618 ( 39)
           0.1766 ( 42) -0.2182 ( 43) -0.1119 ( 44)  0.1751 ( 50)  0.1017 ( 55)
           0.1115 ( 57)  0.1586 ( 61)  0.1485 ( 74)  0.1014 ( 75)  0.1787 ( 77)
           0.1685 ( 83)
 CRD 20=  -0.1594 (  1) -0.1165 (  8) -0.4067 ( 10) -0.1665 ( 11) -0.1181 ( 14)
           0.1709 ( 17) -0.1713 ( 21)  0.1674 ( 31)  0.2534 ( 33) -0.1414 ( 34)
          -0.1461 ( 35) -0.3784 ( 36)  0.1691 ( 39) -0.1120 ( 40)  0.1667 ( 43)
           0.1476 ( 44)  0.1773 ( 50)  0.1087 ( 52) -0.1357 ( 61)  0.1219 ( 69)
           0.1229 ( 70)  0.1191 ( 71) -0.1376 ( 74)
 CRD 21=  -0.1552 (  1)  0.2036 (  2)  0.1142 (  8)  0.2100 ( 16) -0.1476 ( 17)
           0.1024 ( 25) -0.1953 ( 27)  0.2550 ( 28)  0.1288 ( 29)  0.2169 ( 38)
           0.1057 ( 42)  0.2555 ( 44) -0.1184 ( 45)  0.1397 ( 57) -0.1340 ( 62)
          -0.2186 ( 66) -0.2291 ( 67) -0.2432 ( 68)  0.1480 ( 73) -0.1620 ( 74)
           0.1625 ( 77)  0.1701 ( 78) -0.1410 ( 79) -0.1269 ( 80) -0.1163 ( 81)
 CRD 22=  -0.1732 (  1)  0.3172 (  2) -0.3444 ( 16)  0.1945 ( 17) -0.1984 ( 27)
           0.2383 ( 28) -0.2585 ( 44)  0.2156 ( 45)  0.1800 ( 60)  0.2145 ( 61)
           0.1088 ( 65)  0.1007 ( 69)  0.1021 ( 70)  0.1230 ( 71)  0.1643 ( 73)
           0.2187 ( 74)  0.1841 ( 76)  0.1988 ( 77)  0.2029 ( 83)  0.1685 ( 84)
 CRD 23=   0.1057 ( 11)  0.4078 ( 12)  0.4514 ( 13)  0.4401 ( 14)  0.1322 ( 17)
          -0.1725 ( 36) -0.1193 ( 38) -0.2374 ( 39)  0.1006 ( 40)  0.1018 ( 45)
           0.1303 ( 50)  0.1812 ( 51)  0.2177 ( 52)  0.1182 ( 60) -0.1045 ( 67)
          -0.1011 ( 68) -0.1017 ( 80) -0.1019 ( 84)
 CRD 24=  -0.2315 (  1) -0.1208 (  7)  0.2226 ( 12)  0.1801 ( 13)  0.2339 ( 14)
          -0.2638 ( 17) -0.1173 ( 18) -0.1445 ( 19) -0.1849 ( 20) -0.1637 ( 27)
          -0.1883 ( 38) -0.2046 ( 45)  0.1149 ( 50)  0.1291 ( 51) -0.2266 ( 60)
          -0.1064 ( 61)  0.1520 ( 66)  0.1625 ( 67)  0.1804 ( 68)  0.1330 ( 73)
          -0.1598 ( 76) -0.1222 ( 78)  0.1798 ( 79)  0.1620 ( 80)  0.1514 ( 81)
          -0.1217 ( 82)  0.1482 ( 83)  0.1998 ( 84)
 CRD 25=   0.1462 (  3)  0.4103 (  5)  0.4289 (  6)  0.4266 (  7) -0.2651 ( 18)
          -0.2780 ( 19) -0.2742 ( 20) -0.1463 ( 21) -0.1607 ( 22) -0.1451 ( 25)
           0.1034 ( 41)  0.1433 ( 47)  0.1539 ( 48)  0.1550 ( 49) -0.1004 ( 55)
 CRD 26=   0.2558 (  5)  0.2622 (  6)  0.2463 (  7)  0.1437 ( 15)  0.3971 ( 18)
           0.3997 ( 19)  0.3851 ( 20) -0.1317 ( 41) -0.1358 ( 42) -0.1439 ( 43)
           0.1407 ( 54)  0.1387 ( 55)  0.1319 ( 56)  0.1023 ( 68)  0.1013 ( 79)
 CRD 27=   0.4845 ( 12) -0.5477 ( 14) -0.3360 ( 50)  0.3680 ( 51)  0.1127 ( 66)
          -0.2588 ( 67)  0.1456 ( 68)  0.1458 ( 79) -0.2586 ( 80)  0.1129 ( 81)
 CRD 28=   0.3390 ( 12) -0.6020 ( 13)  0.2623 ( 14) -0.2255 ( 50) -0.1744 ( 51)
           0.4000 ( 52)  0.2435 ( 66) -0.2045 ( 68) -0.1909 ( 79)  0.2570 ( 81)
 CRD 29=   0.4561 (  1)  0.3253 (  2) -0.1465 (  5) -0.4000 ( 16) -0.4485 ( 17)
           0.1456 ( 18)  0.1597 ( 46) -0.1786 ( 53) -0.1006 ( 54) -0.1053 ( 61)
          -0.1083 ( 74) -0.1027 ( 77) -0.1057 ( 83) -0.1013 ( 92)
 CRD 30=   0.3353 (  1)  0.4236 (  2) -0.2645 (  5)  0.1328 (  6)  0.3783 ( 16)
           0.3055 ( 17) -0.2262 ( 18)  0.1064 ( 19)  0.1636 ( 46)  0.1515 ( 47)
           0.1507 ( 53)  0.1333 ( 54) -0.1070 ( 60)  0.1066 ( 84) -0.1193 ( 85)
           0.1365 ( 90)  0.1019 ( 92) -0.1198 ( 94)
 CRD 31=  -0.5143 (  6)  0.4507 (  7) -0.2194 ( 18)  0.2894 ( 20) -0.2425 ( 48)
           0.2750 ( 49)  0.1093 ( 54) -0.1518 ( 56) -0.1042 ( 64)  0.1847 ( 65)
          -0.1004 ( 86)  0.1885 ( 87)  0.1919 ( 88)
 CRD 32=  -0.1479 (  5)  0.2034 (  6)  0.1376 ( 18) -0.5754 ( 19)  0.4387 ( 20)
          -0.1065 ( 49)  0.3066 ( 55) -0.2378 ( 56)  0.1231 ( 69) -0.2003 ( 71)
           0.1306 ( 91) -0.1928 ( 93)  0.1204 ( 94) -0.2030 ( 96)
 CRD 33=   0.1534 (  1)  0.1010 (  2)  0.3617 (  5) -0.4040 (  7) -0.1323 ( 16)
          -0.1580 ( 17) -0.4081 ( 18)  0.3171 ( 20) -0.1804 ( 47)  0.2092 ( 48)
           0.2025 ( 54) -0.1614 ( 56)  0.1237 ( 70)  0.1250 ( 72)  0.1151 ( 85)
          -0.1086 ( 87)  0.1612 ( 89) -0.1169 ( 91)  0.1043 ( 92)  0.1562 ( 95)
 CRD 34=   0.2161 (  1)  0.2748 (  2)  0.4178 (  5) -0.2878 (  6) -0.1535 (  7)
           0.2293 ( 16)  0.1743 ( 17)  0.3413 ( 18) -0.2216 ( 19) -0.1362 ( 20)
           0.1106 ( 46) -0.2060 ( 47)  0.1419 ( 49) -0.1672 ( 54)  0.1079 ( 55)
          -0.1146 ( 64)  0.1166 ( 72) -0.1732 ( 86)  0.1525 ( 89)  0.1358 ( 91)
          -0.1271 ( 95)
 CRD 35=   0.3751 (  1) -0.3689 (  2) -0.2188 (  9)  0.1499 ( 11)  0.1648 ( 12)
           0.1004 ( 13) -0.1644 ( 16)  0.2745 ( 17)  0.1565 ( 29) -0.1687 ( 30)
           0.1711 ( 34) -0.1571 ( 35) -0.2131 ( 40)  0.1867 ( 85)  0.1844 ( 86)
           0.1637 ( 87)  0.1694 ( 88)  0.1924 ( 89)  0.1901 ( 90) -0.1527 ( 94)
          -0.1693 ( 95) -0.1497 ( 96)
 CRD 36=   0.1315 (  1) -0.1836 (  2)  0.1427 (  4) -0.1201 (  9) -0.1391 ( 10)
           0.3536 ( 16) -0.3172 ( 17)  0.1106 ( 29) -0.1663 ( 31)  0.1373 ( 69)
           0.1298 ( 70)  0.1263 ( 71)  0.1528 ( 85)  0.1654 ( 86)  0.1559 ( 87)
           0.2911 ( 91)  0.2836 ( 92)  0.2802 ( 93)  0.2337 ( 94)  0.2262 ( 95)
           0.2227 ( 96)
 CRD 37=  -0.1675 (  8) -0.2385 (  9) -0.1178 ( 10)  0.1912 ( 11)  0.2247 ( 12)
           0.1660 ( 13)  0.1105 ( 24)  0.2479 ( 34)  0.1194 ( 38)  0.1587 ( 39)
          -0.2840 ( 40) -0.1644 ( 51) -0.1103 ( 52) -0.2081 ( 64) -0.2205 ( 65)
          -0.2153 ( 72) -0.1975 ( 85) -0.1903 ( 86) -0.2027 ( 87) -0.2471 ( 88)
          -0.2418 ( 89) -0.2346 ( 90)  0.1044 ( 91)
 CRD 38=   0.2753 (  4)  0.1113 (  5) -0.1235 (  9) -0.5398 ( 10)  0.1242 ( 14)
          -0.1108 ( 17) -0.1319 ( 24) -0.1058 ( 27) -0.1199 ( 28)  0.1216 ( 29)
           0.1295 ( 30) -0.1134 ( 34)  0.1021 ( 36)  0.1675 ( 37)  0.1361 ( 40)
          -0.1813 ( 69) -0.1878 ( 70) -0.1881 ( 71)  0.1018 ( 85)  0.1375 ( 86)
           0.1164 ( 87) -0.1168 ( 91) -0.1233 ( 92) -0.1236 ( 93) -0.1799 ( 94)
          -0.1864 ( 95) -0.1867 ( 96)
 CRD 39=  -0.2255 (  4)  0.1381 (  5)  0.1021 (  6)  0.1244 ( 10)  0.1779 ( 18)
           0.1149 ( 19)  0.1049 ( 21)  0.1159 ( 22)  0.1017 ( 25) -0.1412 ( 27)
          -0.1567 ( 28)  0.1023 ( 31)  0.1422 ( 41)  0.1198 ( 42)  0.1099 ( 43)
          -0.1627 ( 44) -0.1775 ( 45)  0.1709 ( 46) -0.1204 ( 48) -0.1168 ( 49)
           0.1037 ( 53) -0.1386 ( 55) -0.1510 ( 56)  0.2033 ( 59) -0.1749 ( 60)
          -0.1106 ( 66)  0.1907 ( 74) -0.2157 ( 77) -0.2103 ( 79) -0.2153 ( 80)
          -0.2516 ( 81)  0.1696 ( 84)
 CRD 40=   0.1246 (  2) -0.1668 (  5) -0.1351 (  6) -0.1423 (  8) -0.2832 ( 10)
          -0.1064 ( 11)  0.1814 ( 13)  0.1840 ( 14)  0.1446 ( 18) -0.1120 ( 21)
          -0.1471 ( 22)  0.1828 ( 23) -0.1441 ( 25)  0.1499 ( 27) -0.1139 ( 29)
           0.1051 ( 31) -0.1587 ( 33)  0.1938 ( 34)  0.1199 ( 35)  0.1738 ( 36)
          -0.1193 ( 37)  0.1525 ( 38)  0.1358 ( 39)  0.1207 ( 41)  0.1059 ( 47)
           0.1629 ( 48)  0.1344 ( 49) -0.1982 ( 50) -0.1322 ( 51) -0.1317 ( 52)
          -0.1272 ( 55) -0.1150 ( 56) -0.1319 ( 73) -0.1497 ( 84)  0.1015 ( 88)
           0.1227 ( 89)
 CRD 41=   0.1670 (  1)  0.1367 (  3)  0.1475 (  4) -0.1463 (  7)  0.1843 (  8)
          -0.2686 (  9)  0.1578 ( 11) -0.1420 ( 12) -0.1229 ( 14) -0.2343 ( 15)
           0.1626 ( 18)  0.1703 ( 19)  0.1827 ( 20) -0.1256 ( 21) -0.1046 ( 22)
          -0.1404 ( 23) -0.1486 ( 34) -0.1104 ( 36)  0.1031 ( 37) -0.1240 ( 38)
          -0.1321 ( 39)  0.1781 ( 41)  0.1811 ( 42)  0.1849 ( 43)  0.1089 ( 47)
           0.1392 ( 49)  0.1037 ( 50)  0.1159 ( 51)  0.1468 ( 52)  0.1238 ( 53)
          -0.1888 ( 54) -0.1827 ( 55) -0.1726 ( 56)
 CRD 42=   0.3561 (  3) -0.1474 (  5) -0.1855 (  6) -0.1465 (  7) -0.2143 (  8)
           0.1819 ( 10)  0.1413 ( 12) -0.1833 ( 13)  0.1992 ( 15) -0.1181 ( 17)
          -0.1327 ( 19) -0.1710 ( 21) -0.1760 ( 22) -0.1778 ( 25) -0.1019 ( 41)
          -0.1071 ( 42)  0.1856 ( 47)  0.1855 ( 48)  0.1537 ( 49)  0.1533 ( 50)
           0.1330 ( 56)  0.2165 ( 59) -0.1424 ( 79) -0.1407 ( 80) -0.2779 ( 81)
           0.1139 ( 82)
 CRD 43=  -0.1364 (  2) -0.1191 (  4)  0.5021 (  8) -0.3881 ( 10) -0.1057 ( 12)
           0.2165 ( 14)  0.1458 ( 15) -0.1720 ( 16)  0.1177 ( 17) -0.1069 ( 20)
          -0.1418 ( 33) -0.1270 ( 37)  0.1326 ( 40)  0.1058 ( 46)  0.1470 ( 51)
           0.1111 ( 55)  0.1123 ( 59) -0.1072 ( 60) -0.1811 ( 80) -0.1068 ( 81)
           0.1084 ( 84) -0.1034 ( 85) -0.1338 ( 86) -0.1052 ( 87)  0.1208 ( 91)
           0.1144 ( 92)
 CRD 44=  -0.1334 (  1)  0.1157 (  2)  0.1041 (  7) -0.1694 (  8) -0.2284 ( 10)
           0.6162 ( 11) -0.1862 ( 12) -0.1473 ( 14)  0.1043 ( 23) -0.1271 ( 33)
           0.2527 ( 34) -0.1591 ( 36) -0.1067 ( 37) -0.1754 ( 38) -0.1583 ( 39)
          -0.1256 ( 40)  0.1322 ( 50)  0.1601 ( 51)  0.2005 ( 52)  0.1135 ( 89)
           0.1121 ( 95)
 CRD 45=   0.1458 (  1) -0.1089 (  2)  0.1626 (  3) -0.1028 (  4) -0.1908 (  7)
          -0.2011 (  9) -0.1357 ( 12)  0.2757 ( 13) -0.1099 ( 14)  0.3514 ( 15)
          -0.1132 ( 19) -0.1665 ( 20)  0.1358 ( 30)  0.1264 ( 31)  0.1516 ( 35)
          -0.1244 ( 44) -0.1164 ( 45)  0.1101 ( 47) -0.1178 ( 50)  0.1817 ( 52)
           0.1909 ( 54)  0.1170 ( 65) -0.1842 ( 68)  0.1282 ( 74)  0.2052 ( 81)
          -0.1173 ( 82) -0.1870 ( 89) -0.1369 ( 91) -0.1006 ( 93)  0.1619 ( 95)
 CRD 46=   0.1708 (  2)  0.2655 (  3) -0.2281 (  4)  0.1219 (  5) -0.2503 (  6)
           0.1058 (  9) -0.1314 ( 15) -0.2097 ( 16)  0.1926 ( 17)  0.2352 ( 19)
          -0.1150 ( 20) -0.1262 ( 28)  0.2127 ( 29) -0.1601 ( 31)  0.1962 ( 47)
           0.1360 ( 55) -0.1405 ( 56) -0.1172 ( 65) -0.1809 ( 71)  0.1114 ( 85)
           0.2842 ( 86) -0.1284 ( 88) -0.1016 ( 89)  0.2141 ( 91)  0.1442 ( 92)
           0.1323 ( 94)
 CRD 47=   0.1469 (  1)  0.1455 (  5) -0.1095 (  7) -0.1620 (  9)  0.1413 ( 12)
          -0.2873 ( 13)  0.1374 ( 14)  0.1592 ( 17)  0.2314 ( 18) -0.1168 ( 20)
           0.1008 ( 38) -0.1390 ( 46) -0.1051 ( 48)  0.1082 ( 50)  0.1054 ( 51)
          -0.2033 ( 52) -0.2118 ( 53)  0.1549 ( 54) -0.1176 ( 56) -0.1270 ( 66)
           0.1901 ( 68) -0.1115 ( 69)  0.1152 ( 70) -0.1615 ( 74)  0.1528 ( 77)
           0.1721 ( 79) -0.1449 ( 81) -0.1909 ( 89) -0.2063 ( 91) -0.1122 ( 93)
           0.2516 ( 95)  0.1189 ( 96)
 CRD 48=   0.2807 (  4) -0.1922 (  5)  0.1276 (  7) -0.1604 (  9) -0.1045 ( 11)
           0.2056 ( 12) -0.1558 ( 14) -0.1172 ( 16)  0.1507 ( 17)  0.1478 ( 19)
          -0.2608 ( 20) -0.1156 ( 34)  0.1542 ( 35)  0.1714 ( 37)  0.1035 ( 40)
          -0.1652 ( 47)  0.1201 ( 50) -0.1431 ( 51)  0.1338 ( 55) -0.1872 ( 56)
          -0.1122 ( 64)  0.1410 ( 67) -0.2404 ( 71)  0.1052 ( 72)  0.1454 ( 80)
          -0.1636 ( 86)  0.1880 ( 89)  0.1416 ( 92) -0.1352 ( 93)  0.2023 ( 95)
 CRD 49=  -0.1352 (  1)  0.1376 (  2) -0.2466 (  6)  0.2616 (  7)  0.2065 (  8)
          -0.2521 (  9) -0.1555 ( 11)  0.1515 ( 18) -0.1892 ( 19) -0.1926 ( 23)
           0.1620 ( 24)  0.1220 ( 29) -0.1394 ( 30) -0.1235 ( 34)  0.2007 ( 48)
          -0.1977 ( 49)  0.1339 ( 54) -0.1332 ( 55) -0.2997 ( 65)  0.1211 ( 71)
           0.1409 ( 85)  0.1292 ( 86) -0.1501 ( 87) -0.1452 ( 88)  0.1458 ( 89)
           0.1341 ( 90) -0.1807 ( 91) -0.1069 ( 94)
 CRD 50=   0.1458 (  5)  0.2044 (  8) -0.1756 ( 10)  0.3006 ( 12) -0.3335 ( 14)
           0.1034 ( 20) -0.2206 ( 33)  0.1978 ( 36) -0.1813 ( 39)  0.2020 ( 40)
           0.2229 ( 50) -0.2394 ( 51) -0.1098 ( 66)  0.2698 ( 67) -0.1489 ( 68)
           0.1040 ( 71) -0.1657 ( 79)  0.2530 ( 80) -0.1266 ( 81)  0.1111 ( 86)
 CRD 51=   0.1292 (  2) -0.3111 (  3)  0.1261 (  4)  0.1603 (  5)  0.1249 ( 14)
           0.2899 ( 15) -0.1341 ( 16) -0.1675 ( 18)  0.1101 ( 19)  0.1417 ( 27)
           0.1331 ( 28)  0.1132 ( 35) -0.1339 ( 44) -0.1272 ( 45) -0.1642 ( 46)
          -0.1182 ( 49)  0.1546 ( 53)  0.1536 ( 55)  0.1163 ( 59) -0.2118 ( 60)
          -0.2013 ( 73) -0.2140 ( 76)  0.1184 ( 82) -0.2035 ( 84)  0.1118 ( 86)
           0.1356 ( 91)  0.1062 ( 94)
 CRD 52=  -0.1426 (  3)  0.1467 (  4)  0.1847 (  5) -0.1088 (  7)  0.1479 (  9)
           0.1514 ( 13) -0.1456 ( 15)  0.1963 ( 18) -0.1416 ( 20)  0.1197 ( 27)
           0.1017 ( 28) -0.1154 ( 29) -0.1163 ( 31) -0.1037 ( 35) -0.1103 ( 38)
          -0.1034 ( 41)  0.1085 ( 43)  0.1380 ( 45)  0.1181 ( 47) -0.1104 ( 48)
           0.1098 ( 52)  0.1266 ( 54) -0.1363 ( 56) -0.1200 ( 57)  0.1441 ( 59)
          -0.1464 ( 61)  0.1053 ( 62)  0.1080 ( 64)  0.1713 ( 66)  0.1493 ( 70)
          -0.1251 ( 72) -0.1640 ( 78) -0.2260 ( 79) -0.1504 ( 80)  0.1508 ( 83)
          -0.2122 ( 85)  0.1120 ( 88)  0.1849 ( 90)  0.2302 ( 92) -0.1924 ( 94)
          -0.1476 ( 96)
 CRD 53=   0.1837 (  2) -0.1615 (  4) -0.1437 (  5)  0.1533 (  6)  0.1673 (  9)
          -0.1840 ( 16)  0.1478 ( 18) -0.1512 ( 19)  0.1344 ( 22) -0.1155 ( 25)
           0.1416 ( 26) -0.1456 ( 32) -0.1382 ( 41)  0.1144 ( 42) -0.1786 ( 46)
          -0.1219 ( 47)  0.1090 ( 49)  0.1833 ( 53)  0.1253 ( 54) -0.1072 ( 55)
          -0.1309 ( 60) -0.1857 ( 64) -0.1861 ( 69) -0.1263 ( 73) -0.1323 ( 76)
          -0.1277 ( 84)  0.2435 ( 85)  0.2388 ( 87) -0.2393 ( 90)  0.2509 ( 92)
           0.2375 ( 93) -0.2454 ( 94)
 CRD 54=   0.1929 (  1) -0.1115 (  3) -0.1357 (  4) -0.1107 (  5)  0.1169 (  7)
           0.1357 ( 13) -0.1005 ( 15)  0.1211 ( 22)  0.1504 ( 26)  0.1138 ( 32)
          -0.1237 ( 38) -0.1897 ( 46) -0.1024 ( 47) -0.1424 ( 53) -0.1145 ( 57)
          -0.1095 ( 58)  0.1778 ( 59) -0.1795 ( 61)  0.2186 ( 66)  0.1101 ( 67)
           0.1627 ( 72) -0.1157 ( 74)  0.1626 ( 77) -0.1732 ( 78) -0.2646 ( 79)
          -0.1772 ( 80)  0.1141 ( 82)  0.2264 ( 83)  0.1997 ( 85) -0.2092 ( 88)
          -0.2239 ( 90) -0.1355 ( 92) -0.1143 ( 93)  0.1588 ( 94)
 CRD 55=   0.1543 (  1) -0.1137 (  2) -0.1276 (  4) -0.1182 (  6)  0.1471 (  7)
           0.1680 (  9) -0.2264 ( 17) -0.1754 ( 20) -0.1226 ( 21)  0.1176 ( 23)
          -0.1306 ( 27)  0.1126 ( 30) -0.1270 ( 35) -0.1227 ( 37)  0.1458 ( 43)
          -0.1041 ( 44)  0.1389 ( 45)  0.1152 ( 48)  0.1147 ( 53) -0.1289 ( 56)
          -0.1161 ( 57)  0.1430 ( 61) -0.1691 ( 62) -0.1456 ( 63)  0.1446 ( 64)
           0.1259 ( 69)  0.2391 ( 70)  0.1929 ( 72)  0.1195 ( 74) -0.1396 ( 75)
          -0.1579 ( 87) -0.2255 ( 88)  0.1278 ( 92) -0.1267 ( 93) -0.1472 ( 94)
          -0.2885 ( 96)
 CRD 56=   0.1462 (  1) -0.1854 (  2) -0.1384 (  6)  0.1186 (  7) -0.1491 (  8)
          -0.1857 ( 16)  0.1420 ( 17) -0.1388 ( 19)  0.1167 ( 20) -0.1045 ( 21)
           0.1033 ( 23) -0.2050 ( 24)  0.1258 ( 25) -0.1143 ( 27)  0.1355 ( 28)
          -0.1370 ( 29)  0.1077 ( 30) -0.1342 ( 31)  0.1078 ( 35)  0.1017 ( 37)
           0.1256 ( 42) -0.1028 ( 43)  0.1339 ( 44) -0.1131 ( 45) -0.1061 ( 49)
          -0.1060 ( 55)  0.1549 ( 57) -0.1536 ( 62) -0.1517 ( 63)  0.2268 ( 64)
          -0.2263 ( 69) -0.1915 ( 70)  0.1950 ( 72)  0.1530 ( 75) -0.2322 ( 87)
          -0.1814 ( 88)  0.2324 ( 93)  0.1775 ( 96)
 CRD 57=  -0.1150 ( 26) -0.1149 ( 32)  0.1666 ( 57) -0.3452 ( 58)  0.1056 ( 60)
           0.2509 ( 61) -0.1743 ( 62)  0.2130 ( 63)  0.2352 ( 66)  0.1897 ( 67)
           0.1534 ( 68)  0.2854 ( 73) -0.1364 ( 74) -0.2206 ( 75) -0.2817 ( 76)
           0.1407 ( 77) -0.1606 ( 79) -0.1243 ( 80)  0.3560 ( 82) -0.2465 ( 83)
          -0.1018 ( 84)

 THE DETERMINANT OF THE G MATRIX IS 10**(   -25)


                     --------------------
                     INTERNAL COORDINATES
                     --------------------

                 - - ATOMS - -         COORDINATE      COORDINATE
 NO.   TYPE    I  J  K  L  M  N        (BOHR,RAD)       (ANG,DEG)
 ----------------------------------------------------------------
   1 STRETCH   1  9                     2.0597807       1.0899891
   2 STRETCH   1 10                     2.0598771       1.0900401
   3 STRETCH   1  2                     2.8912459       1.5299816
   4 STRETCH   1  3                     2.7685054       1.4650301
   5 STRETCH   2 13                     2.0598825       1.0900429
   6 STRETCH   2 11                     2.0598771       1.0900401
   7 STRETCH   2 12                     2.0597807       1.0899891
   8 STRETCH   3  4                     2.5470154       1.3478226
   9 STRETCH   3  7                     2.7684125       1.4649809
  10 STRETCH   4  6                     2.2917609       1.2127477
  11 STRETCH   4  5                     2.8478237       1.5070035
  12 STRETCH   5 15                     2.0597689       1.0899828
  13 STRETCH   5 14                     2.0596790       1.0899353
  14 STRETCH   5 16                     2.0598724       1.0900376
  15 STRETCH   7  8                     2.8913717       1.5300481
  16 STRETCH   7 18                     2.0598363       1.0900185
  17 STRETCH   7 17                     2.0596382       1.0899137
  18 STRETCH   8 21                     2.0597923       1.0899952
  19 STRETCH   8 20                     2.0597704       1.0899836
  20 STRETCH   8 19                     2.0598638       1.0900330
  21 BEND      1  2 12                  1.9107125     109.4757643
  22 BEND      1  2 13                  1.9105719     109.4677066
  23 BEND      1  3  4                  2.0943506     119.9974475
  24 BEND      1  3  7                  2.0944449     120.0028558
  25 BEND      1  2 11                  1.9106303     109.4710550
  26 BEND      2  1  3                  1.9106150     109.4701757
  27 BEND      2  1  9                  1.9107125     109.4757643
  28 BEND      2  1 10                  1.9106303     109.4710550
  29 BEND      3  1  9                  1.9106054     109.4696264
  30 BEND      3  1 10                  1.9105886     109.4686639
  31 BEND      3  7 17                  1.9106404     109.4716308
  32 BEND      3  7  8                  1.9106267     109.4708445
  33 BEND      3  4  5                  2.0943954     120.0000160
  34 BEND      3  4  6                  2.0943817     119.9992342
  35 BEND      3  7 18                  1.9105978     109.4691914
  36 BEND      4  5 16                  1.9105673     109.4674418
  37 BEND      4  3  7                  2.0943898     119.9996967
  38 BEND      4  5 14                  1.9106699     109.4733210
  39 BEND      4  5 15                  1.9106438     109.4718273
  40 BEND      5  4  6                  2.0944082     120.0007497
  41 BEND      7  8 21                  1.9105833     109.4683570
  42 BEND      7  8 20                  1.9106016     109.4694095
  43 BEND      7  8 19                  1.9106348     109.4713087
  44 BEND      8  7 18                  1.9106071     109.4697204
  45 BEND      8  7 17                  1.9106055     109.4696303
  46 BEND      9  1 10                  1.9106475     109.4720382
  47 BEND     11  2 12                  1.9106475     109.4720382
  48 BEND     11  2 13                  1.9106044     109.4695706
  49 BEND     12  2 13                  1.9106327     109.4711889
  50 BEND     14  5 16                  1.9106428     109.4717672
  51 BEND     14  5 15                  1.9106877     109.4743423
  52 BEND     15  5 16                  1.9105879     109.4686238
  53 BEND     17  7 18                  1.9107220     109.4763063
  54 BEND     19  8 20                  1.9105811     109.4682321
  55 BEND     19  8 21                  1.9107012     109.4751171
  56 BEND     20  8 21                  1.9106974     109.4748993
  57 TORSION   1  3  7  8               1.6618765      95.2185078
  58 TORSION   1  3  4  5              -0.0905289      -5.1869232
  59 TORSION   1  3  4  6               3.0509992     174.8093789
  60 TORSION   1  3  7 17              -2.5269474    -144.7834191
  61 TORSION   1  3  7 18              -0.4324609     -24.7781820
  62 TORSION   2  1  3  7              -1.5707531     -89.9975239
  63 TORSION   2  1  3  4               1.5708125      90.0009258
  64 TORSION   3  1  2 12               1.0471942      59.9998100
  65 TORSION   3  1  2 13              -3.1415856    -179.9995986
  66 TORSION   3  4  5 16              -0.4407824     -25.2549719
  67 TORSION   3  4  5 14               1.6536064      94.7446696
  68 TORSION   3  4  5 15              -2.5350881    -145.2498492
  69 TORSION   3  7  8 19              -1.0471428     -59.9968651
  70 TORSION   3  7  8 20               1.0471700      59.9984197
  71 TORSION   3  7  8 21              -3.1415916    -179.9999375
  72 TORSION   3  1  2 11              -1.0472651     -60.0038726
  73 TORSION   4  3  1  9              -0.5236515     -30.0030230
  74 TORSION   4  3  7 18               2.7091589     155.2233685
  75 TORSION   4  3  7  8              -1.4796891     -84.7799417
  76 TORSION   4  3  7 17               0.6146723      35.2181313
  77 TORSION   4  3  1 10              -2.6180198    -150.0014825
  78 TORSION   5  4  3  7               3.0510367     174.8115264
  79 TORSION   6  4  5 15               0.6065691      34.7538486
  80 TORSION   6  4  5 14              -1.4879217     -85.2516325
  81 TORSION   6  4  5 16               2.7008748     154.7487260
  82 TORSION   6  4  3  7              -0.0906205      -5.1921714
  83 TORSION   7  3  1 10               0.5236000      30.0000679
  84 TORSION   7  3  1  9               2.6179682     149.9985274
  85 TORSION   9  1  2 11               1.0471333      59.9963175
  86 TORSION   9  1  2 12               3.1415927     180.0000000
  87 TORSION   9  1  2 13              -1.0471872     -59.9994086
  88 TORSION  10  1  2 13               1.0472721      60.0042740
  89 TORSION  10  1  2 11               3.1415927     180.0000000
  90 TORSION  10  1  2 12              -1.0471333     -59.9963175
  91 TORSION  17  7  8 19              -3.1415257    -179.9961632
  92 TORSION  17  7  8 20              -1.0472129     -60.0008784
  93 TORSION  17  7  8 21               1.0472109      60.0007643
  94 TORSION  18  7  8 19               1.0471888      59.9995008
  95 TORSION  18  7  8 20               3.1415016     179.9947856
  96 TORSION  18  7  8 21              -1.0472599     -60.0035717

     ------------------------------------------
     THE POINT GROUP IS C1 , NAXIS= 1, ORDER= 1
     ------------------------------------------

     DIMENSIONS OF THE SYMMETRY SUBSPACES ARE
 A   =  230

 ..... DONE SETTING UP THE RUN .....
 STEP CPU TIME =     0.01 TOTAL CPU TIME =        0.0 (    0.0 MIN)
 TOTAL WALL CLOCK TIME=        0.0 SECONDS, CPU UTILIZATION IS 100.00%


          -----------------------------
          STATIONARY POINT LOCATION RUN
          -----------------------------

 OBTAINING INITIAL HESSIAN, HESS=GUESS   
 DIAGONAL GUESS HESSIAN IN INTERNAL COORDS IS
     1  0.3464     2  0.3463     3  0.3672     4  0.3636     5  0.3463
     6  0.3463     7  0.3464     8  0.4566     9  0.3636    10  0.5493
    11  0.3840    12  0.3464    13  0.3464    14  0.3463    15  0.3671
    16  0.3464    17  0.3464    18  0.3464    19  0.3464    20  0.3463
    21  0.2241    22  0.2241    23  0.2498    24  0.2417    25  0.2241
    26  0.2451    27  0.2241    28  0.2241    29  0.2212    30  0.2212
    31  0.2212    32  0.2451    33  0.2550    34  0.2635    35  0.2212
    36  0.2254    37  0.2498    38  0.2255    39  0.2255    40  0.2601
    41  0.2241    42  0.2241    43  0.2241    44  0.2241    45  0.2241
    46  0.2034    47  0.2034    48  0.2034    49  0.2034    50  0.2034
    51  0.2034    52  0.2034    53  0.2034    54  0.2034    55  0.2034
    56  0.2034    57  0.2500    58  0.2500    59  0.2500    60  0.2500
    61  0.2500    62  0.2500    63  0.2500    64  0.2500    65  0.2500
    66  0.2500    67  0.2500    68  0.2500    69  0.2500    70  0.2500
    71  0.2500    72  0.2500    73  0.2500    74  0.2500    75  0.2500
    76  0.2500    77  0.2500    78  0.2500    79  0.2500    80  0.2500
    81  0.2500    82  0.2500    83  0.2500    84  0.2500    85  0.2500
    86  0.2500    87  0.2500    88  0.2500    89  0.2500    90  0.2500
    91  0.2500    92  0.2500    93  0.2500    94  0.2500    95  0.2500
    96  0.2500
 TRANSFORMING HESSIAN TO SYMMETRY COORDINATES

          PARAMETERS CONTROLLING GEOMETRY SEARCH ARE
          METHOD =QA                  UPHESS =BFGS    
          NNEG   =         0          NFRZ   =         3
          NSTEP  =        50          IFOLOW =         1
          HESS   =GUESS               RESTAR =         F
          IHREP  =         0          HSSEND =         F
          NPRT   =         0          NPUN   =         0
          OPTTOL = 5.000E-04          RMIN   = 1.500E-03
          RMAX   = 1.000E-01          RLIM   = 7.000E-02
          DXMAX  = 3.000E-01          PURIFY =         F
          MOVIE  =         F          TRUPD  =         T
          TRMAX  = 5.000E-01          TRMIN  = 5.000E-02
          ITBMAT =         5          STPT   =         F
          STSTEP = 1.000E-02          PROJCT=          F
          FROZEN COORD(S)=   1   2   3


      ***** EQUILIBRIUM GEOMETRY LOCATED *****
            (SUBJECT TO   3 CONSTRAINT(S))
 COORDINATES OF ALL ATOMS ARE (ANGS)
   ATOM   CHARGE       X              Y              Z
 ------------------------------------------------------------
 C           6.0   0.4054291427  -1.4224120969   0.6677476613
 C           6.0   0.9608143502  -2.0804787146  -0.5981028354
 N           7.0   0.0917787030  -0.0049296273   0.5037956482
 C           6.0  -1.0948962419   0.4106360480   0.0260240339
 C           6.0  -2.1576978113  -0.6364089078  -0.2299317888
 O           8.0  -1.3292366460   1.5810687371  -0.1915231940
 C           6.0   1.1743496399   0.9685819531   0.6357438095
 C           6.0   1.9089279823   1.2088792405  -0.6820229780
 H           1.0  -0.4831574952  -1.9390381012   0.9961865416
 H           1.0   1.1208125671  -1.5065554225   1.4757586801
 H           1.0   0.3937709749  -1.7789510334  -1.4726828501
 H           1.0   1.9952127884  -1.8036728289  -0.7620083032
 H           1.0   0.9129335809  -3.1607073466  -0.5135415747
 H           1.0  -2.4907669036  -1.0829327800   0.6995348043
 H           1.0  -2.9917346296  -0.1541129840  -0.7173251216
 H           1.0  -1.7842707256  -1.4265873880  -0.8689303881
 H           1.0   0.7566711691   1.8961417857   0.9991331130
 H           1.0   1.8577556642   0.5995415699   1.3912474215
 H           1.0   2.3868594503   0.3030384468  -1.0338662123
 H           1.0   1.2108982601   1.5421159242  -1.4424818828
 H           1.0   2.6761836617   1.9667735864  -0.5606286469


                     --------------------
                     INTERNAL COORDINATES
                     --------------------

                 - - ATOMS - -         COORDINATE      COORDINATE
 NO.   TYPE    I  J  K  L  M  N        (BOHR,RAD)       (ANG,DEG)
 ----------------------------------------------------------------
   1 STRETCH   1  9                     2.0391192       1.0790555
   2 STRETCH   1 10                     2.0455665       1.0824673
   3 STRETCH   1  2                     2.8931217       1.5309742
   4 STRETCH   1  3                     2.7608848       1.4609974
   5 STRETCH   2 13                     2.0495793       1.0845907
   6 STRETCH   2 11                     2.0504592       1.0850564
   7 STRETCH   2 12                     2.0470771       1.0832666
   8 STRETCH   3  4                     2.5417749       1.3450494
   9 STRETCH   3  7                     2.7625538       1.4618806
  10 STRETCH   4  6                     2.2928497       1.2133239
  11 STRETCH   4  5                     2.8605257       1.5137251
  12 STRETCH   5 15                     2.0403607       1.0797125
  13 STRETCH   5 14                     2.0477400       1.0836174
  14 STRETCH   5 16                     2.0459276       1.0826583
  15 STRETCH   7  8                     2.8869283       1.5276968
  16 STRETCH   7 18                     2.0475600       1.0835222
  17 STRETCH   7 17                     2.0413190       1.0802196
  18 STRETCH   8 21                     2.0508723       1.0852749
  19 STRETCH   8 20                     2.0497996       1.0847073
  20 STRETCH   8 19                     2.0464604       1.0829403
  21 BEND      1  2 12                  1.9408548     111.2027886
  22 BEND      1  2 13                  1.9258357     110.3422550
  23 BEND      1  3  4                  2.1282448     121.9394473
  24 BEND      1  3  7                  2.0680213     118.4888922
  25 BEND      1  2 11                  1.9362945     110.9415029
  26 BEND      2  1  3                  1.9846345     113.7111786
  27 BEND      2  1  9                  1.9226133     110.1576306
  28 BEND      2  1 10                  1.9220014     110.1225665
  29 BEND      3  1  9                  1.8985162     108.7769643
  30 BEND      3  1 10                  1.8766044     107.5215130
  31 BEND      3  7 17                  1.8921467     108.4120218
  32 BEND      3  7  8                  1.9638044     112.5177065
  33 BEND      3  4  5                  2.0553278     117.7616060
  34 BEND      3  4  6                  2.1319031     122.1490513
  35 BEND      3  7 18                  1.8788419     107.6497133
  36 BEND      4  5 16                  1.9417105     111.2518153
  37 BEND      4  3  7                  2.0710558     118.6627542
  38 BEND      4  5 14                  1.9345638     110.8423398
  39 BEND      4  5 15                  1.8856811     108.0415708
  40 BEND      5  4  6                  2.0959275     120.0878024
  41 BEND      7  8 21                  1.9318918     110.6892461
  42 BEND      7  8 20                  1.9215728     110.0980134
  43 BEND      7  8 19                  1.9400160     111.1547283
  44 BEND      8  7 18                  1.9302313     110.5941048
  45 BEND      8  7 17                  1.9188124     109.9398516
  46 BEND      9  1 10                  1.8543902     106.2487320
  47 BEND     11  2 12                  1.8818401     107.8214931
  48 BEND     11  2 13                  1.8928817     108.4541333
  49 BEND     12  2 13                  1.8843624     107.9660134
  50 BEND     14  5 16                  1.8875885     108.1508551
  51 BEND     14  5 15                  1.9111610     109.5014616
  52 BEND     15  5 16                  1.9028903     109.0275852
  53 BEND     17  7 18                  1.8773493     107.5641933
  54 BEND     19  8 20                  1.8893568     108.2521718
  55 BEND     19  8 21                  1.8843865     107.9673919
  56 BEND     20  8 21                  1.8952875     108.5919772
  57 TORSION   1  3  7  8               1.5258346      87.4238824
  58 TORSION   1  3  4  5               0.0911690       5.2235991
  59 TORSION   1  3  4  6              -3.0583034    -175.2278777
  60 TORSION   1  3  7 17              -2.6313643    -150.7660706
  61 TORSION   1  3  7 18              -0.6053222     -34.6824086
  62 TORSION   2  1  3  7              -1.4467322     -82.8916475
  63 TORSION   2  1  3  4               1.5017869      86.0460485
  64 TORSION   3  1  2 12               1.3278611      76.0808348
  65 TORSION   3  1  2 13              -2.8647574    -164.1385055
  66 TORSION   3  4  5 16              -0.9361251     -53.6360152
  67 TORSION   3  4  5 14               1.1648853      66.7430102
  68 TORSION   3  4  5 15              -3.0242717    -173.2780067
  69 TORSION   3  7  8 19              -1.0909052     -62.5042618
  70 TORSION   3  7  8 20               1.0025687      57.4429568
  71 TORSION   3  7  8 21               3.0982235     177.5151287
  72 TORSION   3  1  2 11              -0.7664768     -43.9158854
  73 TORSION   4  3  1  9              -0.6476102     -37.1053334
  74 TORSION   4  3  7 18               2.7229198     156.0118118
  75 TORSION   4  3  7  8              -1.4291087     -81.8818973
  76 TORSION   4  3  7 17               0.6968777      39.9281498
  77 TORSION   4  3  1 10              -2.6488247    -151.7664752
  78 TORSION   5  4  3  7               3.0393646     174.1427650
  79 TORSION   6  4  5 15               0.1250314       7.1637692
  80 TORSION   6  4  5 14              -1.9689969    -112.8152139
  81 TORSION   6  4  5 16               2.2131780     126.8057606
  82 TORSION   6  4  3  7              -0.1101078      -6.3087118
  83 TORSION   7  3  1 10               0.6858416      39.2958288
  84 TORSION   7  3  1  9               2.6870560     153.9569706
  85 TORSION   9  1  2 11               1.3696888      78.4773882
  86 TORSION   9  1  2 12              -2.8191586    -161.5258916
  87 TORSION   9  1  2 13              -0.7285917     -41.7452319
  88 TORSION  10  1  2 13               1.3111449      75.1230713
  89 TORSION  10  1  2 11              -2.8737598    -164.6543086
  90 TORSION  10  1  2 12              -0.7794220     -44.6575884
  91 TORSION  17  7  8 19               3.0815019     176.5570562
  92 TORSION  17  7  8 20              -1.1082095     -63.4957252
  93 TORSION  17  7  8 21               0.9874453      56.5764467
  94 TORSION  18  7  8 19               1.0109035      57.9205018
  95 TORSION  18  7  8 20               3.1043774     177.8677204
  96 TORSION  18  7  8 21              -1.0831532     -62.0601077

          INTERNUCLEAR DISTANCES (ANGS.)


 =====================================================
   GAMESS/COSab RESULTS
 =====================================================

   Dielectric Constant                  = INFTY
   Basic Grid Size                      =                 1082
   Number of Segments                   =                   92
   Number of Segments located on spheres=                  269
   Number of Segments of the cavity     =                  659
   Solvent Radius (rsolv)               = 1.40
   Outlying Charge Error Method         = double cavity

 =====================================================

  Total solvated Energy (a.u.)          =  -364.2068709147
  Total Energy corrected (a.u.)         =  -364.2065238905

  Outlying charge effect (a.u.)         =     0.0003470242
  Outlying charge effect (kcal/mol)     =     0.2177611495

  Dielectric Energy (a.u.)              =    -0.0182361471
  Dielectric energy corr. (a.u.)        =    -0.0178891229

  Sum of polarization charges           =     0.0232415847
  Sum of polarization charges(cor.)     =    -0.0232415847

  Total surface area of cavity (A**2)   =  161.74
  Total volume of cavity (A**3)         =  164.22

 =====================================================
 NPS=                   659
NR.  ATOM  (X, Y, Z)(a.u.)                  CHARGE(e)  AREA(A**2) SIGMA(e/A**2)
   1   1   1.146791  -6.005656   3.031702  -0.000416   0.325193  -0.001279
   2   1   0.237484  -3.168499   4.973166   0.000530   0.371649   0.001425
   3   1  -0.376099  -3.932049   4.642944   0.000266   0.232280   0.001145
   4   1   0.170027  -6.076306   2.826492  -0.000577   0.325193  -0.001775
   5   1   1.320848  -5.424013   3.809531  -0.000135   0.325193  -0.000414
   6   1   0.477248  -4.416482   4.610441   0.000534   0.325193   0.001641
   7   1  -0.435337  -2.545233   4.842395   0.000227   0.278737   0.000813
   8   1  -1.043222  -1.845454   4.471300   0.000063   0.185824   0.000339
   9   1   2.271016  -5.727634   2.929222  -0.000493   0.325193  -0.001517
  10   1   0.632242  -1.702931   4.908221  -0.000044   0.232280  -0.000189
  11   1  -1.182515  -2.743830   4.499723  -0.000218   0.232280  -0.000941
  12   1   0.323460  -5.283383   3.973333   0.000206   0.325193   0.000634
  13   1  -0.216381  -1.654838   4.762066   0.000079   0.232280   0.000340
  14   2   4.678226  -6.244142  -1.991629   0.001738   0.418105   0.004158
  15   2   3.740862  -3.551502  -4.360346   0.000993   0.325193   0.003052
  16   2   1.465548  -6.544489  -3.838425   0.001055   0.371649   0.002839
  17   2   3.282541  -6.358443   1.368291   0.000182   0.278737   0.000654
  18   2   4.938067  -4.572662   0.900485   0.000482   0.232280   0.002077
  19   2   4.397129  -5.536678   1.115610   0.000534   0.325193   0.001641
  20   2   4.670460  -6.177814  -0.086824   0.001314   0.371649   0.003535
  21   2   0.758155  -5.807620  -4.236095   0.001192   0.371649   0.003208
  22   2   2.715283  -3.050664  -4.693823   0.000595   0.232280   0.002561
  23   2   5.078674  -5.826605  -0.916122   0.000804   0.232280   0.003459
  24   2   4.419368  -6.667811  -0.996483   0.000938   0.278737   0.003365
  25   2   3.291314  -2.836067  -4.432782   0.000416   0.139368   0.002987
  26   2   2.988413  -4.402248  -4.692191   0.001026   0.464561   0.002210
  27   2   2.245589  -5.759163  -4.410383   0.000926   0.464561   0.001994
  28   2   0.155995  -6.465848  -3.390125   0.001290   0.325193   0.003966
  29   2  -0.845538  -6.207020  -2.553069   0.000559   0.185824   0.003007
  30   2  -1.032495  -6.414355  -1.041792   0.000189   0.185824   0.001019
  31   2   4.099754  -4.691177  -4.044051   0.000887   0.418105   0.002122
  32   2   4.457142  -5.678276  -3.193226   0.001026   0.418105   0.002454
  33   2   3.839682  -6.604945  -2.873984   0.001124   0.464561   0.002420
  34   2   2.647211  -6.655235  -3.615072   0.000577   0.325193   0.001773
  35   2   5.034688  -5.286070   0.314559   0.000556   0.232280   0.002393
  36   2   4.004147  -6.392994   0.723423   0.000562   0.232280   0.002421
  37   2   1.997117  -4.881810  -4.783792   0.000470   0.278737   0.001688
  38   2  -0.527008  -5.834732  -3.404888   0.000934   0.278737   0.003352
  39   2   3.421912  -5.722629  -4.045093   0.000597   0.418105   0.001429
  40   2  -0.621897  -6.592672  -2.253148   0.000392   0.139368   0.002810
  41   3  -1.096844   0.106967   4.166386   0.000776   0.077788   0.009978
  42   3  -0.873488   0.933839   4.110132   0.000997   0.116683   0.008546
  43   3  -0.484676   0.245244   4.337484   0.002020   0.233365   0.008657
  44   4  -2.797907   0.164816   3.706989  -0.000886   0.232280  -0.003814
  45   4  -4.807976   2.087054   2.299461   0.000308   0.092912   0.003316
  46   4  -4.185982   2.199445   2.837860  -0.000029   0.092912  -0.000312
  47   4  -2.666546   2.543986   3.335746   0.000324   0.185824   0.001744
  48   4  -2.432838   1.268447  -3.680344   0.000177   0.139368   0.001272
  49   4  -4.216803   1.668824   3.028168  -0.000631   0.232280  -0.002718
  50   4  -3.529619   1.134121   3.516576  -0.001696   0.325193  -0.005217
  51   4  -2.584313   1.184434   3.771009  -0.000605   0.278737  -0.002170
  52   4  -2.289231   2.121294   3.574233  -0.000119   0.185824  -0.000641
  53   4  -1.797031   0.784294  -3.720452  -0.001343   0.278737  -0.004817
  54   4  -3.370820   2.174191   3.310281  -0.000231   0.232280  -0.000992
  55   5  -3.236148  -0.320643  -4.012013  -0.000204   0.139368  -0.001464
  56   5  -6.028410  -2.455270  -3.419290   0.000958   0.418105   0.002292
  57   5  -6.178335   1.031419   1.774476  -0.000111   0.278737  -0.000399
  58   5  -7.775633  -1.919387  -0.127882   0.000796   0.464561   0.001713
  59   5  -5.205095  -4.803092  -0.656673   0.000287   0.371649   0.000773
  60   5  -3.197375  -0.950598  -4.101411  -0.000268   0.139368  -0.001920
  61   5  -4.326632   0.530407  -3.783947  -0.000201   0.232280  -0.000863
  62   5  -3.976730  -0.395471  -4.125388   0.000102   0.278737   0.000366
  63   5  -4.717924  -1.424021  -4.152711   0.000691   0.325193   0.002124
  64   5  -5.523603  -4.615459   0.304081   0.000271   0.371649   0.000728
  65   5  -7.475142  -2.102189   0.955026   0.000224   0.278737   0.000803
  66   5  -6.340157   0.116601   2.290212  -0.000008   0.278737  -0.000027
  67   5  -5.607326  -1.407525  -3.884402   0.000304   0.232280   0.001307
  68   5  -5.042160  -2.317720  -3.914475   0.000481   0.278737   0.001726
  69   5  -5.587070   0.326415   2.674731   0.000171   0.185824   0.000923
  70   5  -6.934930   0.237030   1.577085   0.000552   0.325193   0.001697
  71   5  -7.681693  -0.863016   0.651043   0.000858   0.371649   0.002310
  72   5  -7.308504  -3.122130  -0.034362   0.000266   0.464561   0.000572
  73   5  -6.389909  -4.187117  -0.606720   0.000053   0.371649   0.000141
  74   5  -4.446321  -4.904297   0.233211   0.000381   0.278737   0.001368
  75   5  -6.648753   1.241848   0.868275   0.000136   0.232280   0.000587
  76   5  -7.495809  -2.603655  -1.232170   0.000222   0.418105   0.000532
  77   5  -6.884657  -2.762989  -2.426784   0.000295   0.418105   0.000705
  78   5  -6.037868  -3.503570  -2.703145   0.000271   0.464561   0.000584
  79   5  -5.743454  -4.361934  -1.670430   0.000058   0.371649   0.000156
  80   5  -4.813280  -0.333038  -4.038204   0.000223   0.232280   0.000962
  81   5  -3.691769  -1.552604  -4.177903   0.000026   0.278737   0.000092
  82   5  -6.619070  -3.877237   0.384603  -0.000111   0.278737  -0.000396
  83   5  -7.262224  -0.718040   1.542032   0.000560   0.278737   0.002009
  84   5  -7.287877   0.367787   0.794830   0.000290   0.232280   0.001250
  85   5  -6.817236  -3.621193  -1.398054  -0.000005   0.418105  -0.000011
  86   6  -3.220403   6.097565  -0.987984   0.005949   0.377948   0.015740
  87   6  -5.200040   4.325139   0.883032   0.005641   0.309230   0.018241
  88   6  -4.949866   3.809232  -2.348418   0.005607   0.274871   0.020399
  89   6  -2.063456   4.246941  -3.324720   0.005089   0.274871   0.018512
  90   6  -2.524179   5.019669   2.174982   0.004350   0.240512   0.018085
  91   6  -4.094793   5.822245  -0.204144   0.006701   0.412307   0.016254
  92   6  -4.870131   5.123814   0.301920   0.006066   0.343589   0.017654
  93   6  -4.077727   5.549904  -1.606261   0.006944   0.412307   0.016841
  94   6  -4.696996   4.687749  -2.064892   0.006601   0.343589   0.019211
  95   6  -2.704167   5.768840  -2.033290   0.006600   0.412307   0.016008
  96   6  -1.999410   5.147815  -2.736025   0.006239   0.377948   0.016508
  97   6  -2.071928   6.149270  -0.975218   0.005748   0.343589   0.016730
  98   6  -1.201774   5.944296  -0.689537   0.007051   0.309230   0.022800
  99   6  -2.854157   6.177013   0.163746   0.006690   0.412307   0.016225
 100   6  -2.474510   5.798134   1.270609   0.007961   0.412307   0.019308
 101   6  -5.550044   4.138972  -0.267095   0.006998   0.343589   0.020367
 102   6  -5.392484   4.121445  -1.352695   0.005707   0.240512   0.023730
 103   6  -4.069215   4.083071  -2.996270   0.006422   0.343589   0.018690
 104   6  -2.993357   4.228274  -3.327407   0.004644   0.274871   0.016895
 105   6  -3.388396   5.139864   1.910714   0.005661   0.343589   0.016477
 106   6  -4.456525   4.762494   1.544220   0.007012   0.412307   0.017007
 107   6  -5.583486   3.548202   0.541300   0.004684   0.240512   0.019475
 108   6  -4.287643   3.122885  -3.080955   0.004343   0.206154   0.021066
 109   6  -2.549302   2.755753  -3.603756   0.001949   0.137436   0.014179
 110   6  -2.516453   3.371529  -3.589529   0.003585   0.206154   0.017389
 111   6  -2.806425   4.207057   2.636609   0.005403   0.309230   0.017472
 112   6  -4.896313   3.631788   1.750976   0.005916   0.343589   0.017217
 113   6  -4.968283   5.054367  -0.871834   0.007661   0.412307   0.018581
 114   6  -3.446494   5.054508  -2.689986   0.008260   0.481025   0.017172
 115   6  -1.486514   5.667392  -1.889347   0.005461   0.274871   0.019866
 116   6  -1.829523   6.103364   0.264335   0.005367   0.274871   0.019526
 117   6  -3.812810   5.654525   0.964996   0.006116   0.377948   0.016183
 118   6  -3.472928   3.177064  -3.461162   0.005093   0.274871   0.018527
 119   6  -3.908613   3.948395   2.411333   0.006187   0.412307   0.015006
 120   7   0.824681   1.712192   4.712163   0.000237   0.325193   0.000727
 121   7   3.950033   3.654110   4.023144   0.000657   0.371649   0.001767
 122   7   3.222890   4.251395   3.924499   0.000398   0.278737   0.001427
 123   7   1.025727   2.769874   4.662182   0.000547   0.371649   0.001471
 124   7   0.123947   2.604914   4.250018   0.000137   0.185824   0.000736
 125   7   2.080921   2.258689   4.953932   0.000610   0.325193   0.001877
 126   7   3.009649   3.186435   4.639470   0.001010   0.325193   0.003106
 127   7   4.084751   4.520863   3.089526   0.000021   0.325193   0.000064
 128   7   4.302180   4.778257   2.321770  -0.000053   0.139368  -0.000378
 129   7   1.639150   1.143187   4.872293   0.000116   0.325193   0.000358
 130   7   4.810112   3.580287   3.324854  -0.000134   0.278737  -0.000481
 131   7   5.527000   3.123791   2.493559  -0.000297   0.185824  -0.001600
 132   7   3.623342   5.172530   2.270231  -0.000294   0.185824  -0.001581
 133   7   2.104265   3.241444   4.705640   0.000710   0.278737   0.002548
 134   7   4.983615   3.946987   2.671789  -0.000294   0.232280  -0.001267
 135   8   4.053463   5.175905  -3.681463   0.001962   0.418105   0.004693
 136   8   6.795804   1.314624   0.493700   0.000507   0.278737   0.001817
 137   8   3.662288   1.579390  -5.001525   0.001265   0.325193   0.003890
 138   8   6.841172   2.766762  -3.184603   0.001150   0.371649   0.003096
 139   8   3.438023   5.889100  -0.165407   0.000413   0.278737   0.001480
 140   8   2.498493   5.895688  -1.171943   0.000895   0.371649   0.002408
 141   8   3.234190   5.924071  -2.236542   0.001318   0.325193   0.004053
 142   8   6.879423   1.676306  -3.079888   0.001278   0.371649   0.003437
 143   8   3.946751   0.667244  -4.687901   0.000913   0.278737   0.003276
 144   8   6.694224   0.449151  -0.111075   0.000950   0.464561   0.002044
 145   8   3.066784   5.569024  -3.078691   0.000865   0.232280   0.003723
 146   8   4.063628   5.749057  -2.728461   0.001106   0.278737   0.003968
 147   8   2.921621   0.961307  -4.762059   0.000993   0.232280   0.004274
 148   8   4.850071   1.768752  -4.820673   0.001257   0.464561   0.002706
 149   8   6.102097   2.417311  -4.124810   0.001072   0.464561   0.002308
 150   8   7.308470   2.076445  -2.025468   0.001602   0.371649   0.004311
 151   8   7.279384   1.762606  -0.562163   0.001596   0.418105   0.003818
 152   8   6.887105   2.252958   0.589049   0.000672   0.325193   0.002067
 153   8   4.063287   2.798361  -5.005312   0.001074   0.418105   0.002570
 154   8   4.296301   4.141058  -4.507925   0.001238   0.418105   0.002960
 155   8   5.156697   4.575031  -3.865061   0.001355   0.464561   0.002917
 156   8   6.172113   3.614189  -3.725627   0.000707   0.325193   0.002174
 157   8   2.169539   5.688082  -2.083973   0.000556   0.232280   0.002395
 158   8   3.568493   6.063641  -1.267561   0.000798   0.278737   0.002864
 159   8   5.777122   1.500545  -4.282454   0.000609   0.278737   0.002184
 160   8   7.216025   1.166408  -1.396725   0.001259   0.325193   0.003871
 161   8   6.404070   2.899494   1.177808   0.000002   0.092912   0.000020
 162   8   5.212096   3.199518  -4.586048   0.000903   0.464561   0.001945
 163   9  -2.341156  -5.291726   3.043064  -0.002962   0.372926  -0.007941
 164   9  -1.533151  -4.764034   3.989890  -0.001206   0.274788  -0.004391
 165   9  -1.365187  -5.993899   2.517620  -0.001946   0.333671  -0.005833
 166   9  -2.127247  -4.049399   3.983101  -0.002094   0.353299  -0.005926
 167   9  -1.386832  -5.506715   3.436837  -0.001493   0.314043  -0.004756
 168   9  -2.166291  -5.772816   1.747026  -0.003325   0.451437  -0.007366
 169  10   3.445765  -3.638441   4.698175  -0.002701   0.392554  -0.006882
 170  10   4.553369  -3.065679   3.026328  -0.001705   0.274788  -0.006204
 171  10   3.738570  -4.510167   3.590507  -0.001872   0.333671  -0.005611
 172  10   2.244545  -4.226107   4.817834  -0.001200   0.274788  -0.004367
 173  10   2.018693  -2.281276   5.177328  -0.001740   0.353299  -0.004924
 174  10   4.111473  -2.912203   4.223017  -0.002777   0.353299  -0.007861
 175  10   4.269256  -3.781604   3.519411  -0.001812   0.294415  -0.006155
 176  10   2.968744  -4.633596   4.244586  -0.001841   0.372926  -0.004937
 177  10   2.071200  -3.389684   5.184261  -0.001678   0.372926  -0.004501
 178  10   3.073983  -2.590451   5.037205  -0.002736   0.372926  -0.007336
 179  11  -0.357258  -3.117707  -4.965282  -0.003045   0.451437  -0.006745
 180  11   0.302622  -4.338211  -4.993545  -0.001042   0.333671  -0.003123
 181  11   1.289740  -2.523967  -5.026960  -0.001460   0.353299  -0.004132
 182  11  -0.581511  -4.478423  -4.523889  -0.001704   0.372926  -0.004568
 183  11   0.923109  -3.519190  -5.228011  -0.001472   0.412182  -0.003572
 184  11   0.238020  -2.117500  -4.839861  -0.003029   0.392554  -0.007715
 185  12   6.125208  -3.441947  -2.139161  -0.002676   0.412182  -0.006493
 186  12   5.933001  -4.570235  -1.347883  -0.000967   0.314043  -0.003080
 187  12   5.734134  -3.278896   0.030413  -0.001876   0.333671  -0.005622
 188  12   5.427948  -4.206178  -3.068246  -0.000665   0.274788  -0.002422
 189  12   5.911536  -4.205496  -0.537024  -0.000801   0.294415  -0.002720
 190  12   6.168949  -3.218336  -0.944078  -0.001870   0.314043  -0.005955
 191  12   5.326182  -3.342241  -3.340050  -0.001451   0.333671  -0.004350
 192  12   5.814553  -4.497496  -2.258816  -0.001085   0.314043  -0.003456
 193  13   1.685769  -8.424890  -0.825069  -0.003965   0.608459  -0.006516
 194  13   1.298726  -7.766567   0.653072  -0.001665   0.353299  -0.004712
 195  13   3.223501  -7.622933   0.062735  -0.000951   0.333671  -0.002851
 196  13   3.040117  -7.815129  -1.925547  -0.001091   0.353299  -0.003089
 197  13   0.919692  -7.750647  -2.462361  -0.001069   0.372926  -0.002866
 198  13  -0.193520  -7.490895  -0.748658  -0.001147   0.353299  -0.003245
 199  13   2.297426  -7.801070   0.567505  -0.002060   0.490692  -0.004199
 200  13   3.116600  -7.995905  -0.890178  -0.002124   0.490692  -0.004329
 201  13   2.006766  -8.050939  -2.250092  -0.002283   0.510320  -0.004473
 202  13   0.421169  -7.968786  -1.562840  -0.002194   0.490692  -0.004471
 203  13   0.505322  -7.880661  -0.017930  -0.002479   0.490692  -0.005052
 204  14  -5.986710  -2.666976   3.324948  -0.003726   0.451437  -0.008253
 205  14  -5.401580  -4.301755   2.004651  -0.002680   0.431809  -0.006206
 206  14  -6.908212  -2.439470   2.339152  -0.002030   0.392554  -0.005171
 207  14  -5.672062  -1.134391   3.388730  -0.002081   0.372926  -0.005581
 208  14  -4.858084  -2.879987   3.627896  -0.003300   0.353299  -0.009342
 209  14  -5.283910  -3.759541   2.985504  -0.003340   0.412182  -0.008104
 210  14  -6.444467  -3.557395   2.178040  -0.003157   0.510320  -0.006187
 211  14  -6.476887  -1.637460   2.975676  -0.001947   0.353299  -0.005512
 212  14  -4.741581  -1.703485   3.754272  -0.003572   0.490692  -0.007279
 213  15  -7.738363   0.618423  -2.283584  -0.003652   0.471065  -0.007753
 214  15  -6.556504  -0.416184  -3.636812  -0.001456   0.353299  -0.004120
 215  15  -6.003111   0.873566  -3.490066  -0.002234   0.392554  -0.005692
 216  15  -7.944609   0.244202  -0.648768  -0.001628   0.372926  -0.004365
 217  15  -7.819457  -1.105362  -2.180884  -0.001778   0.412182  -0.004313
 218  15  -6.974609   0.553933  -3.246484  -0.002553   0.372926  -0.006846
 219  15  -6.905574   1.515295  -2.452844  -0.003153   0.431809  -0.007302
 220  15  -7.447348   1.344443  -0.978666  -0.003527   0.569203  -0.006197
 221  15  -8.105120  -0.296507  -1.513487  -0.002603   0.451437  -0.005767
 222  15  -7.396910  -0.682029  -3.041698  -0.002287   0.392554  -0.005825
 223  16  -3.479528  -4.518987  -3.285126  -0.002433   0.255160  -0.009536
 224  16  -3.412044  -2.897686  -4.090058  -0.001402   0.235532  -0.005952
 225  16  -4.457203  -4.128624  -3.316603  -0.001279   0.274788  -0.004654
 226  16  -3.813438  -5.108759  -1.776039  -0.001700   0.294415  -0.005775
 227  16  -3.758519  -3.668992  -3.864333  -0.002245   0.372926  -0.006019
 228  16  -4.147815  -4.823209  -2.594544  -0.002336   0.353299  -0.006613
 229  17   0.785970   5.801361   2.724842  -0.003274   0.451437  -0.007252
 230  17   2.156081   5.926505   2.016900  -0.002005   0.372926  -0.005376
 231  17   2.047420   5.120155   3.702339  -0.001081   0.294415  -0.003673
 232  17   0.223199   4.190480   3.939968  -0.001666   0.372926  -0.004466
 233  17   1.071709   5.993328   1.575050  -0.002578   0.431809  -0.005971
 234  17   2.106645   5.681901   2.970911  -0.001708   0.372926  -0.004581
 235  17   1.208269   4.807957   4.006092  -0.001703   0.412182  -0.004131
 236  17   0.223888   5.134027   3.363064  -0.002244   0.353299  -0.006353
 237  18   4.887961   0.456225   4.547436  -0.003432   0.471065  -0.007286
 238  18   5.715237   0.056528   2.756131  -0.002516   0.412182  -0.006105
 239  18   3.977509   1.788039   4.950289  -0.001240   0.372926  -0.003324
 240  18   5.514319   2.146077   3.626087  -0.001526   0.353299  -0.004321
 241  18   5.399584   0.019073   3.736428  -0.002318   0.333671  -0.006948
 242  18   3.647351   0.684178   5.040503  -0.002774   0.471065  -0.005888
 243  18   4.929854   1.809760   4.516645  -0.002472   0.471065  -0.005247
 244  18   5.841576   1.179843   3.403462  -0.002314   0.451437  -0.005125
 245  19   6.198095  -0.598338  -3.301306  -0.001405   0.235532  -0.005966
 246  19   6.717989  -0.364523  -1.420932  -0.000888   0.274788  -0.003232
 247  19   6.565879   0.248115  -3.259587  -0.000494   0.235532  -0.002096
 248  19   5.016197  -0.332874  -4.180702  -0.000965   0.255160  -0.003782
 249  19   6.775360  -0.269897  -2.396110  -0.001265   0.372926  -0.003393
 250  19   5.807733  -0.087210  -3.932848  -0.000930   0.294415  -0.003159
 251  20   1.019012   3.828628  -4.620061  -0.002998   0.451437  -0.006641
 252  20   2.037125   5.096867  -3.824932  -0.000681   0.294415  -0.002314
 253  20   1.482264   1.921132  -4.823345  -0.001168   0.314043  -0.003718
 254  20   2.544993   3.643530  -5.057673  -0.000999   0.372926  -0.002680
 255  20   1.258478   4.929544  -3.681375  -0.001579   0.353299  -0.004469
 256  20   0.906843   2.733490  -4.749287  -0.002024   0.333671  -0.006066
 257  20   2.043580   2.755832  -5.165181  -0.001198   0.372926  -0.003214
 258  20   2.140288   4.436371  -4.648419  -0.001344   0.372926  -0.003603
 259  21   6.780816   5.456195  -0.863226  -0.003837   0.608459  -0.006306
 260  21   5.869064   5.407047   0.527595  -0.001417   0.353299  -0.004010
 261  21   4.986707   6.171579  -1.118863  -0.000812   0.333671  -0.002435
 262  21   6.093099   5.348568  -2.575704  -0.000991   0.353299  -0.002805
 263  21   7.423718   3.844428  -1.706485  -0.000985   0.372926  -0.002641
 264  21   7.087255   3.751127   0.323682  -0.000933   0.353299  -0.002640
 265  21   5.393263   5.973696  -0.149484  -0.001964   0.490692  -0.004002
 266  21   5.729470   5.960862  -1.798923  -0.001992   0.490692  -0.004060
 267  21   6.961519   4.773951  -2.195690  -0.002142   0.510320  -0.004196
 268  21   7.456171   4.091025  -0.685023  -0.002099   0.490692  -0.004277
 269  21   6.672010   4.739118   0.484021  -0.002029   0.490692  -0.004135
 270   1   3.243621  -5.264364   2.513061  -0.000193   0.026746  -0.007213
 271   2   3.401054  -5.451130   2.077740  -0.000139   0.026746  -0.005208
 272  10   3.340208  -5.080274   2.730795  -0.000186   0.026746  -0.006937
 273   1   2.094179  -6.270205   1.983164  -0.000148   0.026622  -0.005544
 274   2   2.286570  -6.518277   1.595078  -0.000111   0.026622  -0.004165
 275  13   2.214736  -6.743674   1.407277  -0.000101   0.026622  -0.003801
 276   2   3.026363  -5.997852   1.791950  -0.000396   0.232543  -0.001703
 277   1   2.535134  -5.840630   2.360103  -0.000705   0.232543  -0.003031
 278   1  -1.514085  -1.037029   3.946676   0.000198   0.051903   0.003807
 279   3  -1.608732  -0.565001   3.881204   0.000471   0.051903   0.009065
 280   4  -2.010306  -0.432323   3.738153   0.000184   0.051903   0.003538
 281   1   0.554301  -0.519210   4.486674   0.000229   0.058655   0.003908
 282   3   0.447040  -0.050186   4.417499   0.000448   0.058655   0.007641
 283   7   0.808199   0.270282   4.476081   0.000212   0.058655   0.003620
 284   3  -0.763112  -0.458721   4.183608   0.002259   0.295552   0.007644
 285   1  -0.289109  -1.038831   4.430800   0.000589   0.309846   0.001901
 286   1  -2.178598  -1.470339   3.664896  -0.000748   0.179676  -0.004164
 287   4  -2.691936  -0.859918   3.502151  -0.001102   0.179676  -0.006134
 288  14  -3.221943  -1.398600   3.464683  -0.001670   0.179676  -0.009296
 289   4  -2.382219  -0.521548   3.735800   0.000087   0.092074   0.000948
 290   1  -1.628969  -1.337959   4.057134   0.000123   0.092074   0.001333
 291   1   1.449881  -1.046127   4.648375  -0.000288   0.070110  -0.004103
 292   7   1.706231  -0.262598   4.564549  -0.000263   0.070110  -0.003756
 293  10   1.711639  -1.190572   4.698294  -0.000438   0.070110  -0.006251
 294   7   1.247340   0.317195   4.675714   0.000160   0.211467   0.000756
 295   1   1.031364  -0.854951   4.707839   0.000069   0.211467   0.000326
 296   1  -0.305781  -6.319481   1.581403  -0.000249   0.040236  -0.006200
 297   9  -0.576676  -6.223576   1.665551  -0.000328   0.040236  -0.008155
 298  13   0.023994  -6.695371   1.017037  -0.000186   0.040236  -0.004619
 299   1  -2.123283  -2.605314   3.860316  -0.000579   0.075044  -0.007714
 300   9  -2.317113  -2.827066   3.795703  -0.000704   0.075044  -0.009386
 301  14  -3.136504  -2.475683   3.575975  -0.000795   0.075044  -0.010594
 302   9  -0.822393  -6.092187   2.249504  -0.000430   0.066510  -0.006473
 303   9  -0.718045  -5.645896   3.233796  -0.000898   0.147180  -0.006101
 304   9  -0.978832  -4.666006   4.069541  -0.000757   0.147180  -0.005141
 305   9  -1.605396  -3.516515   4.182463  -0.000814   0.147180  -0.005527
 306   1  -0.352623  -5.996270   2.588470  -0.000913   0.146199  -0.006247
 307   1  -0.383599  -5.166772   3.809404  -0.000617   0.146199  -0.004218
 308   1  -0.908821  -3.906395   4.370919  -0.000526   0.146199  -0.003595
 309   1  -1.540835  -2.895180   4.251599  -0.000343   0.081256  -0.004220
 310  10   1.594003  -1.815897   4.956193  -0.000392   0.067933  -0.005777
 311  10   1.345226  -2.883929   5.065233  -0.000729   0.150657  -0.004837
 312  10   1.572642  -4.154194   4.731609  -0.000743   0.150657  -0.004929
 313  10   2.342953  -4.929700   3.968845  -0.000924   0.150657  -0.006135
 314  10   3.159845  -5.026549   3.235512  -0.000396   0.067933  -0.005836
 315   1   1.078306  -2.108325   4.937347  -0.000674   0.149043  -0.004520
 316   1   0.971204  -3.600692   4.876766  -0.000486   0.149043  -0.003260
 317   1   1.562570  -4.813248   4.226922  -0.000640   0.149043  -0.004292
 318   1   2.611516  -5.252068   3.252525  -0.000932   0.149043  -0.006253
 319  13   1.802245  -6.998908   1.287897  -0.000813   0.223370  -0.003638
 320  13   0.616618  -7.107382   0.938149  -0.000911   0.223370  -0.004077
 321   1   0.906096  -6.387694   1.934924  -0.002038   0.608646  -0.003349
 322  14  -3.591234  -2.033001   3.679488  -0.001090   0.193361  -0.005635
 323   1  -2.064033  -2.042345   4.034180  -0.000313   0.276472  -0.001131
 324   2   2.446429  -1.773249  -4.261635   0.000096   0.099643   0.000962
 325   8   2.745837  -0.672900  -4.138416   0.000299   0.099643   0.002999
 326  11   2.152415  -1.787263  -4.343971  -0.000047   0.099643  -0.000475
 327   2   3.275513  -1.437469  -4.049910   0.000152   0.086006   0.001762
 328   8   3.604563  -0.343447  -4.169744  -0.000121   0.086006  -0.001410
 329  19   3.797792  -0.566837  -4.097874  -0.000239   0.086006  -0.002780
 330   8   3.344852  -0.231042  -4.425727   0.000433   0.168853   0.002565
 331   2   2.802765  -1.788256  -4.396554   0.000484   0.168853   0.002864
[...]
 402   4  -3.268472   1.485189  -3.475282   0.000199   0.042446   0.004691
 403   5  -3.610240   1.131228  -3.516386  -0.000016   0.042446  -0.000372
 404   6  -3.317662   1.880006  -3.422602   0.000522   0.042446   0.012288
 405   4  -1.619103  -0.481414  -3.610329  -0.001531   0.162336  -0.009431
 406   5  -1.970504  -0.827603  -3.693512  -0.001264   0.162336  -0.007784
 407  11  -1.008684  -1.380155  -3.858351  -0.001442   0.162336  -0.008881
 408   4  -4.335966   0.274444   3.165820  -0.000327   0.025743  -0.012691
 409   5  -4.697654  -0.058262   3.121200  -0.000278   0.025743  -0.010805
 410  14  -4.769422  -0.337702   3.208975  -0.000297   0.025743  -0.011550
 411   5  -3.207337   0.276933  -3.733276  -0.001284   0.322527  -0.003980
 412   4  -2.436744   0.494831  -3.640507  -0.001912   0.322527  -0.005927
 413   5  -5.085812   0.634984   2.601870  -0.001941   0.360070  -0.005389
 414   4  -4.793778   1.396398   2.458380  -0.001634   0.360070  -0.004537
 415   4  -1.802828   3.218138   3.024183   0.000816   0.104834   0.007788
 416   6  -1.884088   3.580089   2.862209   0.001398   0.104834   0.013335
 417  17  -0.999646   3.650790   3.131754   0.000557   0.104834   0.005317
 418   4  -1.300011   2.090109  -3.515722   0.000854   0.128147   0.006663
 419   6  -1.393326   2.484769  -3.493207   0.001896   0.128147   0.014797
 420  20  -0.326506   2.488755  -3.753421   0.000497   0.128147   0.003875
 421   6  -2.410649   2.383112  -3.528569   0.002350   0.177531   0.013236
 422   4  -2.570699   1.767948  -3.540510   0.001222   0.189431   0.006451
 423   6  -4.748896   2.941670   1.994919   0.001878   0.140386   0.013378
 424   6  -3.310482   3.355138   2.670019   0.004013   0.295938   0.013561
 425   4  -4.173849   2.568907   2.495295   0.002140   0.292228   0.007324
 426   4  -2.632334   2.983651   3.066211   0.001116   0.149797   0.007452
 427   4  -1.203591   2.757508   3.392272   0.000209   0.066034   0.003168
 428   7  -0.481416   2.965323   3.653597  -0.000068   0.066034  -0.001034
 429  17  -0.458499   3.258055   3.583909  -0.000179   0.066034  -0.002709
 430   7  -0.502184   2.529104   3.900518   0.000433   0.232325   0.001865
 431   4  -1.545114   2.103241   3.674577   0.000502   0.232325   0.002159
 432   4  -0.380682   0.290080  -3.501437  -0.001674   0.394224  -0.004246
 433  11   0.195847  -0.645446  -3.753691  -0.001060   0.394224  -0.002689
 434  20   0.550475   0.807264  -3.748260   0.000121   0.394224   0.000306
 435  11  -0.346958  -1.465412  -4.238306  -0.001093   0.180899  -0.006044
 436   4  -1.099314  -0.079128  -3.777304  -0.000885   0.260464  -0.003397
 437  14  -4.179016  -1.024019   3.466463  -0.002659   0.306894  -0.008666
 438   4  -3.696631   0.020956   3.429898  -0.002578   0.431685  -0.005973
 439  17  -0.559149   3.641916   3.524668  -0.000123   0.105320  -0.001165
 440   4  -1.686219   2.898194   3.379318   0.000448   0.148592   0.003013
 441  20   0.435263   1.883409  -4.183132  -0.000873   0.342408  -0.002549
 442   4  -1.036328   1.423258  -3.744957   0.000325   0.490281   0.000662
 443   5  -4.646777   1.242900  -3.313326  -0.000005   0.066314  -0.000070
 444   6  -4.314499   1.961874  -3.149435   0.000901   0.066314   0.013584
 445  15  -4.942762   1.269145  -3.262260  -0.000141   0.066314  -0.002132
 446   5  -6.342397   1.816321   0.155690   0.000137   0.066314   0.002061
 447   6  -5.917227   2.503881   0.129536   0.001138   0.066314   0.017155
 448  15  -6.483915   1.790328  -0.109264  -0.000108   0.066314  -0.001636
 449   6  -3.643059   2.182970  -3.422868   0.002439   0.202580   0.012039
 450   5  -4.225806   1.173146  -3.537060   0.000294   0.223589   0.001315
 451   6  -5.577270   2.831668   0.846586   0.005633   0.397096   0.014185
 452   5  -5.971136   1.743733   1.167967   0.000551   0.438183   0.001257
 453   5  -4.112721  -4.623691   1.303747  -0.000346   0.075707  -0.004576
 454   9  -3.359882  -4.835301   1.687710  -0.000690   0.075707  -0.009117
 455  14  -4.221370  -4.535660   1.573808  -0.000468   0.075707  -0.006178
 456   5  -3.308916  -4.946491  -0.190028  -0.000269   0.074310  -0.003617
 457   9  -2.624825  -5.120738   0.319966  -0.000555   0.074310  -0.007468
 458  16  -3.183119  -4.968234  -0.465295  -0.000520   0.074310  -0.006997
 459   9  -2.755691  -5.257000   1.357865  -0.002568   0.318638  -0.008060
 460   5  -3.674426  -4.962446   0.468467  -0.000422   0.447828  -0.000943
 461   5  -2.569569  -1.984387  -3.944371  -0.000651   0.075826  -0.008587
 462  11  -1.561924  -2.443397  -4.107143  -0.000805   0.075826  -0.010616
 463  16  -2.490981  -2.276598  -3.962031  -0.000681   0.075826  -0.008978
 464  11  -0.950766  -2.198002  -4.390810  -0.001640   0.271462  -0.006040
 465   5  -2.310635  -1.313263  -4.048512  -0.000863   0.391098  -0.002206
 466  14  -5.256914  -0.582508   3.213959  -0.000425   0.071027  -0.005981
 467  14  -6.253678  -0.864231   2.721429  -0.000925   0.158923  -0.005822
 468  14  -6.990025  -1.795999   2.009924  -0.000838   0.158923  -0.005276
 469  14  -6.878632  -3.055001   1.444994  -0.000949   0.158923  -0.005969
 470  14  -5.968737  -4.084707   1.276360  -0.000972   0.158923  -0.006116
 471  14  -4.911308  -4.488637   1.461229  -0.000416   0.071027  -0.005861
 472   5  -5.627379  -0.293251   2.831922  -0.000941   0.154527  -0.006091
 473   5  -6.815177  -0.962739   2.084646  -0.000590   0.154527  -0.003818
 474   5  -7.187277  -2.267135   1.324650  -0.000640   0.154527  -0.004142
 475   5  -6.579197  -3.629842   0.887882  -0.000778   0.154527  -0.005033
 476   5  -5.259732  -4.448492   0.967412  -0.000778   0.154527  -0.005032
 477  15  -5.312631   0.767103  -3.545442  -0.000306   0.068351  -0.004479
 478  15  -5.765618  -0.227631  -3.754609  -0.000738   0.152055  -0.004853
 479  15  -6.572851  -1.231240  -3.366363  -0.000710   0.152055  -0.004667
 480  15  -7.382615  -1.619378  -2.364752  -0.000725   0.152055  -0.004768
 481  15  -7.857046  -1.230099  -1.167685  -0.000720   0.152055  -0.004735
 482  15  -7.798195  -0.225826  -0.274622  -0.000648   0.152055  -0.004260
 483  15  -7.230617   0.974424  -0.058179  -0.000645   0.152055  -0.004242
 484   5  -5.080900   0.249145  -3.723282  -0.000614   0.149489  -0.004107
 485   5  -5.837660  -1.058847  -3.722607  -0.000468   0.149489  -0.003133
 486   5  -6.797311  -1.884817  -2.897759  -0.000567   0.149489  -0.003795
 487   5  -7.559451  -1.884140  -1.592894  -0.000610   0.149489  -0.004081
 488   5  -7.806088  -1.057099  -0.352450  -0.000448   0.149489  -0.002997
 489   5  -7.434317   0.251235   0.306016  -0.000442   0.149489  -0.002957
 490   5  -6.810486   1.309061   0.285263  -0.000208   0.083506  -0.002493
 491  16  -3.686663  -5.033101  -0.953672  -0.000500   0.067905  -0.007362
 492  16  -4.488364  -4.825019  -1.679495  -0.000891   0.150564  -0.005916
 493  16  -4.920827  -4.162694  -2.751248  -0.000929   0.150564  -0.006169
 494  16  -4.556295  -3.257332  -3.657774  -0.000764   0.150564  -0.005077
 495  16  -3.543011  -2.477114  -4.030421  -0.000924   0.150564  -0.006134
 496   5  -4.261614  -4.904852  -0.885241  -0.000713   0.149015  -0.004788
 497   5  -5.142341  -4.423452  -1.995229  -0.000745   0.149015  -0.005001
 498   5  -5.182601  -3.494346  -3.167678  -0.000657   0.149015  -0.004406
 499   5  -4.366023  -2.495368  -3.925794  -0.000563   0.149015  -0.003776
 500   5  -3.328160  -1.881355  -4.078549  -0.000390   0.082961  -0.004696
 501   6   0.081792   5.390722  -0.308055   0.004361   0.209388   0.020827
 502   8   1.224674   5.373783  -0.480414   0.000832   0.209388   0.003976
 503  17   0.870253   5.445335   0.185526   0.000404   0.209388   0.001928
 504   6   0.009362   5.123050  -1.851386   0.002385   0.099405   0.023996
 505   8   1.134261   5.176577  -2.084588   0.000157   0.099405   0.001574
 506  20   0.990919   5.084067  -2.338604   0.000062   0.099405   0.000626
 507   8   1.235090   5.508150  -1.530847   0.001662   0.457514   0.003632
 508   6  -0.359824   5.587885  -1.036932   0.007012   0.405184   0.017307
 509  15  -6.665590   1.940844  -0.496228  -0.000045   0.226027  -0.000199
 510  15  -6.438819   2.089467  -1.703725  -0.000622   0.455289  -0.001366
 511  15  -5.645438   1.697972  -2.920336  -0.000549   0.455289  -0.001205
 512   6  -5.861456   3.120143  -0.659200   0.009010   0.553721   0.016271
 513   6  -5.317533   3.071501  -2.218504   0.009016   0.553721   0.016282
 514   6  -4.480373   2.547025  -3.134688   0.003289   0.279154   0.011782
 515  17   0.547035   5.730636   0.741957   0.000344   0.232923   0.001475
 516  17  -0.074288   5.601159   1.864700   0.000086   0.469763   0.000184
 517  17  -0.571866   4.637138   2.991489  -0.000265   0.469763  -0.000563
 518   6  -0.855263   5.767763   0.507779   0.010968   0.569362   0.019264
 519   6  -1.601213   5.228544   1.957276   0.009883   0.569362   0.017358
 520   6  -1.919169   4.151674   2.799253   0.003564   0.287263   0.012407
 521  20   0.071590   3.015723  -4.160398  -0.000343   0.277667  -0.001236
 522  20   0.315839   4.234008  -3.702371  -0.000655   0.558276  -0.001174
 523  20   0.776328   5.080102  -2.793669   0.000422   0.277667   0.001520
 524   6  -1.352984   3.580789  -3.516440   0.009004   0.691842   0.013014
 525   6  -0.870034   4.995488  -2.579834   0.010301   0.691842   0.014890
 526   7   3.232691   5.477714   1.306646  -0.000111   0.026779  -0.004160
 527   8   3.462759   5.515860   0.866521  -0.000061   0.026779  -0.002284
 528  17   2.972676   5.556615   1.433729  -0.000132   0.026779  -0.004919
 529   7   5.825286   2.417233   2.196765  -0.000126   0.026179  -0.004805
 530   8   6.027463   2.487703   1.747061  -0.000083   0.026179  -0.003152
 531  18   5.809397   2.208501   2.413778  -0.000192   0.026179  -0.007326
 532   7   3.782901   5.387626   1.071417  -0.000064   0.026187  -0.002427
 533   8   4.029799   5.506273   0.655439  -0.000056   0.026187  -0.002137
 534  21   4.312606   5.541500   0.554421  -0.000065   0.026187  -0.002498
 535   7   5.795267   3.233636   1.800397  -0.000078   0.026187  -0.002993
 536   8   6.069208   3.323336   1.394216  -0.000062   0.026187  -0.002357
 537  21   6.168868   3.554600   1.226852  -0.000094   0.026187  -0.003595
 538   8   3.789198   5.577366   0.672564  -0.000000   0.036401  -0.000009
 539   7   3.483249   5.451739   1.306856  -0.000042   0.036401  -0.001152
 540   8   6.126406   2.991653   1.503896  -0.000040   0.101800  -0.000396
 541   7   5.816334   2.761805   2.116885  -0.000146   0.101800  -0.001436
 542   7   2.185334   0.106260   4.645902  -0.000404   0.080703  -0.005003
 543  10   2.185864  -0.831197   4.648987  -0.000556   0.080703  -0.006887
 544  18   2.481977   0.051999   4.687275  -0.000497   0.080703  -0.006159
 545  10   1.944316  -1.276514   4.839443  -0.000163   0.048590  -0.003363
 546   7   1.900427   0.106087   4.774966   0.000061   0.068653   0.000881
 547  17   0.046717   3.558868   3.917672  -0.000231   0.068172  -0.003385
 548  17   1.055699   3.885962   4.242487  -0.000510   0.151521  -0.003367
 549  17   2.207174   4.514074   3.962736  -0.000538   0.151521  -0.003552
 550  17   2.845062   5.182234   2.990450  -0.000719   0.151521  -0.004745
 551  17   2.847463   5.587819   1.957960  -0.000291   0.068172  -0.004265
 552   7   0.495136   3.272499   4.181672  -0.000459   0.149231  -0.003078
 553   7   1.883092   3.839651   4.329330  -0.000250   0.149231  -0.001673
 554   7   2.944616   4.608653   3.586571  -0.000446   0.149231  -0.002989
 555   7   3.240043   5.260998   2.261031  -0.000694   0.149231  -0.004651
 556  18   5.674752   2.259274   2.926760  -0.000325   0.066684  -0.004873
 557  18   5.033978   2.658045   3.701165  -0.000778   0.147233  -0.005284
 558  18   4.034200   2.509931   4.533184  -0.000579   0.147233  -0.003935
 559  18   3.122936   1.664974   4.944760  -0.000631   0.147233  -0.004283
 560  18   2.656547   0.690866   4.890832  -0.000354   0.066684  -0.005307
 561   7   5.377902   2.765676   2.965149  -0.000775   0.146942  -0.005275
 562   7   4.374137   3.036885   4.005595  -0.000556   0.146942  -0.003782
 563   7   3.243824   2.449519   4.741137  -0.000428   0.146942  -0.002913
 564   7   2.428997   1.233280   4.884124  -0.000526   0.146942  -0.003583
 565  21   4.744086   5.448456   0.703121  -0.000532   0.203718  -0.002610
 566  21   5.734474   4.452249   1.115189  -0.001896   0.417417  -0.004543
 567   7   4.459570   4.836324   1.746233  -0.001030   0.557547  -0.001846
 568   7   5.542181   3.619331   2.089856  -0.000211   0.286924  -0.000736
 569   8   1.824259   0.540428  -4.228576   0.000296   0.094637   0.003126
 570  11   1.346994  -0.635940  -4.107934   0.000244   0.094637   0.002577
 571  20   1.667503   0.799441  -4.255913  -0.000022   0.094637  -0.000229
 572  11   1.444598  -1.541355  -4.561006  -0.000376   0.359762  -0.001045
 573   8   2.474471   0.056831  -4.508833   0.001580   0.531739   0.002972
 574   8   5.489499  -0.554812   0.591321  -0.000681   0.260608  -0.002615
 575  12   5.232184  -1.605420   0.358331  -0.001284   0.260608  -0.004929
 576  18   5.233055  -0.587282   1.310689  -0.001096   0.260608  -0.004205
 577   8   5.999739  -0.645432  -0.333874  -0.000367   0.063836  -0.005743
 578  12   5.770522  -1.709924  -0.494980  -0.000553   0.063836  -0.008665
 579  19   6.023901  -0.849396  -0.555829  -0.000420   0.063836  -0.006575
 580  12   5.749654  -2.224440  -0.179105  -0.000713   0.153840  -0.004636
 581   8   5.973422  -0.650275   0.158684   0.000101   0.221173   0.000457
 582  17   2.538765   5.723167   1.288164  -0.000944   0.214401  -0.004404
 583  17   1.546060   5.711268   0.612634  -0.000882   0.214401  -0.004115
 584   8   2.658476   5.681766   0.045706  -0.000338   0.585132  -0.000577
 585  18   5.646559   0.029847   1.950637  -0.000944   0.184987  -0.005101
 586  18   5.903713   1.292702   2.328136  -0.002143   0.377179  -0.005681
 587   8   6.152119   0.695691   1.058938  -0.000325   0.508407  -0.000640
 588   8   6.315733   2.151575   1.490859   0.000016   0.260615   0.000060
 589  19   4.269657  -0.060812  -4.313529  -0.000184   0.070183  -0.002619
 590  19   5.284909   0.438831  -4.220786  -0.000430   0.156687  -0.002742
 591  19   6.382448   0.717635  -3.447715  -0.000482   0.156687  -0.003073
 592  19   6.896722   0.502412  -2.195053  -0.000331   0.156687  -0.002113
 593  19   6.604982  -0.113618  -1.005365  -0.000583   0.156687  -0.003723
 594   8   4.468464   0.492411  -4.444329  -0.000126   0.153002  -0.000825
 595   8   5.838061   1.046013  -4.009174  -0.000204   0.153002  -0.001335
 596   8   6.796622   1.083825  -2.804450  -0.000107   0.153002  -0.000702
 597   8   6.928965   0.589470  -1.351959  -0.000130   0.153002  -0.000849
 598   8   6.446405  -0.041524  -0.382950  -0.000175   0.085743  -0.002046
 599  20   1.616905   5.274230  -2.767323  -0.000130   0.072140  -0.001803
 600  20   2.439643   5.147858  -3.577896  -0.000355   0.161864  -0.002196
 601  20   3.059240   4.309060  -4.514195  -0.000374   0.161864  -0.002312
 602  20   2.983078   3.002960  -5.016629  -0.000411   0.161864  -0.002539
 603  20   2.245695   1.821844  -4.857354  -0.000303   0.161864  -0.001869
 604   8   2.213831   5.400031  -2.783952  -0.000078   0.156548  -0.000501
 605   8   3.200100   4.905152  -3.906114  -0.000082   0.156548  -0.000524
 606   8   3.524151   3.626149  -4.764032  -0.000153   0.156548  -0.000979
 607   8   3.039034   2.143020  -4.968657  -0.000125   0.156548  -0.000800
 608   8   2.231120   1.203666  -4.638700   0.000072   0.088135   0.000822
 609  21   6.572000   3.570883   0.869082  -0.000176   0.068707  -0.002561
 610  21   7.130756   3.142502   0.011930  -0.000428   0.152457  -0.002809
 611  21   7.370089   3.111528  -1.307486  -0.000303   0.152457  -0.001991
 612  21   7.002526   3.669876  -2.470346  -0.000433   0.152457  -0.002840
 613  21   6.179280   4.587846  -2.998261  -0.000442   0.152457  -0.002898
 614  21   5.239027   5.487796  -2.674051  -0.000329   0.152457  -0.002161
 615  21   4.568577   5.999493  -1.631094  -0.000355   0.152457  -0.002328
 616  21   4.443747   5.912431  -0.298452  -0.000474   0.152457  -0.003111
 617   8   6.680941   3.008615   0.702618  -0.000344   0.150686  -0.002283
 618   8   7.266316   2.629952  -0.633226  -0.000066   0.150686  -0.000438
 619   8   7.190273   2.942698  -2.105279  -0.000076   0.150686  -0.000503
 620   8   6.484093   3.818192  -3.107951  -0.000210   0.150686  -0.001393
 621   8   5.438293   4.896264  -3.228753  -0.000172   0.150686  -0.001144
 622   8   4.483105   5.733407  -2.417989  -0.000035   0.150686  -0.000234
 623   8   4.011484   5.985227  -1.009198  -0.000255   0.150686  -0.001693
 624   8   4.069282   5.734996   0.187851  -0.000121   0.083941  -0.001442
 625  13  -0.173105  -6.993079   0.546722  -0.000327   0.323862  -0.001009
 626   9  -1.133851  -6.226113   1.304332  -0.000910   0.323862  -0.002810
 627  14  -4.309452  -4.530456   2.049290  -0.000966   0.251235  -0.003843
 628  14  -4.148269  -3.792918   3.086914  -0.003632   0.503135  -0.007219
 629  14  -3.775952  -2.715585   3.676271  -0.001460   0.251235  -0.005810
 630   9  -3.067381  -4.783844   2.645806  -0.003784   0.503135  -0.007521
 631   9  -2.734977  -3.653065   3.659519  -0.003375   0.503135  -0.006709
 632  16  -3.132548  -5.142738  -0.598176   0.000017   0.007313   0.002338
 633   9  -2.359204  -5.447916   0.518258  -0.000022   0.007313  -0.002951
 634  10   4.537946  -2.238470   2.013105  -0.001869   0.299896  -0.006232
 635  12   4.810149  -2.360819   1.033141  -0.001210   0.299896  -0.004035
 636  18   4.766496  -1.325004   1.969361  -0.001744   0.299896  -0.005814
 637  12   5.231077  -3.047131   0.773307  -0.000120   0.146037  -0.000821
 638  10   4.708440  -2.956193   2.124946  -0.000098   0.146037  -0.000674
 639  18   2.859227  -0.080861   4.873019  -0.000606   0.212608  -0.002850
 640  18   3.860733  -0.440429   4.645345  -0.002247   0.425337  -0.005283
 641  18   4.790168  -0.801046   3.763049  -0.002319   0.425337  -0.005452
 642  18   5.111622  -0.954780   2.734859  -0.000916   0.212608  -0.004308
 643  10   2.807506  -1.473199   4.862628  -0.002129   0.425337  -0.005006
 644  10   3.953999  -1.895577   4.333958  -0.002468   0.425337  -0.005801
 645  10   4.574089  -2.158626   3.185641  -0.002176   0.425337  -0.005116
 646  16  -2.511182  -2.712532  -4.132060  -0.001154   0.250030  -0.004615
 647  16  -2.604315  -3.893673  -3.778684  -0.003644   0.500452  -0.007281
 648  11  -1.258208  -3.384248  -4.388933  -0.002904   0.500452  -0.005803
 649  11  -1.317413  -4.531860  -3.932727  -0.000614   0.250030  -0.002456
 650  20   1.248179   0.976811  -4.481239   0.000503   0.308631   0.001630
 651  11   0.609681  -1.104206  -4.456845  -0.000125   0.308631  -0.000404
 652  18   5.332122  -0.881606   1.930072   0.000031   0.164973   0.000185
 653  12   5.448478  -2.337109   0.535171  -0.000085   0.164973  -0.000513
 654  19   6.261836  -1.049302  -0.886639  -0.000734   0.235850  -0.003112
 655  19   6.316502  -1.216921  -2.106785  -0.002715   0.472227  -0.005749
 656  19   5.559769  -1.243042  -3.399378  -0.002595   0.472227  -0.005495
 657  12   6.083687  -2.372179  -1.190099  -0.002889   0.472227  -0.006118
 658  12   5.820117  -2.512615  -2.658068  -0.002725   0.472227  -0.005771
 659  12   4.980995  -2.473055  -3.560370  -0.000560   0.235850  -0.002373
 =====================================================


   1 warning(s) detected.
     A line exceeding 80 characters begins with "http://cactus.nci.ni".
 There may be a problem in your input file.

              4702868  WORDS OF DYNAMIC MEMORY USED
 EXECUTION OF GAMESS TERMINATED NORMALLY Thu Nov 24 23:08:35 2016
 DDI: 263640 bytes (0.3 MB / 0 MWords) used by master data server.

 ----------------------------------------
 CPU timing information for all processes
 ========================================
 0: 4936.588 + 1.604 = 4938.192
 ----------------------------------------
 ddikick.x: exited gracefully.
