----- GAMESS execution script -----

          ******************************************************
          *         GAMESS VERSION =  5 DEC 2014 (R1)          *
          *             FROM IOWA STATE UNIVERSITY             *
          * M.W.SCHMIDT, K.K.BALDRIDGE, J.A.BOATZ, S.T.ELBERT, *
          *   M.S.GORDON, J.H.JENSEN, S.KOSEKI, N.MATSUNAGA,   *
          *          K.A.NGUYEN, S.J.SU, T.L.WINDUS,           *
          *       TOGETHER WITH M.DUPUIS, J.A.MONTGOMERY       *
          *         J.COMPUT.CHEM.  14, 1347-1363(1993)        *
          **************** 64 BIT LINUX VERSION ****************

 EXECUTION OF GAMESS BEGUN Thu Nov 24 21:44:09 2016

            ECHO OF THE FIRST FEW INPUT CARDS -
 INPUT CARD>! SELECT RESTRICTED HARTREE-FOCK AS DEFAULT                                     
 INPUT CARD>$contrl scftyp=rhf $end                                                         
 INPUT CARD>                                                                                
 INPUT CARD>! THEORY: HF OR DFT                                                             
 INPUT CARD> $contrl mplevl=0 $end                                                          
 INPUT CARD>                                                                                
 INPUT CARD> $system timlim=10000 mwords=20 $end                                            
 INPUT CARD> $SCF DIRSCF=.TRUE. $end                                                        
 INPUT CARD>                                                                                
 INPUT CARD>                                                                                
 INPUT CARD>! BASIS SETS                                                                    
 INPUT CARD>! 6-311G(d,p)                                                                   
 INPUT CARD> $BASIS GBASIS=N311 NGAUSS=6 NDFUNC=1 NPFUNC=1 $END                             
 INPUT CARD>                                                                                
 INPUT CARD>! One of the following                                                          
 INPUT CARD> $guess guess=HUCKEL $end                                                       
 INPUT CARD>                                                                                
 INPUT CARD> $statpt projct=.FALSE. $end                                                    
 INPUT CARD> $STATPT IFREEZ(1)=1,2,3 $END                                                   
 INPUT CARD>                                                                                
 INPUT CARD>! Optimize the geometry with COSMO effects                                      
 INPUT CARD> $statpt opttol=0.0005 nstep=50 $end                                            
 INPUT CARD> $contrl nzvar=1 $end                                                           
 INPUT CARD> $zmat dlc=.t. auto=.t. $end                                                    
 INPUT CARD> $contrl runtyp=OPTIMIZE maxit=200 $end                                         
 INPUT CARD>                                                                                
 INPUT CARD>! Run COSMO on perfect conductor                                                
 INPUT CARD> $COSGMS PRFCND=.TRUE. $end                                                     
 INPUT CARD>                                                                                
 INPUT CARD>! Specifying RSOLV                                                              
 INPUT CARD> $COSGMS COSRAD = 1.4 $end                                                      
 INPUT CARD>                                                                                
 INPUT CARD>! available memory                                                              
 INPUT CARD> $SYSTEM MWORDS=40 $END                                                         
 INPUT CARD>                                                                                
 INPUT CARD> $DATA                                                                          
 INPUT CARD>http://cactus.nci.nih.gov/chemical/structure/N,N-DIBUTYLFORMAMIDE/file?format=sd
 INPUT CARD>C1                                                                              
 INPUT CARD>C      6.0     -1.3025000000   -0.8011000000   -0.8221000000                    
 INPUT CARD>C      6.0     -1.8500000000    0.2541000000    0.1411000000                    
 INPUT CARD>C      6.0     -3.2428000000    0.6902000000   -0.3181000000                    
 INPUT CARD>C      6.0     -3.7903000000    1.7453000000    0.6451000000                    
 INPUT CARD>N      7.0      0.0311000000   -1.2186000000   -0.3823000000                    
 INPUT CARD>C      6.0      0.1662000000   -2.2531000000    0.4709000000                    
 INPUT CARD>O      8.0      1.2702000000   -2.5988000000    0.8349000000                    
 INPUT CARD>C      6.0      1.2179000000   -0.5116000000   -0.8701000000                    
 INPUT CARD>C      6.0      1.5479000000    0.6443000000    0.0764000000                    
 INPUT CARD>C      6.0      2.7873000000    1.3826000000   -0.4330000000                    
 INPUT CARD>C      6.0      3.1173000000    2.5386000000    0.5135000000                    
 INPUT CARD>H      1.0     -1.9684000000   -1.6640000000   -0.8324000000                    
   40000000 WORDS OF MEMORY AVAILABLE

     BASIS OPTIONS
     -------------
     GBASIS=N311         IGAUSS=       6      POLAR=POPN311 
     NDFUNC=       1     NFFUNC=       0     DIFFSP=       F
     NPFUNC=       1      DIFFS=       F     BASNAM=        


     RUN TITLE
     ---------
 http://cactus.nci.nih.gov/chemical/structure/N,N-DIBUTYLFORMAMIDE/file?format=sd

 THE POINT GROUP OF THE MOLECULE IS C1      
 THE ORDER OF THE PRINCIPAL AXIS IS     0

 ATOM      ATOMIC                      COORDINATES (BOHR)
           CHARGE         X                   Y                   Z
 C           6.0    -2.4613680990       -1.5138594888       -1.5535437345
 C           6.0    -3.4959930773        0.4801793735        0.2666403369
 C           6.0    -6.1280034330        1.3042888767       -0.6011218367
 C           6.0    -7.1626284113        3.2981387664        1.2190622347
 N           7.0     0.0587704782       -2.3028200886       -0.7224422451
 C           6.0     0.3140724592       -4.2577416229        0.8898719676
 O           8.0     2.4003299496       -4.9110198969        1.5777322271
 C           6.0     2.3014972804       -0.9667838153       -1.6442505819
 C           6.0     2.9251068564        1.2175504539        0.1443750655
 C           6.0     5.2672332456        2.6127351506       -0.8182513527
 C           6.0     5.8908428215        4.7972583924        0.9703742947
 H           1.0    -3.7197366342       -3.1445040436       -1.5730079122
 H           1.0    -2.3411815262       -0.7167730671       -3.4489389002
 H           1.0    -3.6163686227       -0.3169070481        2.1622244752
 H           1.0    -2.2376245421        2.1108239283        0.2861045145
 H           1.0    -6.0076278876        2.1013752983       -2.4967059750
 H           1.0    -7.3863719682       -0.3263556781       -0.6205860144
 H           1.0    -7.2828149841        2.5010523447        3.1144574004
 H           1.0    -5.9042598760        4.9287833212        1.2385264124
 H           1.0    -9.0376145363        3.8852766308        0.6007438915
 H           1.0    -1.3394377801       -5.2426668077        1.5694174328
 H           1.0     3.8949142333       -2.2701278291       -1.7179498954
 H           1.0     1.9326227676       -0.2260112281       -3.5303860903
 H           1.0     1.3315009309        2.5207054950        0.2182633516
 H           1.0     3.2939813692        0.4765888941        2.0305105738
 H           1.0     6.8608391710        1.3095801095       -0.8921396388
 H           1.0     4.8983587328        3.3536967104       -2.7043868610
 H           1.0     7.5594708687        5.7912542620        0.2845927338
 H           1.0     4.2974258687        6.1004134336        1.0442625808
 H           1.0     6.2597173343        4.0562968326        2.8565098030

          INTERNUCLEAR DISTANCES (ANGS.)




     $CONTRL OPTIONS
     ---------------
 SCFTYP=RHF          RUNTYP=OPTIMIZE     EXETYP=RUN     
 MPLEVL=       0     CITYP =NONE         CCTYP =NONE         VBTYP =NONE    
 DFTTYP=NONE         TDDFT =NONE    
 MULT  =       1     ICHARG=       0     NZVAR =       1     COORD =UNIQUE  
 PP    =NONE         RELWFN=NONE         LOCAL =NONE         NUMGRD=       F
 ISPHER=      -1     NOSYM =       0     MAXIT =     200     UNITS =ANGS    
 PLTORB=       F     MOLPLT=       F     AIMPAC=       F     FRIEND=        
 NPRINT=       7     IREST =       0     GEOM  =INPUT   
 NORMF =       0     NORMP =       0     ITOL  =      20     ICUT  =       9
 INTTYP=BEST         GRDTYP=BEST         QMTTOL= 1.0E-06

     $SYSTEM OPTIONS
     ---------------
  REPLICATED MEMORY=    40000000 WORDS (ON EVERY NODE).
 DISTRIBUTED MEMDDI=           0 MILLION WORDS IN AGGREGATE,
 MEMDDI DISTRIBUTED OVER   1 PROCESSORS IS           0 WORDS/PROCESSOR.
 TOTAL MEMORY REQUESTED ON EACH PROCESSOR=    40000000 WORDS.
 TIMLIM=       10000.00 MINUTES, OR       6.9 DAYS.
 PARALL= F  BALTYP=  DLB     KDIAG=    0  COREFL= F
 MXSEQ2=     300 MXSEQ3=     150  mem10=         0

     $COSGMS OPTIONS
     ---------------
     EPSI  =   INFTY     NSPA  =      92     COSRAD=    1.40
     DISEX =   10.00     OUTCHG=DBLCAV       COSBUG=       F
     COSWRT=       F     DCOSMO=       F

     SYMMETRY COORDINATES WILL NOT BE USED FOR 
     THE COSMO CALCULATION, EVEN IF SPECIFIED:
         -- SWITCHING TO C1 POINT GROUP --


     DEFINITION OF CAVITY
     ---------------------------
     ATOM         COORDINATES           RADIUS 
     1   -2.4614   -1.5139   -1.5535    2.0000
     2   -3.4960    0.4802    0.2666    2.0000
     3   -6.1280    1.3043   -0.6011    2.0000
     4   -7.1626    3.2981    1.2191    2.0000
     5    0.0588   -2.3028   -0.7224    1.8300
     6    0.3141   -4.2577    0.8899    2.0000
     7    2.4003   -4.9110    1.5777    1.7200
     8    2.3015   -0.9668   -1.6443    2.0000
     9    2.9251    1.2176    0.1444    2.0000
    10    5.2672    2.6127   -0.8183    2.0000
    11    5.8908    4.7973    0.9704    2.0000
    12   -3.7197   -3.1445   -1.5730    1.3000
    13   -2.3412   -0.7168   -3.4489    1.3000
    14   -3.6164   -0.3169    2.1622    1.3000
    15   -2.2376    2.1108    0.2861    1.3000
    16   -6.0076    2.1014   -2.4967    1.3000
    17   -7.3864   -0.3264   -0.6206    1.3000
    18   -7.2828    2.5011    3.1145    1.3000
    19   -5.9043    4.9288    1.2385    1.3000
    20   -9.0376    3.8853    0.6007    1.3000
    21   -1.3394   -5.2427    1.5694    1.3000
    22    3.8949   -2.2701   -1.7179    1.3000
    23    1.9326   -0.2260   -3.5304    1.3000
    24    1.3315    2.5207    0.2183    1.3000
    25    3.2940    0.4766    2.0305    1.3000
    26    6.8608    1.3096   -0.8921    1.3000
    27    4.8984    3.3537   -2.7044    1.3000
    28    7.5595    5.7913    0.2846    1.3000
    29    4.2974    6.1004    1.0443    1.3000
    30    6.2597    4.0563    2.8565    1.3000

          ----------------
          PROPERTIES INPUT
          ----------------

     MOMENTS            FIELD           POTENTIAL          DENSITY
 IEMOM =       1   IEFLD =       0   IEPOT =       0   IEDEN =       0
 WHERE =COMASS     WHERE =NUCLEI     WHERE =NUCLEI     WHERE =NUCLEI  
 OUTPUT=BOTH       OUTPUT=BOTH       OUTPUT=BOTH       OUTPUT=BOTH    
 IEMINT=       0   IEFINT=       0                     IEDINT=       0
                                                       MORB  =       0
          EXTRAPOLATION IN EFFECT
          SOSCF IN EFFECT
 ORBITAL PRINTING OPTION: NPREO=     1   323     2     1

     -------------------------------
     INTEGRAL TRANSFORMATION OPTIONS
     -------------------------------
     NWORD  =            0
     CUTOFF = 1.0E-09     MPTRAN =       0
     DIRTRF =       T     AOINTS =DUP     

          ----------------------
          INTEGRAL INPUT OPTIONS
          ----------------------
 NOPK  =       1 NORDER=       0 SCHWRZ=       T


 -----------------------------------------------
  STATISTICS ON AUTOMATIC COORDINATE GENERATION 
 -----------------------------------------------
  NUMBER OF USER SPECIFIED BONDS                             0
  NUMBER OF BONDS                                           29
  NUMBER OF ANGLES                                          54
  NUMBER OF TORSIONS                                        70
  NUMBER OF EXTRA COORD.                                     0
  NUMBER OF EXTRA COORD. FOR CONSTRAINTS                     0
  NUMBER OF CONSTRAINED COORD.                               0

  TOTAL NUMBER OF PRIMITIVES                               153
 -----------------------------------------------

   --- ENCODED Z MATRIX ---
 COORD  TYPE   I   J   K   L   M   N
    1      1    1   2
    2      1    1  12
    3      1    1   5
    4      1    1  13
    5      1    2  14
    6      1    2  15
    7      1    2   3
    8      1    3  16
    9      1    3   4
   10      1    3  17
   11      1    4  20
   12      1    4  19
   13      1    4  18
   14      1    5   8
   15      1    5   6
   16      1    6   7
   17      1    6  21
   18      1    8  23
   19      1    8  22
   20      1    8   9
   21      1    9  25
   22      1    9  24
   23      1    9  10
   24      1   10  27
   25      1   10  26
   26      1   10  11
   27      1   11  30
   28      1   11  29
   29      1   11  28
   30      2    1   2   3
   31      2    1   2  14
   32      2    1   5   8
   33      2    1   5   6
   34      2    1   2  15
   35      2    2   3  17
   36      2    2   1  12
   37      2    2   1   5
   38      2    2   3   4
   39      2    2   3  16
   40      2    2   1  13
   41      2    3   2  14
   42      2    3   4  20
   43      2    3   4  18
   44      2    3   4  19
   45      2    3   2  15
   46      2    4   3  17
   47      2    4   3  16
   48      2    5   8   9
   49      2    5   8  23
   50      2    5   1  12
   51      2    5   1  13
   52      2    5   6   7
   53      2    5   6  21
   54      2    5   8  22
   55      2    6   5   8
   56      2    7   6  21
   57      2    8   9  24
   58      2    8   9  25
   59      2    8   9  10
   60      2    9  10  11
   61      2    9  10  26
   62      2    9  10  27
   63      2    9   8  22
   64      2    9   8  23
   65      2   10  11  30
   66      2   10  11  29
   67      2   10   9  24
   68      2   10   9  25
   69      2   10  11  28
   70      2   11  10  26
   71      2   11  10  27
   72      2   12   1  13
   73      2   14   2  15
   74      2   16   3  17
   75      2   18   4  19
   76      2   18   4  20
   77      2   19   4  20
   78      2   22   8  23
   79      2   24   9  25
   80      2   26  10  27
   81      2   28  11  29
   82      2   28  11  30
   83      2   29  11  30
   84      3    1   5   8   9
   85      3    1   5   8  22
   86      3    1   5   8  23
   87      3    1   2   3  17
   88      3    1   2   3   4
   89      3    1   5   6  21
   90      3    1   5   6   7
   91      3    1   2   3  16
   92      3    2   1   5   8
   93      3    2   3   4  18
   94      3    2   3   4  19
   95      3    2   3   4  20
   96      3    2   1   5   6
   97      3    3   2   1  13
   98      3    3   2   1  12
   99      3    3   2   1   5
  100      3    4   3   2  15
  101      3    4   3   2  14
  102      3    5   1   2  15
  103      3    5   8   9  10
  104      3    5   8   9  24
  105      3    5   8   9  25
  106      3    5   1   2  14
  107      3    6   5   8  22
  108      3    6   5   8  23
  109      3    6   5   1  13
  110      3    6   5   8   9
  111      3    6   5   1  12
  112      3    7   6   5   8
  113      3    8   5   1  13
  114      3    8   9  10  11
  115      3    8   9  10  26
  116      3    8   9  10  27
  117      3    8   5   1  12
  118      3    8   5   6  21
  119      3    9  10  11  28
  120      3    9  10  11  29
  121      3    9  10  11  30
  122      3   10   9   8  22
  123      3   10   9   8  23
  124      3   11  10   9  24
  125      3   11  10   9  25
  126      3   12   1   2  14
  127      3   12   1   2  15
  128      3   13   1   2  15
  129      3   13   1   2  14
  130      3   14   2   3  17
  131      3   14   2   3  16
  132      3   15   2   3  17
  133      3   15   2   3  16
  134      3   16   3   4  19
  135      3   16   3   4  18
  136      3   16   3   4  20
  137      3   17   3   4  19
  138      3   17   3   4  18
  139      3   17   3   4  20
  140      3   22   8   9  25
  141      3   22   8   9  24
  142      3   23   8   9  25
  143      3   23   8   9  24
  144      3   24   9  10  27
  145      3   24   9  10  26
  146      3   25   9  10  27
  147      3   25   9  10  26
  148      3   26  10  11  29
  149      3   26  10  11  30
  150      3   26  10  11  28
  151      3   27  10  11  29
  152      3   27  10  11  30
  153      3   27  10  11  28

          INDEP./SYM. INTERNAL COORDINATES
          --------------------------------
 CRD  1=  -0.2208 ( 30)  0.3089 ( 32) -0.1541 ( 33) -0.1703 ( 36)  0.4061 ( 37)
           0.1518 ( 38)  0.4058 ( 48) -0.1419 ( 50) -0.1419 ( 54) -0.1548 ( 55)
          -0.2206 ( 59)  0.1517 ( 60) -0.1702 ( 63)  0.1552 ( 84)  0.1082 ( 85)
          -0.1550 ( 92) -0.1083 (117)
 CRD  2=  -0.2799 ( 30)  0.1318 ( 31)  0.1176 ( 33)  0.3712 ( 37)  0.2347 ( 38)
          -0.1845 ( 40) -0.3698 ( 48) -0.1262 ( 50)  0.1264 ( 54) -0.1150 ( 55)
          -0.1305 ( 58)  0.2774 ( 59) -0.2330 ( 60)  0.1831 ( 64)  0.1347 ( 84)
           0.1365 ( 92)  0.1369 ( 96)  0.1344 (110)
 CRD  3=   0.2139 ( 30)  0.5715 ( 32) -0.2820 ( 33) -0.1552 ( 37) -0.1312 ( 38)
          -0.1303 ( 41) -0.1573 ( 48)  0.1381 ( 49)  0.1375 ( 51) -0.2895 ( 55)
           0.2143 ( 59) -0.1328 ( 60) -0.1306 ( 68)  0.1903 ( 99)  0.1019 (102)
          -0.1919 (103) -0.1025 (104) -0.1312 (105)  0.1304 (106)
 CRD  4=   0.2044 ( 30)  0.2956 ( 33) -0.1326 ( 34)  0.1290 ( 36) -0.2464 ( 38)
          -0.1117 ( 40)  0.1151 ( 46) -0.1267 ( 52)  0.1179 ( 53) -0.2937 ( 55)
           0.1368 ( 57) -0.2158 ( 59)  0.2480 ( 60) -0.1292 ( 63)  0.1142 ( 64)
          -0.1154 ( 70)  0.2130 ( 84)  0.1146 ( 87)  0.1493 ( 88)  0.2116 ( 92)
           0.2110 ( 96)  0.2137 (110)  0.1507 (114)  0.1162 (115)
 CRD  5=  -0.1873 (  1) -0.1407 (  3) -0.1296 (  7) -0.1028 (  9)  0.1605 ( 14)
           0.1982 ( 20)  0.1416 ( 23)  0.1093 ( 26) -0.1455 ( 30)  0.1095 ( 31)
          -0.4091 ( 33) -0.1292 ( 38)  0.1631 ( 52) -0.1513 ( 53)  0.4104 ( 55)
          -0.1155 ( 58)  0.1681 ( 59)  0.1242 ( 60) -0.1022 ( 67)  0.1279 ( 84)
           0.1042 ( 88)  0.1267 ( 92)  0.1280 ( 96)  0.1266 (110)  0.1033 (114)
 CRD  6=  -0.1786 (  1) -0.2973 (  3) -0.1997 (  7) -0.1053 (  9) -0.2825 ( 14)
          -0.1123 ( 15) -0.1656 ( 20) -0.1880 ( 23) -0.3639 ( 30) -0.2216 ( 37)
           0.1600 ( 45) -0.2124 ( 48)  0.1232 ( 49)  0.1297 ( 51) -0.3438 ( 59)
           0.1508 ( 67)  0.1090 ( 99) -0.1039 (103)
 CRD  7=  -0.1589 (  1) -0.1153 (  7) -0.1326 (  9) -0.1636 ( 20) -0.1172 ( 23)
          -0.1363 ( 26) -0.1007 ( 32)  0.1028 ( 34)  0.1375 ( 35) -0.1296 ( 36)
          -0.3641 ( 38) -0.1380 ( 43)  0.1687 ( 47)  0.1040 ( 57) -0.3755 ( 60)
           0.1417 ( 61) -0.1325 ( 63) -0.1410 ( 65)  0.1726 ( 71)  0.1740 ( 84)
          -0.1459 ( 88) -0.1159 ( 91) -0.1724 ( 92) -0.1601 ( 96)  0.1618 (110)
           0.1471 (114)  0.1176 (116)
 CRD  8=   0.1904 (  1)  0.1875 (  7)  0.1374 (  9) -0.1909 ( 20) -0.1877 ( 23)
          -0.1353 ( 26)  0.2923 ( 30) -0.1943 ( 33)  0.1439 ( 37) -0.1711 ( 41)
          -0.1523 ( 48) -0.1818 ( 50)  0.1401 ( 52) -0.1283 ( 53)  0.1823 ( 54)
           0.1957 ( 55)  0.1013 ( 57) -0.2955 ( 59)  0.1714 ( 68)  0.1120 ( 97)
           0.1994 ( 99)  0.1927 (103)  0.1245 (105)  0.1283 (106)  0.1085 (123)
 CRD  9=  -0.1047 (  7) -0.1613 (  9) -0.1294 ( 30)  0.1663 ( 31)  0.2481 ( 37)
          -0.3733 ( 38)  0.1462 ( 39) -0.2022 ( 40) -0.1671 ( 44)  0.1784 ( 46)
          -0.1020 ( 50)  0.1619 ( 58) -0.1634 ( 60) -0.1668 ( 64) -0.1548 ( 66)
           0.1435 ( 70) -0.1600 ( 84)  0.1101 ( 87)  0.1446 ( 88) -0.1203 ( 90)
           0.1117 ( 92)  0.1503 ( 96) -0.1986 (110) -0.2264 (114) -0.1426 (115)
          -0.1279 (116) -0.1094 (124)
 CRD 10=  -0.1665 ( 26) -0.1359 ( 34)  0.1689 ( 36) -0.2318 ( 37)  0.2571 ( 38)
           0.1616 ( 43) -0.1460 ( 47)  0.3296 ( 48) -0.1030 ( 54)  0.1101 ( 57)
          -0.1201 ( 59) -0.4147 ( 60)  0.1081 ( 61)  0.1428 ( 62) -0.1387 ( 63)
          -0.1152 ( 64) -0.1424 ( 65)  0.1058 ( 70)  0.1451 ( 71)  0.1942 ( 88)
           0.1261 ( 91)  0.1219 ( 92)  0.1330 ( 96)  0.1043 (101)
 CRD 11=  -0.1573 (  1)  0.1409 (  3) -0.1335 ( 14)  0.1464 ( 20)  0.1834 ( 33)
          -0.1110 ( 35) -0.1910 ( 37)  0.1008 ( 44)  0.1363 ( 45)  0.1798 ( 48)
          -0.1988 ( 49)  0.1832 ( 51) -0.1955 ( 52)  0.1543 ( 53) -0.2122 ( 55)
           0.1310 ( 61)  0.1131 ( 65) -0.1295 ( 66) -0.1550 ( 67) -0.1134 ( 88)
           0.1254 ( 95)  0.1391 ( 98)  0.1837 ( 99)  0.2339 (103)  0.1051 (105)
          -0.1498 (114)  0.1626 (119)  0.1252 (120)  0.1136 (121)  0.1703 (122)
           0.1253 (123)
 CRD 12=  -0.1005 ( 14)  0.4204 ( 15) -0.2408 ( 32)  0.1569 ( 33)  0.1128 ( 39)
          -0.1157 ( 41) -0.1424 ( 43)  0.1389 ( 44)  0.1034 ( 48) -0.1193 ( 50)
           0.1078 ( 53) -0.1354 ( 54) -0.1966 ( 56)  0.1013 ( 62) -0.1162 ( 65)
           0.1068 ( 66) -0.1115 ( 68) -0.1503 ( 88)  0.1255 ( 93)  0.1224 ( 94)
           0.1708 ( 95)  0.1530 ( 97)  0.1379 ( 98)  0.2138 ( 99) -0.1714 (103)
           0.1188 (114) -0.1369 (119) -0.1034 (121) -0.1009 (122) -0.1330 (123)
 CRD 13=  -0.1039 (  1)  0.4509 (  3) -0.1443 (  9)  0.4214 ( 14)  0.3833 ( 15)
          -0.1358 ( 26) -0.1233 ( 30) -0.1332 ( 37) -0.1221 ( 48)  0.1405 ( 49)
           0.1563 ( 50)  0.1540 ( 51)  0.1168 ( 52)  0.1479 ( 54) -0.1914 ( 56)
          -0.1189 ( 59)  0.1105 (117)
 CRD 14=   0.1131 ( 35) -0.1199 ( 39)  0.1097 ( 41) -0.2385 ( 43)  0.2630 ( 44)
          -0.1000 ( 45) -0.1554 ( 46)  0.1334 ( 47) -0.1177 ( 61)  0.1229 ( 62)
           0.2553 ( 65) -0.2731 ( 66) -0.1165 ( 68)  0.1638 ( 70) -0.1383 ( 71)
           0.1588 ( 84) -0.1363 ( 88)  0.1491 ( 92)  0.1515 ( 96) -0.1071 ( 98)
          -0.1059 ( 99) -0.1460 (100) -0.1159 (101) -0.1087 (103)  0.1563 (110)
          -0.1436 (114) -0.1032 (122) -0.1535 (124) -0.1218 (125)
 CRD 15=   0.1065 (  1) -0.1764 ( 15)  0.1288 ( 20)  0.1475 ( 32)  0.1175 ( 35)
          -0.1148 ( 39) -0.2606 ( 43)  0.2490 ( 44) -0.1021 ( 45) -0.1261 ( 46)
           0.1554 ( 47)  0.1148 ( 61) -0.1109 ( 62) -0.2573 ( 65)  0.2411 ( 66)
          -0.1016 ( 67) -0.1208 ( 70)  0.1535 ( 71) -0.1518 ( 84) -0.1077 ( 88)
          -0.1117 ( 90)  0.1545 ( 92)  0.1647 ( 96) -0.1058 (100) -0.1394 (101)
          -0.1620 (110) -0.1014 (112)  0.1051 (114)  0.1401 (125)
 CRD 16=   0.4052 (  9) -0.4612 ( 26) -0.1043 ( 30)  0.3273 ( 42)  0.1200 ( 46)
           0.1086 ( 47)  0.1194 ( 59) -0.3723 ( 69) -0.1331 ( 70) -0.1278 ( 71)
          -0.1540 ( 76) -0.1633 ( 77)  0.1841 ( 81)  0.1769 ( 82)
 CRD 17=   0.4375 (  9)  0.3830 ( 26) -0.1421 ( 30)  0.3880 ( 42)  0.1214 ( 46)
           0.1278 ( 47) -0.1246 ( 59)  0.3420 ( 69)  0.1045 ( 70)  0.1128 ( 71)
          -0.1815 ( 76) -0.1750 ( 77) -0.1531 ( 81) -0.1599 ( 82)
 CRD 18=  -0.2654 (  1)  0.3840 (  7)  0.2600 ( 20) -0.3916 ( 23) -0.1105 ( 31)
           0.1202 ( 41)  0.2018 ( 42) -0.2141 ( 44)  0.1021 ( 58)  0.1982 ( 66)
          -0.1161 ( 68) -0.2097 ( 69)  0.1148 ( 75) -0.1191 ( 83)
 CRD 19=  -0.1755 (  1)  0.4181 (  7) -0.1390 (  9) -0.1677 ( 20)  0.4007 ( 23)
          -0.1293 ( 26)  0.2180 ( 42) -0.2369 ( 43) -0.1132 ( 44)  0.1154 ( 45)
          -0.2322 ( 65) -0.1075 ( 66)  0.1125 ( 67)  0.2168 ( 69)  0.1554 ( 75)
           0.1500 ( 83)
 CRD 20=   0.1107 (  1) -0.1573 (  3)  0.1018 (  5)  0.3041 ( 14) -0.1587 ( 16)
           0.1535 ( 17) -0.1647 ( 20) -0.1577 ( 23)  0.1286 ( 26)  0.1069 ( 31)
          -0.1141 ( 35)  0.1384 ( 39)  0.1053 ( 40) -0.3186 ( 43)  0.1466 ( 44)
           0.1207 ( 45) -0.1434 ( 51) -0.3110 ( 52)  0.2375 ( 53)  0.1509 ( 65)
           0.1240 ( 66) -0.1480 ( 69) -0.1220 ( 83)  0.1199 ( 93)  0.1076 ( 94)
           0.1388 ( 95) -0.1138 (102)
 CRD 21=  -0.1793 (  1)  0.1920 (  3)  0.1021 (  9) -0.2011 ( 15) -0.1058 ( 27)
          -0.1170 ( 36) -0.1308 ( 42)  0.2297 ( 44) -0.1363 ( 49)  0.1185 ( 50)
          -0.1418 ( 53)  0.1451 ( 54)  0.1037 ( 56) -0.1165 ( 57)  0.1295 ( 58)
          -0.1626 ( 61)  0.1625 ( 62) -0.3291 ( 65)  0.2880 ( 66)  0.1352 ( 67)
          -0.1276 ( 68) -0.1020 ( 75) -0.1309 ( 81)  0.1277 ( 82)  0.1406 (104)
           0.1387 (105) -0.1735 (119) -0.1411 (120) -0.1447 (121)
 CRD 22=   0.3131 (  1)  0.1792 (  3) -0.1020 (  9) -0.1886 ( 14)  0.1179 ( 16)
          -0.1455 ( 17) -0.2726 ( 20) -0.1198 ( 30)  0.1032 ( 31)  0.1254 ( 36)
          -0.1359 ( 37)  0.1872 ( 42) -0.1822 ( 43) -0.1082 ( 44)  0.1408 ( 48)
          -0.1300 ( 49)  0.1095 ( 51)  0.2257 ( 52) -0.2239 ( 53)  0.1132 ( 59)
          -0.1128 ( 63)  0.1728 ( 66) -0.1748 ( 69)  0.1233 ( 75) -0.1126 ( 83)
           0.1534 ( 89)  0.1845 ( 90)  0.1818 (112)  0.1507 (118)
 CRD 23=   0.1723 (  1)  0.1289 (  6) -0.1129 ( 12)  0.1146 ( 14) -0.1581 ( 16)
           0.1897 ( 17)  0.1280 ( 34) -0.1076 ( 39)  0.1804 ( 43) -0.3367 ( 44)
          -0.1204 ( 50) -0.3072 ( 52)  0.2929 ( 53)  0.1323 ( 54) -0.1185 ( 61)
           0.1085 ( 62) -0.2026 ( 65)  0.1640 ( 66) -0.1161 ( 76)  0.1118 ( 77)
          -0.1138 ( 88)  0.1081 (102)  0.1074 (105) -0.1003 (119)
 CRD 24=  -0.3497 (  1) -0.1020 (  5)  0.1029 (  9) -0.4176 ( 20)  0.1310 ( 26)
           0.1183 ( 35) -0.1712 ( 40) -0.1623 ( 42)  0.1855 ( 43) -0.1070 ( 50)
           0.1003 ( 51)  0.1023 ( 53) -0.1380 ( 57)  0.1004 ( 59) -0.1639 ( 64)
           0.1002 ( 65)  0.2411 ( 66) -0.2067 ( 69) -0.1153 ( 75) -0.1473 ( 83)
 CRD 25=  -0.1984 ( 31)  0.2056 ( 34) -0.1757 ( 35)  0.1585 ( 39)  0.1680 ( 41)
          -0.1795 ( 45)  0.1627 ( 46) -0.1686 ( 47) -0.2460 ( 57)  0.2422 ( 58)
           0.2076 ( 61) -0.1948 ( 62)  0.2114 ( 67) -0.2039 ( 68) -0.1960 ( 70)
           0.2004 ( 71) -0.1445 ( 87) -0.1453 ( 91)  0.1108 ( 93)  0.1083 ( 94)
          -0.1765 (115) -0.1769 (116)  0.1118 (119)  0.1317 (120)  0.1335 (121)
          -0.1151 (122) -0.1087 (123)  0.1165 (124)  0.1128 (125)
 CRD 26=  -0.2477 ( 31)  0.2360 ( 34) -0.1822 ( 35)  0.2005 ( 39)  0.2215 ( 41)
          -0.2069 ( 45)  0.1961 ( 46) -0.1906 ( 47)  0.1900 ( 57) -0.2111 ( 58)
          -0.1411 ( 61)  0.1774 ( 62) -0.1632 ( 67)  0.1886 ( 68)  0.1649 ( 70)
          -0.1553 ( 71) -0.1695 ( 87) -0.1688 ( 91)  0.1219 ( 93)  0.1245 ( 94)
           0.1033 ( 95) -0.1237 ( 97) -0.1189 ( 98)  0.1113 (100)  0.1198 (101)
           0.1417 (115)  0.1411 (116) -0.1055 (120) -0.1005 (121)  0.1008 (123)
          -0.1023 (125)
 CRD 27=  -0.1137 ( 15)  0.1062 ( 20)  0.1833 ( 22)  0.3484 ( 23)  0.2064 ( 24)
           0.1097 ( 25)  0.1009 ( 27) -0.1308 ( 44)  0.1037 ( 50)  0.1194 ( 54)
          -0.1779 ( 59) -0.2222 ( 60)  0.1377 ( 61)  0.1369 ( 62)  0.2849 ( 65)
           0.1482 ( 67) -0.2466 ( 69) -0.1079 ( 79) -0.1317 ( 80) -0.1651 ( 83)
          -0.1601 ( 90) -0.1643 (112)
 CRD 28=   0.1592 (  1)  0.1364 (  5)  0.1850 (  6)  0.3991 (  7)  0.2033 (  8)
           0.1060 (  9)  0.1570 ( 10) -0.1072 ( 11) -0.2147 ( 30)  0.1554 ( 35)
          -0.2558 ( 38)  0.1594 ( 39) -0.2759 ( 42)  0.2451 ( 43)  0.1554 ( 44)
           0.1218 ( 45) -0.1154 ( 66) -0.1312 ( 73) -0.1504 ( 74) -0.1842 ( 75)
           0.1161 ( 89)  0.1063 (118)
 CRD 29=   0.1226 (  1)  0.1279 (  5)  0.1486 (  7)  0.1174 ( 10)  0.1317 ( 15)
           0.1594 ( 18)  0.1922 ( 20)  0.2050 ( 21)  0.2290 ( 23)  0.1978 ( 25)
           0.1151 ( 28)  0.1463 ( 44)  0.1242 ( 49) -0.1341 ( 54) -0.1515 ( 59)
          -0.1484 ( 60)  0.1082 ( 61)  0.1827 ( 63)  0.2574 ( 66)  0.1354 ( 68)
          -0.1386 ( 69)  0.1037 ( 82)  0.1591 ( 85)  0.1414 ( 90) -0.1127 (105)
           0.1783 (107)  0.1222 (112) -0.1384 (114) -0.1139 (124)
 CRD 30=  -0.1195 (  2)  0.1392 (  4) -0.1231 (  8)  0.1226 ( 10)  0.1022 ( 12)
          -0.1019 ( 13)  0.1539 ( 36) -0.1677 ( 40) -0.1708 ( 43)  0.1707 ( 44)
          -0.1736 ( 49) -0.1901 ( 50)  0.2118 ( 51) -0.1010 ( 52)  0.1255 ( 53)
           0.1311 ( 54)  0.1806 ( 64)  0.1116 ( 65) -0.1377 ( 86)  0.1547 ( 88)
          -0.1430 ( 89) -0.1045 ( 90) -0.1183 ( 97) -0.1046 ( 98)  0.1136 (100)
           0.1110 (101)  0.1444 (102)  0.1095 (104)  0.1412 (106) -0.1351 (108)
          -0.1727 (109) -0.1647 (111) -0.1071 (112) -0.1702 (113) -0.1621 (117)
          -0.1456 (118)
 CRD 31=   0.1290 (  1)  0.1464 (  2)  0.1084 (  4) -0.2083 ( 19) -0.1209 ( 20)
          -0.1138 ( 24)  0.1340 ( 36)  0.1268 ( 40) -0.1704 ( 63) -0.1113 ( 72)
          -0.3555 ( 89) -0.4112 ( 90) -0.4037 (112) -0.3480 (118)
 CRD 32=   0.2128 (  2) -0.1019 (  4)  0.2146 (  8) -0.2098 ( 10)  0.1483 ( 19)
           0.1565 ( 24) -0.1559 ( 25)  0.2582 ( 36) -0.2070 ( 40) -0.1258 ( 50)
           0.1116 ( 51)  0.1851 ( 63) -0.1748 ( 64)  0.1450 ( 85)  0.1280 ( 86)
          -0.1628 ( 89)  0.1088 ( 95) -0.1162 (100) -0.1236 (101)  0.1632 (107)
           0.1462 (108) -0.1734 (109) -0.2197 (111) -0.1552 (113) -0.2015 (117)
          -0.1810 (118)
 CRD 33=  -0.2054 (  4)  0.1821 (  8) -0.1914 ( 10)  0.2177 ( 18) -0.2218 ( 24)
           0.2298 ( 25)  0.1190 ( 36) -0.2088 ( 40) -0.1017 ( 49) -0.1690 ( 63)
           0.2465 ( 64) -0.1543 ( 85) -0.2118 ( 86) -0.1047 (100) -0.1554 (107)
          -0.2129 (108) -0.1775 (109) -0.1102 (111) -0.1785 (113) -0.1112 (117)
           0.1128 (119) -0.1255 (124) -0.1206 (125)
 CRD 34=   0.1144 (  5) -0.1134 (  6)  0.1041 (  8) -0.1029 ( 10) -0.5201 ( 16)
          -0.4695 ( 17)  0.1347 ( 21) -0.1324 ( 22)  0.1223 ( 24) -0.1211 ( 25)
           0.2050 ( 52)  0.2593 ( 53) -0.4643 ( 56)
 CRD 35=  -0.1797 ( 26) -0.5048 ( 27) -0.5047 ( 28) -0.4849 ( 29)  0.1692 ( 65)
           0.1693 ( 66)  0.1847 ( 69) -0.1784 ( 81) -0.1783 ( 82) -0.1665 ( 83)
 CRD 36=  -0.1797 (  9) -0.4849 ( 11) -0.5047 ( 12) -0.5049 ( 13)  0.1847 ( 42)
           0.1692 ( 43)  0.1692 ( 44) -0.1665 ( 75) -0.1783 ( 76) -0.1783 ( 77)
 CRD 37=  -0.2232 (  2)  0.1880 (  4)  0.2934 (  5) -0.2943 (  6)  0.2257 (  8)
          -0.2254 ( 10)  0.1007 ( 15)  0.2444 ( 16)  0.2324 ( 17)  0.1552 ( 18)
          -0.1971 ( 19)  0.2498 ( 21) -0.2495 ( 22)  0.1918 ( 24) -0.1910 ( 25)
           0.1543 ( 56)
 CRD 38=  -0.1653 (  2)  0.2496 (  4)  0.2749 (  5) -0.2706 (  6)  0.2038 (  8)
          -0.2036 ( 10) -0.2726 ( 18)  0.1931 ( 19) -0.3072 ( 21)  0.3032 ( 22)
          -0.2280 ( 24)  0.2277 ( 25)  0.1019 (115)  0.1021 (116)
 CRD 39=  -0.3863 (  2) -0.3513 (  4)  0.4668 ( 18)  0.4900 ( 19) -0.1594 ( 72)
           0.1992 ( 78)  0.1127 ( 86)  0.1100 (108)
 CRD 40=   0.4797 (  2)  0.4924 (  4)  0.3957 ( 18)  0.3751 ( 19)  0.1930 ( 72)
           0.1485 ( 78)  0.1031 (111)
 CRD 41=   0.1892 (  8)  0.1891 ( 10) -0.4404 ( 11)  0.1965 ( 12)  0.1958 ( 13)
           0.1770 ( 24)  0.1768 ( 25)  0.1831 ( 27)  0.1841 ( 28) -0.4122 ( 29)
           0.2323 ( 75) -0.1098 ( 76) -0.1095 ( 77) -0.1024 ( 81) -0.1029 ( 82)
           0.2174 ( 83) -0.1167 ( 93)  0.1168 ( 94) -0.1094 (120)  0.1092 (121)
           0.1387 (134) -0.1384 (138)  0.1295 (149) -0.1298 (151)
 CRD 42=   0.1763 (  8)  0.1772 ( 10) -0.4119 ( 11)  0.1832 ( 12)  0.1838 ( 13)
          -0.1882 ( 24) -0.1894 ( 25) -0.1966 ( 27) -0.1957 ( 28)  0.4402 ( 29)
           0.2173 ( 75) -0.1025 ( 76) -0.1028 ( 77)  0.1099 ( 81)  0.1095 ( 82)
          -0.2323 ( 83) -0.1097 ( 93)  0.1088 ( 94)  0.1160 (120) -0.1175 (121)
           0.1287 (134) -0.1303 (138) -0.1397 (149)  0.1371 (151)
 CRD 43=   0.3767 ( 12) -0.3772 ( 13) -0.3877 ( 27)  0.3875 ( 28) -0.2035 ( 76)
           0.2038 ( 77)  0.2095 ( 81) -0.2094 ( 82)  0.1646 ( 95) -0.1689 (119)
           0.1662 (136)  0.1662 (139) -0.1704 (150) -0.1704 (153)
 CRD 44=   0.3902 ( 12) -0.3895 ( 13)  0.3792 ( 27) -0.3798 ( 28) -0.2111 ( 76)
           0.2107 ( 77) -0.2052 ( 81)  0.2055 ( 82)  0.1675 ( 95)  0.1628 (119)
           0.1672 (136)  0.1675 (139)  0.1625 (150)  0.1623 (153)
 CRD 45=   0.2032 (  4)  0.1857 ( 18)  0.1059 ( 31) -0.1101 ( 34)  0.1161 ( 46)
          -0.1173 ( 47) -0.1062 ( 57)  0.1004 ( 58)  0.1119 ( 70) -0.1118 ( 71)
          -0.1015 ( 87) -0.1026 ( 91) -0.1257 (126) -0.1282 (127) -0.1090 (128)
          -0.1065 (129) -0.1827 (130) -0.1839 (131) -0.1832 (132) -0.1843 (133)
          -0.1288 (134) -0.1288 (135) -0.1291 (137) -0.1290 (138)  0.1201 (140)
           0.1209 (141)  0.1047 (142)  0.1055 (143)  0.1772 (144)  0.1775 (145)
           0.1740 (146)  0.1743 (147)  0.1232 (148)  0.1236 (149)  0.1234 (151)
           0.1238 (152)
 CRD 46=  -0.1054 (  2)  0.3302 (  5)  0.2666 (  6) -0.2420 (  8) -0.2019 ( 10)
          -0.1200 ( 11)  0.1138 ( 12)  0.1065 ( 19) -0.3138 ( 21) -0.2496 ( 22)
           0.2297 ( 24)  0.1891 ( 25) -0.1089 ( 28)  0.1129 ( 29)  0.1047 ( 73)
          -0.1050 (129) -0.1790 (132) -0.1074 (133) -0.1330 (135) -0.1032 (142)
          -0.1077 (144) -0.1752 (145) -0.1297 (152)
 CRD 47=  -0.3322 (  5) -0.3401 (  6)  0.2582 (  8)  0.2631 ( 10)  0.1408 ( 11)
          -0.1049 ( 13) -0.3353 ( 21) -0.3282 ( 22)  0.2570 ( 24)  0.2526 ( 25)
          -0.1021 ( 28)  0.1375 ( 29) -0.1193 ( 73) -0.1174 ( 79) -0.1079 (131)
          -0.1053 (145)
 CRD 48=   0.1837 (  2)  0.1949 (  6) -0.1610 ( 10) -0.1881 ( 19) -0.1316 ( 21)
          -0.2358 ( 22)  0.1261 ( 24)  0.1917 ( 25) -0.1065 ( 27) -0.1044 ( 31)
           0.1067 ( 47)  0.1132 ( 58) -0.1141 ( 71)  0.1027 ( 91)  0.1031 (101)
           0.1112 (116)  0.1131 (125)  0.1059 (127)  0.1199 (128)  0.1516 (130)
           0.1911 (131)  0.1047 (132)  0.1443 (133)  0.1062 (134)  0.1437 (137)
           0.1161 (141)  0.1291 (143)  0.1494 (144)  0.1006 (145)  0.2088 (146)
           0.1599 (147)  0.1574 (148)  0.1029 (149)  0.1119 (151)
 CRD 49=   0.2970 (  5)  0.2977 (  6)  0.3264 (  8)  0.3259 ( 10)  0.1080 ( 11)
           0.2562 ( 21)  0.2563 ( 22)  0.2813 ( 24)  0.2811 ( 25)  0.1314 ( 73)
           0.1396 ( 74)  0.1131 ( 79)  0.1203 ( 80)
 CRD 50=   0.2548 (  5)  0.2580 (  6)  0.2808 (  8)  0.2792 ( 10) -0.2956 ( 21)
          -0.2996 ( 22) -0.3262 ( 24) -0.3242 ( 25) -0.1073 ( 29)  0.1138 ( 73)
           0.1200 ( 74) -0.1319 ( 79) -0.1393 ( 80)  0.1004 (152)
 CRD 51=  -0.2621 (  2)  0.2335 (  4) -0.2069 (  5)  0.2060 (  6) -0.1064 ( 15)
           0.2401 ( 18) -0.2673 ( 19) -0.2120 ( 21)  0.2113 ( 22)  0.1112 ( 49)
           0.1106 ( 51) -0.1156 ( 97)  0.1170 (123) -0.1523 (126) -0.1423 (127)
          -0.1753 (128) -0.1853 (129)  0.1571 (140)  0.1474 (141)  0.1881 (142)
           0.1785 (143)
 CRD 52=  -0.2088 (  2)  0.2348 (  4) -0.2218 (  5)  0.2218 (  6) -0.2288 ( 18)
           0.2017 ( 19)  0.2164 ( 21) -0.2167 ( 22) -0.1288 ( 98) -0.1087 (102)
          -0.1073 (104) -0.1007 (106) -0.1266 (122) -0.1951 (126) -0.2031 (127)
          -0.1647 (128) -0.1567 (129) -0.1910 (140) -0.1997 (141) -0.1522 (142)
          -0.1609 (143)
 CRD 53=  -0.1468 (  5)  0.1464 (  6)  0.2527 (  8) -0.2529 ( 10) -0.1533 ( 21)
           0.1527 ( 22)  0.2623 ( 24) -0.2625 ( 25) -0.1059 ( 93) -0.1056 ( 94)
          -0.1147 ( 95)  0.1187 (119)  0.1092 (120)  0.1095 (121)  0.1014 (132)
          -0.1744 (134) -0.1748 (135) -0.1836 (136) -0.1734 (137) -0.1737 (138)
          -0.1826 (139) -0.1040 (144) -0.1057 (145) -0.1001 (146) -0.1018 (147)
           0.1794 (148)  0.1797 (149)  0.1889 (150)  0.1805 (151)  0.1809 (152)
           0.1901 (153)
 CRD 54=  -0.1597 (  5)  0.1592 (  6)  0.2650 (  8) -0.2650 ( 10)  0.1541 ( 21)
          -0.1537 ( 22) -0.2556 ( 24)  0.2557 ( 25) -0.1075 ( 93) -0.1074 ( 94)
          -0.1175 ( 95) -0.1133 (119) -0.1035 (120) -0.1036 (121)  0.1057 (130)
           0.1054 (131)  0.1065 (132)  0.1062 (133) -0.1774 (134) -0.1775 (135)
          -0.1875 (136) -0.1772 (137) -0.1773 (138) -0.1873 (139)  0.1025 (144)
           0.1027 (145)  0.1017 (146)  0.1020 (147) -0.1708 (148) -0.1709 (149)
          -0.1806 (150) -0.1710 (151) -0.1711 (152) -0.1808 (153)
 CRD 55=   0.1189 (  1) -0.1311 (  2) -0.1150 ( 15) -0.1112 ( 16) -0.1429 ( 17)
          -0.1345 ( 19)  0.1283 ( 20) -0.1112 ( 32) -0.1335 ( 36) -0.1752 ( 40)
           0.1342 ( 56) -0.1496 ( 63) -0.1869 ( 64)  0.1143 ( 72)  0.1224 ( 78)
          -0.1253 ( 84) -0.2360 ( 85) -0.1890 ( 89)  0.3112 ( 90)  0.1224 ( 92)
           0.1172 (102) -0.1142 (104)  0.1716 (108) -0.1637 (109)  0.1363 (112)
           0.2201 (117) -0.3638 (118)  0.1171 (127) -0.1192 (141)
 CRD 56=   0.3152 (  3) -0.3105 ( 14) -0.3671 ( 16)  0.3542 ( 17) -0.1830 ( 33)
          -0.1212 ( 36)  0.1777 ( 50) -0.1761 ( 54)  0.1894 ( 55)  0.1171 ( 63)
          -0.1485 ( 97) -0.1269 (105) -0.1211 (106) -0.1494 (123) -0.1266 (128)
          -0.1925 (129) -0.1922 (142) -0.1309 (143)
 CRD 57=   0.2147 (  3)  0.1479 (  4)  0.2204 ( 14) -0.1082 ( 15) -0.2570 ( 16)
          -0.3100 ( 17)  0.1501 ( 18) -0.2001 ( 32)  0.1080 ( 36) -0.1646 ( 52)
          -0.1729 ( 53)  0.1054 ( 55)  0.3376 ( 56)  0.1134 ( 63) -0.1123 ( 72)
          -0.1177 ( 78)  0.1617 ( 85) -0.1576 ( 90)  0.1063 ( 98)  0.1080 ( 99)
           0.1158 (102) -0.1075 (103) -0.1145 (104) -0.1293 (105)  0.1289 (106)
          -0.1548 (117)  0.1804 (118) -0.1071 (122)  0.1272 (126)  0.1141 (127)
          -0.1289 (140) -0.1141 (141)
 CRD 58=  -0.1399 (  3) -0.1106 (  9)  0.2179 ( 11)  0.1299 ( 12)  0.1352 ( 13)
           0.1283 ( 14)  0.1250 ( 16) -0.1222 ( 17) -0.1199 ( 27) -0.1134 ( 28)
          -0.1918 ( 29)  0.1094 ( 34)  0.1186 ( 35)  0.1232 ( 39)  0.1844 ( 42)
           0.1531 ( 43)  0.1520 ( 44) -0.1518 ( 46) -0.1506 ( 47) -0.1035 ( 61)
          -0.1093 ( 62) -0.1350 ( 65) -0.1337 ( 66) -0.1624 ( 69)  0.1336 ( 70)
           0.1326 ( 71) -0.1159 ( 75) -0.1891 ( 76) -0.1845 ( 77)  0.1616 ( 81)
           0.1674 ( 82)  0.1020 ( 83)  0.1007 ( 87) -0.1097 ( 91) -0.1675 (131)
           0.1651 (132)  0.1446 (145) -0.1487 (146)
 CRD 59=  -0.1052 (  9)  0.1949 ( 11)  0.1213 ( 12)  0.1189 ( 13) -0.1041 ( 20)
          -0.1195 ( 26)  0.1354 ( 27)  0.1375 ( 28)  0.2214 ( 29)  0.1085 ( 35)
           0.1052 ( 39)  0.1659 ( 42)  0.1383 ( 43)  0.1380 ( 44) -0.1338 ( 46)
          -0.1309 ( 47)  0.1229 ( 61)  0.1199 ( 62)  0.1572 ( 65)  0.1568 ( 66)
           0.1885 ( 69) -0.1519 ( 70) -0.1489 ( 71) -0.1060 ( 75) -0.1669 ( 76)
          -0.1692 ( 77) -0.1920 ( 81) -0.1900 ( 82) -0.1205 ( 83) -0.1053 ( 90)
          -0.1086 (115)  0.1024 (116)  0.1216 (118) -0.1338 (131)  0.1452 (132)
          -0.1643 (145)  0.1530 (146)
 CRD 60=   0.1759 (  3) -0.1016 (  7) -0.2544 (  9)  0.1234 ( 12)  0.1241 ( 13)
          -0.1566 ( 14) -0.2357 ( 16)  0.2642 ( 17)  0.2485 ( 26) -0.1182 ( 27)
          -0.1237 ( 28) -0.1087 ( 31) -0.1056 ( 34)  0.1199 ( 41)  0.1136 ( 42)
           0.1211 ( 43)  0.1203 ( 44)  0.1236 ( 45)  0.1070 ( 49) -0.1034 ( 50)
          -0.1043 ( 51)  0.1168 ( 52) -0.1061 ( 53)  0.1022 ( 54)  0.1058 ( 57)
           0.1012 ( 58) -0.1183 ( 65) -0.1176 ( 66) -0.1255 ( 67) -0.1132 ( 68)
          -0.1109 ( 69) -0.1447 ( 75) -0.1054 ( 76) -0.1049 ( 77)  0.1050 ( 81)
           0.1003 ( 82)  0.1415 ( 83) -0.1220 (127)  0.1198 (129) -0.1347 (141)
           0.1131 (142)
 CRD 61=  -0.1228 (  3)  0.2553 (  9) -0.1254 ( 12) -0.1193 ( 13) -0.1069 ( 14)
          -0.1376 ( 15)  0.2500 ( 26) -0.1179 ( 27) -0.1220 ( 28)  0.1128 ( 34)
          -0.1299 ( 41) -0.1089 ( 42) -0.1154 ( 43) -0.1191 ( 44) -0.1173 ( 45)
           0.1246 ( 49)  0.1251 ( 51) -0.1123 ( 56)  0.1084 ( 57) -0.1129 ( 65)
          -0.1168 ( 66) -0.1134 ( 67) -0.1297 ( 68) -0.1065 ( 69)  0.1448 ( 75)
           0.1015 ( 77)  0.1419 ( 83)  0.1078 ( 86)  0.1497 ( 89) -0.1622 ( 90)
          -0.1317 (112) -0.1149 (113)  0.1802 (118)  0.1328 (127) -0.1481 (129)
          -0.1311 (141)  0.1549 (142)
 CRD 62=   0.1440 (  2) -0.1769 (  4) -0.1528 ( 14)  0.5844 ( 15) -0.1446 ( 16)
          -0.3647 ( 17) -0.1282 ( 18)  0.1194 ( 26) -0.2490 ( 52) -0.1041 ( 53)
           0.3531 ( 56) -0.1040 (126)  0.1061 (140)
 CRD 63=  -0.1360 (  3)  0.1402 (  9)  0.1649 ( 15) -0.4809 ( 16)  0.3283 ( 17)
          -0.1291 ( 18)  0.1542 ( 19) -0.1160 ( 26)  0.1933 ( 33)  0.2395 ( 52)
          -0.3635 ( 53) -0.2041 ( 55)  0.1240 ( 56)  0.1116 (128)  0.1338 (143)
 CRD 64=  -0.1652 (  1)  0.1086 (  4) -0.1230 (  5)  0.1067 (  6) -0.1073 (  7)
           0.1371 (  8)  0.1753 (  9) -0.1508 ( 13)  0.1110 ( 18) -0.1444 ( 20)
          -0.1316 ( 21)  0.1189 ( 22)  0.1405 ( 24)  0.1552 ( 26) -0.1436 ( 27)
           0.1165 ( 35)  0.1066 ( 40) -0.1051 ( 47) -0.1138 ( 49) -0.1185 ( 51)
           0.1057 ( 61) -0.1007 ( 71)  0.1321 ( 75)  0.1165 ( 83) -0.1617 ( 89)
           0.1273 ( 90) -0.1146 (108)  0.1264 (109)  0.1534 (112)  0.1003 (113)
          -0.1356 (118)  0.1286 (128) -0.1179 (131) -0.1188 (133)  0.2044 (137)
          -0.1315 (143)  0.1238 (144)  0.1248 (146) -0.1936 (148)
 CRD 65=   0.1322 (  2)  0.1593 (  5) -0.1709 (  6) -0.1341 (  8)  0.1013 (  9)
           0.1831 ( 10) -0.1545 ( 12) -0.1240 ( 19)  0.1000 ( 20) -0.1422 ( 21)
           0.1540 ( 22)  0.1146 ( 24) -0.1673 ( 25) -0.1097 ( 26)  0.1482 ( 28)
          -0.1171 ( 50)  0.1156 ( 54) -0.1522 (126) -0.1263 (127) -0.1148 (129)
           0.1630 (130)  0.1399 (131)  0.1497 (132)  0.1266 (133) -0.1228 (134)
          -0.1990 (135) -0.1437 (140) -0.1161 (141) -0.1021 (142)  0.1099 (144)
           0.1351 (145)  0.1237 (146)  0.1489 (147) -0.1115 (151) -0.1938 (152)
 CRD 66=  -0.1289 (  7) -0.1214 (  8)  0.1099 (  9)  0.1889 ( 10) -0.1933 ( 12)
           0.1136 ( 21) -0.1122 ( 22) -0.1073 ( 23) -0.1587 ( 24)  0.2124 ( 25)
          -0.2047 ( 28)  0.1280 ( 39)  0.1240 ( 62)  0.1077 ( 75) -0.1115 ( 76)
          -0.1268 ( 82) -0.1140 (119)  0.1342 (130)  0.1115 (131)  0.1066 (132)
          -0.1210 (134) -0.2280 (135) -0.1004 (138) -0.1100 (144) -0.1302 (145)
          -0.1277 (146) -0.1479 (147)  0.1244 (149)  0.1404 (151)  0.2281 (152)
 CRD 67=   0.1442 (  3) -0.1473 (  7)  0.1865 (  8)  0.1075 (  9)  0.1059 ( 11)
          -0.2051 ( 13) -0.1657 ( 14)  0.1794 ( 23) -0.1702 ( 24) -0.1325 ( 26)
           0.2027 ( 27) -0.1266 ( 29)  0.1447 ( 35)  0.1111 ( 40) -0.1545 ( 61)
          -0.1220 ( 64)  0.1217 ( 75) -0.1227 ( 77)  0.1120 ( 81) -0.1469 ( 83)
          -0.1078 ( 95) -0.1056 (132) -0.1212 (133)  0.2417 (137)  0.1150 (138)
          -0.1104 (144)  0.2516 (148) -0.1066 (153)
 CRD 68=   0.1198 (  1) -0.1027 (  2)  0.1637 (  4) -0.1445 (  5)  0.1320 ( 10)
           0.1264 ( 11) -0.1753 ( 12) -0.1574 ( 18)  0.1028 ( 19) -0.1276 ( 20)
           0.1417 ( 21) -0.1321 ( 25)  0.1745 ( 28) -0.1338 ( 29) -0.1044 ( 33)
           0.1149 ( 50) -0.1122 ( 54)  0.1025 ( 55) -0.1139 ( 74) -0.1624 ( 76)
           0.1182 ( 80)  0.1620 ( 82)  0.1462 ( 95) -0.1163 ( 99) -0.1041 (100)
          -0.1127 (103)  0.1415 (119) -0.1047 (124)  0.1100 (126)  0.1422 (127)
           0.1116 (131) -0.1338 (132) -0.1760 (135)  0.1290 (139)  0.1085 (140)
           0.1363 (141) -0.1365 (145)  0.1143 (146)  0.1289 (150) -0.1802 (152)
 CRD 69=   0.2271 (  1) -0.1807 (  7)  0.1221 (  8)  0.2032 ( 11) -0.1588 ( 13)
           0.2112 ( 20) -0.1669 ( 23)  0.1179 ( 24) -0.1547 ( 27)  0.1892 ( 29)
          -0.1415 ( 74)  0.1387 ( 75) -0.1446 ( 77) -0.1324 ( 80) -0.1403 ( 81)
           0.1288 ( 83)  0.1315 ( 89) -0.1014 ( 93)  0.1105 ( 94)  0.1068 (108)
          -0.1109 (109) -0.1244 (112) -0.1033 (120)  0.1178 (131) -0.1208 (132)
          -0.1323 (135) -0.1077 (136)  0.2100 (137)  0.1138 (145) -0.1106 (146)
          -0.1993 (148)  0.1194 (152)  0.1045 (153)
 CRD 70=   0.1536 (  2) -0.1501 (  3) -0.1331 (  6)  0.1417 (  7) -0.1587 (  9)
          -0.1474 ( 14)  0.1491 ( 19) -0.1322 ( 22)  0.1273 ( 23) -0.1593 ( 26)
          -0.1914 ( 72)  0.1944 ( 73) -0.1799 ( 78)  0.1898 ( 79) -0.1223 ( 86)
          -0.1276 ( 89) -0.1191 ( 97) -0.1011 (106) -0.1547 (108)  0.1589 (109)
           0.1217 (112)  0.1266 (113)  0.1161 (123)  0.1766 (127) -0.2285 (129)
           0.1558 (131) -0.1344 (132) -0.1658 (141)  0.2217 (142)  0.1361 (145)
          -0.1589 (146)
 CRD 71=  -0.1213 (  2)  0.2140 (  3)  0.1728 (  6) -0.1343 (  7)  0.1744 (  9)
          -0.1047 ( 12) -0.2217 ( 14)  0.1128 ( 19) -0.1658 ( 22)  0.1358 ( 23)
          -0.1810 ( 26) -0.1271 ( 33)  0.1102 ( 41) -0.1035 ( 51)  0.1030 ( 53)
           0.1212 ( 55) -0.1054 ( 68)  0.1011 ( 72) -0.1709 ( 73)  0.1038 ( 74)
           0.1080 ( 77) -0.1014 ( 78)  0.1753 ( 79) -0.1085 ( 80) -0.1012 ( 81)
           0.1064 ( 87)  0.1020 ( 95) -0.1151 (102) -0.1144 (104)  0.1062 (115)
          -0.1065 (127)  0.2027 (129) -0.1593 (131)  0.1243 (132) -0.1165 (141)
           0.1990 (142)  0.1322 (145) -0.1621 (146)
 CRD 72=   0.1510 (  1) -0.1315 (  2) -0.1198 (  3) -0.1244 (  5)  0.1078 (  6)
           0.1025 ( 11) -0.1711 ( 12)  0.1039 ( 13)  0.1881 ( 15)  0.1257 ( 18)
          -0.1039 ( 19) -0.1762 ( 21)  0.1174 ( 22)  0.1720 ( 27) -0.1660 ( 28)
           0.1552 ( 32)  0.1234 ( 50)  0.1114 ( 54) -0.1067 ( 67) -0.1575 ( 76)
           0.1208 ( 81) -0.1440 ( 82)  0.1503 ( 95) -0.1259 ( 99)  0.1567 (103)
           0.1120 (107)  0.1016 (108) -0.1382 (109) -0.1227 (113) -0.1858 (119)
          -0.1216 (135)  0.1235 (139) -0.1412 (141) -0.1183 (143) -0.1410 (150)
          -0.1290 (153)
 CRD 73=  -0.1925 (  1)  0.1642 (  4) -0.1312 (  5)  0.1331 (  7) -0.1243 ( 11)
           0.1419 ( 13) -0.1248 ( 18)  0.2525 ( 20) -0.1407 ( 23)  0.1653 ( 29)
           0.1123 ( 36) -0.1065 ( 45) -0.1013 ( 51) -0.1319 ( 63) -0.1169 ( 64)
          -0.1455 ( 72)  0.1177 ( 77)  0.1740 ( 78)  0.1127 ( 83) -0.1822 ( 85)
           0.1073 ( 86)  0.1209 ( 89) -0.1781 (107)  0.1114 (108) -0.2085 (111)
          -0.2044 (117)  0.1169 (118)  0.1639 (127)  0.1063 (128) -0.1105 (137)
           0.1159 (141) -0.1040 (148)  0.1073 (152)
 CRD 74=  -0.1858 (  1)  0.1167 (  3)  0.2024 (  7) -0.1942 (  9)  0.1280 ( 11)
           0.1160 ( 14) -0.1847 ( 20)  0.2015 ( 23) -0.1933 ( 26)  0.1270 ( 29)
           0.1041 ( 31)  0.1265 ( 34) -0.1059 ( 35) -0.1101 ( 39) -0.1141 ( 41)
          -0.1019 ( 45)  0.1063 ( 46)  0.1273 ( 47)  0.1260 ( 57)  0.1034 ( 58)
          -0.1052 ( 61) -0.1094 ( 62) -0.1014 ( 67) -0.1137 ( 68)  0.1055 ( 70)
           0.1268 ( 71) -0.1050 ( 87)  0.1047 (115) -0.1187 (126)  0.1126 (128)
          -0.1817 (130)  0.1987 (133)  0.1204 (134) -0.1105 (138)  0.1186 (140)
          -0.1124 (143) -0.1976 (144)  0.1805 (147)  0.1095 (149) -0.1195 (151)
 CRD 75=   0.2016 (  1) -0.1472 (  3) -0.1953 (  7)  0.1794 (  9) -0.1282 ( 11)
           0.1485 ( 14) -0.2030 ( 20)  0.1970 ( 23) -0.1806 ( 26)  0.1282 ( 29)
          -0.1280 ( 31)  0.1092 ( 35)  0.1043 ( 39)  0.1100 ( 45) -0.1266 ( 46)
           0.1289 ( 58) -0.1095 ( 61) -0.1047 ( 62) -0.1110 ( 67)  0.1271 ( 70)
          -0.1007 (100) -0.1002 (116) -0.1009 (124) -0.1071 (128)  0.1956 (130)
          -0.1719 (133) -0.1154 (134)  0.1281 (138)  0.1007 (140) -0.1089 (143)
          -0.1728 (144)  0.1965 (147)  0.1279 (149) -0.1152 (151)
 CRD 76=  -0.1320 (  3)  0.1425 ( 11) -0.1267 ( 14)  0.1390 ( 29) -0.1092 ( 42)
          -0.1065 ( 69) -0.1194 ( 72) -0.1315 ( 73)  0.1201 ( 74)  0.1174 ( 75)
          -0.1164 ( 78) -0.1280 ( 79)  0.1169 ( 80)  0.1144 ( 83) -0.1011 ( 89)
          -0.1110 ( 93) -0.1185 ( 97) -0.1061 (105)  0.1082 (106)  0.1092 (121)
           0.1162 (123)  0.1978 (126) -0.2088 (128)  0.1921 (134)  0.1123 (136)
          -0.1988 (138) -0.1918 (140)  0.2028 (143)  0.1942 (149) -0.1871 (151)
          -0.1116 (153)
 CRD 77=   0.1248 (  3) -0.1413 (  4)  0.1083 (  8) -0.1236 ( 11)  0.1172 ( 13)
          -0.1276 ( 14)  0.1435 ( 18) -0.1106 ( 24) -0.1191 ( 27)  0.1271 ( 29)
          -0.1032 ( 37)  0.1060 ( 42)  0.1060 ( 48) -0.1089 ( 69)  0.1496 ( 72)
          -0.1348 ( 74) -0.1048 ( 75) -0.1538 ( 78)  0.1385 ( 80)  0.1077 ( 83)
           0.1111 ( 85) -0.1226 ( 94) -0.1305 ( 98)  0.1015 (102)  0.1031 (104)
           0.1112 (107)  0.1111 (111)  0.1112 (117) -0.1251 (120) -0.1329 (122)
          -0.1727 (126)  0.1558 (128) -0.1962 (134)  0.1832 (138)  0.1570 (139)
          -0.1766 (140)  0.1605 (143) -0.1014 (145)  0.1885 (149)  0.1598 (150)
          -0.2014 (151)
 CRD 78=  -0.1622 (  2)  0.1289 (  3)  0.1038 (  4)  0.1289 ( 10)  0.1540 ( 12)
          -0.1166 ( 13) -0.1292 ( 14) -0.1029 ( 18)  0.1617 ( 19) -0.1287 ( 25)
           0.1157 ( 27) -0.1534 ( 28) -0.1136 ( 33)  0.1011 ( 36) -0.1059 ( 44)
           0.1066 ( 49) -0.1070 ( 51)  0.1133 ( 55) -0.1006 ( 63)  0.1054 ( 66)
           0.1138 ( 76) -0.1133 ( 82)  0.1006 ( 84) -0.1642 ( 88)  0.1014 ( 92)
           0.1284 ( 93)  0.1013 ( 96)  0.1058 ( 97) -0.1132 (102) -0.1125 (104)
          -0.1413 (105) -0.1420 (106)  0.1007 (110) -0.1633 (114)  0.1280 (121)
           0.1056 (123) -0.2066 (136) -0.1460 (139) -0.1448 (150) -0.2058 (153)
 CRD 79=  -0.1313 (  2)  0.1465 (  4) -0.1248 (  8)  0.1197 ( 12) -0.1337 ( 13)
           0.1423 ( 15)  0.1467 ( 18) -0.1321 ( 19) -0.1249 ( 24) -0.1340 ( 27)
           0.1204 ( 28)  0.1792 ( 32)  0.1177 ( 50)  0.1180 ( 54) -0.1004 ( 77)
          -0.1007 ( 81) -0.1590 ( 88)  0.1088 ( 93)  0.1268 ( 94) -0.1248 ( 99)
          -0.1046 (100) -0.1413 (102)  0.1252 (103)  0.1418 (104)  0.1383 (105)
          -0.1379 (106)  0.1596 (114) -0.1270 (120) -0.1095 (121)  0.1048 (124)
          -0.1628 (136) -0.1879 (139)  0.1882 (150)  0.1638 (153)
 CRD 80=   0.1834 (  7)  0.1023 (  9) -0.1133 ( 10)  0.1798 ( 23) -0.1115 ( 25)
           0.1004 ( 26) -0.1437 ( 30) -0.1528 ( 38) -0.1410 ( 59) -0.1499 ( 60)
           0.1557 ( 73)  0.1684 ( 74)  0.1527 ( 79)  0.1652 ( 80) -0.1040 ( 91)
           0.1042 (101)  0.1005 (102)  0.1022 (116) -0.1026 (125) -0.1440 (126)
           0.1413 (128)  0.1930 (130) -0.2002 (133)  0.1635 (134)  0.1132 (136)
          -0.1621 (138)  0.1413 (140) -0.1385 (143)  0.1966 (144) -0.1893 (147)
           0.1590 (149) -0.1604 (151) -0.1114 (153)
 CRD 81=  -0.1214 (  1) -0.1682 (  7)  0.1237 ( 20) -0.1005 ( 21)  0.1712 ( 23)
           0.1512 ( 30)  0.1380 ( 38) -0.1540 ( 59) -0.1406 ( 60) -0.1588 ( 73)
          -0.1455 ( 74)  0.1617 ( 79)  0.1482 ( 80)  0.1043 (100)  0.1043 (105)
           0.1025 (106)  0.1061 (124)  0.1670 (126) -0.1685 (128) -0.1901 (130)
           0.1843 (133) -0.1352 (134)  0.1368 (138)  0.1700 (140) -0.1716 (143)
           0.1879 (144) -0.1937 (147)  0.1393 (149) -0.1378 (151)
 CRD 82=   0.1289 (  5) -0.1316 (  6)  0.1154 (  8) -0.1165 ( 10) -0.1286 ( 21)
           0.1314 ( 22) -0.1152 ( 24)  0.1162 ( 25)  0.1041 ( 35) -0.1038 ( 39)
          -0.1067 ( 41)  0.1057 ( 45) -0.1039 ( 61)  0.1036 ( 62) -0.1054 ( 67)
           0.1065 ( 68) -0.1744 ( 87) -0.1756 ( 91) -0.1542 ( 93) -0.1537 ( 94)
           0.1734 ( 97)  0.1648 ( 98)  0.1640 (100)  0.1661 (101) -0.1240 (102)
          -0.1237 (104) -0.1279 (105) -0.1281 (106) -0.1740 (115) -0.1753 (116)
          -0.1534 (120) -0.1538 (121)  0.1644 (122)  0.1730 (123)  0.1636 (124)
           0.1657 (125)  0.1154 (136)  0.1144 (139)  0.1141 (150)  0.1151 (153)
 CRD 83=  -0.1289 (  5)  0.1269 (  6) -0.1085 (  8)  0.1078 ( 10) -0.1292 ( 21)
           0.1272 ( 22) -0.1088 ( 24)  0.1080 ( 25)  0.1020 ( 41) -0.1031 ( 45)
          -0.1033 ( 67)  0.1023 ( 68)  0.1051 ( 84)  0.1737 ( 87)  0.1729 ( 91)
          -0.1049 ( 92)  0.1454 ( 93)  0.1457 ( 94) -0.1075 ( 96) -0.1662 ( 97)
          -0.1737 ( 98) -0.1578 (100) -0.1565 (101)  0.1433 (102) -0.1436 (104)
          -0.1402 (105)  0.1399 (106)  0.1078 (110) -0.1741 (115) -0.1733 (116)
          -0.1461 (120) -0.1458 (121)  0.1741 (122)  0.1666 (123)  0.1582 (124)
           0.1569 (125) -0.1055 (136) -0.1062 (139)  0.1064 (150)  0.1057 (153)
 CRD 84=   0.1200 (  1)  0.1189 ( 20) -0.1425 ( 37) -0.1419 ( 48)  0.2074 ( 84)
           0.1118 ( 85)  0.3013 ( 86) -0.3481 ( 89) -0.2072 ( 92)  0.2135 ( 96)
          -0.3088 (107) -0.1193 (108)  0.1189 (109) -0.2132 (110)  0.3097 (111)
           0.3395 (112) -0.3018 (113) -0.1109 (117)

 THE DETERMINANT OF THE G MATRIX IS 10**(   -35)


                     --------------------
                     INTERNAL COORDINATES
                     --------------------

                 - - ATOMS - -         COORDINATE      COORDINATE
 NO.   TYPE    I  J  K  L  M  N        (BOHR,RAD)       (ANG,DEG)
 ----------------------------------------------------------------
   1 STRETCH   1  2                     2.8913163       1.5300188
   2 STRETCH   1 12                     2.0598233       1.0900116
   3 STRETCH   1  5                     2.7684449       1.4649980
   4 STRETCH   1 13                     2.0596879       1.0899400
   5 STRETCH   2 14                     2.0598729       1.0900379
   6 STRETCH   2 15                     2.0598233       1.0900116
   7 STRETCH   2  3                     2.8913053       1.5300130
   8 STRETCH   3 16                     2.0598729       1.0900379
   9 STRETCH   3  4                     2.8911860       1.5299498
  10 STRETCH   3 17                     2.0598233       1.0900116
  11 STRETCH   4 20                     2.0597625       1.0899794
  12 STRETCH   4 19                     2.0598233       1.0900116
  13 STRETCH   4 18                     2.0596879       1.0899400
  14 STRETCH   5  8                     2.7684918       1.4650229
  15 STRETCH   5  6                     2.5468519       1.3477361
  16 STRETCH   6  7                     2.2918103       1.2127739
  17 STRETCH   6 21                     2.0410673       1.0800864
  18 STRETCH   8 23                     2.0596892       1.0899407
  19 STRETCH   8 22                     2.0598822       1.0900428
  20 STRETCH   8  9                     2.8912604       1.5299892
  21 STRETCH   9 25                     2.0597572       1.0899766
  22 STRETCH   9 24                     2.0599156       1.0900605
  23 STRETCH   9 10                     2.8911496       1.5299306
  24 STRETCH  10 27                     2.0597572       1.0899766
  25 STRETCH  10 26                     2.0599156       1.0900605
  26 STRETCH  10 11                     2.8914032       1.5300648
  27 STRETCH  11 30                     2.0597572       1.0899766
  28 STRETCH  11 29                     2.0597694       1.0899831
  29 STRETCH  11 28                     2.0597679       1.0899823
  30 BEND      1  2  3                  1.9106845     109.4741561
  31 BEND      1  2 14                  1.9106664     109.4731216
  32 BEND      1  5  8                  2.0943315     119.9963536
  33 BEND      1  5  6                  2.0944507     120.0031875
  34 BEND      1  2 15                  1.9106078     109.4697644
  35 BEND      2  3 17                  1.9106167     109.4702716
  36 BEND      2  1 12                  1.9106078     109.4697644
  37 BEND      2  1  5                  1.9105947     109.4690099
  38 BEND      2  3  4                  1.9106806     109.4739372
  39 BEND      2  3 16                  1.9105856     109.4684920
  40 BEND      2  1 13                  1.9106021     109.4694354
  41 BEND      3  2 14                  1.9105856     109.4684920
  42 BEND      3  4 20                  1.9106452     109.4719037
  43 BEND      3  4 18                  1.9106448     109.4718856
  44 BEND      3  4 19                  1.9105689     109.4675330
  45 BEND      3  2 15                  1.9106167     109.4702716
  46 BEND      4  3 17                  1.9105689     109.4675330
  47 BEND      4  3 16                  1.9107092     109.4755719
  48 BEND      5  8  9                  1.9106362     109.4713882
  49 BEND      5  8 23                  1.9106938     109.4746895
  50 BEND      5  1 12                  1.9106499     109.4721774
  51 BEND      5  1 13                  1.9107333     109.4769532
  52 BEND      5  6  7                  2.0944603     120.0037361
  53 BEND      5  6 21                  2.0943506     119.9974518
  54 BEND      5  8 22                  1.9105027     109.4637431
  55 BEND      6  5  8                  2.0944031     120.0004586
  56 BEND      7  6 21                  2.0943744     119.9988121
  57 BEND      8  9 24                  1.9105702     109.4676080
  58 BEND      8  9 25                  1.9106365     109.4714061
  59 BEND      8  9 10                  1.9106318     109.4711365
  60 BEND      9 10 11                  1.9106478     109.4720529
  61 BEND      9 10 26                  1.9106754     109.4736349
  62 BEND      9 10 27                  1.9107133     109.4758061
  63 BEND      9  8 22                  1.9106102     109.4699018
  64 BEND      9  8 23                  1.9107217     109.4762870
  65 BEND     10 11 30                  1.9105941     109.4689770
  66 BEND     10 11 29                  1.9106427     109.4717606
  67 BEND     10  9 24                  1.9106754     109.4736349
  68 BEND     10  9 25                  1.9107133     109.4758061
  69 BEND     10 11 28                  1.9106629     109.4729201
  70 BEND     11 10 26                  1.9105966     109.4691205
  71 BEND     11 10 27                  1.9105941     109.4689770
  72 BEND     12  1 13                  1.9106116     109.4699832
  73 BEND     14  2 15                  1.9106384     109.4715179
  74 BEND     16  3 17                  1.9106384     109.4715179
  75 BEND     18  4 19                  1.9106116     109.4699832
  76 BEND     18  4 20                  1.9107465     109.4777111
  77 BEND     19  4 20                  1.9105824     109.4683066
  78 BEND     22  8 23                  1.9106349     109.4713133
  79 BEND     24  9 25                  1.9105723     109.4677319
  80 BEND     26 10 27                  1.9105723     109.4677319
  81 BEND     28 11 29                  1.9106195     109.4704339
  82 BEND     28 11 30                  1.9107003     109.4750611
  83 BEND     29 11 30                  1.9105800     109.4681709
  84 TORSION   1  5  8  9               1.5709256      90.0074091
  85 TORSION   1  5  8 22              -2.6179709    -149.9986819
  86 TORSION   1  5  8 23              -0.5236166     -30.0010233
  87 TORSION   1  2  3 17               1.0472074      60.0005670
  88 TORSION   1  2  3  4               3.1415426     179.9971330
  89 TORSION   1  5  6 21              -0.0001086      -0.0062248
  90 TORSION   1  5  6  7               3.1414850     179.9938332
  91 TORSION   1  2  3 16              -1.0471547     -59.9975451
  92 TORSION   2  1  5  8              -1.5708466     -90.0028825
  93 TORSION   2  3  4 18              -1.0471081     -59.9948766
  94 TORSION   2  3  4 19               1.0472282      60.0017570
  95 TORSION   2  3  4 20               3.1415289     179.9963484
  96 TORSION   2  1  5  6               1.5708539      90.0032971
  97 TORSION   3  2  1 13               1.0471320      59.9962433
  98 TORSION   3  2  1 12              -1.0472020     -60.0002565
  99 TORSION   3  2  1  5              -3.1415784    -179.9991828
 100 TORSION   4  3  2 15              -1.0472575     -60.0034340
 101 TORSION   4  3  2 14               1.0471047      59.9946781
 102 TORSION   5  1  2 15               1.0472163      60.0010736
 103 TORSION   5  8  9 10               3.1415706     179.9987368
 104 TORSION   5  8  9 24              -1.0472075     -60.0005701
 105 TORSION   5  8  9 25               1.0470764      59.9930586
 106 TORSION   5  1  2 14              -1.0471899     -59.9995628
 107 TORSION   6  5  8 22               0.5235139      29.9951388
 108 TORSION   6  5  8 23               2.6178682     149.9927973
 109 TORSION   6  5  1 13              -2.6179369    -149.9967328
 110 TORSION   6  5  8  9              -1.5707749     -89.9987703
 111 TORSION   6  5  1 12              -0.5234967     -29.9941516
 112 TORSION   7  6  5  8               0.0000002       0.0000131
 113 TORSION   8  5  1 13               0.5235479      29.9970876
 114 TORSION   8  9 10 11               3.1415505     179.9975862
 115 TORSION   8  9 10 26              -1.0472499     -60.0029977
 116 TORSION   8  9 10 27               1.0471455      59.9970162
 117 TORSION   8  5  1 12               2.6179881     149.9996689
 118 TORSION   8  5  6 21               3.1415919     179.9999550
 119 TORSION   9 10 11 28               3.1415860     179.9996186
 120 TORSION   9 10 11 29              -1.0471971     -59.9999735
 121 TORSION   9 10 11 30               1.0471146      59.9952482
 122 TORSION  10  9  8 22               1.0473476      60.0085995
 123 TORSION  10  9  8 23              -1.0470895     -59.9938090
 124 TORSION  11 10  9 24               1.0472077      60.0005839
 125 TORSION  11 10  9 25              -1.0471876     -59.9994300
 126 TORSION  12  1  2 14               1.0471864      59.9993636
 127 TORSION  12  1  2 15               3.1415927     180.0000000
 128 TORSION  13  1  2 15              -1.0472586     -60.0035003
 129 TORSION  13  1  2 14               3.1415205     179.9958633
 130 TORSION  14  2  3 17              -1.0472305     -60.0018879
 131 TORSION  14  2  3 16               3.1415927     180.0000000
 132 TORSION  15  2  3 17               3.1415927     180.0000000
 133 TORSION  15  2  3 16               1.0472305      60.0018879
 134 TORSION  16  3  4 19              -1.0471841     -59.9992297
 135 TORSION  16  3  4 18              -3.1415205    -179.9958633
 136 TORSION  16  3  4 20               1.0471166      59.9953617
 137 TORSION  17  3  4 19               3.1415927     180.0000000
 138 TORSION  17  3  4 18               1.0472563      60.0033664
 139 TORSION  17  3  4 20              -1.0472919     -60.0054086
 140 TORSION  22  8  9 25              -1.0471466     -59.9970787
 141 TORSION  22  8  9 24              -3.1414305    -179.9907074
 142 TORSION  23  8  9 25              -3.1415837    -179.9994871
 143 TORSION  23  8  9 24               1.0473177      60.0068841
 144 TORSION  24  9 10 27              -1.0471973     -59.9999861
 145 TORSION  24  9 10 26               3.1415927     180.0000000
 146 TORSION  25  9 10 27               3.1415927     180.0000000
 147 TORSION  25  9 10 26               1.0471973      59.9999861
 148 TORSION  26 10 11 29               3.1415551     179.9978460
 149 TORSION  26 10 11 30              -1.0473185     -60.0069323
 150 TORSION  26 10 11 28               1.0471528      59.9974381
 151 TORSION  27 10 11 29               1.0472809      60.0047783
 152 TORSION  27 10 11 30               3.1415927     180.0000000
 153 TORSION  27 10 11 28              -1.0471213     -59.9956296

     ------------------------------------------
     THE POINT GROUP IS C1 , NAXIS= 1, ORDER= 1
     ------------------------------------------

     DIMENSIONS OF THE SYMMETRY SUBSPACES ARE
 A   =  323

 ..... DONE SETTING UP THE RUN .....
 STEP CPU TIME =     0.03 TOTAL CPU TIME =        0.0 (    0.0 MIN)
 TOTAL WALL CLOCK TIME=        0.0 SECONDS, CPU UTILIZATION IS 100.00%


          -----------------------------
          STATIONARY POINT LOCATION RUN
          -----------------------------

 OBTAINING INITIAL HESSIAN, HESS=GUESS   
 DIAGONAL GUESS HESSIAN IN INTERNAL COORDS IS
     1  0.3672     2  0.3464     3  0.3636     4  0.3464     5  0.3463
     6  0.3464     7  0.3672     8  0.3463     9  0.3672    10  0.3464
    11  0.3464    12  0.3464    13  0.3464    14  0.3636    15  0.4567
    16  0.5493    17  0.3531    18  0.3464    19  0.3463    20  0.3672
    21  0.3464    22  0.3463    23  0.3672    24  0.3464    25  0.3463
    26  0.3671    27  0.3464    28  0.3464    29  0.3464    30  0.2485
    31  0.2241    32  0.2417    33  0.2498    34  0.2241    35  0.2241
    36  0.2241    37  0.2451    38  0.2485    39  0.2241    40  0.2241
    41  0.2241    42  0.2241    43  0.2241    44  0.2241    45  0.2241
    46  0.2241    47  0.2241    48  0.2451    49  0.2212    50  0.2212
    51  0.2212    52  0.2635    53  0.2288    54  0.2212    55  0.2498
    56  0.2331    57  0.2241    58  0.2241    59  0.2485    60  0.2485
    61  0.2241    62  0.2241    63  0.2241    64  0.2241    65  0.2241
    66  0.2241    67  0.2241    68  0.2241    69  0.2241    70  0.2241
    71  0.2241    72  0.2034    73  0.2034    74  0.2034    75  0.2034
    76  0.2034    77  0.2034    78  0.2034    79  0.2034    80  0.2034
    81  0.2034    82  0.2034    83  0.2034    84  0.2500    85  0.2500
    86  0.2500    87  0.2500    88  0.2500    89  0.2500    90  0.2500
    91  0.2500    92  0.2500    93  0.2500    94  0.2500    95  0.2500
    96  0.2500    97  0.2500    98  0.2500    99  0.2500   100  0.2500
   101  0.2500   102  0.2500   103  0.2500   104  0.2500   105  0.2500
   106  0.2500   107  0.2500   108  0.2500   109  0.2500   110  0.2500
   111  0.2500   112  0.2500   113  0.2500   114  0.2500   115  0.2500
   116  0.2500   117  0.2500   118  0.2500   119  0.2500   120  0.2500
   121  0.2500   122  0.2500   123  0.2500   124  0.2500   125  0.2500
   126  0.2500   127  0.2500   128  0.2500   129  0.2500   130  0.2500
   131  0.2500   132  0.2500   133  0.2500   134  0.2500   135  0.2500
   136  0.2500   137  0.2500   138  0.2500   139  0.2500   140  0.2500
   141  0.2500   142  0.2500   143  0.2500   144  0.2500   145  0.2500
   146  0.2500   147  0.2500   148  0.2500   149  0.2500   150  0.2500
   151  0.2500   152  0.2500   153  0.2500
 TRANSFORMING HESSIAN TO SYMMETRY COORDINATES

          PARAMETERS CONTROLLING GEOMETRY SEARCH ARE
          METHOD =QA                  UPHESS =BFGS    
          NNEG   =         0          NFRZ   =         3
          NSTEP  =        50          IFOLOW =         1
          HESS   =GUESS               RESTAR =         F
          IHREP  =         0          HSSEND =         F
          NPRT   =         0          NPUN   =         0
          OPTTOL = 5.000E-04          RMIN   = 1.500E-03
          RMAX   = 1.000E-01          RLIM   = 7.000E-02
          DXMAX  = 3.000E-01          PURIFY =         F
          MOVIE  =         F          TRUPD  =         T
          TRMAX  = 5.000E-01          TRMIN  = 5.000E-02
          ITBMAT =         5          STPT   =         F
          STSTEP = 1.000E-02          PROJCT=          F
          FROZEN COORD(S)=   1   2   3


      ***** EQUILIBRIUM GEOMETRY LOCATED *****
            (SUBJECT TO   3 CONSTRAINT(S))
 COORDINATES OF ALL ATOMS ARE (ANGS)
   ATOM   CHARGE       X              Y              Z
 ------------------------------------------------------------
 C           6.0  -1.3037155011  -0.8303535655  -0.7651299385
 C           6.0  -1.8917205682   0.2580736084   0.1321064124
 C           6.0  -3.3019132495   0.6839004827  -0.2714304005
 C           6.0  -3.8087068456   1.8411671348   0.5894455452
 N           7.0   0.0412299767  -1.2505505056  -0.3752460223
 C           6.0   0.2009746366  -2.3275666583   0.3911513170
 O           8.0   1.2544041977  -2.7562842063   0.8006255280
 C           6.0   1.2079870274  -0.4888576958  -0.8166158582
 C           6.0   1.6107772282   0.6517781179   0.1200648488
 C           6.0   2.8342527356   1.4177879916  -0.3832262753
 C           6.0   3.1204467851   2.6663802946   0.4507664444
 H           1.0  -1.9462531517  -1.7032451860  -0.7486925515
 H           1.0  -1.2608958856  -0.4893540628  -1.7935179838
 H           1.0  -1.8972938037  -0.1026540055   1.1590468247
 H           1.0  -1.2505903393   1.1313932249   0.1101660285
 H           1.0  -3.3042476224   0.9842562275  -1.3177403187
 H           1.0  -3.9824349323  -0.1609778624  -0.1867946173
 H           1.0  -3.8336977705   1.5617995660   1.6399434311
 H           1.0  -3.1576499934   2.7068573864   0.4934924147
 H           1.0  -4.8104850023   2.1434831828   0.2995919175
 H           1.0  -0.7352781699  -2.8287327934   0.6321401627
 H           1.0   2.0319777122  -1.1823764018  -0.9191967677
 H           1.0   0.9849576278  -0.0957927281  -1.8021532485
 H           1.0   0.7860772921   1.3473106104   0.2220016768
 H           1.0   1.8084910120   0.2477603873   1.1102065766
 H           1.0   3.7044141129   0.7643734775  -0.3772674264
 H           1.0   2.6733121634   1.7117871334  -1.4190657556
 H           1.0   3.9956024585   3.1939066585   0.0827075801
 H           1.0   2.2787569654   3.3541021359   0.4158613891
 H           1.0   3.2968112376   2.4112571082   1.4927823237


                     --------------------
                     INTERNAL COORDINATES
                     --------------------

                 - - ATOMS - -         COORDINATE      COORDINATE
 NO.   TYPE    I  J  K  L  M  N        (BOHR,RAD)       (ANG,DEG)
 ----------------------------------------------------------------
   1 STRETCH   1  2                     2.8879173       1.5282201
   2 STRETCH   1 12                     2.0484705       1.0840040
   3 STRETCH   1  5                     2.7627854       1.4620032
   4 STRETCH   1 13                     2.0490209       1.0842952
   5 STRETCH   2 14                     2.0569058       1.0884678
   6 STRETCH   2 15                     2.0477311       1.0836127
   7 STRETCH   2  3                     2.8862828       1.5273552
   8 STRETCH   3 16                     2.0570980       1.0885695
   9 STRETCH   3  4                     2.8890031       1.5287947
  10 STRETCH   3 17                     2.0563244       1.0881601
  11 STRETCH   4 20                     2.0518714       1.0858037
  12 STRETCH   4 19                     2.0549427       1.0874289
  13 STRETCH   4 18                     2.0546950       1.0872978
  14 STRETCH   5  8                     2.7620434       1.4616105
  15 STRETCH   5  6                     2.5161381       1.3314830
  16 STRETCH   6  7                     2.2842885       1.2087935
  17 STRETCH   6 21                     2.0578174       1.0889502
  18 STRETCH   8 23                     2.0488727       1.0842168
  19 STRETCH   8 22                     2.0444457       1.0818742
  20 STRETCH   8  9                     2.8911330       1.5299218
  21 STRETCH   9 25                     2.0551165       1.0875209
  22 STRETCH   9 24                     2.0477922       1.0836450
  23 STRETCH   9 10                     2.8888499       1.5287136
  24 STRETCH  10 27                     2.0573734       1.0887152
  25 STRETCH  10 26                     2.0563891       1.0881943
  26 STRETCH  10 11                     2.8885212       1.5285397
  27 STRETCH  11 30                     2.0544975       1.0871933
  28 STRETCH  11 29                     2.0550468       1.0874840
  29 STRETCH  11 28                     2.0524624       1.0861164
  30 BEND      1  2  3                  1.9808926     113.4967867
  31 BEND      1  2 14                  1.8963772     108.6544087
  32 BEND      1  5  8                  2.0990708     120.2678957
  33 BEND      1  5  6                  2.0901866     119.7588698
  34 BEND      1  2 15                  1.9118323     109.5399218
  35 BEND      2  3 17                  1.9181347     109.9010248
  36 BEND      2  1 12                  1.9140392     109.6663697
  37 BEND      2  1  5                  1.9845926     113.7087828
  38 BEND      2  3  4                  1.9480184     111.6132299
  39 BEND      2  3 16                  1.9101263     109.4421757
  40 BEND      2  1 13                  1.9262858     110.3680452
  41 BEND      3  2 14                  1.9144622     109.6906055
  42 BEND      3  4 20                  1.9458127     111.4868552
  43 BEND      3  4 18                  1.9360346     110.9266136
  44 BEND      3  4 19                  1.9331362     110.7605471
  45 BEND      3  2 15                  1.8925495     108.4350963
  46 BEND      4  3 17                  1.9141294     109.6715373
  47 BEND      4  3 16                  1.9088717     109.3702914
  48 BEND      5  8  9                  1.9974358     114.4446422
  49 BEND      5  8 23                  1.8746617     107.4102061
  50 BEND      5  1 12                  1.8857834     108.0474314
  51 BEND      5  1 13                  1.8828218     107.8777407
  52 BEND      5  6  7                  2.1974279     125.9033462
  53 BEND      5  6 21                  1.9784999     113.3596918
  54 BEND      5  8 22                  1.8781692     107.6111686
  55 BEND      6  5  8                  2.0939099     119.9721998
  56 BEND      7  6 21                  2.1072338     120.7356044
  57 BEND      8  9 24                  1.9132061     109.6186352
  58 BEND      8  9 25                  1.9053085     109.1661349
  59 BEND      8  9 10                  1.9635391     112.5025037
  60 BEND      9 10 11                  1.9600831     112.3044866
  61 BEND      9 10 26                  1.9148366     109.7120557
  62 BEND      9 10 27                  1.9073533     109.2832930
  63 BEND      9  8 22                  1.9128865     109.6003222
  64 BEND      9  8 23                  1.9181256     109.9004989
  65 BEND     10 11 30                  1.9408119     111.2003321
  66 BEND     10 11 29                  1.9327992     110.7412396
  67 BEND     10  9 24                  1.8948778     108.5685011
  68 BEND     10  9 25                  1.9181357     109.9010777
  69 BEND     10 11 28                  1.9419773     111.2671009
  70 BEND     11 10 26                  1.9153523     109.7416015
  71 BEND     11 10 27                  1.9030860     109.0387968
  72 BEND     12  1 13                  1.8661013     106.9197273
  73 BEND     14  2 15                  1.8642141     106.8116020
  74 BEND     16  3 17                  1.8625672     106.7172374
  75 BEND     18  4 19                  1.8792212     107.6714454
  76 BEND     18  4 20                  1.8841449     107.9535481
  77 BEND     19  4 20                  1.8830177     107.8889660
  78 BEND     22  8 23                  1.8785101     107.6307001
  79 BEND     24  9 25                  1.8662372     106.9275146
  80 BEND     26 10 27                  1.8603936     106.5927006
  81 BEND     28 11 29                  1.8813795     107.7951050
  82 BEND     28 11 30                  1.8839478     107.9422582
  83 BEND     29 11 30                  1.8804385     107.7411913
  84 TORSION   1  5  8  9               1.5486720      88.7323680
  85 TORSION   1  5  8 22              -2.6040553    -149.2013759
  86 TORSION   1  5  8 23              -0.5859166     -33.5705485
  87 TORSION   1  2  3 17               1.0852833      62.1821549
  88 TORSION   1  2  3  4              -3.0702610    -175.9129989
  89 TORSION   1  5  6 21               0.0360163       2.0635796
  90 TORSION   1  5  6  7              -3.1129774    -178.3604666
  91 TORSION   1  2  3 16              -0.9547452     -54.7028699
  92 TORSION   2  1  5  8              -1.4575121     -83.5092900
  93 TORSION   2  3  4 18              -1.0431323     -59.7670810
  94 TORSION   2  3  4 19               1.0426466      59.7392480
  95 TORSION   2  3  4 20               3.1396538     179.8889134
  96 TORSION   2  1  5  6               1.6776209      96.1205950
  97 TORSION   3  2  1 13               1.0327704      59.1733828
  98 TORSION   3  2  1 12              -1.0186777     -58.3659322
  99 TORSION   3  2  1  5              -3.1319638    -179.4483091
 100 TORSION   4  3  2 15              -0.9416322     -53.9515518
 101 TORSION   4  3  2 14               1.0882123      62.3499748
 102 TORSION   5  1  2 15               1.0333554      59.2069045
 103 TORSION   5  8  9 10               3.1415490     179.9975001
 104 TORSION   5  8  9 24              -1.0314780     -59.0993341
 105 TORSION   5  8  9 25               1.0073582      57.7173707
 106 TORSION   5  1  2 14              -0.9971983     -57.1352565
 107 TORSION   6  5  8 22               0.5440109      31.1695313
 108 TORSION   6  5  8 23               2.5621496     146.8003587
 109 TORSION   6  5  1 13              -2.4630564    -141.1227369
 110 TORSION   6  5  8  9              -1.5864471     -90.8967248
 111 TORSION   6  5  1 12              -0.4513937     -25.8629528
 112 TORSION   7  6  5  8               0.0221748       1.2705248
 113 TORSION   8  5  1 13               0.6849960      39.2473782
 114 TORSION   8  9 10 11               3.0077301     172.3302424
 115 TORSION   8  9 10 26              -1.1403883     -65.3394366
 116 TORSION   8  9 10 27               0.8935105      51.1943799
 117 TORSION   8  5  1 12               2.6966587     154.5071623
 118 TORSION   8  5  6 21              -3.1120168    -178.3054290
 119 TORSION   9 10 11 28               3.1355508     179.6538260
 120 TORSION   9 10 11 29              -1.0554667     -60.4737896
 121 TORSION   9 10 11 30               1.0347481      59.2866994
 122 TORSION  10  9  8 22               1.0301495      59.0232167
 123 TORSION  10  9  8 23              -1.0308838     -59.0652903
 124 TORSION  11 10  9 24               0.8870970      50.8269165
 125 TORSION  11 10  9 25              -1.1485268     -65.8057410
 126 TORSION  12  1  2 14               1.1160878      63.9471204
 127 TORSION  12  1  2 15              -3.1365437    -179.7107187
 128 TORSION  13  1  2 15              -1.0850957     -62.1714037
 129 TORSION  13  1  2 14              -3.1156495    -178.5135646
 130 TORSION  14  2  3 17              -1.0394286     -59.5548714
 131 TORSION  14  2  3 16              -3.0794571    -176.4398963
 132 TORSION  15  2  3 17              -3.0692732    -175.8563980
 133 TORSION  15  2  3 16               1.1738836      67.2585772
 134 TORSION  16  3  4 19              -1.0735982     -61.5126436
 135 TORSION  16  3  4 18               3.1238082     178.9810273
 136 TORSION  16  3  4 20               1.0234091      58.6370218
 137 TORSION  17  3  4 19              -3.1105892    -178.2236354
 138 TORSION  17  3  4 18               1.0868171      62.2700355
 139 TORSION  17  3  4 20              -1.0135820     -58.0739700
 140 TORSION  22  8  9 25              -1.1040414     -63.2569128
 141 TORSION  22  8  9 24               3.1403078     179.9263825
 142 TORSION  23  8  9 25               3.1181106     178.6545803
 143 TORSION  23  8  9 24               1.0792745      61.8378755
 144 TORSION  24  9 10 27              -1.2271226     -70.3089460
 145 TORSION  24  9 10 26               3.0221639     173.1572374
 146 TORSION  25  9 10 27               3.0204388     173.0583965
 147 TORSION  25  9 10 26               0.9865400      56.5245799
 148 TORSION  26 10 11 29               3.0929439     177.2126342
 149 TORSION  26 10 11 30              -1.1000265     -63.0268768
 150 TORSION  26 10 11 28               1.0007762      57.3402498
 151 TORSION  27 10 11 29               1.0612007      60.8023194
 152 TORSION  27 10 11 30              -3.1317698    -179.4371916
 153 TORSION  27 10 11 28              -1.0309671     -59.0700650

          INTERNUCLEAR DISTANCES (ANGS.)


 =====================================================
   GAMESS/COSab RESULTS
 =====================================================

   Dielectric Constant                  = INFTY
   Basic Grid Size                      =                 1082
   Number of Segments                   =                   92
   Number of Segments located on spheres=                  353
   Number of Segments of the cavity     =                  979
   Solvent Radius (rsolv)               = 1.40
   Outlying Charge Error Method         = double cavity

 =====================================================

  Total solvated Energy (a.u.)          =  -481.3364737224
  Total Energy corrected (a.u.)         =  -481.3359947285

  Outlying charge effect (a.u.)         =     0.0004789939
  Outlying charge effect (kcal/mol)     =     0.3005734611

  Dielectric Energy (a.u.)              =    -0.0189367552
  Dielectric energy corr. (a.u.)        =    -0.0184577613

  Sum of polarization charges           =     0.0301604401
  Sum of polarization charges(cor.)     =    -0.0301604401

  Total surface area of cavity (A**2)   =  225.08
  Total volume of cavity (A**3)         =  230.09

[...]
 722  10   6.351127  -0.051321   1.857516   0.000033   0.027394   0.001195
 723  25   5.820982  -0.348897   2.301943  -0.000033   0.027394  -0.001222
 724   9   6.339131  -0.260204   1.650279   0.000021   0.027681   0.000767
 725  10   6.761774  -0.035596   1.511089  -0.000001   0.027681  -0.000052
 726  26   6.993281  -0.087456   1.321306  -0.000027   0.027681  -0.000972
 727   9   2.102016   3.690807  -2.631838  -0.000045   0.028245  -0.001599
 728  10   2.474812   3.962006  -2.821418  -0.000037   0.028245  -0.001316
 729  27   2.643704   3.962349  -3.074283  -0.000071   0.028245  -0.002526
 730  10   6.669570  -0.008336   1.680899   0.000041   0.016912   0.002408
 731   9   6.099478  -0.379320   1.900599   0.000033   0.016912   0.001948
 732  10   2.324855   4.205815  -2.467004   0.000049   0.144400   0.000342
 733   9   1.737917   3.958644  -2.099815  -0.000011   0.144400  -0.000079
 734   9   1.875572   3.885862   2.718066   0.000082   0.069605   0.001177
 735  11   2.418584   4.521892   2.768710   0.000149   0.069605   0.002134
 736  24   1.646722   3.981873   2.543284  -0.000104   0.069605  -0.001494
 737   9   3.320432   3.301497   3.658359   0.000150   0.065057   0.002301
 738  11   3.782035   3.974621   3.845992   0.000138   0.065057   0.002121
 739  30   4.029521   3.927273   4.017447  -0.000060   0.065057  -0.000917
 740  11   3.025211   4.505540   3.378436   0.000910   0.421642   0.002157
 741   9   2.504772   3.387533   3.385309   0.000810   0.421642   0.001920
 742   9   0.783901   0.667152   3.308037   0.000259   0.092172   0.002813
 743  14  -0.577232   0.354481   3.223110   0.000451   0.092172   0.004889
 744  25   1.032557   0.524861   3.410396   0.000056   0.092172   0.000605
 745  14  -1.480819   0.490835   3.753750   0.000212   0.173078   0.001226
 746   9   0.520254   1.067580   3.530847   0.000898   0.262056   0.003427
 747   9   0.460931   2.610132  -2.319979  -0.000792   0.245644  -0.003223
 748  15  -0.556841   2.596244  -2.026570  -0.001212   0.245644  -0.004932
 749  23   0.394963   2.108400  -2.888110  -0.001192   0.245644  -0.004852
 750   9   0.448143   3.396218  -1.706425  -0.000357   0.060410  -0.005905
 751  15  -0.583035   3.388429  -1.487726  -0.000509   0.060410  -0.008423
 752  24   0.255935   3.534561  -1.517987  -0.000395   0.060410  -0.006539
 753  15  -1.076771   3.308937  -1.746787  -0.000479   0.132523  -0.003611
 754   9   0.431255   3.195880  -2.114801   0.000119   0.189381   0.000626
 755   9   1.867063   3.004268  -2.993610  -0.000383   0.166401  -0.002300
 756  23   1.743988   2.503842  -3.547993  -0.000795   0.166401  -0.004780
 757  27   2.455695   3.266229  -3.386608  -0.000403   0.166401  -0.002423
 758  23   0.951774   2.153753  -3.587111  -0.000859   0.139615  -0.006149
 759   9   1.227032   2.900076  -2.788334  -0.000136   0.196814  -0.000689
 760  24   0.835286   3.302611   2.633088  -0.000262   0.100933  -0.002597
 761   9   1.270812   3.270119   2.838098   0.000024   0.123312   0.000197
 762  24   0.908773   3.992065  -1.476675  -0.000263   0.072767  -0.003621
 763   9   1.095046   3.743724  -1.815443  -0.000217   0.088901  -0.002443
 764   9   3.300005   2.553024   3.827458   0.000015   0.088466   0.000174
 765  25   3.399974   2.287689   3.943753  -0.000046   0.088466  -0.000519
 766  30   4.064425   3.184620   4.023306   0.000119   0.088466   0.001341
 767  25   5.493669  -0.815376   2.455188  -0.000186   0.052562  -0.003536
 768   9   5.725394  -0.693398   2.089722  -0.000060   0.064216  -0.000937
 769  25   2.718304   1.737547   4.051063  -0.000093   0.097938  -0.000953
 770  25   1.840538   0.921043   3.893164  -0.000124   0.097938  -0.001270
 771   9   2.083093   1.584024   3.746288  -0.000225   0.196992  -0.001143
 772  26   7.118956  -0.339691   1.043315  -0.000310   0.158299  -0.001957
 773   9   6.151455  -0.779792   1.423995   0.000222   0.223118   0.000996
 774  27   2.695215   3.849058  -3.357507  -0.000129   0.065904  -0.001952
 775   9   1.845304   3.512155  -2.712760   0.000071   0.092962   0.000762
 776  30   4.183006   3.830491   4.264983   0.000034   0.093528   0.000361
 777   9   3.120611   2.849867   3.892153   0.000386   0.133017   0.002902
 778  10   7.983649   1.594205   1.777994   0.000013   0.027643   0.000466
 779  11   8.050121   2.022328   2.024333   0.000047   0.027643   0.001687
 780  26   8.129583   1.428238   1.569523  -0.000019   0.027643  -0.000703
 781  10   9.119748   3.083282  -0.841165   0.000020   0.027643   0.000717
 782  11   9.171355   3.491922  -0.560558   0.000080   0.027643   0.002894
 783  26   9.163847   2.783840  -0.814865  -0.000008   0.027643  -0.000288
 784  10   6.857145   5.156731  -3.164360   0.000013   0.028534   0.000445
 785  11   6.932524   5.544030  -2.859836   0.000043   0.028534   0.001513
 786  27   6.657648   5.082108  -3.381397  -0.000014   0.028534  -0.000477
 787  10   3.619996   5.498028  -2.564495   0.000020   0.028534   0.000684
 788  11   3.737242   5.880913  -2.267729   0.000068   0.028534   0.002377
 789  27   3.710155   5.392866  -2.835207  -0.000013   0.028534  -0.000459
 790  10   9.096963   3.717153  -0.947383   0.000070   0.025465   0.002765
 791  11   9.232223   4.119670  -0.686585   0.000025   0.025465   0.000982
 792  28   9.306896   4.411027  -0.721043  -0.000010   0.025465  -0.000411
 793  10   7.377252   5.313920  -2.747799   0.000035   0.025465   0.001372
 794  11   7.489149   5.738130  -2.511460   0.000011   0.025465   0.000448
 795  28   7.720627   5.883892  -2.381754  -0.000017   0.025465  -0.000675
 796  10   3.276661   5.724202  -1.958249   0.000029   0.026294   0.001086
 797  11   3.343515   6.152841  -1.712992   0.000004   0.026294   0.000159
 798  29   3.203652   6.330829  -1.510948  -0.000026   0.026294  -0.001002
 799  10   7.410131   1.824245   2.465057   0.000013   0.025640   0.000508
 800  11   7.526713   2.205828   2.763615  -0.000004   0.025640  -0.000143
 801  30   7.451947   2.330151   3.029917  -0.000041   0.025640  -0.001597
 802  11   7.786565   2.160262   2.520375   0.000148   0.104543   0.001414
 803  10   7.751842   1.602427   2.058086   0.000135   0.104543   0.001293
 804  11   9.270215   3.875872  -0.557190   0.000128   0.045359   0.002818
 805  10   9.128421   3.323492  -0.990905   0.000107   0.045359   0.002358
 806  11   7.284204   5.732779  -2.655682   0.000103   0.054899   0.001875
 807  10   7.092065   5.174297  -3.062986   0.000103   0.054899   0.001876
 808  11   3.559934   6.136625  -1.982304   0.000122   0.065196   0.001868
 809  10   3.364633   5.536769  -2.326582   0.000113   0.065196   0.001738
 810  10   6.726706  -0.242490  -2.811721  -0.000061   0.087909  -0.000699
 811  22   6.201156  -1.094251  -2.783624  -0.000258   0.087909  -0.002935
 812  26   6.957875  -0.305401  -2.620106  -0.000161   0.087909  -0.001829
 813  22   5.878458  -1.535165  -3.201589  -0.000211   0.089024  -0.002371
 814  10   6.616114  -0.254686  -3.139623   0.000307   0.126486   0.002426
 815  10   2.364189   5.016622  -1.417636  -0.000111   0.166332  -0.000666
 816  24   1.755289   4.783393  -1.047971  -0.000312   0.166332  -0.001877
 817  29   2.385787   5.628792  -0.965071  -0.000272   0.166332  -0.001636
 818  24   1.299982   4.406324  -1.278462  -0.000165   0.067339  -0.002446
 819  10   2.200801   4.677873  -1.870286   0.000105   0.095024   0.001103
 820  10   6.499247   1.311207   2.689493   0.000011   0.168679   0.000066
 821  25   5.916844   0.968058   3.030790  -0.000164   0.168679  -0.000970
 822  30   6.546075   1.884109   3.192147  -0.000153   0.168679  -0.000906
 823  25   5.756092  -0.077747   2.720088  -0.000482   0.223418  -0.002158
 824  10   6.584466   0.561268   2.270413   0.000381   0.314648   0.001210
 825  26   8.043765   0.891889   1.437442  -0.000120   0.074005  -0.001618
 826  26   7.494758   0.159675   1.317601  -0.000136   0.074005  -0.001839
 827  10   7.480817   0.704059   1.609668  -0.000309   0.160114  -0.001932
 828  26   7.532451   0.172796  -2.747855  -0.000057   0.067512  -0.000849
 829  26   8.184858   1.041422  -2.769262  -0.000137   0.149000  -0.000921
 830  26   8.873260   1.963983  -2.132883  -0.000234   0.149000  -0.001570
 831  26   9.205196   2.414522  -1.201520  -0.000088   0.067512  -0.001301
 832  10   7.496681   0.682725  -3.046303   0.000123   0.148862   0.000828
 833  10   8.367518   1.844932  -2.772457   0.000088   0.148862   0.000590
 834  10   8.965778   2.651532  -1.688227  -0.000110   0.148862  -0.000737
 835  27   6.718395   4.659196  -3.773110  -0.000114   0.079485  -0.001432
 836  27   6.915251   3.466992  -4.142079  -0.000318   0.182191  -0.001746
 837  27   6.248869   2.132924  -4.417181  -0.000400   0.182191  -0.002196
 838  10   7.125844   4.190670  -3.615397  -0.000262   0.169213  -0.001551
 839  10   6.983080   2.553895  -4.057777   0.000057   0.169213   0.000337
 840  10   6.106349   1.483294  -4.225415   0.000093   0.097108   0.000960
 841  27   2.949413   4.361586  -3.271947  -0.000123   0.068485  -0.001801
 842  27   3.455626   5.041401  -3.157653  -0.000118   0.068485  -0.001730
 843  10   3.060397   4.742153  -2.827172  -0.000266   0.150638  -0.001763
 844  28   9.292690   4.722027  -1.052417  -0.000248   0.198779  -0.001248
 845  28   8.509119   5.476270  -1.974499  -0.001141   0.406531  -0.002805
 846  10   8.704746   4.029488  -1.897572   0.000684   0.544769   0.001256
 847  10   7.722291   4.917392  -2.833446   0.000562   0.279926   0.002008
 848  29   2.882502   6.338194  -1.277787  -0.000280   0.161650  -0.001730
 849  10   2.795916   5.375038  -1.874247   0.000270   0.227761   0.001187
 850  30   7.154480   2.269802   3.338670  -0.000231   0.118695  -0.001943
 851  10   7.193159   1.495326   2.509752   0.000253   0.167275   0.001513
 852  11   2.409274   5.377828   2.429407   0.000030   0.085375   0.000352
 853  24   1.742815   4.747342   2.120582   0.000009   0.085375   0.000100
 854  29   2.320374   5.617790   2.260915  -0.000058   0.085375  -0.000681
 855  24   1.387559   4.192276   2.414811  -0.000050   0.134585  -0.000371
 856  11   2.404986   5.136530   2.768066   0.000531   0.190587   0.002788
 857  26   9.253693   2.461422  -0.461519  -0.000267   0.213385  -0.001251
 858  26   8.789521   1.760935   0.820135  -0.001308   0.438774  -0.002980
 859  11   9.170245   3.184611   0.553831   0.000790   0.582574   0.001357
 860  11   8.487056   2.373049   1.936158   0.000620   0.300571   0.002064
 861  27   4.082929   5.467894  -3.159992  -0.000291   0.219181  -0.001330
 862  27   5.622494   5.385631  -3.486153  -0.001484   0.451840  -0.003283
 863  11   4.829683   6.262629  -2.543733   0.000673   0.597452   0.001126
 864  11   6.579238   6.005257  -2.830713   0.000618   0.308781   0.002000
 865  28   7.777635   6.407636  -2.260956  -0.000104   0.069435  -0.001499
 866  28   7.379193   7.363779  -1.837938  -0.000326   0.154332  -0.002113
 867  28   7.297060   8.225194  -0.798594  -0.000175   0.154332  -0.001133
 868  28   7.719773   8.410837   0.472574  -0.000303   0.154332  -0.001965
 869  28   8.470463   7.843032   1.443697  -0.000334   0.154332  -0.002166
 870  28   9.235035   6.759356   1.708447  -0.000213   0.154332  -0.001383
 871  28   9.693584   5.613228   1.156050  -0.000251   0.154332  -0.001626
 872  28   9.654248   4.884201   0.017635  -0.000357   0.154332  -0.002310
 873  11   7.226944   6.643676  -2.243826  -0.000189   0.152047  -0.001240
 874  11   6.850179   7.853473  -1.405713   0.000048   0.152047   0.000314
 875  11   7.052336   8.474973  -0.034268   0.000042   0.152047   0.000275
 876  11   7.748830   8.248134   1.296684  -0.000093   0.152047  -0.000613
 877  11   8.648241   7.267867   2.030259  -0.000057   0.152047  -0.000376
 878  11   9.374246   5.944328   1.859521   0.000069   0.152047   0.000455
 879  11   9.623078   4.831296   0.855908  -0.000163   0.152047  -0.001074
 880  11   9.442373   4.348223  -0.266130   0.000025   0.084831   0.000295
 881  29   2.624752   6.236316   2.571449  -0.000069   0.071696  -0.000967
 882  29   3.327022   7.109134   2.833963  -0.000181   0.160330  -0.001132
 883  29   4.169941   8.118048   2.386396  -0.000302   0.160330  -0.001881
 884  29   4.668972   8.669266   1.213424  -0.000301   0.160330  -0.001879
 885  29   4.603166   8.518734  -0.165615  -0.000264   0.160330  -0.001644
 886  29   4.001659   7.733099  -1.140143  -0.000269   0.160330  -0.001679
 887  29   3.297372   6.858416  -1.390775  -0.000107   0.071696  -0.001488
 888  11   3.089889   6.294138   2.959559   0.000038   0.156105   0.000243
 889  11   4.076282   7.502223   2.976490  -0.000006   0.156105  -0.000038
 890  11   4.875361   8.431221   2.011523  -0.000122   0.156105  -0.000782
 891  11   5.133329   8.669814   0.491900   0.000019   0.156105   0.000124
 892  11   4.735971   8.112363  -0.909557   0.000059   0.156105   0.000377
 893  11   3.859217   7.005682  -1.572346  -0.000193   0.156105  -0.001238
 894  30   7.721638   2.673457   3.338904  -0.000130   0.067811  -0.001923
 895  30   8.331859   3.572291   3.455681  -0.000280   0.149884  -0.001866
 896  30   8.427457   4.856937   3.754018  -0.000139   0.149884  -0.000930
 897  30   7.725267   5.911991   4.131173  -0.000277   0.149884  -0.001849
 898  30   6.504561   6.317843   4.437147  -0.000281   0.149884  -0.001876
 899  30   5.250834   5.913076   4.550247  -0.000213   0.149884  -0.001418
 900  30   4.462714   4.858675   4.425493  -0.000181   0.149884  -0.001205
 901  11   8.122448   2.927007   2.982911  -0.000150   0.149296  -0.001007
 902  11   8.685394   4.281416   3.219227  -0.000026   0.149296  -0.000173
 903  11   8.326307   5.666456   3.619100   0.000108   0.149296   0.000726
 904  11   7.188004   6.531274   4.023494  -0.000078   0.149296  -0.000519
 905  11   5.723206   6.531916   4.271575  -0.000100   0.149296  -0.000668
 906  11   4.514488   5.668128   4.264676   0.000137   0.149296   0.000919
 907  11   3.993385   4.594594   4.090044   0.000139   0.082846   0.001680
 908  17  -7.424181  -2.413974  -2.027207   0.000126   0.243435   0.000517
 909  17  -7.489179  -2.856334  -1.048587  -0.000721   0.486650  -0.001481
 910  17  -7.140591  -2.858122   0.219513  -0.000648   0.486650  -0.001331
 911  12  -6.238245  -3.531019  -2.002659  -0.001580   0.486650  -0.003247
 912  12  -6.149257  -3.874878  -0.736391  -0.001768   0.486650  -0.003632
 913  12  -5.745757  -3.699905   0.245534  -0.000534   0.243435  -0.002194
 914  21  -3.979970  -5.151888   1.448204  -0.002062   0.249532  -0.008262
 915  21  -3.734722  -6.027957   0.519051  -0.004728   0.499868  -0.009459
 916  21  -3.035893  -6.493954  -0.473648  -0.001638   0.249532  -0.006564
 917  12  -4.636713  -4.839461   0.281033  -0.003675   0.499868  -0.007353
 918  12  -4.048573  -5.675540  -0.916240  -0.003970   0.499868  -0.007942
 919  16  -4.120492   2.429441  -4.031302  -0.000098   0.249363  -0.000392
 920  16  -4.754535   1.751950  -4.655999  -0.000899   0.498586  -0.001804
 921  16  -5.562536   0.654487  -4.727039  -0.000684   0.498586  -0.001371
 922  13  -3.127018   1.300279  -4.579481  -0.001568   0.498586  -0.003146
 923  13  -3.943107   0.334327  -5.092581  -0.001755   0.498586  -0.003519
 924  13  -4.562540  -0.580730  -4.918725  -0.000388   0.249363  -0.001557
 925  23   0.577309  -1.439121  -5.339443  -0.000622   0.217953  -0.002852
 926  23   0.390700  -0.378353  -5.526274  -0.002167   0.435998  -0.004971
 927  23   0.175445   0.859962  -5.070880  -0.002198   0.435998  -0.005042
 928  23   0.056446   1.557296  -4.237501  -0.000831   0.217953  -0.003811
 929  13  -0.832340  -1.274080  -5.432106  -0.002073   0.435998  -0.004754
 930  13  -1.062864   0.042204  -5.394735  -0.002400   0.435998  -0.005504
 931  13  -1.241042   1.077096  -4.567454  -0.001995   0.435998  -0.004575
 932  18  -6.868702   0.485591   4.111256   0.000002   0.245578   0.000007
 933  18  -6.184023   1.118746   4.676765  -0.000610   0.490961  -0.001242
 934  18  -5.312590   2.126212   4.698715  -0.000239   0.490961  -0.000486
 935  14  -5.447305  -0.289693   4.060236  -0.000526   0.490961  -0.001072
 936  14  -4.567274   0.604837   4.507699  -0.000544   0.490961  -0.001108
 937  14  -3.898119   1.441873   4.305034   0.000215   0.245578   0.000874
 938  21  -3.079388  -4.320810   3.123494  -0.000747   0.250110  -0.002987
 939  21  -3.592415  -4.436366   2.589947  -0.000996   0.250110  -0.003984
 940  14  -4.037114  -2.693037   3.165906  -0.000778   0.499622  -0.001557
 941  25   1.153662   0.272974   3.826979   0.000503   0.220479   0.002283
 942  14  -1.272598  -0.042406   3.857851   0.000311   0.220479   0.001409
 943  19  -3.524815   5.244293   2.014188   0.000182   0.248732   0.000731
 944  19  -3.404120   5.647830   0.956113  -0.000727   0.497410  -0.001462
 945  19  -3.748913   5.556924  -0.385632  -0.000685   0.497410  -0.001377
 946  15  -2.314668   4.473375   1.390069  -0.000844   0.497410  -0.001697
 947  15  -2.359619   4.749808   0.030293  -0.001048   0.497410  -0.002107
 948  15  -2.780905   4.489359  -0.995190  -0.000150   0.248732  -0.000603
 949  23   0.244375   2.111540  -3.401189   0.000049   0.020544   0.002396
 950  15  -1.141266   2.880445  -2.205473   0.000077   0.020544   0.003738
 951  24   0.098760   3.895605  -1.316860  -0.000650   0.216772  -0.002997
 952  24  -0.019051   4.466656  -0.273796  -0.002591   0.434060  -0.005970
 953  24  -0.089936   4.383519   1.177671  -0.002610   0.434060  -0.006014
 954  24  -0.070813   3.696724   2.155376  -0.000666   0.216772  -0.003073
 955  15  -1.156801   4.013734  -0.999789  -0.002410   0.434060  -0.005552
 956  15  -1.276549   4.422381   0.392101  -0.002671   0.434060  -0.006155
 957  15  -1.290281   3.857185   1.733390  -0.001984   0.434060  -0.004572
 958  26   7.244062  -1.184102  -0.190754  -0.000295   0.273758  -0.001079
 959  26   7.476629  -1.059468  -1.356217  -0.000744   0.547385  -0.001360
 960  26   7.290116  -0.596948  -2.442133   0.000206   0.273758   0.000753
 961  22   6.349626  -2.332617  -0.961256  -0.001690   0.547385  -0.003088
 962  22   6.378347  -1.966453  -2.365273  -0.001566   0.547385  -0.002861
 963  27   4.740233   1.759551  -4.890219  -0.000087   0.248478  -0.000351
 964  27   3.914075   2.540696  -4.934932  -0.001035   0.496902  -0.002083
 965  27   2.961366   3.286829  -4.256720  -0.000810   0.496902  -0.001630
 966  23   3.415149   0.975275  -5.166865  -0.001406   0.496902  -0.002829
 967  23   2.391613   1.880896  -4.929024  -0.001804   0.496902  -0.003631
 968  23   1.693477   2.373763  -4.177752  -0.000462   0.248478  -0.001858
 969  29   2.078298   6.115589  -0.679464  -0.000029   0.244866  -0.000120
 970  29   1.718779   6.281745   0.368719  -0.000708   0.489652  -0.001446
 971  29   1.869697   6.040304   1.705982  -0.000212   0.489652  -0.000432
 972  24   1.023426   4.990908  -0.405848  -0.000772   0.489652  -0.001576
 973  24   0.805187   5.022886   0.943482  -0.001130   0.489652  -0.002307
 974  24   1.112722   4.694985   1.969860  -0.000047   0.244866  -0.000193
 975  30   4.535392   3.329854   4.516064   0.000139   0.293271   0.000474
 976  30   5.575969   2.622568   4.467698  -0.000702   0.586470  -0.001197
 977  30   6.523820   2.081552   3.839786   0.000018   0.293271   0.000061
 978  25   4.034620   1.746488   4.303761  -0.000228   0.586470  -0.000389
 979  25   5.274009   0.968421   3.882236  -0.000598   0.586470  -0.001019
 =====================================================


   1 warning(s) detected.
     A line exceeding 80 characters begins with "http://cactus.nci.ni".
 There may be a problem in your input file.

              9209291  WORDS OF DYNAMIC MEMORY USED
 EXECUTION OF GAMESS TERMINATED NORMALLY Thu Nov 24 23:50:55 2016
 DDI: 263640 bytes (0.3 MB / 0 MWords) used by master data server.

 ----------------------------------------
 CPU timing information for all processes
 ========================================
 0: 7602.548 + 1.916 = 7604.464
 ----------------------------------------
 ddikick.x: exited gracefully.
