----- GAMESS execution script -----

          ******************************************************
          *         GAMESS VERSION =  5 DEC 2014 (R1)          *
          *             FROM IOWA STATE UNIVERSITY             *
          * M.W.SCHMIDT, K.K.BALDRIDGE, J.A.BOATZ, S.T.ELBERT, *
          *   M.S.GORDON, J.H.JENSEN, S.KOSEKI, N.MATSUNAGA,   *
          *          K.A.NGUYEN, S.J.SU, T.L.WINDUS,           *
          *       TOGETHER WITH M.DUPUIS, J.A.MONTGOMERY       *
          *         J.COMPUT.CHEM.  14, 1347-1363(1993)        *
          **************** 64 BIT LINUX VERSION ****************

 EXECUTION OF GAMESS BEGUN Thu Nov 24 22:25:11 2016

            ECHO OF THE FIRST FEW INPUT CARDS -
 INPUT CARD>! SELECT RESTRICTED HARTREE-FOCK AS DEFAULT                                     
 INPUT CARD>$contrl scftyp=rhf $end                                                         
 INPUT CARD>                                                                                
 INPUT CARD>! THEORY: HF OR DFT                                                             
 INPUT CARD> $contrl mplevl=0 $end                                                          
 INPUT CARD>                                                                                
 INPUT CARD> $system timlim=10000 mwords=20 $end                                            
 INPUT CARD> $SCF DIRSCF=.TRUE. $end                                                        
 INPUT CARD>                                                                                
 INPUT CARD>                                                                                
 INPUT CARD>! BASIS SETS                                                                    
 INPUT CARD>! 6-311G(d,p)                                                                   
 INPUT CARD> $BASIS GBASIS=N311 NGAUSS=6 NDFUNC=1 NPFUNC=1 $END                             
 INPUT CARD>                                                                                
 INPUT CARD>! One of the following                                                          
 INPUT CARD> $guess guess=HUCKEL $end                                                       
 INPUT CARD>                                                                                
 INPUT CARD> $statpt projct=.FALSE. $end                                                    
 INPUT CARD> $STATPT IFREEZ(1)=1,2,3 $END                                                   
 INPUT CARD>                                                                                
 INPUT CARD>! Optimize the geometry with COSMO effects                                      
 INPUT CARD> $statpt opttol=0.0005 nstep=50 $end                                            
 INPUT CARD> $contrl nzvar=1 $end                                                           
 INPUT CARD> $zmat dlc=.t. auto=.t. $end                                                    
 INPUT CARD> $contrl runtyp=OPTIMIZE maxit=200 $end                                         
 INPUT CARD>                                                                                
 INPUT CARD>! Run COSMO on perfect conductor                                                
 INPUT CARD> $COSGMS PRFCND=.TRUE. $end                                                     
 INPUT CARD>                                                                                
 INPUT CARD>! Specifying RSOLV                                                              
 INPUT CARD> $COSGMS COSRAD = 1.4 $end                                                      
 INPUT CARD>                                                                                
 INPUT CARD>! available memory                                                              
 INPUT CARD> $SYSTEM MWORDS=40 $END                                                         
 INPUT CARD>                                                                                
 INPUT CARD> $DATA                                                                          
 INPUT CARD>N,N-DIMETHYLFORMAMIDE.out                                                       
 INPUT CARD>C1                                                                              
 INPUT CARD>O      8.0     -0.1821000000   -0.1248000000   -0.1282000000                    
 INPUT CARD>N      7.0      2.1141000000   -0.1248000000   -0.1282000000                    
 INPUT CARD>C      6.0      3.2500000000    0.8221000000   -0.1282000000                    
 INPUT CARD>C      6.0      2.1927000000   -1.1580000000   -1.1814000000                    
 INPUT CARD>C      6.0      0.8421000000    0.4231000000    0.2252000000                    
 INPUT CARD>H      1.0      3.3183000000    1.3990000000   -1.0624000000                    
 INPUT CARD>H      1.0      3.1628000000    1.5270000000    0.7093000000                    
 INPUT CARD>H      1.0      4.1856000000    0.2604000000   -0.0042000000                    
 INPUT CARD>H      1.0      2.0700000000   -0.7400000000   -2.1911000000                    
 INPUT CARD>H      1.0      3.1715000000   -1.6524000000   -1.1264000000                    
 INPUT CARD>H      1.0      1.4144000000   -1.9154000000   -1.0217000000                    
 INPUT CARD>H      1.0      0.8505000000    1.3106000000    0.8804000000                    
   40000000 WORDS OF MEMORY AVAILABLE

     BASIS OPTIONS
     -------------
     GBASIS=N311         IGAUSS=       6      POLAR=POPN311 
     NDFUNC=       1     NFFUNC=       0     DIFFSP=       F
     NPFUNC=       1      DIFFS=       F     BASNAM=        


     RUN TITLE
     ---------
 N,N-DIMETHYLFORMAMIDE.out                                                       

 THE POINT GROUP OF THE MOLECULE IS C1      
 THE ORDER OF THE PRINCIPAL AXIS IS     0

 ATOM      ATOMIC                      COORDINATES (BOHR)
           CHARGE         X                   Y                   Z
 O           8.0    -0.3441191024       -0.2358378033       -0.2422628716
 N           7.0     3.9950697106       -0.2358378033       -0.2422628716
 C           6.0     6.1416094601        1.5535437345       -0.2422628716
 C           6.0     4.1436021733       -2.1883026938       -2.2325222819
 C           6.0     1.5913382543        0.7995430654        0.4255662924
 H           1.0     6.2706777451        2.6437266568       -2.0076448894
 H           1.0     5.9768253540        2.8856115833        1.3403826431
 H           1.0     7.9096370942        0.4920846472       -0.0079368491
 H           1.0     3.9117327946       -1.3983972309       -4.1405786117
 H           1.0     5.9932659701       -3.1225832221       -2.1285873526
 H           1.0     2.6728284370       -3.6195811569       -1.9307330417
 H           1.0     1.6072119526        2.4766748795        1.6637147596

          INTERNUCLEAR DISTANCES (ANGS.)




     $CONTRL OPTIONS
     ---------------
 SCFTYP=RHF          RUNTYP=OPTIMIZE     EXETYP=RUN     
 MPLEVL=       0     CITYP =NONE         CCTYP =NONE         VBTYP =NONE    
 DFTTYP=NONE         TDDFT =NONE    
 MULT  =       1     ICHARG=       0     NZVAR =       1     COORD =UNIQUE  
 PP    =NONE         RELWFN=NONE         LOCAL =NONE         NUMGRD=       F
 ISPHER=      -1     NOSYM =       0     MAXIT =     200     UNITS =ANGS    
 PLTORB=       F     MOLPLT=       F     AIMPAC=       F     FRIEND=        
 NPRINT=       7     IREST =       0     GEOM  =INPUT   
 NORMF =       0     NORMP =       0     ITOL  =      20     ICUT  =       9
 INTTYP=BEST         GRDTYP=BEST         QMTTOL= 1.0E-06

     $SYSTEM OPTIONS
     ---------------
  REPLICATED MEMORY=    40000000 WORDS (ON EVERY NODE).
 DISTRIBUTED MEMDDI=           0 MILLION WORDS IN AGGREGATE,
 MEMDDI DISTRIBUTED OVER   1 PROCESSORS IS           0 WORDS/PROCESSOR.
 TOTAL MEMORY REQUESTED ON EACH PROCESSOR=    40000000 WORDS.
 TIMLIM=       10000.00 MINUTES, OR       6.9 DAYS.
 PARALL= F  BALTYP=  DLB     KDIAG=    0  COREFL= F
 MXSEQ2=     300 MXSEQ3=     150  mem10=         0

     $COSGMS OPTIONS
     ---------------
     EPSI  =   INFTY     NSPA  =      92     COSRAD=    1.40
     DISEX =   10.00     OUTCHG=DBLCAV       COSBUG=       F
     COSWRT=       F     DCOSMO=       F

     SYMMETRY COORDINATES WILL NOT BE USED FOR 
     THE COSMO CALCULATION, EVEN IF SPECIFIED:
         -- SWITCHING TO C1 POINT GROUP --


     DEFINITION OF CAVITY
     ---------------------------
     ATOM         COORDINATES           RADIUS 
     1   -0.3441   -0.2358   -0.2423    1.7200
     2    3.9951   -0.2358   -0.2423    1.8300
     3    6.1416    1.5535   -0.2423    2.0000
     4    4.1436   -2.1883   -2.2325    2.0000
     5    1.5913    0.7995    0.4256    2.0000
     6    6.2707    2.6437   -2.0076    1.3000
     7    5.9768    2.8856    1.3404    1.3000
     8    7.9096    0.4921   -0.0079    1.3000
     9    3.9117   -1.3984   -4.1406    1.3000
    10    5.9933   -3.1226   -2.1286    1.3000
    11    2.6728   -3.6196   -1.9307    1.3000
    12    1.6072    2.4767    1.6637    1.3000

          ----------------
          PROPERTIES INPUT
          ----------------

     MOMENTS            FIELD           POTENTIAL          DENSITY
 IEMOM =       1   IEFLD =       0   IEPOT =       0   IEDEN =       0
 WHERE =COMASS     WHERE =NUCLEI     WHERE =NUCLEI     WHERE =NUCLEI  
 OUTPUT=BOTH       OUTPUT=BOTH       OUTPUT=BOTH       OUTPUT=BOTH    
 IEMINT=       0   IEFINT=       0                     IEDINT=       0
                                                       MORB  =       0
          EXTRAPOLATION IN EFFECT
          SOSCF IN EFFECT
 ORBITAL PRINTING OPTION: NPREO=     1   137     2     1

     -------------------------------
     INTEGRAL TRANSFORMATION OPTIONS
     -------------------------------
     NWORD  =            0
     CUTOFF = 1.0E-09     MPTRAN =       0
     DIRTRF =       T     AOINTS =DUP     

          ----------------------
          INTEGRAL INPUT OPTIONS
          ----------------------
 NOPK  =       1 NORDER=       0 SCHWRZ=       T


 -----------------------------------------------
  STATISTICS ON AUTOMATIC COORDINATE GENERATION 
 -----------------------------------------------
  NUMBER OF USER SPECIFIED BONDS                             0
  NUMBER OF BONDS                                           11
  NUMBER OF ANGLES                                          18
  NUMBER OF TORSIONS                                        16
  NUMBER OF EXTRA COORD.                                     0
  NUMBER OF EXTRA COORD. FOR CONSTRAINTS                     0
  NUMBER OF CONSTRAINED COORD.                               0

  TOTAL NUMBER OF PRIMITIVES                                45
 -----------------------------------------------

   --- ENCODED Z MATRIX ---
 COORD  TYPE   I   J   K   L   M   N
    1      1    1   5
    2      1    2   5
    3      1    2   3
    4      1    2   4
    5      1    3   7
    6      1    3   8
    7      1    3   6
    8      1    4  11
    9      1    4  10
   10      1    4   9
   11      1    5  12
   12      2    1   5  12
   13      2    1   5   2
   14      2    2   4  10
   15      2    2   5  12
   16      2    2   4   9
   17      2    2   3   7
   18      2    2   3   6
   19      2    2   3   8
   20      2    2   4  11
   21      2    3   2   4
   22      2    3   2   5
   23      2    4   2   5
   24      2    6   3   8
   25      2    6   3   7
   26      2    7   3   8
   27      2    9   4  10
   28      2    9   4  11
   29      2   10   4  11
   30      3    1   5   2   3
   31      3    1   5   2   4
   32      3    3   2   5  12
   33      3    3   2   4  10
   34      3    3   2   4  11
   35      3    3   2   4   9
   36      3    4   2   3   8
   37      3    4   2   5  12
   38      3    4   2   3   6
   39      3    4   2   3   7
   40      3    5   2   4  11
   41      3    5   2   4   9
   42      3    5   2   3   8
   43      3    5   2   4  10
   44      3    5   2   3   6
   45      3    5   2   3   7

          INDEP./SYM. INTERNAL COORDINATES
          --------------------------------
 CRD  1=   0.1422 (  3) -0.2301 (  4) -0.2689 ( 13)  0.2684 ( 15)  0.1775 ( 17)
          -0.1838 ( 21)  0.5961 ( 22) -0.4239 ( 23) -0.1125 ( 33) -0.1294 ( 35)
          -0.1576 ( 38)  0.1241 ( 40)  0.1094 ( 42)  0.1115 ( 45)
 CRD  2=   0.1763 (  2) -0.2028 (  3)  0.1249 ( 13) -0.1952 ( 14)  0.1154 ( 17)
          -0.1164 ( 18) -0.1482 ( 19)  0.1810 ( 20) -0.6318 ( 21)  0.1709 ( 22)
           0.4435 ( 23) -0.1149 ( 30)  0.1476 ( 31) -0.1528 ( 32)  0.1056 ( 36)
           0.1098 ( 37) -0.1287 ( 44)
 CRD  3=   0.4431 (  2)  0.4705 (  3)  0.4544 (  4) -0.2175 ( 12)  0.1280 ( 13)
           0.2106 ( 16)  0.1515 ( 17)  0.2117 ( 18)  0.1335 ( 20) -0.1193 ( 24)
          -0.1564 ( 25) -0.1174 ( 26) -0.1180 ( 27) -0.1501 ( 28) -0.1121 ( 29)
 CRD  4=   0.1052 (  3)  0.1415 (  4)  0.3266 ( 14) -0.4316 ( 16)  0.1935 ( 17)
          -0.4553 ( 18)  0.3597 ( 19)  0.2344 ( 20) -0.1624 ( 26) -0.1686 ( 29)
          -0.1310 ( 30)  0.1937 ( 34)  0.1056 ( 35)  0.1039 ( 37) -0.1935 ( 39)
 CRD  5=   0.1471 (  1)  0.2508 (  3) -0.2970 (  4) -0.1548 ( 11)  0.3469 ( 13)
          -0.3102 ( 15) -0.4071 ( 16) -0.2644 ( 17)  0.3627 ( 18)  0.1228 ( 19)
           0.1913 ( 20) -0.1984 ( 24)  0.1879 ( 27) -0.1036 ( 36)
 CRD  6=  -0.2314 (  3)  0.2286 (  4) -0.1017 (  6)  0.1033 ( 11) -0.1308 ( 13)
           0.4237 ( 14)  0.1293 ( 15) -0.3175 ( 16)  0.2956 ( 18) -0.4551 ( 19)
           0.1110 ( 20)  0.1026 ( 24)  0.1792 ( 26) -0.1849 ( 29)  0.1184 ( 30)
           0.1158 ( 31)  0.1266 ( 32) -0.1033 ( 33)  0.1239 ( 37) -0.1060 ( 42)
          -0.1113 ( 43)
 CRD  7=  -0.4110 (  2)  0.1656 (  3)  0.1041 (  4)  0.1127 (  5)  0.1498 (  8)
          -0.1192 (  9)  0.2294 ( 12) -0.1233 ( 13) -0.3397 ( 14) -0.1063 ( 15)
           0.3517 ( 17) -0.2221 ( 19)  0.4890 ( 20) -0.1680 ( 25)  0.1492 ( 27)
          -0.1875 ( 28)
 CRD  8=   0.1602 (  1)  0.1252 (  5) -0.2031 ( 11)  0.3704 ( 13)  0.2561 ( 14)
          -0.3921 ( 15)  0.4484 ( 17) -0.1085 ( 18) -0.2775 ( 19) -0.3353 ( 20)
           0.1443 ( 24) -0.1452 ( 25) -0.1040 ( 27)  0.1197 ( 28)
 CRD  9=   0.1911 (  2) -0.1312 ( 12) -0.3255 ( 30) -0.3293 ( 31) -0.2326 ( 33)
          -0.2705 ( 34) -0.2170 ( 35)  0.1581 ( 36)  0.1268 ( 38)  0.1816 ( 39)
          -0.3181 ( 40) -0.2645 ( 41)  0.2016 ( 42) -0.2802 ( 43)  0.1703 ( 44)
           0.2252 ( 45)
 CRD 10=  -0.1032 ( 17) -0.1678 ( 30) -0.1643 ( 31) -0.2517 ( 32) -0.2128 ( 33)
          -0.1802 ( 34) -0.2039 ( 35) -0.3032 ( 36) -0.2482 ( 37) -0.2889 ( 38)
          -0.2887 ( 39) -0.1569 ( 40) -0.1806 ( 41) -0.2987 ( 42) -0.1895 ( 43)
          -0.2844 ( 44) -0.2843 ( 45)
 CRD 11=  -0.1421 (  3)  0.1281 (  6) -0.1770 (  7)  0.1368 ( 10)  0.1613 ( 13)
          -0.1044 ( 14) -0.1189 ( 15)  0.1504 ( 16) -0.2185 ( 18) -0.1289 ( 23)
           0.1006 ( 24)  0.1585 ( 25) -0.1220 ( 28)  0.3427 ( 30)  0.3202 ( 31)
           0.4072 ( 32) -0.1814 ( 33) -0.1158 ( 34) -0.1288 ( 35) -0.1017 ( 36)
           0.3847 ( 37) -0.1353 ( 43)
 CRD 12=  -0.3359 (  1)  0.3524 (  5)  0.3205 (  6)  0.3799 (  7) -0.3671 ( 11)
          -0.3389 ( 12)  0.1756 ( 13)  0.1596 ( 15) -0.1275 ( 17) -0.1569 ( 18)
          -0.1846 ( 19)  0.1863 ( 24)  0.1400 ( 25)  0.1640 ( 26)
 CRD 13=  -0.2493 (  1) -0.1612 (  5) -0.1843 (  6) -0.2085 (  7)  0.3909 (  8)
           0.3838 (  9)  0.4397 ( 10) -0.1013 ( 11) -0.1758 ( 12) -0.1815 ( 14)
           0.1459 ( 15) -0.1696 ( 16)  0.1346 ( 17) -0.1826 ( 20) -0.1152 ( 25)
          -0.1017 ( 26)  0.1794 ( 27)  0.1838 ( 28)  0.1908 ( 29)
 CRD 14=  -0.4038 (  1) -0.1082 (  2) -0.2730 (  5) -0.2725 (  6) -0.2649 (  7)
          -0.2587 (  8) -0.2588 (  9) -0.2513 ( 10) -0.3748 ( 11) -0.2966 ( 12)
           0.1344 ( 13)  0.1633 ( 15)  0.1069 ( 16)  0.1120 ( 18) -0.1087 ( 24)
          -0.1154 ( 25) -0.1044 ( 27) -0.1083 ( 28)
 CRD 15=  -0.5051 (  5)  0.2509 (  6)  0.2044 (  7) -0.3265 (  8)  0.1828 (  9)
           0.3511 ( 24) -0.1878 ( 25) -0.1598 ( 26)  0.2241 ( 27) -0.1482 ( 28)
           0.1130 ( 33) -0.1288 ( 35) -0.1924 ( 36)  0.1923 ( 38) -0.1271 ( 41)
          -0.1958 ( 42)  0.1147 ( 43)  0.1889 ( 44)
 CRD 16=  -0.2408 (  5) -0.2214 (  6)  0.4686 (  7)  0.3539 (  8) -0.1740 (  9)
          -0.1860 ( 10)  0.1678 ( 24)  0.1600 ( 25) -0.3345 ( 26) -0.2451 ( 27)
           0.1238 ( 28)  0.1232 ( 29) -0.1509 ( 33)  0.1232 ( 35) -0.1794 ( 36)
           0.1936 ( 39)  0.1305 ( 41) -0.1922 ( 42) -0.1436 ( 43)  0.1807 ( 45)
 CRD 17=  -0.1376 (  5)  0.4178 (  6) -0.2297 (  7)  0.3228 (  8) -0.3892 ( 10)
           0.1010 ( 24) -0.2812 ( 25)  0.1811 ( 26) -0.2275 ( 27)  0.2908 ( 29)
          -0.1730 ( 33)  0.1484 ( 34)  0.1256 ( 38) -0.1896 ( 39)  0.1252 ( 40)
          -0.1963 ( 43)  0.1415 ( 44) -0.1737 ( 45)
 CRD 18=   0.1268 (  5) -0.2722 (  6) -0.1200 (  8)  0.5394 (  9) -0.3617 ( 10)
           0.1640 ( 25) -0.3564 ( 28)  0.2651 ( 29)  0.2341 ( 34) -0.1652 ( 35)
          -0.1113 ( 38)  0.2319 ( 40) -0.1675 ( 41)
 CRD 19=  -0.2402 (  1) -0.2387 (  2)  0.1804 (  3)  0.1178 (  4)  0.1888 (  6)
           0.2541 (  7) -0.1275 (  8)  0.1727 (  9)  0.2211 ( 10) -0.1978 ( 11)
           0.2380 ( 12) -0.1115 ( 13)  0.1435 ( 14)  0.1288 ( 16)  0.1674 ( 18)
           0.1471 ( 19) -0.2442 ( 21)  0.1111 ( 23) -0.1921 ( 24) -0.1885 ( 27)
          -0.2903 ( 30)  0.1558 ( 32)  0.3524 ( 37) -0.1170 ( 43)
 CRD 20=  -0.2564 (  1)  0.1862 (  3) -0.2285 (  4)  0.3084 (  5) -0.2962 (  8)
          -0.1735 (  9) -0.1208 ( 10)  0.4054 ( 11) -0.1120 ( 14)  0.1444 ( 15)
          -0.1121 ( 16)  0.2171 ( 17) -0.2044 ( 20) -0.2010 ( 22)  0.1561 ( 23)
          -0.1669 ( 25) -0.1565 ( 26)  0.1547 ( 28)  0.2039 ( 29)  0.1287 ( 32)
           0.1250 ( 37) -0.1193 ( 42) -0.1014 ( 43)
 CRD 21=  -0.2746 (  1)  0.2791 (  6) -0.1570 (  7)  0.2294 (  9) -0.2137 ( 10)
          -0.1148 ( 11)  0.2194 ( 12) -0.1413 ( 13)  0.1074 ( 14) -0.1078 ( 15)
           0.1424 ( 19)  0.1194 ( 23) -0.1991 ( 26)  0.1465 ( 28) -0.1489 ( 29)
           0.3033 ( 30)  0.1571 ( 31) -0.1446 ( 32) -0.1343 ( 33) -0.2654 ( 34)
          -0.1513 ( 35)  0.1286 ( 36) -0.2908 ( 37)  0.1442 ( 38)  0.2635 ( 39)
 CRD 22=  -0.1227 (  1)  0.3554 (  2)  0.2222 (  3)  0.3166 (  4) -0.1063 (  5)
          -0.1589 (  6) -0.1035 (  7) -0.1722 (  8) -0.1963 (  9) -0.1422 ( 10)
          -0.3339 ( 11)  0.3225 ( 12) -0.2013 ( 13) -0.1810 ( 14) -0.1164 ( 15)
          -0.1722 ( 16) -0.1262 ( 17) -0.1188 ( 18) -0.1287 ( 19) -0.1699 ( 20)
           0.1417 ( 24)  0.1053 ( 25)  0.1444 ( 26)  0.1792 ( 27)  0.1626 ( 28)
           0.2020 ( 29)
 CRD 23=  -0.4753 (  1)  0.3538 (  3) -0.1623 (  4) -0.1845 (  5) -0.1225 (  6)
          -0.1628 (  7)  0.4456 ( 11)  0.1955 ( 13) -0.2240 ( 15) -0.1483 ( 17)
          -0.1701 ( 18) -0.1671 ( 19)  0.1088 ( 22)  0.1482 ( 24)  0.1929 ( 25)
           0.1658 ( 26)
 CRD 24=   0.2552 (  1) -0.5161 (  2)  0.2205 (  3)  0.3363 (  4) -0.1824 (  5)
           0.1099 (  6) -0.1322 (  7) -0.1793 (  8) -0.1975 ( 10)  0.1238 ( 11)
          -0.2791 ( 12)  0.1130 ( 13) -0.1068 ( 14)  0.1759 ( 15) -0.1003 ( 16)
          -0.1262 ( 20)  0.1990 ( 25)  0.2329 ( 28)  0.1017 ( 41) -0.1171 ( 44)
 CRD 25=  -0.2406 (  1) -0.3631 (  3)  0.3543 (  4) -0.1473 (  5)  0.1873 (  6)
           0.2159 (  7)  0.1385 (  8) -0.2283 (  9) -0.1557 ( 10)  0.2249 ( 11)
           0.1979 ( 13) -0.2168 ( 15)  0.1476 ( 17) -0.1375 ( 20)  0.1214 ( 22)
          -0.1304 ( 23) -0.2591 ( 24)  0.2481 ( 27) -0.1275 ( 35)  0.1263 ( 36)
          -0.1132 ( 38)  0.1829 ( 42)  0.1369 ( 43)
 CRD 26=  -0.1011 (  3)  0.2124 (  5) -0.2229 (  7)  0.2657 (  8) -0.2541 ( 10)
           0.1054 ( 24) -0.1979 ( 26)  0.1567 ( 27) -0.2082 ( 29) -0.2283 ( 30)
          -0.2852 ( 31)  0.2838 ( 32)  0.2315 ( 33) -0.2048 ( 36)  0.2268 ( 37)
          -0.2988 ( 42)  0.3299 ( 43) -0.1011 ( 44)
 CRD 27=   0.3107 (  6) -0.2567 (  7) -0.3022 (  9)  0.2695 ( 10)  0.1634 ( 14)
          -0.1652 ( 19) -0.1271 ( 22)  0.1323 ( 23)  0.2388 ( 25) -0.1599 ( 26)
          -0.2325 ( 28)  0.1702 ( 29)  0.2906 ( 34)  0.2891 ( 39)  0.2417 ( 40)
          -0.1342 ( 41) -0.1492 ( 44)  0.2389 ( 45)
 CRD 28=   0.1155 (  1)  0.2051 (  3) -0.2502 (  4) -0.3105 (  5)  0.1910 (  7)
           0.2342 (  8) -0.1426 ( 10) -0.1284 ( 11) -0.1473 ( 13)  0.1408 ( 15)
           0.1311 ( 16)  0.1525 ( 17) -0.1561 ( 18) -0.1970 ( 22)  0.1587 ( 23)
          -0.1683 ( 24)  0.1835 ( 26)  0.1047 ( 27) -0.1607 ( 29)  0.1471 ( 30)
           0.1215 ( 31)  0.1429 ( 32)  0.1325 ( 33) -0.1268 ( 35)  0.1743 ( 36)
           0.1174 ( 37) -0.1937 ( 38) -0.1397 ( 40) -0.1888 ( 41)  0.1017 ( 42)
          -0.2662 ( 44) -0.1628 ( 45)
 CRD 29=   0.2515 (  2) -0.1727 (  3) -0.1036 (  4) -0.1665 (  5)  0.2388 (  6)
          -0.2319 (  8)  0.2496 (  9) -0.1510 ( 14)  0.1597 ( 17) -0.1232 ( 19)
           0.1867 ( 20)  0.2572 ( 21) -0.1513 ( 23) -0.1570 ( 24)  0.1297 ( 25)
          -0.1876 ( 27)  0.1544 ( 28) -0.1552 ( 31)  0.1010 ( 32)  0.3249 ( 35)
          -0.2787 ( 38)  0.3192 ( 41) -0.2446 ( 44)
 CRD 30=   0.1342 (  7)  0.1465 ( 10) -0.1582 ( 16) -0.1480 ( 18)  0.1072 ( 19)
           0.1005 ( 29) -0.3536 ( 31)  0.3250 ( 32) -0.2978 ( 33) -0.2025 ( 35)
           0.2833 ( 36)  0.2244 ( 38)  0.3288 ( 40)  0.2015 ( 41) -0.1042 ( 42)
           0.1061 ( 43) -0.1630 ( 44) -0.3122 ( 45)

 THE DETERMINANT OF THE G MATRIX IS 10**(   -13)


                     --------------------
                     INTERNAL COORDINATES
                     --------------------

                 - - ATOMS - -         COORDINATE      COORDINATE
 NO.   TYPE    I  J  K  L  M  N        (BOHR,RAD)       (ANG,DEG)
 ----------------------------------------------------------------
   1 STRETCH   1  5                     2.2943418       1.2141135
   2 STRETCH   2  5                     2.7010987       1.4293600
   3 STRETCH   2  3                     2.7945517       1.4788132
   4 STRETCH   2  4                     2.7920089       1.4774676
   5 STRETCH   3  7                     2.0751688       1.0981321
   6 STRETCH   3  8                     2.0754580       1.0982851
   7 STRETCH   3  6                     2.0788774       1.1000946
   8 STRETCH   4 11                     2.0743216       1.0976838
   9 STRETCH   4 10                     2.0748346       1.0979553
  10 STRETCH   4  9                     2.0780744       1.0996697
  11 STRETCH   5 12                     2.0847145       1.1031835
  12 BEND      1  5 12                  2.1440227     122.8434541
  13 BEND      1  5  2                  2.1010576     120.3817340
  14 BEND      2  4 10                  1.9035091     109.0630402
  15 BEND      2  5 12                  2.0358178     116.6437679
  16 BEND      2  4  9                  1.9635876     112.5052825
  17 BEND      2  3  7                  1.9283957     110.4889367
  18 BEND      2  3  6                  1.9643512     112.5490326
  19 BEND      2  3  8                  1.9037767     109.0783697
  20 BEND      2  4 11                  1.9188713     109.9432270
  21 BEND      3  2  4                  1.9898643     114.0108237
  22 BEND      3  2  5                  2.0242917     115.9833682
  23 BEND      4  2  5                  2.0847732     119.4487043
  24 BEND      6  3  8                  1.8872403     108.1309016
  25 BEND      6  3  7                  1.8922614     108.4185892
  26 BEND      7  3  8                  1.8858127     108.0491062
  27 BEND      9  4 10                  1.8929675     108.4590513
  28 BEND      9  4 11                  1.8930968     108.4664547
  29 BEND     10  4 11                  1.8903068     108.3066019
  30 TORSION   1  5  2  3               2.7451951     157.2880909
  31 TORSION   1  5  2  4               0.2554003      14.6333595
  32 TORSION   3  2  5 12              -0.4669846     -26.7562495
  33 TORSION   3  2  4 10               0.9108246      52.1864029
  34 TORSION   3  2  4 11               2.9810368     170.8008265
  35 TORSION   3  2  4  9              -1.1902643     -68.1971226
  36 TORSION   4  2  3  8              -1.0150048     -58.1554911
  37 TORSION   4  2  5 12              -2.9567794    -169.4109808
  38 TORSION   4  2  3  6               1.0795493      61.8536170
  39 TORSION   4  2  3  7              -3.0855603    -176.7895844
  40 TORSION   5  2  4 11              -0.8002575     -45.8513772
  41 TORSION   5  2  4  9               1.3116267      75.1506738
  42 TORSION   5  2  3  8               2.7432052     157.1740820
  43 TORSION   5  2  4 10              -2.8704697    -164.4658008
  44 TORSION   5  2  3  6              -1.4454260     -82.8168099
  45 TORSION   5  2  3  7               0.6726497      38.5399887

     ------------------------------------------
     THE POINT GROUP IS C1 , NAXIS= 1, ORDER= 1
     ------------------------------------------

     DIMENSIONS OF THE SYMMETRY SUBSPACES ARE
 A   =  137

 ..... DONE SETTING UP THE RUN .....
 STEP CPU TIME =     0.01 TOTAL CPU TIME =        0.0 (    0.0 MIN)
 TOTAL WALL CLOCK TIME=        0.0 SECONDS, CPU UTILIZATION IS 100.00%


          -----------------------------
          STATIONARY POINT LOCATION RUN
          -----------------------------

 OBTAINING INITIAL HESSIAN, HESS=GUESS   
 DIAGONAL GUESS HESSIAN IN INTERNAL COORDS IS
     1  0.5479     2  0.3897     3  0.3540     4  0.3549     5  0.3409
     6  0.3408     7  0.3396     8  0.3412     9  0.3411    10  0.3399
    11  0.3376    12  0.2315    13  0.2572    14  0.2200    15  0.2225
    16  0.2199    17  0.2199    18  0.2198    19  0.2199    20  0.2200
    21  0.2399    22  0.2432    23  0.2433    24  0.2025    25  0.2025
    26  0.2026    27  0.2025    28  0.2025    29  0.2026    30  0.2500
    31  0.2500    32  0.2500    33  0.2500    34  0.2500    35  0.2500
    36  0.2500    37  0.2500    38  0.2500    39  0.2500    40  0.2500
    41  0.2500    42  0.2500    43  0.2500    44  0.2500    45  0.2500
 TRANSFORMING HESSIAN TO SYMMETRY COORDINATES

          PARAMETERS CONTROLLING GEOMETRY SEARCH ARE
          METHOD =QA                  UPHESS =BFGS    
          NNEG   =         0          NFRZ   =         3
          NSTEP  =        50          IFOLOW =         1
          HESS   =GUESS               RESTAR =         F
          IHREP  =         0          HSSEND =         F
          NPRT   =         0          NPUN   =         0
          OPTTOL = 5.000E-04          RMIN   = 1.500E-03
          RMAX   = 1.000E-01          RLIM   = 7.000E-02
          DXMAX  = 3.000E-01          PURIFY =         F
          MOVIE  =         F          TRUPD  =         T
          TRMAX  = 5.000E-01          TRMIN  = 5.000E-02
          ITBMAT =         5          STPT   =         F
          STSTEP = 1.000E-02          PROJCT=          F
          FROZEN COORD(S)=   1   2   3


      ***** EQUILIBRIUM GEOMETRY LOCATED *****
            (SUBJECT TO   3 CONSTRAINT(S))
 COORDINATES OF ALL ATOMS ARE (ANGS)
   ATOM   CHARGE       X              Y              Z
 ------------------------------------------------------------
 O           8.0  -0.1767929173  -0.1555120895  -0.0569774665
 N           7.0   2.0696082215  -0.0223649714  -0.2553814780
 C           6.0   3.2577501920   0.7877682932  -0.0714590062
 C           6.0   2.1839918963  -1.1453962764  -1.1653120214
 C           6.0   0.8790468517   0.3852178547   0.1753418580
 H           1.0   3.5543300824   1.2481285380  -1.0093395896
 H           1.0   3.0695420229   1.5634469527   0.6576116167
 H           1.0   4.0714203255   0.1657949476   0.2828919993
 H           1.0   2.2087074816  -0.8029840502  -2.1966435457
 H           1.0   3.1021709536  -1.6788608786  -0.9532040385
 H           1.0   1.3448124081  -1.8092370032  -1.0312474993
 H           1.0   0.9275595354   1.2768343218   0.7970718587


                     --------------------
                     INTERNAL COORDINATES
                     --------------------

                 - - ATOMS - -         COORDINATE      COORDINATE
 NO.   TYPE    I  J  K  L  M  N        (BOHR,RAD)       (ANG,DEG)
 ----------------------------------------------------------------
   1 STRETCH   1  5                     2.2842705       1.2087840
   2 STRETCH   2  5                     2.5134654       1.3300687
   3 STRETCH   2  3                     2.7396626       1.4497671
   4 STRETCH   2  4                     2.7399440       1.4499160
   5 STRETCH   3  7                     2.0428661       1.0810382
   6 STRETCH   3  8                     2.0479561       1.0837318
   7 STRETCH   3  6                     2.0523426       1.0860530
   8 STRETCH   4 11                     2.0378222       1.0783691
   9 STRETCH   4 10                     2.0463447       1.0828791
  10 STRETCH   4  9                     2.0540737       1.0869690
  11 STRETCH   5 12                     2.0561414       1.0880632
  12 BEND      1  5 12                  2.1121943     121.0198199
  13 BEND      1  5  2                  2.1926439     125.6292420
  14 BEND      2  4 10                  1.9023748     108.9980452
  15 BEND      2  5 12                  1.9782187     113.3435815
  16 BEND      2  4  9                  1.9318395     110.6862511
  17 BEND      2  3  7                  1.9217948     110.1107293
  18 BEND      2  3  6                  1.9295552     110.5553679
  19 BEND      2  3  8                  1.9135564     109.6387070
  20 BEND      2  4 11                  1.9149472     109.7183947
  21 BEND      3  2  4                  2.0350804     116.6015199
  22 BEND      3  2  5                  2.1191227     121.4167886
  23 BEND      4  2  5                  2.1073733     120.7435987
  24 BEND      6  3  8                  1.8971677     108.6997014
  25 BEND      6  3  7                  1.9026523     109.0139462
  26 BEND      7  3  8                  1.8986403     108.7840767
  27 BEND      9  4 10                  1.8983801     108.7691681
  28 BEND      9  4 11                  1.9066500     109.2429996
  29 BEND     10  4 11                  1.9094505     109.4034534
  30 TORSION   1  5  2  3               2.9983968     171.7954805
  31 TORSION   1  5  2  4               0.0862085       4.9393830
  32 TORSION   3  2  5 12              -0.1603681      -9.1884131
  33 TORSION   3  2  4 10               0.7980150      45.7228907
  34 TORSION   3  2  4 11               2.8885355     165.5008934
  35 TORSION   3  2  4  9              -1.2891721     -73.8641199
  36 TORSION   4  2  3  8              -1.0083769     -57.7757420
  37 TORSION   4  2  5 12              -3.0725563    -176.0445106
  38 TORSION   4  2  3  6               1.0829817      62.0502827
  39 TORSION   4  2  3  7              -3.0967219    -177.4290946
  40 TORSION   5  2  4 11              -0.4718337     -27.0340794
  41 TORSION   5  2  4  9               1.6336440      93.6009073
  42 TORSION   5  2  3  8               2.3535728     134.8497869
  43 TORSION   5  2  4 10              -2.5623542    -146.8120821
  44 TORSION   5  2  3  6              -1.8382539    -105.3241885
  45 TORSION   5  2  3  7               0.2652278      15.1964342

          INTERNUCLEAR DISTANCES (ANGS.)


 =====================================================
   GAMESS/COSab RESULTS
 =====================================================

   Dielectric Constant                  = INFTY
   Basic Grid Size                      =                 1082
   Number of Segments                   =                   92
   Number of Segments located on spheres=                  205
   Number of Segments of the cavity     =                  447
   Solvent Radius (rsolv)               = 1.40
   Outlying Charge Error Method         = double cavity

 =====================================================

  Total solvated Energy (a.u.)          =  -247.0708897239
  Total Energy corrected (a.u.)         =  -247.0705591002

  Outlying charge effect (a.u.)         =     0.0003306238
  Outlying charge effect (kcal/mol)     =     0.2074697219

  Dielectric Energy (a.u.)              =    -0.0192492741
  Dielectric energy corr. (a.u.)        =    -0.0189186504

  Sum of polarization charges           =     0.0168414023
  Sum of polarization charges(cor.)     =    -0.0168414023

  Total surface area of cavity (A**2)   =  115.21
  Total volume of cavity (A**3)         =  101.25

 =====================================================
 NPS=                   447
NR.  ATOM  (X, Y, Z)(a.u.)                  CHARGE(e)  AREA(A**2) SIGMA(e/A**2)
   1   1  -3.129323  -1.802740  -0.796606   0.005769   0.377948   0.015265
   2   1  -0.845109  -3.397969   0.709712   0.004130   0.206154   0.020033
   3   1  -2.032130   0.735129  -2.681086   0.005506   0.343589   0.016024
   4   1  -3.088261   1.332848   0.469293   0.006643   0.343589   0.019335
   5   1  -2.013054  -1.284972   2.492980   0.005198   0.309230   0.016810
   6   1  -2.508986  -2.702698  -0.286681   0.006492   0.412307   0.015747
   7   1  -1.552130  -3.306392  -0.031662   0.006256   0.343589   0.018209
   8   1  -2.495630  -2.226323  -1.576702   0.005550   0.343589   0.016153
   9   1  -1.776575  -2.252003  -2.263978   0.007360   0.377948   0.019473
  10   1  -3.100457  -0.969021  -1.674845   0.006374   0.412307   0.015460
  11   1  -2.812540   0.048651  -2.182425   0.005972   0.377948   0.015802
  12   1  -3.536797  -0.747086  -0.426849   0.006086   0.377948   0.016103
  13   1  -3.529536   0.264756   0.096387   0.006189   0.343589   0.018012
  14   1  -3.219831  -1.687768   0.434704   0.007603   0.481025   0.015806
  15   1  -2.807078  -1.574872   1.568028   0.006855   0.412307   0.016627
  16   1  -1.456735  -1.358541  -2.966141   0.006432   0.309230   0.020799
  17   1  -1.806079  -0.303928  -3.005571   0.004921   0.309230   0.015915
  18   1  -2.659775   1.274041  -1.750062   0.006864   0.412307   0.016647
  19   1  -3.048503   1.415749  -0.630872   0.007617   0.412307   0.018475
  20   1  -3.071535   0.681959   1.347906   0.007525   0.377948   0.019911
  21   1  -2.696804  -0.345436   2.123806   0.007755   0.412307   0.018808
  22   1  -1.740649  -2.225566   2.095681   0.007387   0.446666   0.016539
  23   1  -1.323621  -3.045461   1.311567   0.005004   0.309230   0.016181
  24   1  -0.595132   0.509745  -3.246259   0.002971   0.171795   0.017296
  25   1  -1.107233   1.007989  -2.983791   0.002823   0.240512   0.011739
  26   1  -1.680738   1.763594  -2.233229   0.006093   0.377948   0.016121
  27   1  -2.386833   2.217210   0.105098   0.006180   0.343589   0.017987
  28   1  -2.398001   1.714699   1.399133   0.007109   0.377948   0.018808
  29   1  -1.677585  -0.318364   2.851887   0.006488   0.377948   0.017166
  30   1  -1.003301  -1.453216   2.854198   0.004302   0.309230   0.013912
  31   1  -0.097680  -3.165702   1.396114   0.005082   0.309230   0.016435
  32   1  -1.738777  -3.017570  -1.190730   0.006376   0.309230   0.020618
  33   1  -2.395187  -1.128433  -2.478338   0.005518   0.343589   0.016060
  34   1  -3.371913   0.306780  -1.095323   0.006860   0.412307   0.016639
  35   1  -3.374409  -0.454982   1.030346   0.008043   0.446666   0.018006
  36   1  -2.284829  -2.663898   0.961080   0.006533   0.412307   0.015845
  37   1  -1.010362  -0.137592  -3.283033   0.003551   0.240512   0.014763
  38   1  -2.182740   2.205814  -1.055641   0.005103   0.343589   0.014851
  39   1  -2.250357   0.754851   2.299120   0.006538   0.377948   0.017299
  40   1  -0.485957  -2.559426   2.218018   0.005680   0.412307   0.013777
  41   2   4.174710  -2.206227   2.201961   0.000955   0.116683   0.008182
  42   2   4.796025  -1.994470   2.231209   0.001933   0.233365   0.008284
  43   2   4.551502  -1.228527   2.701996   0.000701   0.077788   0.009016
  44   3   5.712193  -0.271123   3.180120   0.000040   0.232280   0.000174
  45   3   8.381056   2.512446   2.743568   0.000295   0.418105   0.000705
  46   3   4.436598   4.516798  -1.603850   0.000133   0.185824   0.000715
  47   3   7.591964   4.965296   0.233703  -0.000369   0.325193  -0.001134
  48   3   9.872736   1.975918  -0.619347  -0.000266   0.371649  -0.000715
  49   3   6.496956  -0.587685   3.004549  -0.000016   0.278737  -0.000056
  50   3   5.446090   1.209152   3.566562  -0.000165   0.139368  -0.001181
  51   3   6.201064   0.544793   3.524388   0.000152   0.371649   0.000409
  52   3   7.288146   1.244700   3.462681   0.000466   0.325193   0.001433
  53   3   9.545372   2.231651  -1.633721  -0.000038   0.371649  -0.000102
  54   3   7.443683   4.952040  -0.929863   0.000130   0.371649   0.000351
  55   3   4.962789   4.509425  -2.067616   0.000106   0.185824   0.000570
  56   3   8.491177   0.362994  -2.885533   0.000105   0.232280   0.000451
  57   3   7.393698   2.163338   3.371786   0.000112   0.232280   0.000483
  58   3   8.157072   1.473588   3.071325   0.000308   0.278737   0.001106
  59   3   4.374215   3.734458  -2.597755  -0.000375   0.185824  -0.002018
  60   3   5.138563   4.958391  -1.234817   0.000172   0.185824   0.000924
  61   3   6.554523   5.239577  -0.372186   0.000291   0.325193   0.000895
  62   3   8.554861   4.396198  -0.412750  -0.000692   0.464561  -0.001489
  63   3   9.529050   3.162848  -0.459928  -0.000842   0.464561  -0.001813
  64   3   9.637080   0.979664  -1.516698   0.000394   0.371649   0.001059
  65   3   9.013097  -0.072711  -2.054618   0.000215   0.278737   0.000770
  66   3   4.534535   4.852639  -0.716353  -0.000248   0.185824  -0.001337
  67   3   8.351692   4.389256   0.890061  -0.000822   0.418105  -0.001967
  68   3   8.635788   3.510764   1.876740  -0.000723   0.418105  -0.001730
  69   3   9.232903   2.520923   1.802202  -0.000564   0.464561  -0.001214
  70   3   9.774750   2.336162   0.552309  -0.000626   0.371649  -0.001685
  71   3   6.464447  -1.294136   2.403732  -0.000095   0.139368  -0.000684
  72   3   6.239649   1.528401   3.643289   0.000048   0.232280   0.000208
  73   3   7.172753   0.253779   3.289299   0.000144   0.232280   0.000619
  74   3   9.049390   3.710306  -1.124109  -0.000513   0.278737  -0.001842
  75   3   5.911027   5.068922  -1.320711   0.000376   0.278737   0.001348
  76   3   4.387645   3.105300  -3.057835  -0.000040   0.046456  -0.000855
  77   3   9.150186   0.954229  -2.378910   0.000383   0.278737   0.001375
  78   3   5.464069   5.193186  -0.420720   0.000132   0.232280   0.000566
  79   3   9.223876   3.543724   0.671580  -0.001065   0.418105  -0.002546
  80   4   3.938861  -3.794031   1.202796   0.000040   0.185824   0.000217
  81   4   4.581958  -5.905152  -1.910907   0.000696   0.418105   0.001664
  82   4   6.445029  -4.145685  -4.435151  -0.000032   0.325193  -0.000099
  83   4   2.763450  -4.446259  -4.888766  -0.000085   0.325193  -0.000261
  84   4   3.177282  -4.249911   0.803389  -0.000123   0.278737  -0.000443
  85   4   5.231823  -3.720904   1.060018  -0.000013   0.371649  -0.000034
  86   4   4.249619  -4.502744   0.764671   0.000219   0.325193   0.000672
  87   4   4.212618  -5.373882  -0.207940   0.000682   0.325193   0.002097
  88   4   2.736000  -3.578301  -5.419271   0.000027   0.325193   0.000082
  89   4   6.234004  -3.239748  -5.149851   0.000294   0.371649   0.000792
  90   4   6.938470  -1.128964  -4.506099   0.000019   0.139368   0.000139
  91   4   1.536600  -1.009321  -4.699905   0.000296   0.232280   0.001275
  92   4   4.914019  -5.577564  -0.782265   0.000335   0.232280   0.001443
  93   4   3.892122  -5.756788  -1.051295   0.000389   0.278737   0.001395
  94   4   7.325973  -1.634255  -4.143904   0.000229   0.185824   0.001230
  95   4   7.038233  -3.065538  -4.437704   0.000424   0.325193   0.001303
  96   4   5.347063  -4.251006  -5.107702  -0.000463   0.464561  -0.000997
  97   4   3.824044  -4.636826  -5.044630  -0.000648   0.464561  -0.001395
  98   4   1.699042  -3.465480  -4.789778   0.000668   0.418105   0.001598
  99   4   1.272208  -2.319885  -4.673849   0.000610   0.278737   0.002188
 100   4   5.744243  -5.004168  -4.100905  -0.000578   0.418105  -0.001382
 101   4   5.096767  -5.695703  -3.137292  -0.000411   0.418105  -0.000983
 102   4   3.955572  -5.851727  -3.013935  -0.000330   0.464561  -0.000711
 103   4   3.275090  -5.412961  -3.935797  -0.000468   0.371649  -0.001260
 104   4   2.397694  -4.754488  -4.343410  -0.000287   0.232280  -0.001235
 105   4   5.023688  -4.752060   0.402674   0.000209   0.278737   0.000749
 106   4   3.351507  -4.974531   0.203361   0.000210   0.278737   0.000753
 107   4   4.362945  -3.961632  -5.518571  -0.000392   0.278737  -0.001406
 108   4   6.918426  -2.077650  -4.748759   0.000337   0.185824   0.001812
 109   4   1.767156  -2.283650  -5.151780   0.000212   0.185824   0.001139
 110   4   7.517251  -2.264482  -3.869857   0.000268   0.232280   0.001155
 111   4   4.557435  -5.282696  -4.293965  -0.000830   0.418105  -0.001985
 112   4   0.919669  -2.786671  -4.101924   0.000040   0.139368   0.000286
 113   5   0.757822   1.474381  -3.261853  -0.000177   0.232280  -0.000761
 114   5  -0.748800   3.485615  -0.602318  -0.000223   0.325193  -0.000685
 115   5  -0.796630   1.666613   3.044740   0.000249   0.185824   0.001342
 116   5   2.218272   0.125988   4.020727  -0.001912   0.371649  -0.005144
 117   5   2.347688   1.214451   4.015948  -0.002139   0.371649  -0.005755
 118   5  -0.589467   2.230557   2.969753  -0.000569   0.185824  -0.003061
 119   5  -0.309834   3.951903   0.255948  -0.001647   0.418105  -0.003938
 120   5   1.585636  -2.432909   2.401959  -0.000190   0.371649  -0.000511
 121   5   1.890893   4.073187  -1.412489  -0.002425   0.371649  -0.006524
 122   5   0.376427   4.033157  -0.976106  -0.001770   0.418105  -0.004232
 123   5  -1.070282   3.339114   0.404881  -0.000064   0.185824  -0.000345
 124   5  -1.061726   2.554253   2.211468  -0.000443   0.185824  -0.002386
 125   5  -0.206935   1.017879   3.604031  -0.000690   0.418105  -0.001650
 126   5   1.055040   0.621758   4.060371  -0.001971   0.464561  -0.004242
 127   5   3.213178   0.608312   3.775355  -0.001195   0.232280  -0.005145
 128   5   1.905286   3.244037  -2.478285  -0.001227   0.278737  -0.004403
 129   5   1.594554   2.412588  -3.051233  -0.001709   0.371649  -0.004599
 130   5   0.456826   2.467897  -2.800181  -0.000794   0.418105  -0.001899
 131   5  -0.216030   3.217987  -1.804118  -0.000776   0.464561  -0.001671
 132   5   1.032398  -1.683773   3.172553  -0.000204   0.371649  -0.000550
 133   5   1.564970  -0.854971   3.761994  -0.002526   0.511017  -0.004944
 134   5   2.981643  -0.770754   3.539840  -0.001732   0.511017  -0.003389
 135   5   0.666316   1.487394   3.897555  -0.001089   0.232280  -0.004690
 136   5  -1.063590   3.146285   1.337206  -0.000032   0.278737  -0.000116
 137   5   1.308019   4.391016  -0.529822  -0.002134   0.371649  -0.005743
 138   5   2.404461  -1.895683   2.948260  -0.001151   0.464561  -0.002478
 139   5   0.926275   3.512025  -2.116756  -0.002558   0.464561  -0.005505
 140   5   0.330588  -0.391134   3.687160  -0.000170   0.418105  -0.000406
 141   6   7.431205   3.537165  -3.941015  -0.003917   0.549575  -0.007128
 142   6   8.285094   1.662226  -3.665318  -0.001448   0.314043  -0.004612
 143   6   8.863983   3.121514  -2.825184  -0.001666   0.353299  -0.004714
 144   6   7.324458   4.651474  -2.546597  -0.001666   0.372926  -0.004466
 145   6   5.615649   3.947493  -3.423379  -0.001660   0.412182  -0.004027
 146   6   7.298980   2.270990  -4.292420  -0.003307   0.471065  -0.007020
 147   6   8.504604   2.575086  -3.578227  -0.002363   0.431809  -0.005472
 148   6   8.252419   4.030278  -2.846693  -0.002726   0.490692  -0.005556
 149   6   6.570887   4.420348  -3.235213  -0.002439   0.471065  -0.005177
 150   6   5.964315   3.124161  -4.117122  -0.003265   0.490692  -0.006653
 151   7   5.398051   4.695068   2.928940  -0.005518   0.608459  -0.009069
 152   7   6.550161   3.372366   3.544576  -0.002034   0.392554  -0.005182
 153   7   5.764917   5.406581   1.097754  -0.001487   0.294415  -0.005050
 154   7   7.202465   4.692998   2.266132  -0.002127   0.372926  -0.005702
 155   7   5.405370   3.329192   3.638216  -0.003843   0.510320  -0.007530
 156   7   4.942971   5.235008   1.556960  -0.003576   0.451437  -0.007922
 157   7   6.445356   5.253545   1.820343  -0.003128   0.471065  -0.006640
 158   7   6.797513   4.244641   3.080292  -0.003168   0.451437  -0.007019
 159   8   9.776995  -0.642274   1.419197  -0.003379   0.451437  -0.007485
 160   8   7.878975  -1.591981   2.074312  -0.002253   0.372926  -0.006041
 161   8   8.278160  -0.600231   2.738945  -0.001472   0.353299  -0.004166
 162   8   9.717163   0.681987   1.878254  -0.002016   0.392554  -0.005135
 163   8  10.018003  -0.089320  -0.151951  -0.001832   0.372926  -0.004912
 164   8   8.803168  -1.422842   1.872630  -0.002757   0.392554  -0.007023
 165   8   9.110357   0.015352   2.519506  -0.002457   0.471065  -0.005215
 166   8  10.132418   0.438825   0.804365  -0.002523   0.451437  -0.005588
 167   8   9.629277  -0.970094  -0.266739  -0.002631   0.412182  -0.006383
 168   8   9.306111  -1.511889   0.857723  -0.003116   0.392554  -0.007938
 169   9   3.888144  -0.931603  -6.519662  -0.003363   0.490692  -0.006853
 170   9   3.582924   0.571636  -5.300746  -0.002117   0.333671  -0.006346
 171   9   2.393816  -0.952319  -5.747064  -0.001197   0.353299  -0.003389
 172   9   3.559556  -2.538946  -6.299124  -0.001553   0.353299  -0.004396
 173   9   5.660996  -1.981554  -6.050547  -0.001428   0.372926  -0.003830
 174   9   5.882483  -0.748221  -5.739772  -0.002118   0.392554  -0.005395
 175   9   3.014545  -0.072606  -5.764637  -0.002439   0.451437  -0.005403
 176   9   2.910489  -1.701286  -6.249912  -0.002084   0.431809  -0.004827
 177   9   4.600485  -2.317025  -6.434407  -0.002518   0.471065  -0.005345
 178   9   5.070973  -0.983452  -6.374826  -0.002472   0.392554  -0.006298
 179   9   4.602513   0.124105  -5.927787  -0.003092   0.451437  -0.006849
 180  10   7.884370  -4.565861  -1.730760  -0.003217   0.431809  -0.007451
 181  10   6.268509  -5.387890  -0.820229  -0.001239   0.333671  -0.003714
 182  10   6.796331  -4.257049   0.195334  -0.001906   0.353299  -0.005394
 183  10   7.972172  -3.456084  -3.027278  -0.001701   0.372926  -0.004561
 184  10   6.884568  -5.212673  -2.711277  -0.001797   0.372926  -0.004819
 185  10   6.967508  -4.912632  -0.464971  -0.001997   0.333671  -0.005985
 186  10   7.819770  -4.153193  -0.686996  -0.003099   0.372926  -0.008310
 187  10   8.295143  -3.442980  -2.008864  -0.003370   0.412182  -0.008177
 188  10   7.555464  -4.474024  -3.015568  -0.002161   0.392554  -0.005506
 189  10   6.854136  -5.418076  -1.706046  -0.002612   0.431809  -0.006049
 190  11   0.722540  -5.070285  -1.965817  -0.004147   0.471065  -0.008804
 191  11   1.945610  -5.016644  -0.180249  -0.002089   0.372926  -0.005601
 192  11   2.049266  -5.804099  -2.271479  -0.002361   0.412182  -0.005728
 193  11   1.063694  -4.613032  -3.506309  -0.001553   0.294415  -0.005276
 194  11   1.119056  -5.111537  -0.877565  -0.002521   0.333671  -0.007554
 195  11   2.127452  -5.721606  -1.199316  -0.002515   0.451437  -0.005571
 196  11   1.488016  -5.349196  -3.044157  -0.002540   0.412182  -0.006161
 197  11   0.490863  -4.114871  -3.109130  -0.002119   0.353299  -0.005997
 198  12   1.729940   4.515397   2.776676  -0.005811   0.549575  -0.010574
 199  12   2.224199   2.795485   3.886697  -0.003420   0.392554  -0.008713
 200  12   0.123257   3.564543   2.939172  -0.002961   0.372926  -0.007940
 201  12   0.751118   4.648433   1.321971  -0.002895   0.412182  -0.007025
 202  12   2.144500   3.759583   3.523198  -0.003326   0.333671  -0.009967
 203  12   0.996451   3.268069   3.681485  -0.004478   0.529948  -0.008450
 204  12   0.429576   4.321381   2.307322  -0.004122   0.451437  -0.009130
 205  12   1.928757   4.858858   1.360256  -0.005366   0.549575  -0.009764
 206   1   0.371600   0.348722  -3.332459   0.001205   0.089534   0.013463
 207   4   1.175873   0.025649  -3.751850   0.000110   0.089534   0.001224
 208   5   0.715804   0.552927  -3.370417   0.000367   0.089534   0.004101
 209   1   1.097230  -3.027909   1.228941   0.001053   0.089534   0.011757
 210   4   1.912076  -3.400187   0.876019   0.000001   0.089534   0.000011
 211   5   1.468607  -2.950148   1.361793   0.000380   0.089534   0.004242
 212   1   1.191184  -3.311123   0.851831   0.000809   0.081287   0.009952
 213   4   1.992316  -3.769826   0.580992  -0.000289   0.081287  -0.003550
 214  11   1.774462  -3.906301   0.422593  -0.000280   0.081287  -0.003447
 215   1  -0.191376  -2.334312  -2.965500   0.002125   0.081287   0.026142
 216   4   0.527013  -2.734556  -3.464796   0.000112   0.081287   0.001373
 217  11   0.431664  -2.957583  -3.284953  -0.000006   0.081287  -0.000068
 218   4   2.064017  -3.791871   0.794632   0.000036   0.009372   0.003802
 219   1   0.903183  -3.194935   1.241561   0.000134   0.008411   0.015875
 220   4   0.565871  -2.156260  -3.857296   0.001596   0.443790   0.003596
 221   4   1.063697  -0.653072  -4.139452   0.000744   0.443790   0.001676
 222   1  -0.260699  -0.912849  -3.275759   0.014022   0.806445   0.017388
 223   5   0.244207   1.191674  -3.139279   0.001012   0.155062   0.006528
 224   5  -0.576274   2.348039  -2.101931   0.002338   0.302296   0.007733
 225   5  -1.282304   2.886496  -0.146536   0.002648   0.302296   0.008761
 226   5  -1.356907   2.163874   1.874414   0.002781   0.302296   0.009201
 227   5  -0.767839   0.492494   3.087456   0.002640   0.302296   0.008733
 228   5   0.230303  -1.405268   2.968309   0.002321   0.302296   0.007676
 229   5   1.061059  -2.609450   1.995556   0.001123   0.155062   0.007239
 230   1  -0.552236   1.346364  -2.783211   0.003963   0.308047   0.012865
 231   1  -1.438486   2.419685  -1.253680   0.004315   0.308047   0.014006
 232   1  -1.836473   2.325793   0.773563   0.004770   0.308047   0.015486
 233   1  -1.574185   1.105269   2.422336   0.005011   0.308047   0.016266
 234   1  -0.764985  -0.714372   2.980032   0.003898   0.308047   0.012655
 235   1   0.241389  -2.346674   2.205613   0.003861   0.308047   0.012534
 236  11   1.420678  -4.176126   0.265597  -0.000279   0.228696  -0.001218
 237  11   0.597614  -4.388883  -0.658725  -0.000931   0.460846  -0.002021
 238  11   0.092618  -4.032091  -2.053050  -0.000701   0.460846  -0.001521
 239  11   0.208681  -3.319821  -3.080801   0.000226   0.228696   0.000987
 240   1   0.182863  -3.537771   0.602752   0.007675   0.559890   0.013709
 241   1  -0.736127  -3.558444  -0.797433   0.009713   0.559890   0.017347
 242   1  -0.862971  -2.798864  -2.284860   0.010153   0.559890   0.018135
 243   2   5.645241  -2.197680   1.623988   0.000237   0.058652   0.004045
 244   3   6.047676  -1.941119   1.693551  -0.000006   0.058652  -0.000106
 245   4   5.693345  -2.579040   1.332588   0.000036   0.058652   0.000610
 246   2   3.358080   2.209804  -3.068564   0.000034   0.051164   0.000671
 247   3   3.747684   2.489130  -3.018159  -0.000041   0.051164  -0.000796
 248   5   2.962762   2.357997  -2.939828  -0.000067   0.051164  -0.001314
 249   2   4.479814  -0.782017   2.863133   0.000298   0.051164   0.005817
 250   3   4.874345  -0.515831   2.939587   0.000209   0.051164   0.004084
 251   5   4.090584  -0.650062   3.024063   0.000196   0.051164   0.003832
 252   2   3.762146   1.683208  -3.522560  -0.000034   0.100634  -0.000334
 253   3   4.159072   1.955893  -3.474598  -0.000202   0.100634  -0.002007
 254   9   3.864465   1.181443  -4.096911  -0.000396   0.100634  -0.003937
 255   3   5.644674  -1.001730   2.581628   0.000351   0.312007   0.001126
 256   2   5.259658  -1.583820   2.218774   0.001652   0.297630   0.005551
 257   3   4.169821   2.486974  -3.257568  -0.000100   0.048390  -0.002067
 258   2   3.594980   2.097569  -3.242897   0.000072   0.046153   0.001567
 259   2   3.489648  -2.588346   1.842687   0.000421   0.051526   0.008169
 260   4   3.523654  -2.971556   1.552144   0.000212   0.051526   0.004114
 261   5   3.093616  -2.469109   1.996864   0.000270   0.051526   0.005236
 262   4   4.826636  -3.070134   1.340025   0.000224   0.309799   0.000725
 263   2   4.392957  -2.554922   1.744191   0.001713   0.295523   0.005796
 264   2   3.089639   1.546881  -3.474172   0.000037   0.079631   0.000469
 265   5   2.691147   1.679523  -3.336595  -0.000040   0.079631  -0.000498
 266   9   3.209093   1.040524  -4.039623  -0.000262   0.079631  -0.003289
 267   5   2.535293   2.242739  -3.068360  -0.000109   0.051342  -0.002115
 268   2   3.078113   1.951426  -3.232587   0.000077   0.048988   0.001579
 269   5   3.253320  -1.689910   2.637752   0.000465   0.298147   0.001560
 270   2   3.974055  -1.532110   2.540306   0.002041   0.284530   0.007174
 271   9   3.516411   0.923667  -4.530689  -0.000293   0.060531  -0.004843
 272   2   3.426606   1.607302  -3.641313   0.000129   0.077970   0.001654
 273   3   7.749778   0.338334  -3.403000  -0.000300   0.061221  -0.004903
 274   4   7.337116  -0.294210  -3.703529  -0.000338   0.061221  -0.005521
 275   6   7.712630   0.613087  -3.527718  -0.000310   0.061221  -0.005059
 276   3   6.536274  -1.861536   1.652060  -0.000257   0.063716  -0.004037
 277   4   6.164530  -2.448972   1.230509  -0.000215   0.063716  -0.003368
 278   8   6.838088  -1.857714   1.624116  -0.000386   0.063716  -0.006057
 279   3   8.158757  -1.078105  -2.444901  -0.000408   0.067516  -0.006049
 280   4   7.869368  -1.727689  -2.839539  -0.000361   0.067516  -0.005344
 281  10   7.950474  -1.967536  -2.672908  -0.000388   0.067516  -0.005743
 282   4   7.576879  -1.081627  -3.553476  -0.000648   0.392248  -0.001653
 283   3   8.201952  -0.349357  -2.843593  -0.000696   0.392248  -0.001775
 284   4   5.848367  -2.844743   1.259242  -0.000002   0.043273  -0.000057
 285   3   6.325836  -1.928439   1.788775   0.000067   0.043273   0.001558
 286   3   4.766668   1.801836   3.412477  -0.000577   0.067383  -0.008569
 287   5   3.979523   1.664620   3.426377  -0.000896   0.067383  -0.013295
 288   7   4.770633   2.104008   3.420215  -0.000626   0.067383  -0.009293
 289   3   3.504688   4.454657  -0.080442  -0.000853   0.068216  -0.012506
 290   5   2.711475   4.388082  -0.009469  -0.000786   0.068216  -0.011526
 291  12   2.676829   4.458631   0.285951  -0.000862   0.068216  -0.012642
 292   5   3.820496   0.208191   3.382026  -0.002052   0.579752  -0.003540
 293   3   4.876865   0.816087   3.350704  -0.001951   0.579752  -0.003365
 294   5   2.705714   4.336465  -0.629054  -0.002088   0.314436  -0.006642
 295   5   2.712712   3.343313  -2.181483  -0.003424   0.631208  -0.005424
 296   3   3.817293   4.186362  -1.364593  -0.002903   0.631208  -0.004599
 297   3   3.855037   3.066320  -2.827643  -0.000266   0.314436  -0.000847
 298   3   4.574453   2.157402  -3.575080  -0.000353   0.089823  -0.003930
 299   6   4.835826   2.257028  -3.698607  -0.000502   0.089823  -0.005587
 300   9   4.311065   1.331160  -4.138175  -0.000348   0.089823  -0.003870
 301   6   4.971148   2.996343  -3.516181  -0.000434   0.066813  -0.006500
 302   6   5.222330   3.905017  -2.990723  -0.000779   0.147344  -0.005287
 303   6   6.093915   4.641413  -2.353638  -0.000630   0.147344  -0.004275
 304   6   7.332719   4.686206  -1.939904  -0.000828   0.147344  -0.005621
 305   6   8.457784   4.022006  -1.910150  -0.000934   0.147344  -0.006341
 306   6   9.032310   2.906684  -2.275929  -0.000909   0.147344  -0.006170
 307   6   8.833241   1.773256  -2.895228  -0.000680   0.147344  -0.004615
 308   6   8.179798   1.102064  -3.431324  -0.000343   0.066813  -0.005135
 309   3   4.701082   3.278522  -3.075334  -0.000788   0.147413  -0.005346
 310   3   5.314540   4.389178  -2.336171  -0.000588   0.147413  -0.003992
 311   3   6.562303   4.851054  -1.714876  -0.000489   0.147413  -0.003319
 312   3   7.959935   4.484831  -1.452665  -0.000758   0.147413  -0.005143
 313   3   8.964814   3.432693  -1.651339  -0.000798   0.147413  -0.005414
 314   3   9.186803   2.103125  -2.233764  -0.000583   0.147413  -0.003953
 315   3   8.539715   1.012323  -2.973817  -0.000553   0.147413  -0.003754
 316   3   4.048187   4.673792   0.329809  -0.000658   0.077292  -0.008508
 317   7   4.107837   4.740409   0.619322  -0.000770   0.077292  -0.009959
 318  12   3.227108   4.554888   0.691848  -0.001108   0.077292  -0.014331
 319   7   5.387241   2.322338   3.580150  -0.000524   0.068011  -0.007706
 320   7   6.449762   2.624083   3.533396  -0.000946   0.151006  -0.006263
 321   7   7.406906   3.375983   2.980504  -0.001039   0.151006  -0.006881
 322   7   7.618704   4.306914   2.044730  -0.001101   0.151006  -0.007294
 323   7   6.998149   5.034439   1.110501  -0.001053   0.151006  -0.006973
 324   7   5.800172   5.259680   0.561610  -0.001007   0.151006  -0.006669
 325   7   4.718081   5.037335   0.518836  -0.000453   0.068011  -0.006656
 326   3   5.890425   2.009123   3.552371  -0.000891   0.149033  -0.005981
 327   3   7.234371   2.611519   3.258392  -0.000739   0.149033  -0.004962
 328   3   7.927531   3.609405   2.375642  -0.000971   0.149033  -0.006513
 329   3   7.685146   4.592837   1.266766  -0.001034   0.149033  -0.006938
 330   3   6.606791   5.157809   0.387304  -0.000808   0.149033  -0.005420
 331   3   5.135468   5.072224   0.098550  -0.000847   0.149033  -0.005682
 332   3   8.673894  -1.043855  -1.550378  -0.000381   0.082473  -0.004619
 333   8   8.791439  -1.130854  -1.283314  -0.000510   0.082473  -0.006180
 334  10   8.318127  -1.887096  -1.769312  -0.000624   0.082473  -0.007562
 335   8   9.276057  -0.617613  -1.097820  -0.000370   0.068414  -0.005415
 336   8   9.772847   0.275336  -0.671227  -0.000849   0.151824  -0.005589
 337   8   9.956805   1.105369   0.363262  -0.000992   0.151824  -0.006531
 338   8   9.577786   1.329934   1.627729  -0.001015   0.151824  -0.006687
 339   8   8.791464   0.856794   2.602818  -0.000751   0.151824  -0.004948
 340   8   7.920807  -0.119717   2.888029  -0.000770   0.151824  -0.005070
 341   8   7.323421  -1.198515   2.366216  -0.000921   0.151824  -0.006064
 342   3   9.345316  -0.062786  -1.301722  -0.000608   0.150015  -0.004053
 343   3   9.852509   1.078461  -0.463195  -0.000771   0.150015  -0.005140
 344   3   9.736842   1.703811   0.900027  -0.000912   0.150015  -0.006081
 345   3   9.045824   1.556412   2.228027  -0.000735   0.150015  -0.004899
 346   3   8.063277   0.696806   2.975353  -0.000547   0.150015  -0.003649
 347   3   7.192765  -0.521940   2.835054  -0.000661   0.150015  -0.004407
 348   3   6.775690  -1.451854   2.160538  -0.000351   0.083583  -0.004205
 349   9   3.874744   1.055537  -4.545941  -0.000090   0.024193  -0.003712
 350   3   4.324417   2.200787  -3.643177   0.000120   0.034500   0.003470
 351  10   8.161745  -2.205250  -2.433926  -0.000687   0.164338  -0.004180
 352   3   8.645563  -0.967712  -2.009006  -0.000163   0.232177  -0.000701
 353  12   2.695850   4.628748   0.592423  -0.000562   0.079493  -0.007067
 354   3   3.885987   4.737447  -0.011843  -0.000267   0.112081  -0.002381
 355   4   2.121193   0.353848  -4.214908  -0.000094   0.022070  -0.004240
 356   5   1.731570   0.810984  -3.694592  -0.000089   0.022070  -0.004043
 357   9   2.306001   0.284627  -4.443990  -0.000106   0.022070  -0.004823
 358   5   1.155196   0.971382  -3.532564  -0.000026   0.189238  -0.000139
 359   4   1.664339   0.153908  -4.152693  -0.000109   0.189238  -0.000577
 360   5   2.150542  -2.812083   1.755850   0.000143   0.405672   0.000353
 361   4   3.019766  -3.429797   1.258144  -0.000037   0.405672  -0.000092
 362   4   6.614098  -0.306073  -4.452845  -0.000283   0.081720  -0.003463
 363   6   6.917512   0.578765  -4.109985  -0.000451   0.081720  -0.005513
 364   9   6.408290  -0.284023  -4.677555  -0.000379   0.081720  -0.004634
 365   6   7.620220   0.866304  -3.822183  -0.000587   0.176987  -0.003315
 366   4   7.041892  -0.410244  -4.286081  -0.000002   0.251280  -0.000008
 367   4   6.385825  -3.018734   0.797680  -0.000463   0.086392  -0.005362
 368   8   7.006691  -2.325054   1.099276  -0.000602   0.086392  -0.006971
 369  10   6.617016  -3.146801   0.646667  -0.000605   0.086392  -0.007007
 370   8   7.121248  -1.969628   1.634218  -0.000300   0.093242  -0.003213
 371   4   6.219098  -2.966989   1.103915   0.000038   0.132180   0.000287
 372   9   6.335724  -0.906454  -5.140882  -0.000324   0.071401  -0.004531
 373   9   6.103928  -1.970923  -5.499855  -0.000720   0.159579  -0.004513
 374   9   5.149798  -2.916222  -5.836576  -0.000909   0.159579  -0.005695
 375   9   3.777903  -3.082071  -5.924523  -0.000944   0.159579  -0.005914
 376   9   2.592114  -2.395468  -5.724985  -0.000672   0.159579  -0.004211
 377   9   2.114384  -1.158635  -5.325791  -0.000741   0.159579  -0.004645
 378   9   2.347322  -0.094399  -4.966868  -0.000315   0.071401  -0.004415
 379   4   6.528174  -1.454898  -4.964739  -0.000473   0.155542  -0.003043
 380   4   5.890942  -2.796585  -5.425470  -0.000638   0.155542  -0.004105
 381   4   4.506354  -3.458007  -5.678258  -0.000807   0.155542  -0.005190
 382   4   2.983870  -3.148023  -5.611832  -0.000624   0.155542  -0.004014
 383   4   1.993644  -2.003080  -5.255432  -0.000402   0.155542  -0.002583
 384   4   1.971549  -0.527151  -4.765934  -0.000700   0.155542  -0.004501
 385  10   6.350453  -3.828514   0.513291  -0.000437   0.070737  -0.006174
 386  10   5.929696  -4.758153  -0.003434  -0.000761   0.158209  -0.004813
 387  10   5.777004  -5.484007  -1.168081  -0.000839   0.158209  -0.005305
 388  10   6.105872  -5.450987  -2.508729  -0.000961   0.158209  -0.006077
 389  10   6.771621  -4.673620  -3.435583  -0.001009   0.158209  -0.006381
 390  10   7.481365  -3.493894  -3.540892  -0.000865   0.158209  -0.005471
 391  10   7.902068  -2.564299  -3.024044  -0.000442   0.070737  -0.006253
 392   4   5.805924  -4.090989   0.512996  -0.000768   0.153947  -0.004986
 393   4   5.377488  -5.216741  -0.463749  -0.000525   0.153947  -0.003411
 394   4   5.482355  -5.629144  -1.955002  -0.000731   0.153947  -0.004747
 395   4   6.074391  -5.146769  -3.304711  -0.000910   0.153947  -0.005913
 396   4   6.893140  -3.981828  -3.919096  -0.000748   0.153947  -0.004861
 397   4   7.578407  -2.646816  -3.527869  -0.000700   0.153947  -0.004548
 398  11   0.763940  -3.465344  -3.642607  -0.000236   0.068520  -0.003442
 399  11   1.421867  -4.341525  -3.862894  -0.000919   0.152650  -0.006017
 400  11   2.255032  -5.303300  -3.410105  -0.000999   0.152650  -0.006543
 401  11   2.814745  -5.782226  -2.278051  -0.000913   0.152650  -0.005981
 402  11   2.864959  -5.576324  -0.944156  -0.000754   0.152650  -0.004942
 403  11   2.384496  -4.772430   0.029037  -0.000797   0.152650  -0.005223
 404   4   1.194803  -3.556316  -4.043131  -0.000546   0.149639  -0.003650
 405   4   2.138040  -4.744435  -4.022134  -0.000767   0.149639  -0.005128
 406   4   2.965166  -5.599959  -3.081014  -0.000841   0.149639  -0.005623
 407   4   3.327356  -5.762087  -1.616672  -0.000604   0.149639  -0.004037
 408   4   3.071863  -5.162445  -0.246666  -0.000574   0.149639  -0.003839
 409   4   2.514245  -4.315676   0.455872  -0.000365   0.083712  -0.004364
 410   5   3.400007   2.026787   3.508803  -0.000933   0.078125  -0.011937
 411   7   4.195805   2.438824   3.383326  -0.001066   0.078125  -0.013644
 412  12   3.309660   2.319570   3.509564  -0.000921   0.078125  -0.011789
 413   7   4.718338   2.418348   3.518524  -0.000444   0.072047  -0.006157
 414   5   3.573676   1.738322   3.655500  -0.000431   0.101581  -0.004246
 415   9   2.707443   0.552860  -4.606230  -0.000841   0.333138  -0.002526
 416   5   2.056961   1.572825  -3.547784  -0.000228   0.477270  -0.000477
 417  12   2.029066   4.596601   0.415030  -0.000680   0.069072  -0.009852
 418  12   0.944868   4.502213   0.634984  -0.001513   0.153164  -0.009879
 419  12  -0.036634   4.014727   1.410661  -0.001560   0.153164  -0.010184
 420  12  -0.261586   3.265880   2.502123  -0.001578   0.153164  -0.010302
 421  12   0.362404   2.563241   3.461080  -0.001558   0.153164  -0.010169
 422  12   1.579050   2.195402   3.893666  -0.001538   0.153164  -0.010043
 423  12   2.682411   2.220084   3.772181  -0.000798   0.069072  -0.011557
 424   5   1.561443   4.450939   0.071810  -0.001676   0.151610  -0.011055
 425   5   0.187861   4.146513   0.615556  -0.001471   0.151610  -0.009700
 426   5  -0.527535   3.413400   1.722721  -0.001420   0.151610  -0.009369
 427   5  -0.290915   2.552707   2.938566  -0.001404   0.151610  -0.009263
 428   5   0.800535   1.917941   3.763714  -0.001457   0.151610  -0.009611
 429   5   2.298530   1.769816   3.859259  -0.001600   0.151610  -0.010554
 430   9   4.287618   1.109254  -4.801427  -0.000444   0.279062  -0.001593
 431   9   5.309826   0.649115  -5.165040  -0.001576   0.557831  -0.002825
 432   9   6.258629  -0.040274  -5.049420  -0.000238   0.279062  -0.000853
 433   6   5.491902   2.193003  -4.249356  -0.001667   0.557831  -0.002988
 434   6   6.721362   1.475961  -4.404047  -0.001656   0.557831  -0.002968
 435  12   3.263868   2.745185   3.622936  -0.001370   0.209537  -0.006539
 436  12   3.102001   3.761748   3.225944  -0.003888   0.419271  -0.009273
 437  12   2.922218   4.597514   2.182230  -0.003899   0.419271  -0.009299
 438  12   2.828646   4.768417   1.096302  -0.001364   0.209537  -0.006511
 439   7   4.476297   3.313113   3.414034  -0.003160   0.419271  -0.007538
 440   7   4.279147   4.433996   2.689521  -0.003508   0.419271  -0.008368
 441   7   4.134853   4.900396   1.431818  -0.002999   0.419271  -0.007153
 442  10   8.439259  -2.512917  -1.741007  -0.000850   0.243185  -0.003497
 443  10   8.244951  -3.069999  -0.757308  -0.002579   0.486412  -0.005303
 444  10   7.378541  -3.329388   0.309139  -0.002277   0.486412  -0.004682
 445   8   8.972600  -1.634237  -0.627105  -0.002017   0.486412  -0.004146
 446   8   8.473745  -2.170354   0.564104  -0.002434   0.486412  -0.005004
 447   8   7.614753  -2.227003   1.322183  -0.000817   0.243185  -0.003362
 =====================================================

              1719302  WORDS OF DYNAMIC MEMORY USED
 EXECUTION OF GAMESS TERMINATED NORMALLY Thu Nov 24 22:37:08 2016
 DDI: 263640 bytes (0.3 MB / 0 MWords) used by master data server.

 ----------------------------------------
 CPU timing information for all processes
 ========================================
 0: 715.764 + 0.440 = 716.204
 ----------------------------------------
 ddikick.x: exited gracefully.
