----- GAMESS execution script -----

          ******************************************************
          *         GAMESS VERSION =  5 DEC 2014 (R1)          *
          *             FROM IOWA STATE UNIVERSITY             *
          * M.W.SCHMIDT, K.K.BALDRIDGE, J.A.BOATZ, S.T.ELBERT, *
          *   M.S.GORDON, J.H.JENSEN, S.KOSEKI, N.MATSUNAGA,   *
          *          K.A.NGUYEN, S.J.SU, T.L.WINDUS,           *
          *       TOGETHER WITH M.DUPUIS, J.A.MONTGOMERY       *
          *         J.COMPUT.CHEM.  14, 1347-1363(1993)        *
          **************** 64 BIT LINUX VERSION ****************

 EXECUTION OF GAMESS BEGUN Fri Nov 25 00:05:15 2016

            ECHO OF THE FIRST FEW INPUT CARDS -
 INPUT CARD>! SELECT RESTRICTED HARTREE-FOCK AS DEFAULT                                     
 INPUT CARD>$contrl scftyp=rhf $end                                                         
 INPUT CARD>                                                                                
 INPUT CARD>! THEORY: HF OR DFT                                                             
 INPUT CARD> $contrl mplevl=0 $end                                                          
 INPUT CARD>                                                                                
 INPUT CARD> $system timlim=10000 mwords=20 $end                                            
 INPUT CARD> $SCF DIRSCF=.TRUE. $end                                                        
 INPUT CARD>                                                                                
 INPUT CARD>                                                                                
 INPUT CARD>! BASIS SETS                                                                    
 INPUT CARD>! 6-311G(d,p)                                                                   
 INPUT CARD> $BASIS GBASIS=N311 NGAUSS=6 NDFUNC=1 NPFUNC=1 $END                             
 INPUT CARD>                                                                                
 INPUT CARD>! One of the following                                                          
 INPUT CARD> $guess guess=HUCKEL $end                                                       
 INPUT CARD>                                                                                
 INPUT CARD> $statpt projct=.FALSE. $end                                                    
 INPUT CARD> $STATPT IFREEZ(1)=1,2,3 $END                                                   
 INPUT CARD>                                                                                
 INPUT CARD>! Optimize the geometry with COSMO effects                                      
 INPUT CARD> $statpt opttol=0.0005 nstep=50 $end                                            
 INPUT CARD> $contrl nzvar=1 $end                                                           
 INPUT CARD> $zmat dlc=.t. auto=.t. $end                                                    
 INPUT CARD> $contrl runtyp=OPTIMIZE maxit=200 $end                                         
 INPUT CARD>                                                                                
 INPUT CARD>! Run COSMO on perfect conductor                                                
 INPUT CARD> $COSGMS PRFCND=.TRUE. $end                                                     
 INPUT CARD>                                                                                
 INPUT CARD>! Specifying RSOLV                                                              
 INPUT CARD> $COSGMS COSRAD = 1.4 $end                                                      
 INPUT CARD>                                                                                
 INPUT CARD>! available memory                                                              
 INPUT CARD> $SYSTEM MWORDS=40 $END                                                         
 INPUT CARD>                                                                                
 INPUT CARD> $DATA                                                                          
 INPUT CARD>Butanoic acid, ID: C107926                                                      
 INPUT CARD>C1                                                                              
 INPUT CARD>C      6.0      3.4057000000    1.8922000000    1.6847000000                    
 INPUT CARD>C      6.0      4.6993000000    1.3329000000    1.1549000000                    
 INPUT CARD>C      6.0      2.1503000000    1.2627000000    1.1037000000                    
 INPUT CARD>O      8.0      4.6276000000    0.2556000000    0.3391000000                    
 INPUT CARD>O      8.0      5.8306000000    1.7309000000    1.3762000000                    
 INPUT CARD>C      6.0      0.9097000000    1.9095000000    1.6789000000                    
 INPUT CARD>H      1.0      3.4147000000    1.7744000000    2.7880000000                    
 INPUT CARD>H      1.0      3.4050000000    2.9864000000    1.5011000000                    
 INPUT CARD>H      1.0      2.1505000000    1.3594000000    0.0000000000                    
 INPUT CARD>H      1.0      2.1380000000    0.1739000000    1.3082000000                    
 INPUT CARD>H      1.0      5.5056000000    0.0000000000    0.0723000000                    
 INPUT CARD>H      1.0      0.0000000000    1.4538000000    1.2674000000                    
   40000000 WORDS OF MEMORY AVAILABLE

     BASIS OPTIONS
     -------------
     GBASIS=N311         IGAUSS=       6      POLAR=POPN311 
     NDFUNC=       1     NFFUNC=       0     DIFFSP=       F
     NPFUNC=       1      DIFFS=       F     BASNAM=        


     RUN TITLE
     ---------
 Butanoic acid, ID: C107926                                                      

 THE POINT GROUP OF THE MOLECULE IS C1      
 THE ORDER OF THE PRINCIPAL AXIS IS     0

 ATOM      ATOMIC                      COORDINATES (BOHR)
           CHARGE         X                   Y                   Z
 C           6.0     6.4358397964        3.5757395140        3.1836213715
 C           6.0     8.8803893341        2.5188157690        2.1824445432
 C           6.0     4.0634777914        2.3861570047        2.0856905726
 O           8.0     8.7448959808        0.4830139625        0.6408060824
 O           8.0    11.0182363440        3.2709267121        2.6006409043
 C           6.0     1.7190837310        3.6084317736        3.1726609608
 H           1.0     6.4528473303        3.3531297926        5.2685560538
 H           1.0     6.4345169882        5.6434776897        2.8366676802
 H           1.0     4.0638557366        2.5688935077        0.0000000000
 H           1.0     4.0402341617        0.3286233493        2.4721395371
 H           1.0    10.4040753980        0.0000000000        0.1366271889
 H           1.0     0.0000000000        2.7472836410        2.3950387168
 H           1.0     1.6340460616        3.4073649285        5.2364307120
 H           1.0     1.6421718833        5.6383754296        2.7474726135

          INTERNUCLEAR DISTANCES (ANGS.)




     $CONTRL OPTIONS
     ---------------
 SCFTYP=RHF          RUNTYP=OPTIMIZE     EXETYP=RUN     
 MPLEVL=       0     CITYP =NONE         CCTYP =NONE         VBTYP =NONE    
 DFTTYP=NONE         TDDFT =NONE    
 MULT  =       1     ICHARG=       0     NZVAR =       1     COORD =UNIQUE  
 PP    =NONE         RELWFN=NONE         LOCAL =NONE         NUMGRD=       F
 ISPHER=      -1     NOSYM =       0     MAXIT =     200     UNITS =ANGS    
 PLTORB=       F     MOLPLT=       F     AIMPAC=       F     FRIEND=        
 NPRINT=       7     IREST =       0     GEOM  =INPUT   
 NORMF =       0     NORMP =       0     ITOL  =      20     ICUT  =       9
 INTTYP=BEST         GRDTYP=BEST         QMTTOL= 1.0E-06

     $SYSTEM OPTIONS
     ---------------
  REPLICATED MEMORY=    40000000 WORDS (ON EVERY NODE).
 DISTRIBUTED MEMDDI=           0 MILLION WORDS IN AGGREGATE,
 MEMDDI DISTRIBUTED OVER   1 PROCESSORS IS           0 WORDS/PROCESSOR.
 TOTAL MEMORY REQUESTED ON EACH PROCESSOR=    40000000 WORDS.
 TIMLIM=       10000.00 MINUTES, OR       6.9 DAYS.
 PARALL= F  BALTYP=  DLB     KDIAG=    0  COREFL= F
 MXSEQ2=     300 MXSEQ3=     150  mem10=         0

     $COSGMS OPTIONS
     ---------------
     EPSI  =   INFTY     NSPA  =      92     COSRAD=    1.40
     DISEX =   10.00     OUTCHG=DBLCAV       COSBUG=       F
     COSWRT=       F     DCOSMO=       F

     SYMMETRY COORDINATES WILL NOT BE USED FOR 
     THE COSMO CALCULATION, EVEN IF SPECIFIED:
         -- SWITCHING TO C1 POINT GROUP --


     DEFINITION OF CAVITY
     ---------------------------
     ATOM         COORDINATES           RADIUS 
     1    6.4358    3.5757    3.1836    2.0000
     2    8.8804    2.5188    2.1824    2.0000
     3    4.0635    2.3862    2.0857    2.0000
     4    8.7449    0.4830    0.6408    1.7200
     5   11.0182    3.2709    2.6006    1.7200
     6    1.7191    3.6084    3.1727    2.0000
     7    6.4528    3.3531    5.2686    1.3000
     8    6.4345    5.6435    2.8367    1.3000
     9    4.0639    2.5689    0.0000    1.3000
    10    4.0402    0.3286    2.4721    1.3000
    11   10.4041    0.0000    0.1366    1.3000
    12    0.0000    2.7473    2.3950    1.3000
    13    1.6340    3.4074    5.2364    1.3000
    14    1.6422    5.6384    2.7475    1.3000

          ----------------
          PROPERTIES INPUT
          ----------------

     MOMENTS            FIELD           POTENTIAL          DENSITY
 IEMOM =       1   IEFLD =       0   IEPOT =       0   IEDEN =       0
 WHERE =COMASS     WHERE =NUCLEI     WHERE =NUCLEI     WHERE =NUCLEI  
 OUTPUT=BOTH       OUTPUT=BOTH       OUTPUT=BOTH       OUTPUT=BOTH    
 IEMINT=       0   IEFINT=       0                     IEDINT=       0
                                                       MORB  =       0
          EXTRAPOLATION IN EFFECT
          SOSCF IN EFFECT
 ORBITAL PRINTING OPTION: NPREO=     1   162     2     1

     -------------------------------
     INTEGRAL TRANSFORMATION OPTIONS
     -------------------------------
     NWORD  =            0
     CUTOFF = 1.0E-09     MPTRAN =       0
     DIRTRF =       T     AOINTS =DUP     

          ----------------------
          INTEGRAL INPUT OPTIONS
          ----------------------
 NOPK  =       1 NORDER=       0 SCHWRZ=       T


 -----------------------------------------------
  STATISTICS ON AUTOMATIC COORDINATE GENERATION 
 -----------------------------------------------
  NUMBER OF USER SPECIFIED BONDS                             0
  NUMBER OF BONDS                                           13
  NUMBER OF ANGLES                                          22
  NUMBER OF TORSIONS                                        26
  NUMBER OF EXTRA COORD.                                     0
  NUMBER OF EXTRA COORD. FOR CONSTRAINTS                     0
  NUMBER OF CONSTRAINED COORD.                               0

  TOTAL NUMBER OF PRIMITIVES                                61
 -----------------------------------------------

   --- ENCODED Z MATRIX ---
 COORD  TYPE   I   J   K   L   M   N
    1      1    1   8
    2      1    1   7
    3      1    1   3
    4      1    1   2
    5      1    2   4
    6      1    2   5
    7      1    3   6
    8      1    3  10
    9      1    3   9
   10      1    4  11
   11      1    6  14
   12      1    6  13
   13      1    6  12
   14      2    1   3  10
   15      2    1   3   6
   16      2    1   3   9
   17      2    1   2   4
   18      2    1   2   5
   19      2    2   1   8
   20      2    2   1   3
   21      2    2   4  11
   22      2    2   1   7
   23      2    3   6  12
   24      2    3   1   8
   25      2    3   1   7
   26      2    3   6  13
   27      2    3   6  14
   28      2    4   2   5
   29      2    6   3   9
   30      2    6   3  10
   31      2    7   1   8
   32      2    9   3  10
   33      2   12   6  13
   34      2   12   6  14
   35      2   13   6  14
   36      3    1   3   6  14
   37      3    1   3   6  12
   38      3    1   3   6  13
   39      3    1   2   4  11
   40      3    2   1   3  10
   41      3    2   1   3   6
   42      3    2   1   3   9
   43      3    3   1   2   4
   44      3    3   1   2   5
   45      3    4   2   1   7
   46      3    4   2   1   8
   47      3    5   2   4  11
   48      3    5   2   1   7
   49      3    5   2   1   8
   50      3    6   3   1   7
   51      3    6   3   1   8
   52      3    7   1   3   9
   53      3    7   1   3  10
   54      3    8   1   3  10
   55      3    8   1   3   9
   56      3    9   3   6  14
   57      3    9   3   6  13
   58      3    9   3   6  12
   59      3   10   3   6  14
   60      3   10   3   6  13
   61      3   10   3   6  12

          INDEP./SYM. INTERNAL COORDINATES
          --------------------------------
 CRD  1=   0.1489 ( 14) -0.4043 ( 15)  0.1497 ( 16)  0.3304 ( 17) -0.2047 ( 18)
          -0.1897 ( 19)  0.6101 ( 20) -0.1079 ( 21) -0.1830 ( 22)  0.1042 ( 23)
          -0.1904 ( 24) -0.1832 ( 25) -0.1258 ( 28)  0.1028 ( 30)
 CRD  2=  -0.2644 (  3) -0.2837 (  4) -0.2817 (  7)  0.1651 ( 14) -0.5754 ( 15)
           0.1623 ( 16) -0.2649 ( 17)  0.1191 ( 19) -0.2138 ( 20)  0.1064 ( 22)
          -0.1445 ( 26) -0.1329 ( 27)  0.1938 ( 28)  0.2003 ( 29)  0.1928 ( 30)
          -0.1152 ( 32)
 CRD  3=   0.2056 ( 19) -0.2372 ( 22) -0.1300 ( 24)  0.1109 ( 25) -0.2628 ( 26)
           0.2751 ( 27)  0.1851 ( 29) -0.1968 ( 30)  0.2361 ( 39) -0.2401 ( 40)
          -0.4258 ( 41) -0.2418 ( 42) -0.1822 ( 43) -0.1918 ( 45) -0.1989 ( 46)
          -0.2280 ( 50) -0.2268 ( 51)
 CRD  4=   0.4395 (  3)  0.2369 (  6)  0.2628 (  7) -0.1007 ( 10)  0.1091 ( 16)
          -0.4496 ( 17)  0.1033 ( 18) -0.1499 ( 19)  0.1922 ( 20)  0.3105 ( 21)
           0.2508 ( 23)  0.3464 ( 28) -0.1124 ( 33) -0.1150 ( 34)
 CRD  5=  -0.2287 ( 14)  0.2183 ( 16) -0.1152 ( 19)  0.1440 ( 22)  0.3026 ( 24)
          -0.3102 ( 25) -0.2635 ( 26)  0.2664 ( 27)  0.1141 ( 33)  0.2445 ( 36)
           0.3082 ( 37)  0.2376 ( 38) -0.1386 ( 41)  0.3284 ( 43)  0.3150 ( 44)
 CRD  6=  -0.2822 (  3)  0.2632 (  4)  0.5004 (  5)  0.1970 ( 10) -0.2771 ( 18)
           0.5841 ( 21)  0.1033 ( 22) -0.1025 ( 25)  0.1981 ( 28)
 CRD  7=   0.3682 (  4)  0.4011 (  7) -0.1625 ( 15)  0.3046 ( 18)  0.1698 ( 19)
          -0.2129 ( 20) -0.1011 ( 21)  0.1723 ( 22)  0.3802 ( 23) -0.3351 ( 28)
           0.1608 ( 29)  0.1510 ( 30) -0.1652 ( 33) -0.1712 ( 34) -0.1096 ( 53)
           0.1105 ( 55)
 CRD  8=   0.1052 (  1)  0.3190 (  3)  0.4509 (  4)  0.1588 (  6) -0.4669 (  7)
           0.1306 ( 14)  0.1328 ( 16)  0.2457 ( 18)  0.1273 ( 21) -0.1475 ( 26)
          -0.1881 ( 27) -0.2003 ( 28) -0.1258 ( 29) -0.1164 ( 30)  0.1173 ( 33)
           0.1328 ( 34)  0.1835 ( 35) -0.1393 ( 52)  0.1389 ( 54)
 CRD  9=  -0.2188 (  3)  0.1361 (  4) -0.1483 (  5)  0.1762 (  6)  0.1006 ( 12)
          -0.1282 ( 13)  0.1213 ( 16) -0.2757 ( 17)  0.3145 ( 18)  0.1168 ( 19)
           0.1798 ( 20) -0.4026 ( 23) -0.1991 ( 24) -0.1587 ( 25)  0.3940 ( 26)
           0.1119 ( 30)  0.1097 ( 31)  0.1363 ( 34) -0.2088 ( 35)  0.1015 ( 36)
          -0.1325 ( 45)
 CRD 10=  -0.1129 (  6) -0.2833 ( 14)  0.2377 ( 16)  0.1413 ( 17) -0.1312 ( 18)
           0.1873 ( 19) -0.2118 ( 22)  0.1921 ( 23)  0.1447 ( 25)  0.1615 ( 26)
          -0.3865 ( 27) -0.2360 ( 29)  0.2313 ( 30) -0.1404 ( 33)  0.1025 ( 35)
           0.1732 ( 36)  0.1366 ( 37)  0.1980 ( 38)  0.1734 ( 39) -0.2190 ( 40)
          -0.2106 ( 42) -0.1575 ( 46)  0.1292 ( 50)
 CRD 11=   0.1678 (  1) -0.1854 (  2) -0.1986 ( 11)  0.1833 ( 12)  0.1554 ( 14)
          -0.1872 ( 16) -0.1305 ( 19)  0.1206 ( 22)  0.2307 ( 24) -0.2383 ( 25)
           0.3332 ( 26) -0.3870 ( 27)  0.2230 ( 29) -0.2276 ( 30) -0.2031 ( 33)
           0.1900 ( 34) -0.2017 ( 41)  0.1884 ( 43)  0.2191 ( 44) -0.1832 ( 50)
          -0.1871 ( 51)
 CRD 12=   0.1688 (  1)  0.1295 (  2)  0.3692 (  3) -0.1172 (  6)  0.1405 (  7)
           0.1936 (  8)  0.2244 (  9) -0.1289 ( 13)  0.1564 ( 14) -0.2766 ( 15)
           0.1612 ( 16)  0.1544 ( 17) -0.1008 ( 18) -0.2339 ( 20) -0.3162 ( 23)
           0.1831 ( 24)  0.1578 ( 25)  0.2680 ( 26)  0.1977 ( 27) -0.1526 ( 31)
          -0.1648 ( 32) -0.2355 ( 35)
 CRD 13=  -0.1578 (  1)  0.1751 (  2) -0.2616 ( 19)  0.2699 ( 22)  0.2255 ( 24)
          -0.2186 ( 25)  0.2767 ( 39)  0.1042 ( 41) -0.2558 ( 43) -0.1803 ( 44)
          -0.3407 ( 45) -0.3411 ( 46)  0.2110 ( 47) -0.2653 ( 48) -0.2657 ( 49)
          -0.1225 ( 52) -0.1235 ( 53) -0.1215 ( 54) -0.1205 ( 55)
 CRD 14=   0.3417 (  1) -0.3390 (  2)  0.4622 (  8) -0.4561 (  9)  0.1075 ( 11)
          -0.1031 ( 12)  0.1237 ( 24) -0.1131 ( 25) -0.1274 ( 29)  0.1325 ( 30)
          -0.1491 ( 36) -0.1802 ( 37) -0.1486 ( 38)  0.1463 ( 39) -0.1318 ( 40)
          -0.1293 ( 42)  0.1481 ( 44) -0.1035 ( 46)  0.1478 ( 50)  0.1447 ( 51)
 CRD 15=  -0.1741 (  7) -0.5033 ( 11) -0.5040 ( 12) -0.4789 ( 13)  0.1935 ( 23)
           0.1768 ( 26)  0.1773 ( 27) -0.1990 ( 33) -0.1995 ( 34) -0.1889 ( 35)
 CRD 16=   0.5987 (  1)  0.5838 (  2)  0.1196 (  6) -0.1206 ( 10)  0.1060 ( 13)
          -0.1858 ( 21)  0.1254 ( 28)  0.2331 ( 31) -0.1246 ( 45)  0.1242 ( 46)
          -0.1225 ( 48)  0.1263 ( 49)
 CRD 17=   0.1664 (  8)  0.1664 (  9)  0.2896 ( 11)  0.2926 ( 12) -0.6274 ( 13)
          -0.1566 ( 33) -0.1582 ( 34)  0.3241 ( 35)  0.1704 ( 36) -0.1690 ( 38)
           0.1871 ( 56) -0.1523 ( 57)  0.1543 ( 59) -0.1851 ( 60)
 CRD 18=  -0.5498 ( 11)  0.5470 ( 12)  0.2936 ( 33) -0.2920 ( 34) -0.2343 ( 37)
          -0.2306 ( 58) -0.2307 ( 61)
 CRD 19=  -0.5880 (  8) -0.5885 (  9)  0.1341 ( 11)  0.1359 ( 12) -0.1499 ( 13)
          -0.2399 ( 32)  0.1026 ( 52) -0.1033 ( 54) -0.1554 ( 57) -0.1057 ( 58)
           0.1549 ( 59)  0.1045 ( 61)
 CRD 20=  -0.1130 (  1) -0.1636 (  2)  0.1820 (  4)  0.3281 (  5)  0.5259 (  6)
          -0.2229 ( 10) -0.2560 ( 18) -0.5396 ( 21)  0.2493 ( 28) -0.1426 ( 31)
 CRD 21=   0.1378 (  1) -0.1451 (  2)  0.1457 ( 14) -0.1465 ( 16)  0.1460 ( 29)
          -0.1437 ( 30)  0.1588 ( 36)  0.1143 ( 37)  0.1595 ( 38)  0.2328 ( 39)
           0.1453 ( 40)  0.1467 ( 42) -0.1430 ( 45) -0.1502 ( 46)  0.1745 ( 47)
           0.1568 ( 50)  0.1583 ( 51)  0.2414 ( 52)  0.2401 ( 53)  0.2416 ( 54)
           0.2429 ( 55)  0.2454 ( 56)  0.2461 ( 57)  0.2009 ( 58)  0.2449 ( 59)
           0.2456 ( 60)  0.2003 ( 61)
 CRD 22=   0.3826 (  1) -0.3883 (  2) -0.3556 (  8)  0.3549 (  9) -0.1849 ( 39)
          -0.1447 ( 44) -0.1067 ( 45) -0.1179 ( 47) -0.1835 ( 48) -0.1720 ( 49)
           0.1190 ( 52)  0.1221 ( 53)  0.1205 ( 54)  0.1175 ( 55) -0.1585 ( 56)
          -0.1593 ( 57) -0.1692 ( 58) -0.1562 ( 59) -0.1570 ( 60) -0.1669 ( 61)
 CRD 23=   0.1334 (  1) -0.1466 (  2)  0.1351 (  8) -0.1366 (  9)  0.1241 ( 36)
           0.1422 ( 37)  0.1221 ( 38) -0.5126 ( 39) -0.1004 ( 40) -0.1081 ( 42)
          -0.1200 ( 43) -0.2383 ( 44) -0.1053 ( 45) -0.4097 ( 47) -0.2235 ( 48)
          -0.2019 ( 49) -0.1327 ( 52) -0.1250 ( 53) -0.1216 ( 54) -0.1293 ( 55)
           0.1472 ( 56)  0.1452 ( 57)  0.1653 ( 58)  0.1545 ( 59)  0.1525 ( 60)
           0.1725 ( 61)
 CRD 24=   0.2416 (  4) -0.1565 (  5) -0.4373 (  6) -0.7253 ( 10) -0.1852 ( 18)
           0.1256 ( 19)  0.1254 ( 22)  0.1378 ( 28) -0.1245 ( 52)  0.1263 ( 54)
 CRD 25=   0.1645 (  4) -0.1527 (  5)  0.2351 (  6) -0.3668 ( 10) -0.1134 ( 11)
          -0.1117 ( 12) -0.2319 ( 13) -0.1634 ( 14) -0.1612 ( 16)  0.1249 ( 17)
          -0.1672 ( 19)  0.2579 ( 21) -0.1693 ( 22) -0.1653 ( 23)  0.1587 ( 24)
           0.1639 ( 25) -0.1227 ( 26) -0.1222 ( 27) -0.1419 ( 28)  0.1860 ( 29)
           0.1896 ( 30)  0.1779 ( 33)  0.1794 ( 34) -0.1182 ( 40)  0.1098 ( 42)
          -0.1046 ( 46)  0.1014 ( 48)  0.1855 ( 52) -0.1943 ( 54)  0.1253 ( 57)
          -0.1199 ( 59)
 CRD 26=   0.1943 (  3)  0.1448 (  4) -0.3328 (  6)  0.2758 (  7)  0.2849 ( 10)
          -0.1980 ( 11) -0.1977 ( 12) -0.2222 ( 13) -0.1748 ( 17) -0.2374 ( 21)
          -0.2055 ( 23) -0.1047 ( 24) -0.1071 ( 25) -0.1964 ( 26) -0.1973 ( 27)
           0.2631 ( 28)  0.2209 ( 33)  0.2209 ( 34)  0.2009 ( 35) -0.1184 ( 53)
           0.1248 ( 55)
 CRD 27=  -0.1108 (  1) -0.2264 (  4)  0.7068 (  5) -0.2126 (  6) -0.3113 ( 10)
           0.2908 ( 18) -0.2684 ( 28)  0.1525 ( 31)
 CRD 28=   0.2846 (  4)  0.1391 (  5) -0.3382 (  6) -0.3495 (  7) -0.1037 (  9)
           0.1663 ( 11)  0.2029 ( 12) -0.1428 ( 14) -0.1423 ( 16) -0.2190 ( 17)
          -0.1089 ( 19) -0.1870 ( 21) -0.1431 ( 22)  0.1043 ( 23)  0.1060 ( 24)
           0.1126 ( 26)  0.1007 ( 27)  0.1385 ( 28)  0.1244 ( 29)  0.1054 ( 32)
          -0.2372 ( 35) -0.1500 ( 46) -0.1231 ( 47)  0.1136 ( 52)  0.1686 ( 57)
           0.1034 ( 58) -0.2342 ( 59) -0.1435 ( 61)
 CRD 29=  -0.2534 (  1)  0.2688 (  2)  0.1007 (  7)  0.2184 (  8) -0.1835 (  9)
          -0.1623 ( 11)  0.1179 ( 19) -0.1130 ( 30) -0.1591 ( 39) -0.1049 ( 43)
           0.1439 ( 44) -0.2613 ( 45) -0.2417 ( 46) -0.3758 ( 47)  0.1084 ( 51)
           0.1897 ( 52)  0.2049 ( 53)  0.2366 ( 54)  0.2213 ( 55) -0.1567 ( 56)
          -0.2098 ( 57) -0.1362 ( 60)
 CRD 30=   0.1039 (  2) -0.1221 (  3) -0.1568 (  8)  0.2173 (  9)  0.2342 ( 11)
          -0.3242 ( 12)  0.1575 ( 14)  0.1376 ( 24)  0.1837 ( 33) -0.2366 ( 34)
          -0.2940 ( 37) -0.1026 ( 40)  0.2623 ( 44) -0.1272 ( 45) -0.1859 ( 46)
          -0.2992 ( 47)  0.1794 ( 48)  0.1206 ( 49)  0.1857 ( 56) -0.1706 ( 58)
           0.2515 ( 59)  0.1617 ( 60) -0.1048 ( 61)
 CRD 31=  -0.2705 (  3)  0.3336 (  4) -0.1434 (  6) -0.1172 (  7)  0.1847 (  8)
          -0.1877 ( 11)  0.2938 ( 13)  0.1107 ( 16) -0.1469 ( 19) -0.1505 ( 22)
           0.1200 ( 25) -0.2215 ( 32) -0.1795 ( 33)  0.1809 ( 35)  0.1470 ( 36)
          -0.1548 ( 38)  0.1136 ( 42) -0.1198 ( 51)  0.2040 ( 52) -0.1893 ( 54)
          -0.3000 ( 57)  0.2165 ( 59)  0.1466 ( 61)
 CRD 32=  -0.2217 (  1) -0.1660 (  2)  0.3426 (  3) -0.1297 (  5)  0.1194 (  6)
          -0.3217 (  7)  0.1079 (  9)  0.1003 ( 11)  0.1779 ( 17) -0.1811 ( 18)
           0.1082 ( 19) -0.1181 ( 20) -0.1410 ( 24) -0.1714 ( 25)  0.1234 ( 29)
           0.1116 ( 30)  0.2791 ( 31) -0.1524 ( 32) -0.1505 ( 40)  0.1116 ( 42)
          -0.2391 ( 45)  0.1802 ( 46) -0.1967 ( 48)  0.2226 ( 49)  0.2147 ( 52)
          -0.2035 ( 54)
 CRD 33=   0.1243 (  1)  0.1129 (  2)  0.1934 (  3) -0.2587 (  4) -0.2059 (  7)
           0.2607 ( 13) -0.1650 ( 14) -0.1651 ( 16)  0.1415 ( 20) -0.1359 ( 23)
           0.1027 ( 26)  0.1033 ( 27)  0.1619 ( 29)  0.1642 ( 30) -0.1787 ( 31)
          -0.1158 ( 33) -0.1149 ( 34)  0.1534 ( 35)  0.1693 ( 36) -0.1701 ( 38)
          -0.1595 ( 50)  0.1565 ( 51) -0.2492 ( 53)  0.2433 ( 55)  0.2740 ( 56)
           0.1050 ( 58) -0.2731 ( 60) -0.1026 ( 61)
 CRD 34=  -0.1068 (  1)  0.1089 (  2)  0.1351 (  8) -0.1609 (  9)  0.1902 ( 11)
          -0.2039 ( 12)  0.1025 ( 19) -0.1214 ( 22)  0.1506 ( 26) -0.1430 ( 27)
           0.1391 ( 29) -0.1399 ( 30)  0.1426 ( 33) -0.1482 ( 34)  0.1652 ( 36)
          -0.1274 ( 37)  0.1472 ( 38) -0.1035 ( 39) -0.2577 ( 41)  0.2001 ( 43)
          -0.2012 ( 44)  0.1111 ( 45)  0.1001 ( 46)  0.2460 ( 47) -0.2903 ( 48)
          -0.3012 ( 49) -0.1000 ( 50) -0.1098 ( 51)  0.1160 ( 53)  0.1061 ( 54)
          -0.2622 ( 58) -0.2853 ( 61)
 CRD 35=  -0.1145 (  1) -0.1152 (  2)  0.2165 (  3)  0.1333 (  4)  0.1674 (  7)
          -0.1863 (  8) -0.1661 (  9)  0.1360 ( 13) -0.2470 ( 15) -0.1783 ( 20)
          -0.1635 ( 23)  0.1657 ( 31)  0.2629 ( 32)  0.1252 ( 35)  0.1121 ( 36)
          -0.1322 ( 38)  0.1578 ( 40) -0.1618 ( 42)  0.1029 ( 49)  0.1365 ( 50)
          -0.1169 ( 51)  0.2829 ( 53) -0.2900 ( 55)  0.2851 ( 56)  0.1770 ( 58)
          -0.2833 ( 60) -0.1471 ( 61)
 CRD 36=  -0.1719 (  1)  0.1814 (  2) -0.1586 (  8)  0.1594 (  9)  0.1441 ( 14)
          -0.1436 ( 16)  0.1223 ( 19) -0.1259 ( 22)  0.1456 ( 24) -0.1456 ( 25)
          -0.1115 ( 29)  0.1107 ( 30) -0.2246 ( 36) -0.2251 ( 38) -0.1216 ( 39)
          -0.2715 ( 40) -0.2710 ( 42)  0.3189 ( 43)  0.1329 ( 47) -0.2528 ( 48)
          -0.2626 ( 49)  0.2386 ( 50)  0.2469 ( 51)  0.1717 ( 58)  0.1728 ( 61)

 THE DETERMINANT OF THE G MATRIX IS 10**(   -15)


                     --------------------
                     INTERNAL COORDINATES
                     --------------------

                 - - ATOMS - -         COORDINATE      COORDINATE
 NO.   TYPE    I  J  K  L  M  N        (BOHR,RAD)       (ANG,DEG)
 ----------------------------------------------------------------
   1 STRETCH   1  8                     2.0966449       1.1094968
   2 STRETCH   1  7                     2.0968541       1.1096075
   3 STRETCH   1  3                     2.8720481       1.5198225
   4 STRETCH   1  2                     2.8452180       1.5056246
   5 STRETCH   2  4                     2.5572439       1.3532353
   6 STRETCH   2  5                     2.3045496       1.2195152
   7 STRETCH   3  6                     2.8586087       1.5127107
   8 STRETCH   3 10                     2.0936398       1.1079066
   9 STRETCH   3  9                     2.0936805       1.1079281
  10 STRETCH   4 11                     1.8001042       0.9525742
  11 STRETCH   6 14                     2.0754209       1.0982655
  12 STRETCH   6 13                     2.0752843       1.0981932
  13 STRETCH   6 12                     2.0740109       1.0975194
  14 BEND      1  3 10                  1.9237364     110.2219752
  15 BEND      1  3  6                  1.9336797     110.7916869
  16 BEND      1  3  9                  1.9225267     110.1526638
  17 BEND      1  2  4                  2.0514245     117.5379631
  18 BEND      1  2  5                  2.2293081     127.7299432
  19 BEND      2  1  8                  1.8845854     107.9787900
  20 BEND      2  1  3                  2.0056934     114.9177663
  21 BEND      2  4 11                  1.9109418     109.4889024
  22 BEND      2  1  7                  1.8791334     107.6664105
  23 BEND      3  6 12                  1.9387090     111.0798414
  24 BEND      3  1  8                  1.9227169     110.1635644
  25 BEND      3  1  7                  1.9207305     110.0497523
  26 BEND      3  6 13                  1.9501432     111.7349753
  27 BEND      3  6 14                  1.9505587     111.7587789
  28 BEND      4  2  5                  2.0024355     114.7311051
  29 BEND      6  3  9                  1.9194391     109.9757619
  30 BEND      6  3 10                  1.9186827     109.9324215
  31 BEND      7  1  8                  1.8434052     105.6193367
  32 BEND      9  3 10                  1.8438308     105.6437255
  33 BEND     12  6 13                  1.8740887     107.3773737
  34 BEND     12  6 14                  1.8740025     107.3724323
  35 BEND     13  6 14                  1.8723213     107.2761060
  36 TORSION   1  3  6 14               1.0556329      60.4833091
  37 TORSION   1  3  6 12              -3.1350081    -179.6227302
  38 TORSION   1  3  6 13              -1.0426341     -59.7385339
  39 TORSION   1  2  4 11               3.1400202     179.9099062
  40 TORSION   2  1  3 10               1.0326123      59.1643262
  41 TORSION   2  1  3  6              -3.1229673    -178.9328436
  42 TORSION   2  1  3  9              -0.9952250     -57.0221897
  43 TORSION   3  1  2  4              -0.1160989      -6.6519764
  44 TORSION   3  1  2  5               3.0321789     173.7310531
  45 TORSION   4  2  1  7               2.0307237     116.3518958
  46 TORSION   4  2  1  8              -2.2696771    -130.0429175
  47 TORSION   5  2  4 11              -0.0073936      -0.4236237
  48 TORSION   5  2  1  7              -1.1041839     -63.2650746
  49 TORSION   5  2  1  8               0.8786007      50.3401121
  50 TORSION   6  3  1  7               1.0358191      59.3480654
  51 TORSION   6  3  1  8              -0.9898425     -56.7137995
  52 TORSION   7  1  3  9              -3.1196239    -178.7412807
  53 TORSION   7  1  3 10              -1.0917866     -62.5547647
  54 TORSION   8  1  3 10              -3.1174483    -178.6166296
  55 TORSION   8  1  3  9               1.1378998      65.1968544
  56 TORSION   9  3  6 14              -1.0739167     -61.5308961
  57 TORSION   9  3  6 13               3.1110016     178.2472609
  58 TORSION   9  3  6 12               1.0186276      58.3630646
  59 TORSION  10  3  6 14              -3.0969893    -177.4444137
  60 TORSION  10  3  6 13               1.0879291      62.3337433
  61 TORSION  10  3  6 12              -1.0044449     -57.5504530

     ------------------------------------------
     THE POINT GROUP IS C1 , NAXIS= 1, ORDER= 1
     ------------------------------------------

     DIMENSIONS OF THE SYMMETRY SUBSPACES ARE
 A   =  162

 ..... DONE SETTING UP THE RUN .....
 STEP CPU TIME =     0.01 TOTAL CPU TIME =        0.0 (    0.0 MIN)
 TOTAL WALL CLOCK TIME=        0.0 SECONDS, CPU UTILIZATION IS  50.00%


          -----------------------------
          STATIONARY POINT LOCATION RUN
          -----------------------------

 OBTAINING INITIAL HESSIAN, HESS=GUESS   
 DIAGONAL GUESS HESSIAN IN INTERNAL COORDS IS
     1  0.3335     2  0.3334     3  0.3745     4  0.3850     5  0.4181
     6  0.5422     7  0.3797     8  0.3345     9  0.3345    10  0.3653
    11  0.3408    12  0.3409    13  0.3413    14  0.2236    15  0.2504
    16  0.2236    17  0.2499    18  0.2597    19  0.2244    20  0.2509
    21  0.2194    22  0.2244    23  0.2247    24  0.2235    25  0.2235
    26  0.2246    27  0.2246    28  0.2576    29  0.2240    30  0.2240
    31  0.2014    32  0.2016    33  0.2026    34  0.2026    35  0.2026
    36  0.2500    37  0.2500    38  0.2500    39  0.2500    40  0.2500
    41  0.2500    42  0.2500    43  0.2500    44  0.2500    45  0.2500
    46  0.2500    47  0.2500    48  0.2500    49  0.2500    50  0.2500
    51  0.2500    52  0.2500    53  0.2500    54  0.2500    55  0.2500
    56  0.2500    57  0.2500    58  0.2500    59  0.2500    60  0.2500
    61  0.2500
 TRANSFORMING HESSIAN TO SYMMETRY COORDINATES

          PARAMETERS CONTROLLING GEOMETRY SEARCH ARE
          METHOD =QA                  UPHESS =BFGS    
          NNEG   =         0          NFRZ   =         3
          NSTEP  =        50          IFOLOW =         1
          HESS   =GUESS               RESTAR =         F
          IHREP  =         0          HSSEND =         F
          NPRT   =         0          NPUN   =         0
          OPTTOL = 5.000E-04          RMIN   = 1.500E-03
          RMAX   = 1.000E-01          RLIM   = 7.000E-02
          DXMAX  = 3.000E-01          PURIFY =         F
          MOVIE  =         F          TRUPD  =         T
          TRMAX  = 5.000E-01          TRMIN  = 5.000E-02
          ITBMAT =         5          STPT   =         F
          STSTEP = 1.000E-02          PROJCT=          F
          FROZEN COORD(S)=   1   2   3


      ***** EQUILIBRIUM GEOMETRY LOCATED *****
            (SUBJECT TO   3 CONSTRAINT(S))
 COORDINATES OF ALL ATOMS ARE (ANGS)
   ATOM   CHARGE       X              Y              Z
 ------------------------------------------------------------
 C           6.0   3.4351809720   1.8642041600   1.6610349823
 C           6.0   4.7331589137   1.3087862438   1.1330977974
 C           6.0   2.1525156831   1.2556752946   1.0994448031
 O           8.0   4.6016260327   0.2610704160   0.3453959508
 O           8.0   5.8008966399   1.7663540656   1.4051543960
 C           6.0   0.9088826156   1.9202539313   1.6862842438
 H           1.0   3.4789429600   1.7421977881   2.7404938432
 H           1.0   3.4720976894   2.9336755449   1.4770213672
 H           1.0   2.1447943940   1.3595935300   0.0185361469
 H           1.0   2.1330847017   0.1911921349   1.3105764069
 H           1.0   5.4565832419  -0.0318569265   0.0561083935
 H           1.0   0.0068993038   1.4722585240   1.2808886598
 H           1.0   0.8797596511   1.8119877954   2.7674577911
 H           1.0   0.8881509257   2.9822073530   1.4554823453


                     --------------------
                     INTERNAL COORDINATES
                     --------------------

                 - - ATOMS - -         COORDINATE      COORDINATE
 NO.   TYPE    I  J  K  L  M  N        (BOHR,RAD)       (ANG,DEG)
 ----------------------------------------------------------------
   1 STRETCH   1  8                     2.0518917       1.0858144
   2 STRETCH   1  7                     2.0545347       1.0872130
   3 STRETCH   1  3                     2.8851117       1.5267355
   4 STRETCH   1  2                     2.8483841       1.5073001
   5 STRETCH   2  4                     2.4894826       1.3173775
   6 STRETCH   2  5                     2.2545999       1.1930830
   7 STRETCH   3  6                     2.8861929       1.5273076
   8 STRETCH   3 10                     2.0510958       1.0853933
   9 STRETCH   3  9                     2.0520912       1.0859200
  10 STRETCH   4 11                     1.7931952       0.9489181
  11 STRETCH   6 14                     2.0540238       1.0869427
  12 STRETCH   6 13                     2.0540773       1.0869710
  13 STRETCH   6 12                     2.0515666       1.0856424
  14 BEND      1  3 10                  1.9117557     109.5355319
  15 BEND      1  3  6                  1.9490772     111.6738979
  16 BEND      1  3  9                  1.9113094     109.5099616
  17 BEND      1  2  4                  2.0003958     114.6142393
  18 BEND      1  2  5                  2.1525256     123.3306322
  19 BEND      2  1  8                  1.8486620     105.9205317
  20 BEND      2  1  3                  2.0350511     116.5998378
  21 BEND      2  4 11                  1.9154121     109.7450280
  22 BEND      2  1  7                  1.8459996     105.7679873
  23 BEND      3  6 12                  1.9320833     110.7002165
  24 BEND      3  1  8                  1.9377877     111.0270582
  25 BEND      3  1  7                  1.9329638     110.7506689
  26 BEND      3  6 13                  1.9397695     111.1406030
  27 BEND      3  6 14                  1.9380675     111.0430892
  28 BEND      4  2  5                  2.1302379     122.0536394
  29 BEND      6  3  9                  1.9124315     109.5742510
  30 BEND      6  3 10                  1.9149816     109.7203650
  31 BEND      7  1  8                  1.8519079     106.1065045
  32 BEND      9  3 10                  1.8622536     106.6992705
  33 BEND     12  6 13                  1.8839513     107.9424577
  34 BEND     12  6 14                  1.8839176     107.9405282
  35 BEND     13  6 14                  1.8838975     107.9393736
  36 TORSION   1  3  6 14               1.0548533      60.4386410
  37 TORSION   1  3  6 12              -3.1360203    -179.6807302
  38 TORSION   1  3  6 13              -1.0425467     -59.7335239
  39 TORSION   1  2  4 11              -3.1390187    -179.8525222
  40 TORSION   2  1  3 10               1.0386489      59.5101972
  41 TORSION   2  1  3  6              -3.1195073    -178.7346002
  42 TORSION   2  1  3  9              -0.9980053     -57.1814914
  43 TORSION   3  1  2  4              -0.1173841      -6.7256110
  44 TORSION   3  1  2  5               3.0318243     173.7107346
  45 TORSION   4  2  1  7               2.0395337     116.8566760
  46 TORSION   4  2  1  8              -2.2827198    -130.7902086
  47 TORSION   5  2  4 11              -0.0049335      -0.2826702
  48 TORSION   5  2  1  7              -1.0944432     -62.7069784
  49 TORSION   5  2  1  8               0.8664886      49.6461370
  50 TORSION   6  3  1  7               1.0522019      60.2867269
  51 TORSION   6  3  1  8              -1.0005083     -57.3249038
  52 TORSION   7  1  3  9              -3.1094815    -178.1601644
  53 TORSION   7  1  3 10              -1.0728273     -61.4684758
  54 TORSION   8  1  3 10              -3.1255375    -179.0801065
  55 TORSION   8  1  3  9               1.1209936      64.2282049
  56 TORSION   9  3  6 14              -1.0659996     -61.0772804
  57 TORSION   9  3  6 13               3.1197857     178.7505547
  58 TORSION   9  3  6 12               1.0263120      58.8033484
  59 TORSION  10  3  6 14              -3.1051655    -177.9128787
  60 TORSION  10  3  6 13               1.0806198      61.9149564
  61 TORSION  10  3  6 12              -1.0128538     -58.0322499

          INTERNUCLEAR DISTANCES (ANGS.)


 =====================================================
   GAMESS/COSab RESULTS
 =====================================================

   Dielectric Constant                  = INFTY
   Basic Grid Size                      =                 1082
   Number of Segments                   =                   92
   Number of Segments located on spheres=                  231
   Number of Segments of the cavity     =                  537
   Solvent Radius (rsolv)               = 1.40
   Outlying Charge Error Method         = double cavity

 =====================================================

  Total solvated Energy (a.u.)          =  -305.9790209509
  Total Energy corrected (a.u.)         =  -305.9789584823

  Outlying charge effect (a.u.)         =     0.0000624686
  Outlying charge effect (kcal/mol)     =     0.0391996588

  Dielectric Energy (a.u.)              =    -0.0161892244
  Dielectric energy corr. (a.u.)        =    -0.0161267558

  Sum of polarization charges           =     0.0184945075
  Sum of polarization charges(cor.)     =    -0.0184945075

  Total surface area of cavity (A**2)   =  129.47
  Total volume of cavity (A**3)         =  117.14

 =====================================================
 NPS=                   537
NR.  ATOM  (X, Y, Z)(a.u.)                  CHARGE(e)  AREA(A**2) SIGMA(e/A**2)
   1   1   5.710638   6.434419   5.418600   0.000509   0.325193   0.001565
   2   1   6.539793   5.432546  -0.122230  -0.000418   0.139368  -0.002999
   3   1   6.941922   5.802737   0.158381  -0.000201   0.046456  -0.004316
   4   1   5.917339   5.861183   6.052074   0.000164   0.278737   0.000590
   5   1   8.406091   5.416838   5.790598  -0.000051   0.232280  -0.000221
   6   1   6.170362   0.590087   5.501118  -0.000260   0.139368  -0.001867
   7   1   6.683885   0.253071   5.024615  -0.000237   0.092912  -0.002554
   8   1   8.120022   6.330659   5.074983   0.000084   0.278737   0.000303
   9   1   6.922193   6.373061   5.583270   0.000652   0.325193   0.002006
  10   1   6.144364   5.723990   0.086253  -0.000091   0.046456  -0.001956
  11   1   7.662343   5.902933   5.831218   0.000304   0.232280   0.001309
  12   1   6.730566   0.562914   5.476847  -0.000173   0.046456  -0.003729
  13   2   8.105100  -0.461870   4.369471  -0.001708   0.185824  -0.009190
  14   2   9.619475   1.759911   5.790851  -0.000174   0.092912  -0.001871
  15   2  11.139069  -0.338550   3.390809  -0.000908   0.139368  -0.006516
  16   2   9.845003   4.985200  -0.535171  -0.000471   0.185824  -0.002537
  17   2   8.015022   3.814043  -1.267983  -0.002043   0.232280  -0.008795
  18   2   9.956519   1.387431   5.616991  -0.000093   0.092912  -0.001001
  19   2  10.773160  -0.013188   4.322407  -0.000607   0.232280  -0.002611
  20   2  10.905234   3.118181  -1.024726  -0.000316   0.092912  -0.003399
  21   2  10.395154   4.226407  -0.876358  -0.000267   0.139368  -0.001915
  22   2   9.487591   0.890770   5.530188  -0.000711   0.185824  -0.003828
  23   2   8.771963   0.225734   5.174927  -0.002990   0.325193  -0.009195
  24   2   9.105621  -0.499035   4.470156  -0.002925   0.371649  -0.007871
  25   2  10.301447  -0.532882   3.986735  -0.001305   0.278737  -0.004681
  26   2   9.024564   3.862069  -1.372871  -0.001604   0.278737  -0.005753
  27   2   9.565283   4.471081  -1.006355  -0.001891   0.325193  -0.005816
  28   2   9.115727   5.512365  -0.098984  -0.002320   0.371649  -0.006241
  29   2   8.288660   4.676762  -0.858556  -0.003443   0.371649  -0.009265
  30   2  10.069779   0.334960   5.047353  -0.002565   0.464561  -0.005522
  31   2  10.216216   3.452584  -1.280391  -0.001764   0.325193  -0.005424
  32   3   2.653991  -0.450006  -0.000121   0.001036   0.325193   0.003185
  33   3   4.066088   0.436581   5.323424   0.000001   0.092912   0.000006
  34   3   3.191241   0.035168  -0.759824   0.000868   0.278737   0.003113
  35   3   3.800717   5.287019  -0.314156   0.000074   0.139368   0.000527
  36   3   3.861053  -0.588730  -0.261250   0.001338   0.325193   0.004113
  37   3   2.003750   0.255646  -0.276467   0.000861   0.371649   0.002317
  38   3   1.449196   0.824313  -0.165083   0.000200   0.139368   0.001437
  39   3   1.760979  -0.355277   0.844494   0.000537   0.278737   0.001925
  40   3   3.751599   0.240410   5.182000   0.000029   0.046456   0.000623
  41   3   1.740686   1.315201  -0.706369   0.000176   0.185824   0.000947
  42   3   4.362016   5.279221  -0.320420  -0.000001   0.046456  -0.000028
  43   4   6.707258  -0.731032  -1.608085   0.002730   0.171795   0.015890
  44   4   8.732702  -2.506940  -0.596894   0.000181   0.274871   0.000659
  45   4   9.204870   0.453531  -2.557255   0.001050   0.343589   0.003057
  46   4  10.067324  -1.864647   2.420030   0.000290   0.240512   0.001207
  47   4   6.568760  -1.617936  -0.605375   0.002440   0.171795   0.014205
  48   4   8.834927  -1.892050  -1.550723  -0.000759   0.274871  -0.002760
  49   4   8.947246  -0.798735  -2.319141   0.000018   0.309230   0.000058
  50   4   9.542678   1.355444  -2.364609   0.000496   0.240512   0.002063
  51   4  10.062546   1.898365  -1.940082  -0.000080   0.171795  -0.000464
  52   4   9.671675  -2.468669   1.568540   0.000427   0.309230   0.001380
  53   4   9.187491  -2.716001   0.501295   0.000219   0.309230   0.000708
  54   4   7.337258  -2.449393   0.896102   0.004777   0.343589   0.013902
  55   4   8.042450  -2.651071   0.152346   0.002445   0.343589   0.007116
  56   4   7.768968  -2.106582  -1.063664   0.003249   0.481025   0.006753
  57   4   6.874639  -1.368504  -1.291892   0.003190   0.274871   0.011606
  58   4   7.152681  -0.312733  -2.092034   0.003232   0.274871   0.011757
  59   4   8.166146  -0.043655  -2.508888   0.002614   0.343589   0.007609
  60   4   8.497896   1.291585  -2.491852   0.002668   0.309230   0.008628
  61   4   8.050691   1.933376  -2.188906   0.002415   0.240512   0.010039
  62   4   9.463319  -1.711497   2.914172   0.001032   0.206154   0.005006
  63   4   9.014024  -2.298455   2.286477   0.002150   0.274871   0.007820
  64   4   7.824162  -2.236954   2.185785   0.004966   0.377948   0.013138
  65   4   6.938497  -2.128268  -0.124213   0.003248   0.274871   0.011816
  66   4   7.529483   0.758932  -2.369505   0.004317   0.309230   0.013960
  67   4   8.323450  -1.777606   2.948086   0.002906   0.274871   0.010572
  68   4   7.972672  -1.210766  -2.018933   0.002499   0.412307   0.006060
  69   4   9.106234   2.109399  -2.137372   0.001038   0.171795   0.006044
  70   4   8.416140  -2.674907   1.322455   0.003252   0.377948   0.008603
  71   5  13.827276   4.659003   3.436518   0.005093   0.377948   0.013475
  72   5  11.723550   3.841767   5.774812   0.004662   0.309230   0.015075
  73   5  11.053353   6.430976   3.650048   0.005054   0.274871   0.018387
  74   5  12.198386   5.592161   0.666713   0.004561   0.343589   0.013274
  75   5  13.560857   2.544057   0.871858   0.005798   0.309230   0.018749
  76   5  13.049388   1.295472   4.082323   0.004380   0.309230   0.014163
  77   5  13.392296   4.403919   4.532186   0.005733   0.412307   0.013904
  78   5  12.557809   4.275537   5.327299   0.005141   0.343589   0.014962
  79   5  13.090546   5.546797   3.730207   0.006030   0.412307   0.014625
  80   5  12.102628   6.134135   3.857484   0.005718   0.343589   0.016642
  81   5  13.588100   5.236071   2.398725   0.005565   0.412307   0.013497
  82   5  13.113894   5.385956   1.336251   0.005100   0.377948   0.013493
  83   5  14.136350   4.015688   2.483743   0.005387   0.377948   0.014255
  84   5  14.060778   3.209434   1.682558   0.005486   0.343589   0.015967
  85   5  14.046782   3.461600   3.672267   0.006682   0.481025   0.013892
  86   5  13.759461   2.320717   3.960999   0.005957   0.412307   0.014449
  87   5  11.531284   4.903792   5.446194   0.004599   0.274871   0.016732
  88   5  11.407286   5.860451   4.656199   0.004903   0.274871   0.017836
  89   5  11.621339   6.519562   2.740786   0.005416   0.343589   0.015764
  90   5  11.926057   6.229135   1.525583   0.005736   0.412307   0.013913
  91   5  12.856876   4.590030   0.330120   0.005851   0.412307   0.014191
  92   5  13.397912   3.589792   0.518061   0.005365   0.343589   0.015615
  93   5  13.733685   1.900819   1.751106   0.006181   0.343589   0.017990
  94   5  13.614004   1.508360   3.085148   0.004926   0.309230   0.015931
  95   5  12.855269   1.939768   4.897165   0.006009   0.446666   0.013454
  96   5  12.329302   2.960662   5.579922   0.005641   0.412307   0.013681
  97   5  10.872918   4.220995   5.782160   0.003899   0.240512   0.016213
  98   5  10.685435   6.048672   4.427362   0.003117   0.171795   0.018141
  99   5  10.765072   6.573929   2.888081   0.002175   0.137436   0.015828
 100   5  10.784229   6.125083   0.992589   0.002657   0.206154   0.012889
 101   5  11.216897   5.727967   0.467331   0.002017   0.240512   0.008386
 102   5  11.772936   4.826998  -0.117704   0.004964   0.377948   0.013134
 103   5  12.940244   3.100280   0.087263   0.003231   0.206154   0.015670
 104   5  12.681553   0.685848   3.413359   0.004449   0.309230   0.014386
 105   5  12.156281   0.957091   4.518194   0.002771   0.274871   0.010080
 106   5  11.136702   2.854947   5.864856   0.004393   0.343589   0.012785
 107   5  12.435733   5.311616   4.776122   0.006698   0.412307   0.016244
 108   5  12.712371   6.074678   2.548405   0.006977   0.481025   0.014504
 109   5  13.759665   4.316349   1.320820   0.006047   0.412307   0.014666
 110   5  14.110694   2.531084   2.658117   0.007177   0.446666   0.016069
 111   5  13.313698   3.190936   4.894339   0.005593   0.412307   0.013564
 112   5  10.811628   5.333984   5.216176   0.004007   0.206154   0.019436
 113   5  10.852307   6.484080   1.846436   0.004279   0.274871   0.015566
 114   5  12.244435   3.669995  -0.312806   0.003579   0.274871   0.013021
 115   5  13.305816   1.091939   2.490588   0.003524   0.206154   0.017095
 116   5  11.677172   1.832976   5.446132   0.005149   0.412307   0.012488
 117   6   0.974235   6.329689   5.723672   0.002079   0.418105   0.004974
 118   6   0.486611   4.520308  -0.273768   0.000873   0.325193   0.002685
 119   6   0.701706   0.216106   4.453941   0.000592   0.232280   0.002549
 120   6  -1.243848   3.081827   5.470299   0.001658   0.418105   0.003965
 121   6  -1.218160   5.967368   2.743019   0.001277   0.371649   0.003435
 122   6   2.861276   6.294754   5.609125   0.001330   0.325193   0.004090
 123   6  -1.625941   5.098240   2.214006   0.001382   0.371649   0.003718
 124   6  -1.603861   2.636164   4.692347   0.001011   0.278737   0.003627
 125   6  -0.119382   0.476705   4.173779   0.001030   0.325193   0.003166
 126   6  -0.218379   4.026935  -0.034868   0.000507   0.185824   0.002726
 127   6   2.116535   6.054922   6.056935   0.000924   0.232280   0.003976
 128   6   2.091939   6.720744   5.327565   0.001129   0.278737   0.004050
 129   6   0.433947   0.074010   3.206544   0.000450   0.232280   0.001939
 130   6   0.123330   0.892148   5.249054   0.001236   0.325193   0.003801
 131   6  -0.810408   1.859536   5.369162   0.001615   0.325193   0.004967
 132   6  -1.728112   4.061400   4.678081   0.001269   0.464561   0.002731
 133   6  -1.638474   5.289386   3.700105   0.001157   0.464561   0.002490
 134   6  -0.931762   5.633414   1.384730   0.001729   0.371649   0.004653
 135   6  -0.021239   5.358774   0.311207   0.001521   0.371649   0.004093
 136   6   1.227935   5.376842  -0.128320   0.000973   0.371649   0.002618
 137   6   1.185881   0.489549   5.223015   0.000693   0.278737   0.002485
 138   6  -0.993119   4.449872   5.689066   0.001042   0.418105   0.002493
 139   6  -0.193283   5.659161   5.738162   0.001269   0.418105   0.003035
 140   6  -0.017981   6.487365   4.947444   0.001456   0.464561   0.003133
 141   6  -0.881816   6.289134   3.857388   0.000775   0.325193   0.002383
 142   6  -1.962456   4.360727   3.640524   0.000637   0.278737   0.002287
 143   6  -0.709971   1.194535   4.756946   0.001181   0.278737   0.004238
 144   6   0.376887   3.409138  -0.340242   0.000496   0.232280   0.002136
 145   6  -0.813709   4.815790   0.643390   0.001304   0.325193   0.004011
 146   6   2.221804   5.659352   0.039120   0.000064   0.092912   0.000691
 147   6   1.950059   0.676381   5.534727   0.000218   0.139368   0.001566
 148   6  -1.151081   5.426968   4.866385   0.000934   0.464561   0.002010
 149   7   6.908327   2.893115   7.579648  -0.003604   0.451437  -0.007984
 150   7   7.600951   1.959595   6.969023  -0.002286   0.314043  -0.007280
 151   7   5.862212   1.510939   6.713370  -0.001884   0.274788  -0.006858
 152   7   6.332164   4.837983   7.072784  -0.002166   0.412182  -0.005255
 153   7   7.810872   4.424696   6.974183  -0.002361   0.392554  -0.006015
 154   7   6.818761   1.465102   6.802597  -0.002383   0.392554  -0.006072
 155   7   5.917533   2.436236   7.385820  -0.003405   0.392554  -0.008673
 156   7   5.914519   3.848478   7.478884  -0.003357   0.392554  -0.008553
 157   7   7.099841   4.088337   7.442654  -0.002187   0.314043  -0.006965
 158   7   8.003174   3.098216   7.167655  -0.003158   0.392554  -0.008046
 159   8   6.856773   7.941498   2.345041  -0.002882   0.372926  -0.007728
 160   8   7.022087   6.938123   0.821720  -0.002261   0.392554  -0.005759
 161   8   7.026517   7.488931   4.217815  -0.001740   0.372926  -0.004665
 162   8   5.826533   7.543625   4.014316  -0.002022   0.314043  -0.006440
 163   8   6.032056   7.270877   1.126140  -0.003678   0.490692  -0.007496
 164   8   7.587365   7.512457   1.739108  -0.003286   0.431809  -0.007610
 165   8   7.762596   7.631893   3.272872  -0.003795   0.510320  -0.007436
 166   8   6.350829   7.920599   3.375829  -0.002282   0.314043  -0.007266
 167   8   5.829385   7.844190   2.335341  -0.003138   0.353299  -0.008882
 168   9   3.658365   2.632303  -2.388880  -0.001981   0.372926  -0.005311
 169   9   4.855930   4.180017  -1.637099  -0.001593   0.372926  -0.004273
 170   9   3.601424   4.433166  -1.500225  -0.001080   0.392554  -0.002752
 171   9   2.377165   2.557879  -1.761162  -0.001228   0.333671  -0.003679
 172   9   3.809111   1.013675  -1.850630  -0.001147   0.353299  -0.003247
 173   9   4.094652   3.694190  -2.148529  -0.001503   0.314043  -0.004785
 174   9   2.908292   3.490558  -1.933677  -0.001531   0.392554  -0.003900
 175   9   2.833459   1.633124  -1.881028  -0.001300   0.431809  -0.003011
 176   9   4.324981   1.786979  -2.277803  -0.001803   0.353299  -0.005104
 177   9   4.916348   2.913156  -2.239086  -0.002449   0.412182  -0.005942
 178  10   3.806189  -2.015496   3.055782  -0.002628   0.471065  -0.005579
 179  10   2.803014  -1.237340   3.880762  -0.001019   0.294415  -0.003462
 180  10   4.560543  -0.958580   4.479757  -0.001183   0.333671  -0.003546
 181  10   3.831416  -1.626761   1.047319  -0.000972   0.333671  -0.002913
 182  10   2.384813  -1.351043   1.849565  -0.000836   0.333671  -0.002505
 183  10   3.626882  -1.258552   4.278816  -0.001565   0.412182  -0.003797
 184  10   4.822749  -1.665595   3.616736  -0.002267   0.412182  -0.005501
 185  10   4.380025  -2.045680   2.130637  -0.001908   0.333671  -0.005719
 186  10   3.235848  -1.850006   1.760357  -0.001374   0.353299  -0.003889
 187  10   2.546000  -1.549070   2.901470  -0.001480   0.431809  -0.003427
 188  11  12.414904  -1.058361  -0.677701  -0.008500   0.392554  -0.021653
 189  11  10.856943  -0.527194  -2.243316  -0.008362   0.471065  -0.017751
 190  11  10.705689  -2.361945  -0.656643  -0.007607   0.431809  -0.017616
 191  11  11.718751  -1.610337   1.391215  -0.009987   0.510320  -0.019571
 192  11  12.026033   0.850578  -1.399203  -0.007221   0.333671  -0.021641
 193  11  11.587533  -1.512423  -1.409803  -0.009083   0.431809  -0.021034
 194  11  11.858229  -1.961782  -0.056965  -0.009759   0.471065  -0.020717
 195  11  12.576291  -0.876275   0.595519  -0.010185   0.471065  -0.021622
 196  11  12.677689   0.052460  -0.544564  -0.009368   0.431809  -0.021695
 197  11  11.972414  -0.255114  -1.693488  -0.008954   0.431809  -0.020737
 198  11  10.488706  -1.678493  -1.733756  -0.006979   0.412182  -0.016932
 199  11  10.996645  -2.365993   0.604994  -0.005884   0.372926  -0.015779
 200  11  11.153238   0.779272  -2.043790  -0.006406   0.392554  -0.016318
 201  12  -2.065746   1.842325   1.509234  -0.003707   0.608459  -0.006093
 202  12  -0.760936   1.245808   0.666779  -0.001374   0.353299  -0.003888
 203  12  -1.248847   3.178607   0.350364  -0.000782   0.333671  -0.002345
 204  12  -2.267279   3.606024   2.024863  -0.000895   0.353299  -0.002533
 205  12  -2.061872   1.945979   3.435744  -0.000874   0.372926  -0.002344
 206  12  -0.869324   0.495620   2.588526  -0.000843   0.353299  -0.002385
 207  12  -1.011652   2.137783   0.282805  -0.001873   0.490692  -0.003816
 208  12  -1.979804   3.268579   1.068825  -0.001862   0.490692  -0.003794
 209  12  -2.429521   2.724342   2.676831  -0.001999   0.510320  -0.003917
 210  12  -1.762482   1.135989   2.836136  -0.001969   0.490692  -0.004012
 211  12  -1.014184   0.731320   1.540803  -0.001977   0.490692  -0.004029
 212  13   1.207906   3.265473   7.638720  -0.002468   0.451437  -0.005468
 213  13   2.298687   4.908273   7.081157  -0.000970   0.353299  -0.002747
 214  13   2.136272   1.598746   6.804056  -0.001267   0.353299  -0.003585
 215  13   0.219203   2.158948   6.763085  -0.000821   0.372926  -0.002203
 216  13   0.091205   4.191450   6.955228  -0.001024   0.412182  -0.002485
 217  13   2.270812   3.896886   7.562452  -0.002301   0.431809  -0.005328
 218  13   2.318465   2.614648   7.454478  -0.002475   0.431809  -0.005731
 219  13   1.194710   1.827619   7.037297  -0.001586   0.431809  -0.003672
 220  13   0.116699   3.098539   7.111089  -0.001567   0.431809  -0.003629
 221  13   1.114842   4.761266   7.216509  -0.001579   0.510320  -0.003093
 222  14   1.325232   8.010950   2.232923  -0.002575   0.471065  -0.005466
 223  14   2.391821   7.666176   3.934787  -0.001128   0.353299  -0.003194
 224  14   0.703767   7.599691   3.858350  -0.000843   0.353299  -0.002385
 225  14  -0.048051   7.137076   1.856031  -0.000852   0.372926  -0.002286
 226  14   1.572946   6.837735   0.610672  -0.000860   0.372926  -0.002307
 227  14   2.454189   7.951945   2.490700  -0.002422   0.412182  -0.005875
 228  14   1.594889   7.914154   3.664841  -0.001521   0.392554  -0.003875
 229  14   0.210761   7.601220   2.882305  -0.001680   0.471065  -0.003567
 230  14   0.755214   7.309585   1.207582  -0.001751   0.471065  -0.003718
 231  14   2.306714   7.422508   1.186168  -0.002440   0.490692  -0.004972
 232   1   7.458365   0.808132   5.599317  -0.000419   0.031548  -0.013286
 233   2   7.880345   0.654369   5.399592  -0.000550   0.031548  -0.017427
 234   7   7.411784   0.987099   5.840013  -0.000325   0.031548  -0.010311
 235   1   7.446465   5.829561   0.288564  -0.000340   0.031307  -0.010858
 236   2   7.868545   5.622378   0.145325  -0.000480   0.031307  -0.015317
 237   8   7.397968   6.079090   0.453200  -0.000369   0.031307  -0.011792
 238   1   6.550386   4.577277  -0.530178  -0.000856   0.100506  -0.008518
 239   2   6.978359   4.372054  -0.666658  -0.001268   0.100506  -0.012615
 240   9   5.991063   4.221003  -0.881824  -0.000613   0.100506  -0.006102
 241   1   6.585615  -0.059291   4.453807  -0.000759   0.099764  -0.007611
 242   2   7.013060  -0.205381   4.254368  -0.001053   0.099764  -0.010556
 243  10   6.016847  -0.433802   4.138328  -0.000523   0.099764  -0.005247
 244   2   7.688241   4.917374  -0.457888  -0.002155   0.217126  -0.009927
 245   1   7.213938   5.365621  -0.084371  -0.001526   0.217126  -0.007029
 246   2   7.843663   0.159085   4.930242  -0.002113   0.206798  -0.010216
 247   1   7.110727   0.286089   5.005854  -0.001497   0.206798  -0.007240
 248   1   5.485692   0.887577   5.665212  -0.000153   0.026247  -0.005820
 249   3   5.069997   0.718146   5.450150  -0.000114   0.026247  -0.004325
 250   7   5.574574   1.061761   5.897044  -0.000217   0.026247  -0.008273
 251   1   5.424286   5.892165   0.384883  -0.000172   0.025762  -0.006681
 252   3   5.009382   5.663296   0.232494  -0.000123   0.025762  -0.004768
 253   8   5.515743   6.132946   0.543722  -0.000173   0.025762  -0.006704
 254   1   5.509145   5.159378  -0.246732  -0.000117   0.027741  -0.004222
 255   3   5.093440   4.989203  -0.461292  -0.000100   0.027741  -0.003614
 256   9   5.018566   4.809605  -0.693212  -0.000099   0.027741  -0.003558
 257   1   5.464332   0.324794   5.094217  -0.000102   0.027668  -0.003674
 258   3   5.048107   0.097857   4.942357  -0.000090   0.027668  -0.003239
 259  10   4.972224  -0.149836   4.786209  -0.000124   0.027668  -0.004485
 260   3   4.917853   5.361660  -0.151019  -0.000131   0.113508  -0.001153
 261   1   5.591251   5.563100   0.032544  -0.000265   0.113508  -0.002332
 262   3   4.989889   0.302443   5.166606  -0.000076   0.079994  -0.000954
 263   1   5.537249   0.646718   5.483268  -0.000165   0.079994  -0.002066
 264   1   8.854819   4.620153   5.916430  -0.000145   0.054068  -0.002673
 265   5   9.622303   4.513100   5.670257   0.000494   0.054068   0.009144
 266   7   8.692289   4.458278   6.115919  -0.000298   0.054068  -0.005504
 267   1   8.754603   6.424006   4.138614  -0.000056   0.060466  -0.000921
 268   5   9.529581   6.236237   3.978099   0.000731   0.060466   0.012083
 269   8   8.601543   6.614814   3.958398  -0.000260   0.060466  -0.004304
 270   5  10.047958   5.992454   4.460380   0.004001   0.297403   0.013455
 271   5  10.110409   5.019631   5.409763   0.003899   0.297403   0.013111
 272   1   8.938008   5.619571   5.126470   0.000941   0.652440   0.001443
 273   1   4.866433   6.659282   4.587444  -0.000207   0.065850  -0.003143
 274   6   4.035468   6.604728   4.553407  -0.000078   0.065850  -0.001185
 275   8   4.989462   6.837796   4.374029  -0.000373   0.065850  -0.005661
 276   1   4.313584   5.129651   6.103862  -0.000150   0.064793  -0.002321
 277   6   3.486659   5.195141   6.183979  -0.000001   0.064793  -0.000017
 278  13   3.353259   5.001599   6.377804  -0.000144   0.064793  -0.002227
 279   6   3.585502   5.894541   5.617775   0.000408   0.543792   0.000751
 280   1   4.777982   6.135832   5.322807  -0.000516   0.543792  -0.000949
 281   1   4.804607   5.019282   6.255033  -0.000335   0.089122  -0.003757
 282   7   4.928429   4.822411   6.454597  -0.000510   0.089122  -0.005717
 283  13   3.835246   4.791697   6.399424  -0.000140   0.089122  -0.001574
 284   7   8.105417   4.705446   6.465137  -0.000523   0.079515  -0.006578
 285   7   6.939107   5.188494   6.567016  -0.000990   0.182506  -0.005422
 286   7   5.678721   5.070168   6.604736  -0.000555   0.079515  -0.006975
 287   1   7.781087   5.187445   6.194653  -0.000913   0.169048  -0.005400
 288   1   6.097569   5.440470   6.291500  -0.000818   0.169048  -0.004839
 289   7   6.059611   1.091401   6.139588  -0.000393   0.070013  -0.005620
 290   7   6.933188   1.043578   6.098769  -0.000506   0.070013  -0.007224
 291   1   6.468614   0.866926   5.759525  -0.001096   0.153168  -0.007154
 292   8   6.909102   6.338444   0.495368  -0.000459   0.072156  -0.006367
 293   8   6.007882   6.379087   0.550823  -0.000432   0.072156  -0.005988
 294   1   6.430968   5.989547   0.346393  -0.001084   0.156702  -0.006918
 295   8   5.667395   7.068566   4.489946  -0.000420   0.075762  -0.005543
 296   8   6.874385   7.048850   4.617457  -0.000979   0.171878  -0.005695
 297   8   8.007591   6.937381   4.196871  -0.000421   0.075762  -0.005551
 298   1   6.064681   6.781915   4.878352  -0.000732   0.162748  -0.004500
 299   1   7.688930   6.690864   4.674939  -0.000787   0.162748  -0.004833
 300   9   5.191451   4.553307  -0.975581  -0.000567   0.171731  -0.003302
 301   1   6.086961   4.980020  -0.440130  -0.000552   0.242057  -0.002280
 302  10   5.309279  -0.554242   4.408998  -0.000751   0.196130  -0.003830
 303   1   5.964756   0.158398   4.992382  -0.000515   0.276371  -0.001863
 304  13   3.278862   4.961510   6.588288   0.000011   0.007092   0.001495
 305   1   4.708328   5.236197   6.295392   0.000052   0.010082   0.005176
 306   2   7.389089   3.072073  -1.354530  -0.000472   0.130875  -0.003608
 307   4   7.371544   2.670340  -1.539647   0.000654   0.130875   0.005000
 308   9   6.377033   2.992610  -1.469536  -0.000297   0.130875  -0.002268
 309   2   7.316726  -0.713883   3.636277  -0.000527   0.129693  -0.004067
 310   4   7.300589  -1.008251   3.306126   0.000573   0.129693   0.004417
 311  10   6.308319  -0.879113   3.517692  -0.000183   0.129693  -0.001411
 312   2  10.673479   2.397303  -1.304058  -0.000591   0.036168  -0.016334
 313   4  10.593785   2.023517  -1.517997  -0.000576   0.036168  -0.015922
 314  11  10.843012   1.816545  -1.499994  -0.000703   0.036168  -0.019445
 315   2  10.991213  -0.727315   2.798930  -0.000531   0.036168  -0.014692
 316   4  10.905216  -1.039114   2.503596  -0.000606   0.036168  -0.016764
 317  11  11.135407  -1.058890   2.275787  -0.000816   0.036168  -0.022571
 318   4   8.362338   2.580507  -1.785252   0.000852   0.203093   0.004193
 319   4   9.987835   2.301976  -1.686223  -0.000788   0.203093  -0.003880
 320   2   9.245344   2.964502  -1.417231  -0.002701   0.426098  -0.006339
 321   4  10.455386  -1.157208   2.836753  -0.000803   0.158846  -0.005056
 322   4   8.814927  -1.272453   3.263984   0.000937   0.333566   0.002809
 323   2   9.940762  -0.812944   3.491012  -0.002007   0.331856  -0.006049
 324   2   8.217232  -0.841880   3.817317  -0.000459   0.169494  -0.002706
 325   2   9.635893   2.472516   5.876179  -0.000165   0.058493  -0.002816
 326   5   9.985427   2.648815   5.828732   0.000329   0.058493   0.005632
 327   7   9.016300   2.681224   6.185071  -0.000477   0.058493  -0.008161
 328   2   9.299693   6.136936   1.185299  -0.000096   0.066304  -0.001451
 329   5   9.664926   6.167326   1.332281   0.000341   0.066304   0.005142
 330   8   8.717351   6.471951   1.454860  -0.000452   0.066304  -0.006815
 331   2  11.637567  -0.116996   2.857796  -0.000387   0.065303  -0.005928
 332   5  11.933041   0.138264   2.918886   0.000285   0.065303   0.004362
 333  11  11.706997  -0.437658   2.313033  -0.001173   0.065303  -0.017955
 334   2  11.373139   2.663678  -0.781240  -0.000384   0.065303  -0.005876
 335   5  11.678901   2.810760  -0.578578   0.000225   0.065303   0.003450
 336  11  11.469519   2.059620  -0.955125  -0.001238   0.065303  -0.018957
 337   5  11.611268   3.668500  -0.482330   0.001411   0.178205   0.007918
 338   5  10.689261   5.330857   0.340289   0.003694   0.394624   0.009362
 339   2  10.774519   4.173783  -0.460013   0.001049   0.371811   0.002821
 340   2   9.821164   5.775798   0.587129   0.000596   0.190150   0.003137
 341   5  10.696968   2.160138   5.642879   0.001519   0.176771   0.008595
 342   5  11.592216   0.847517   4.337054   0.003876   0.390660   0.009921
 343   2  10.562785   1.327653   5.157875   0.001103   0.368658   0.002991
 344   2  11.459767   0.130148   3.651633   0.000398   0.188621   0.002112
 345   7   7.666235   1.310606   6.165043  -0.001750   0.221057  -0.007917
 346   7   8.417223   2.297494   6.484922  -0.001906   0.221057  -0.008622
 347   2   8.814242   1.410124   5.726671  -0.005130   0.601052  -0.008536
 348   8   7.929339   6.572100   1.071767  -0.002580   0.294058  -0.008773
 349   2   8.513396   5.864613   0.439273  -0.002540   0.414543  -0.006127
 350   9   5.785583   3.800294  -1.402830  -0.001068   0.296150  -0.003606
 351   2   7.292439   3.774073  -1.227404  -0.001783   0.421209  -0.004233
 352  10   5.788440  -0.925050   3.915514  -0.000268   0.117763  -0.002274
 353   2   7.245005  -0.563864   4.135928  -0.000385   0.167766  -0.002296
 354  11  11.169917   1.769817  -1.440678  -0.001569   0.111462  -0.014078
 355   2  11.061412   2.605193  -1.088986  -0.000883   0.136175  -0.006484
 356  11  11.542033  -0.923107   2.161462  -0.001588   0.107136  -0.014827
 357   2  11.280556  -0.503889   2.928437  -0.000799   0.130890  -0.006104
 358   3   4.771088   0.190435  -1.000398   0.000373   0.082348   0.004533
 359   4   5.677786  -0.054095  -1.119613   0.001592   0.082348   0.019336
 360   9   4.747570   0.417897  -1.202860   0.000080   0.082348   0.000967
 361   3   4.708217  -0.939196   0.238950   0.000462   0.083289   0.005552
 362   4   5.616920  -1.140700   0.065471   0.001451   0.083289   0.017425
 363  10   4.684844  -1.121215   0.482962   0.000082   0.083289   0.000987
 364   4   5.990857  -0.990355  -0.676342   0.005374   0.407943   0.013174
 365   3   4.735548  -0.409647  -0.597357   0.002405   0.453970   0.005298
 366   3   3.106752   5.031410  -0.442716  -0.000027   0.027667  -0.000970
 367   6   2.703178   5.219738  -0.219895   0.000007   0.027667   0.000260
 368   9   3.169761   4.848874  -0.675862  -0.000066   0.027667  -0.002369
 369   3   1.495666   2.243177  -0.699296  -0.000021   0.027667  -0.000748
 370   6   1.113063   2.467798  -0.473136   0.000029   0.027667   0.001061
 371   9   1.702948   2.310329  -0.909465  -0.000047   0.027667  -0.001702
 372   3   1.468035  -0.378014   2.209363  -0.000024   0.027444  -0.000879
 373   6   1.085777  -0.126008   2.405205   0.000007   0.027444   0.000264
 374  10   1.672779  -0.582111   2.298307  -0.000061   0.027444  -0.002209
 375   3   3.040984   0.138423   4.957921  -0.000016   0.027444  -0.000578
 376   6   2.638206   0.383692   5.117906   0.000028   0.027444   0.001038
 377  10   3.104828  -0.111935   4.800659  -0.000046   0.027444  -0.001669
 378   3   1.008936   2.015659  -0.295687   0.000024   0.026197   0.000919
 379   6   0.583027   2.222097  -0.140994  -0.000007   0.026197  -0.000259
 380  12   0.313903   2.143729  -0.027146  -0.000037   0.026197  -0.001398
 381   3   0.996170  -0.008384   1.969479   0.000005   0.026197   0.000177
 382   6   0.570089   0.170858   2.154608  -0.000016   0.026197  -0.000615
 383  12   0.302127   0.276709   2.062291  -0.000050   0.026197  -0.001915
 384   3   3.097133   0.807568   5.502284  -0.000019   0.025699  -0.000728
 385   6   2.694049   0.995506   5.726185  -0.000029   0.025699  -0.001122
 386  13   2.613474   1.174783   5.956987  -0.000056   0.025699  -0.002171
 387   3   3.120973   5.599441   0.125106  -0.000020   0.025829  -0.000766
 388   6   2.718156   5.845122   0.284205  -0.000035   0.025829  -0.001344
 389  14   2.639060   6.095455   0.435770  -0.000071   0.025829  -0.002757
 390   6   2.654044   5.641993   0.064352   0.000064   0.080405   0.000793
 391   3   3.179227   5.273162  -0.262779   0.000044   0.080405   0.000547
 392   6   0.745395   2.406812  -0.316663   0.000087   0.052118   0.001661
 393   3   1.308944   2.041391  -0.566347   0.000062   0.052118   0.001199
 394   6   0.708775   0.038314   2.288044   0.000053   0.046027   0.001160
 395   3   1.305087  -0.288768   2.064373   0.000048   0.046027   0.001035
 396   6   2.548216   0.670185   5.470630   0.000091   0.092857   0.000985
 397   3   3.194177   0.426886   5.257290   0.000053   0.092857   0.000575
 398   3   4.072062   1.326949   5.788788  -0.000465   0.169691  -0.002739
 399   7   4.633721   1.681136   6.160425  -0.000920   0.169691  -0.005423
 400  13   3.535179   1.710854   6.171602  -0.000534   0.169691  -0.003147
 401   7   5.338384   1.373379   6.226218  -0.000913   0.147786  -0.006175
 402   3   4.643498   0.758004   5.575165  -0.000144   0.208262  -0.000691
 403   3   4.144997   5.966529   0.679198  -0.000458   0.169821  -0.002696
 404   8   4.695426   6.370844   1.017007  -0.000921   0.169821  -0.005426
 405  14   3.603716   6.391289   1.007977  -0.000497   0.169821  -0.002928
 406   8   5.431389   6.389974   0.701177  -0.000604   0.108539  -0.005565
 407   3   4.570176   5.796656   0.269014  -0.000087   0.152992  -0.000567
 408   9   3.647429   4.786852  -0.937607  -0.000179   0.070747  -0.002533
 409   9   4.533714   4.768210  -0.945728  -0.000214   0.070747  -0.003026
 410   3   4.098161   4.983245  -0.585656  -0.000486   0.154300  -0.003149
 411   9   3.998131   0.547591  -1.347709  -0.000094   0.077734  -0.001210
 412   9   2.844232   1.005994  -1.295395  -0.000517   0.177516  -0.002911
 413   9   2.032162   1.941794  -1.199621  -0.000192   0.077734  -0.002465
 414   3   3.472823   0.412214  -1.020688  -0.000119   0.165991  -0.000714
 415   3   2.108654   1.379639  -0.917931  -0.000388   0.165991  -0.002339
 416  10   1.999039  -0.910477   1.967062  -0.000177   0.076695  -0.002305
 417  10   2.799565  -1.105767   1.056062  -0.000487   0.174600  -0.002790
 418  10   3.936223  -1.216242   0.603618  -0.000083   0.076695  -0.001085
 419   3   2.074667  -0.686588   1.384047  -0.000424   0.164225  -0.002582
 420   3   3.419026  -0.898781   0.437849  -0.000128   0.164225  -0.000781
 421  10   4.481590  -0.400653   4.765956  -0.000196   0.071619  -0.002732
 422  10   3.583897  -0.382984   4.772460  -0.000175   0.071619  -0.002439
 423   3   4.041326  -0.017718   4.937387  -0.000483   0.155738  -0.003103
 424  12   0.114490   1.761940   0.150624  -0.000406   0.203814  -0.001990
 425  12   0.098343   0.730846   1.190508  -0.001534   0.417624  -0.003674
 426   3   1.104269   1.010682   0.150471   0.000100   0.557799   0.000180
 427   3   1.106387  -0.046365   1.437331   0.000350   0.287058   0.001220
 428  13   2.740305   1.375131   6.215308  -0.000347   0.133365  -0.002602
 429   3   3.593293   0.883347   5.650216   0.000071   0.187938   0.000375
 430  14   2.895145   6.446944   0.708835  -0.000396   0.149355  -0.002651
 431   3   3.553295   5.714187   0.142539   0.000090   0.210450   0.000427
 432   9   5.815695   2.806980  -1.904262  -0.000400   0.245012  -0.001633
 433   9   5.329248   1.687511  -2.010272  -0.000350   0.492469  -0.000710
 434   9   4.812898   0.654227  -1.601879   0.000377   0.245012   0.001540
 435   4   7.031759   1.805077  -2.017113   0.005373   0.607334   0.008846
 436   4   6.345042   0.330867  -1.810041   0.007020   0.607334   0.011558
 437  10   4.719557  -1.489945   0.745613   0.000399   0.227090   0.001758
 438  10   5.131435  -1.850272   1.772947  -0.000187   0.456312  -0.000409
 439  10   5.629941  -1.559537   3.068983  -0.000711   0.456312  -0.001559
 440   4   6.202068  -1.824621   0.509166   0.006475   0.561624   0.011530
 441   4   6.771335  -2.000556   1.952390   0.006089   0.561624   0.010842
 442   4   7.184688  -1.503130   3.045601   0.002060   0.282675   0.007288
 443  11  11.106827  -1.490808   1.934793  -0.001089   0.083250  -0.013084
 444  11  10.575423  -2.215469   1.098082  -0.002934   0.180330  -0.016270
 445  11  10.045295  -2.400801  -0.280981  -0.003142   0.180330  -0.017423
 446  11   9.850521  -1.690987  -1.575363  -0.003218   0.180330  -0.017848
 447  11  10.072002  -0.380850  -2.247439  -0.003128   0.180330  -0.017344
 448  11  10.617744   0.985441  -2.018060  -0.003007   0.180330  -0.016676
 449   4  10.527582  -1.794315   1.902668  -0.002172   0.178529  -0.012167
 450   4   9.855900  -2.473661   0.605495  -0.002170   0.178529  -0.012156
 451   4   9.441662  -2.173951  -0.922218  -0.002605   0.178529  -0.014592
 452   4   9.456924  -1.019670  -2.045931  -0.002424   0.178529  -0.013577
 453   4   9.895345   0.509747  -2.298905  -0.002146   0.178529  -0.012019
 454   4  10.427735   1.623954  -1.853731  -0.001031   0.095319  -0.010815
 455   7   8.798408   3.086968   6.549185  -0.001169   0.268950  -0.004346
 456   7   8.721195   4.118767   6.433595  -0.000917   0.268950  -0.003410
 457   5  10.132154   3.641660   5.920943   0.004668   0.664877   0.007021
 458   8   8.612704   6.933635   3.618716  -0.000683   0.255758  -0.002671
 459   8   8.595004   6.979400   2.301884  -0.002600   0.515155  -0.005047
 460   5  10.000480   6.542392   3.108008   0.006375   0.630229   0.010116
 461   5   9.923354   6.476775   1.674660   0.002215   0.317716   0.006972
 462  11  11.842071   1.665550  -1.028241  -0.003402   0.216230  -0.015732
 463  11  12.567785   0.950996  -0.260992  -0.007474   0.436671  -0.017116
 464  11  12.657018   0.012641   0.967022  -0.007584   0.436671  -0.017368
 465  11  12.056223  -0.586431   1.918902  -0.003300   0.216230  -0.015263
 466   5  12.500196   2.441476  -0.158916   0.003715   0.525414   0.007071
 467   5  13.150599   1.422801   1.032934   0.005052   0.525414   0.009616
 468   5  12.684696   0.501309   2.380159   0.003470   0.525414   0.006605
 469   6   3.507459   6.835658   4.326050  -0.000086   0.088133  -0.000972
 470   8   4.467362   6.925645   4.069653  -0.000293   0.088133  -0.003329
 471  14   3.384107   7.017007   4.112291  -0.000230   0.088133  -0.002604
 472   8   5.042678   7.082749   4.249800  -0.000104   0.044203  -0.002357
 473   6   3.633915   6.846024   4.607802   0.000193   0.062786   0.003080
 474   9   1.869530   2.706113  -1.141256  -0.000485   0.213580  -0.002273
 475   9   2.579891   4.067955  -1.072652  -0.001794   0.439351  -0.004084
 476   6   1.248618   3.616658  -0.556304   0.000328   0.582985   0.000563
 477   6   2.169872   5.090389  -0.369029   0.000436   0.300883   0.001449
 478  10   2.869363  -0.433321   4.524567  -0.000442   0.212110  -0.002083
 479  10   2.066518  -0.726801   3.259225  -0.001672   0.436077  -0.003834
 480   6   1.734462   0.079874   4.471874   0.000322   0.579194   0.000556
 481   6   0.934645  -0.155503   2.949001   0.000415   0.298807   0.001389
 482  12  -0.158179   0.332930   2.337553  -0.000142   0.068758  -0.002065
 483  12  -0.719840   0.645520   3.241813  -0.000388   0.152560  -0.002545
 484  12  -1.461979   1.565259   3.876677  -0.000236   0.152560  -0.001547
 485  12  -2.001992   2.784611   3.730711  -0.000367   0.152560  -0.002405
 486  12  -2.117748   3.802000   2.863957  -0.000396   0.152560  -0.002599
 487  12  -1.761631   4.198925   1.632953  -0.000282   0.152560  -0.001851
 488  12  -1.080127   3.812112   0.544068  -0.000307   0.152560  -0.002012
 489  12  -0.353573   2.800676   0.045212  -0.000436   0.152560  -0.002856
 490   6  -0.016318   0.333552   2.917099  -0.000265   0.150813  -0.001758
 491   6  -0.835355   1.022367   3.978257  -0.000018   0.150813  -0.000121
 492   6  -1.595699   2.290895   4.268184  -0.000027   0.150813  -0.000178
 493   6  -1.984585   3.617332   3.667619  -0.000159   0.150813  -0.001055
 494   6  -1.842045   4.456051   2.423603  -0.000136   0.150813  -0.000901
 495   6  -1.226713   4.462048   1.047857  -0.000009   0.150813  -0.000059
 496   6  -0.391704   3.632856   0.106292  -0.000208   0.150813  -0.001380
 497   6   0.227439   2.604240  -0.134587  -0.000048   0.084003  -0.000571
 498  13   2.720003   5.154151   6.618583  -0.000118   0.067563  -0.001745
 499  13   1.657243   5.392859   6.613860  -0.000226   0.149246  -0.001513
 500  13   0.401059   4.999555   6.540638  -0.000324   0.149246  -0.002168
 501  13  -0.369039   3.937089   6.413501  -0.000357   0.149246  -0.002391
 502  13  -0.348668   2.625401   6.282699  -0.000236   0.149246  -0.001581
 503  13   0.454119   1.582937   6.199932  -0.000303   0.149246  -0.002027
 504  13   1.722021   1.221731   6.197914  -0.000423   0.149246  -0.002834
 505   6   2.408295   5.554016   6.312914  -0.000084   0.148835  -0.000564
 506   6   0.927682   5.576507   6.275284  -0.000077   0.148835  -0.000519
 507   6  -0.271439   4.715005   6.156714  -0.000127   0.148835  -0.000855
 508   6  -0.715116   3.310019   6.004070  -0.000093   0.148835  -0.000628
 509   6  -0.227984   1.916869   5.877683  -0.000058   0.148835  -0.000387
 510   6   0.997417   1.086200   5.827509  -0.000083   0.148835  -0.000555
 511   6   2.195263   0.985491   5.849689  -0.000072   0.082543  -0.000877
 512  14   2.173958   6.354557   0.452872  -0.000161   0.067117  -0.002406
 513  14   1.093940   6.349520   0.526744  -0.000355   0.148070  -0.002399
 514  14   0.004239   6.483789   1.242469  -0.000208   0.148070  -0.001405
 515  14  -0.440948   6.737273   2.448824  -0.000343   0.148070  -0.002314
 516  14  -0.067893   7.011053   3.675042  -0.000344   0.148070  -0.002322
 517  14   0.977824   7.198291   4.442607  -0.000279   0.148070  -0.001885
 518  14   2.288124   7.225917   4.451984  -0.000272   0.148070  -0.001835
 519   6   1.771753   5.963440   0.269377  -0.000248   0.148039  -0.001672
 520   6   0.353178   6.020761   0.660598   0.000022   0.148039   0.000151
 521   6  -0.554555   6.250078   1.797317   0.000030   0.148039   0.000204
 522   6  -0.597214   6.561903   3.235941  -0.000135   0.148039  -0.000914
 523   6   0.241848   6.834549   4.415065  -0.000151   0.148039  -0.001020
 524   6   1.635198   6.961619   4.874549   0.000060   0.148039   0.000407
 525   6   2.810172   6.937620   4.658543   0.000025   0.081999   0.000301
 526  13   3.312142   1.924564   6.737505  -0.000224   0.250110  -0.000897
 527  13   3.343972   2.930528   7.201964  -0.001070   0.500034  -0.002141
 528  13   3.378411   4.273718   7.044842  -0.000688   0.500034  -0.001376
 529   7   4.890231   2.254298   6.924455  -0.001895   0.500034  -0.003790
 530   7   4.928738   3.573441   7.221796  -0.001991   0.500034  -0.003981
 531   7   4.953222   4.622829   6.865587  -0.000386   0.250110  -0.001545
 532  14   3.366467   7.403448   3.870549   0.000026   0.248613   0.000103
 533  14   3.380069   7.648012   2.789966  -0.000945   0.497056  -0.001902
 534  14   3.382651   7.216604   1.508278  -0.000970   0.497056  -0.001951
 535   8   4.927989   7.495382   3.477592  -0.001664   0.497056  -0.003349
 536   8   4.939576   7.512123   2.125397  -0.001975   0.497056  -0.003973
 537   8   4.936916   6.947361   1.172144  -0.000615   0.248613  -0.002475
 =====================================================

              2351218  WORDS OF DYNAMIC MEMORY USED
 EXECUTION OF GAMESS TERMINATED NORMALLY Fri Nov 25 00:11:07 2016
 DDI: 263640 bytes (0.3 MB / 0 MWords) used by master data server.

 ----------------------------------------
 CPU timing information for all processes
 ========================================
 0: 351.912 + 0.120 = 352.32
 ----------------------------------------
 ddikick.x: exited gracefully.
