----- GAMESS execution script -----

          ******************************************************
          *         GAMESS VERSION =  5 DEC 2014 (R1)          *
          *             FROM IOWA STATE UNIVERSITY             *
          * M.W.SCHMIDT, K.K.BALDRIDGE, J.A.BOATZ, S.T.ELBERT, *
          *   M.S.GORDON, J.H.JENSEN, S.KOSEKI, N.MATSUNAGA,   *
          *          K.A.NGUYEN, S.J.SU, T.L.WINDUS,           *
          *       TOGETHER WITH M.DUPUIS, J.A.MONTGOMERY       *
          *         J.COMPUT.CHEM.  14, 1347-1363(1993)        *
          **************** 64 BIT LINUX VERSION ****************

 EXECUTION OF GAMESS BEGUN Thu Nov 24 23:08:38 2016

            ECHO OF THE FIRST FEW INPUT CARDS -
 INPUT CARD>! SELECT RESTRICTED HARTREE-FOCK AS DEFAULT                                     
 INPUT CARD>$contrl scftyp=rhf $end                                                         
 INPUT CARD>                                                                                
 INPUT CARD>! THEORY: HF OR DFT                                                             
 INPUT CARD> $contrl mplevl=0 $end                                                          
 INPUT CARD>                                                                                
 INPUT CARD> $system timlim=10000 mwords=20 $end                                            
 INPUT CARD> $SCF DIRSCF=.TRUE. $end                                                        
 INPUT CARD>                                                                                
 INPUT CARD>                                                                                
 INPUT CARD>! BASIS SETS                                                                    
 INPUT CARD>! 6-311G(d,p)                                                                   
 INPUT CARD> $BASIS GBASIS=N311 NGAUSS=6 NDFUNC=1 NPFUNC=1 $END                             
 INPUT CARD>                                                                                
 INPUT CARD>! One of the following                                                          
 INPUT CARD> $guess guess=HUCKEL $end                                                       
 INPUT CARD>                                                                                
 INPUT CARD> $statpt projct=.FALSE. $end                                                    
 INPUT CARD> $STATPT IFREEZ(1)=1,2,3 $END                                                   
 INPUT CARD>                                                                                
 INPUT CARD>! Optimize the geometry with COSMO effects                                      
 INPUT CARD> $statpt opttol=0.0005 nstep=50 $end                                            
 INPUT CARD> $contrl nzvar=1 $end                                                           
 INPUT CARD> $zmat dlc=.t. auto=.t. $end                                                    
 INPUT CARD> $contrl runtyp=OPTIMIZE maxit=200 $end                                         
 INPUT CARD>                                                                                
 INPUT CARD>! Run COSMO on perfect conductor                                                
 INPUT CARD> $COSGMS PRFCND=.TRUE. $end                                                     
 INPUT CARD>                                                                                
 INPUT CARD>! Specifying RSOLV                                                              
 INPUT CARD> $COSGMS COSRAD = 1.4 $end                                                      
 INPUT CARD>                                                                                
 INPUT CARD>! available memory                                                              
 INPUT CARD> $SYSTEM MWORDS=40 $END                                                         
 INPUT CARD>                                                                                
 INPUT CARD> $DATA                                                                          
 INPUT CARD>http://cactus.nci.nih.gov/chemical/structure/BUTYLCYCLOHEXANE/file?format=sdf&ge
 INPUT CARD>C1                                                                              
 INPUT CARD>C      6.0     -0.8947000000   -0.8311000000   -0.2542000000                    
 INPUT CARD>C      6.0     -1.9966000000    0.1095000000    0.2380000000                    
 INPUT CARD>C      6.0     -3.3520000000   -0.3794000000   -0.2767000000                    
 INPUT CARD>C      6.0     -4.4538000000    0.5611000000    0.2155000000                    
 INPUT CARD>C      6.0      0.4606000000   -0.3422000000    0.2604000000                    
 INPUT CARD>C      6.0      1.5461000000   -1.3488000000   -0.1260000000                    
 INPUT CARD>C      6.0      2.9015000000   -0.8599000000    0.3887000000                    
 INPUT CARD>C      6.0      3.2228000000    0.5005000000   -0.2335000000                    
 INPUT CARD>C      6.0      2.1373000000    1.5071000000    0.1528000000                    
 INPUT CARD>C      6.0      0.7819000000    1.0182000000   -0.3618000000                    
 INPUT CARD>H      1.0     -1.0832000000   -1.8379000000    0.1184000000                    
 INPUT CARD>H      1.0     -0.8869000000   -0.8426000000   -1.3441000000                    
   40000000 WORDS OF MEMORY AVAILABLE

     BASIS OPTIONS
     -------------
     GBASIS=N311         IGAUSS=       6      POLAR=POPN311 
     NDFUNC=       1     NFFUNC=       0     DIFFSP=       F
     NPFUNC=       1      DIFFS=       F     BASNAM=        


     RUN TITLE
     ---------
 http://cactus.nci.nih.gov/chemical/structure/BUTYLCYCLOHEXANE/file?format=sdf&ge

 THE POINT GROUP OF THE MOLECULE IS C1      
 THE ORDER OF THE PRINCIPAL AXIS IS     0

 ATOM      ATOMIC                      COORDINATES (BOHR)
           CHARGE         X                   Y                   Z
 C           6.0    -1.6907378412       -1.5705512684       -0.4803683461
 C           6.0    -3.7730269071        0.2069249957        0.4497547851
 C           6.0    -6.3343615108       -0.7169620397       -0.5228871808
 C           6.0    -8.4164616041        1.0603252517        0.4072359504
 C           6.0     0.8704077899       -0.6466642330        0.4920846472
 C           6.0     2.9217053496       -2.5488624122       -0.2381054745
 C           6.0     5.4830399534       -1.6249753768        0.7345364914
 C           6.0     6.0902089132        0.9458078569       -0.4412510181
 C           6.0     4.0389113536        2.8480060361        0.2887501309
 C           6.0     1.4775767498        1.9241190007       -0.6837028624
 H           1.0    -2.0469511899       -3.4731273928        0.2237435569
 H           1.0    -1.6759979785       -1.5922831173       -2.5399807001
 H           1.0    -3.7877667698        0.2286568445        2.5093671391
 H           1.0    -3.4168135584        2.1095011201       -0.2545460905
 H           1.0    -6.3194326755       -0.7386938886       -2.5824995348
 H           1.0    -6.6903858869       -2.6197271368        0.1814136948
 H           1.0    -8.0602482554        2.9629013761       -0.2968759527
 H           1.0   -10.2411810179        0.4021336902       -0.2855375967
 H           1.0    -8.4312014668        1.0820571006        2.4668483044
 H           1.0     0.8012438188       -0.4646836204        2.5426263165
 H           1.0     2.4893360436       -4.3801958669        0.5996100559
 H           1.0     2.9908693208       -2.7308430249       -2.2886471437
 H           1.0     5.4138759822       -1.4429947642        2.7850781607
 H           1.0     6.9445540323       -2.9800978826        0.2142949270
 H           1.0     7.9149283270        1.6039994184        0.2515225290
 H           1.0     6.1593728844        0.7638272442       -2.4917926874
 H           1.0     3.9697473824        3.0299866487        2.3394807728
 H           1.0     4.4712806595        4.6795284634       -0.5487764268
 H           1.0     1.5467407210        1.7421383881       -2.7342445316
 H           1.0     0.0162516435        3.2794304791       -0.1634612979

          INTERNUCLEAR DISTANCES (ANGS.)




     $CONTRL OPTIONS
     ---------------
 SCFTYP=RHF          RUNTYP=OPTIMIZE     EXETYP=RUN     
 MPLEVL=       0     CITYP =NONE         CCTYP =NONE         VBTYP =NONE    
 DFTTYP=NONE         TDDFT =NONE    
 MULT  =       1     ICHARG=       0     NZVAR =       1     COORD =UNIQUE  
 PP    =NONE         RELWFN=NONE         LOCAL =NONE         NUMGRD=       F
 ISPHER=      -1     NOSYM =       0     MAXIT =     200     UNITS =ANGS    
 PLTORB=       F     MOLPLT=       F     AIMPAC=       F     FRIEND=        
 NPRINT=       7     IREST =       0     GEOM  =INPUT   
 NORMF =       0     NORMP =       0     ITOL  =      20     ICUT  =       9
 INTTYP=BEST         GRDTYP=BEST         QMTTOL= 1.0E-06

     $SYSTEM OPTIONS
     ---------------
  REPLICATED MEMORY=    40000000 WORDS (ON EVERY NODE).
 DISTRIBUTED MEMDDI=           0 MILLION WORDS IN AGGREGATE,
 MEMDDI DISTRIBUTED OVER   1 PROCESSORS IS           0 WORDS/PROCESSOR.
 TOTAL MEMORY REQUESTED ON EACH PROCESSOR=    40000000 WORDS.
 TIMLIM=       10000.00 MINUTES, OR       6.9 DAYS.
 PARALL= F  BALTYP=  DLB     KDIAG=    0  COREFL= F
 MXSEQ2=     300 MXSEQ3=     150  mem10=         0

     $COSGMS OPTIONS
     ---------------
     EPSI  =   INFTY     NSPA  =      92     COSRAD=    1.40
     DISEX =   10.00     OUTCHG=DBLCAV       COSBUG=       F
     COSWRT=       F     DCOSMO=       F

     SYMMETRY COORDINATES WILL NOT BE USED FOR 
     THE COSMO CALCULATION, EVEN IF SPECIFIED:
         -- SWITCHING TO C1 POINT GROUP --


     DEFINITION OF CAVITY
     ---------------------------
     ATOM         COORDINATES           RADIUS 
     1   -1.6907   -1.5706   -0.4804    2.0000
     2   -3.7730    0.2069    0.4498    2.0000
     3   -6.3344   -0.7170   -0.5229    2.0000
     4   -8.4165    1.0603    0.4072    2.0000
     5    0.8704   -0.6467    0.4921    2.0000
     6    2.9217   -2.5489   -0.2381    2.0000
     7    5.4830   -1.6250    0.7345    2.0000
     8    6.0902    0.9458   -0.4413    2.0000
     9    4.0389    2.8480    0.2888    2.0000
    10    1.4776    1.9241   -0.6837    2.0000
    11   -2.0470   -3.4731    0.2237    1.3000
    12   -1.6760   -1.5923   -2.5400    1.3000
    13   -3.7878    0.2287    2.5094    1.3000
    14   -3.4168    2.1095   -0.2545    1.3000
    15   -6.3194   -0.7387   -2.5825    1.3000
    16   -6.6904   -2.6197    0.1814    1.3000
    17   -8.0602    2.9629   -0.2969    1.3000
    18  -10.2412    0.4021   -0.2855    1.3000
    19   -8.4312    1.0821    2.4668    1.3000
    20    0.8012   -0.4647    2.5426    1.3000
    21    2.4893   -4.3802    0.5996    1.3000
    22    2.9909   -2.7308   -2.2886    1.3000
    23    5.4139   -1.4430    2.7851    1.3000
    24    6.9446   -2.9801    0.2143    1.3000
    25    7.9149    1.6040    0.2515    1.3000
    26    6.1594    0.7638   -2.4918    1.3000
    27    3.9697    3.0300    2.3395    1.3000
    28    4.4713    4.6795   -0.5488    1.3000
    29    1.5467    1.7421   -2.7342    1.3000
    30    0.0163    3.2794   -0.1635    1.3000

          ----------------
          PROPERTIES INPUT
          ----------------

     MOMENTS            FIELD           POTENTIAL          DENSITY
 IEMOM =       1   IEFLD =       0   IEPOT =       0   IEDEN =       0
 WHERE =COMASS     WHERE =NUCLEI     WHERE =NUCLEI     WHERE =NUCLEI  
 OUTPUT=BOTH       OUTPUT=BOTH       OUTPUT=BOTH       OUTPUT=BOTH    
 IEMINT=       0   IEFINT=       0                     IEDINT=       0
                                                       MORB  =       0
          EXTRAPOLATION IN EFFECT
          SOSCF IN EFFECT
 ORBITAL PRINTING OPTION: NPREO=     1   310     2     1

     -------------------------------
     INTEGRAL TRANSFORMATION OPTIONS
     -------------------------------
     NWORD  =            0
     CUTOFF = 1.0E-09     MPTRAN =       0
     DIRTRF =       T     AOINTS =DUP     

          ----------------------
          INTEGRAL INPUT OPTIONS
          ----------------------
 NOPK  =       1 NORDER=       0 SCHWRZ=       T


 -----------------------------------------------
  STATISTICS ON AUTOMATIC COORDINATE GENERATION 
 -----------------------------------------------
  NUMBER OF USER SPECIFIED BONDS                             0
  NUMBER OF BONDS                                           30
  NUMBER OF ANGLES                                          60
  NUMBER OF TORSIONS                                        90
  NUMBER OF EXTRA COORD.                                     0
  NUMBER OF EXTRA COORD. FOR CONSTRAINTS                     0
  NUMBER OF CONSTRAINED COORD.                               0

  TOTAL NUMBER OF PRIMITIVES                               180
 -----------------------------------------------

   --- ENCODED Z MATRIX ---
 COORD  TYPE   I   J   K   L   M   N
    1      1    1   5
    2      1    1   2
    3      1    1  11
    4      1    1  12
    5      1    2  14
    6      1    2  13
    7      1    2   3
    8      1    3   4
    9      1    3  15
   10      1    3  16
   11      1    4  18
   12      1    4  17
   13      1    4  19
   14      1    5   6
   15      1    5  20
   16      1    5  10
   17      1    6   7
   18      1    6  22
   19      1    6  21
   20      1    7   8
   21      1    7  24
   22      1    7  23
   23      1    8  26
   24      1    8  25
   25      1    8   9
   26      1    9  28
   27      1    9  27
   28      1    9  10
   29      1   10  30
   30      1   10  29
   31      2    1   2  13
   32      2    1   2  14
   33      2    1   5   6
   34      2    1   2   3
   35      2    1   5  10
   36      2    1   5  20
   37      2    2   1   5
   38      2    2   3   4
   39      2    2   3  15
   40      2    2   3  16
   41      2    2   1  12
   42      2    2   1  11
   43      2    3   2  13
   44      2    3   4  19
   45      2    3   4  17
   46      2    3   4  18
   47      2    3   2  14
   48      2    4   3  16
   49      2    4   3  15
   50      2    5   6   7
   51      2    5   1  11
   52      2    5   1  12
   53      2    5  10  29
   54      2    5  10   9
   55      2    5   6  21
   56      2    5  10  30
   57      2    5   6  22
   58      2    6   5  20
   59      2    6   5  10
   60      2    6   7  23
   61      2    6   7  24
   62      2    6   7   8
   63      2    7   8   9
   64      2    7   8  25
   65      2    7   8  26
   66      2    7   6  21
   67      2    7   6  22
   68      2    8   9  10
   69      2    8   9  28
   70      2    8   9  27
   71      2    8   7  23
   72      2    8   7  24
   73      2    9  10  30
   74      2    9  10  29
   75      2    9   8  25
   76      2    9   8  26
   77      2   10   9  27
   78      2   10   9  28
   79      2   10   5  20
   80      2   11   1  12
   81      2   13   2  14
   82      2   15   3  16
   83      2   17   4  19
   84      2   17   4  18
   85      2   18   4  19
   86      2   21   6  22
   87      2   23   7  24
   88      2   25   8  26
   89      2   27   9  28
   90      2   29  10  30
   91      3    1   2   3  16
   92      3    1   5  10  29
   93      3    1   5   6  21
   94      3    1   5  10  30
   95      3    1   5   6  22
   96      3    1   5  10   9
   97      3    1   5   6   7
   98      3    1   2   3  15
   99      3    1   2   3   4
  100      3    2   1   5   6
  101      3    2   1   5  20
  102      3    2   3   4  18
  103      3    2   3   4  17
  104      3    2   3   4  19
  105      3    2   1   5  10
  106      3    3   2   1  12
  107      3    3   2   1  11
  108      3    3   2   1   5
  109      3    4   3   2  13
  110      3    4   3   2  14
  111      3    5  10   9  27
  112      3    5  10   9  28
  113      3    5  10   9   8
  114      3    5   1   2  13
  115      3    5   6   7  23
  116      3    5   6   7  24
  117      3    5   6   7   8
  118      3    5   1   2  14
  119      3    6   7   8   9
  120      3    6   7   8  25
  121      3    6   7   8  26
  122      3    6   5  10  30
  123      3    6   5  10   9
  124      3    6   5  10  29
  125      3    6   5   1  12
  126      3    6   5   1  11
  127      3    7   8   9  28
  128      3    7   6   5  10
  129      3    7   6   5  20
  130      3    7   8   9  10
  131      3    7   8   9  27
  132      3    8   7   6  21
  133      3    8   7   6  22
  134      3    8   9  10  29
  135      3    8   9  10  30
  136      3    9   8   7  23
  137      3    9   8   7  24
  138      3    9  10   5  20
  139      3   10   5   6  22
  140      3   10   5   6  21
  141      3   10   5   1  12
  142      3   10   5   1  11
  143      3   10   9   8  25
  144      3   10   9   8  26
  145      3   11   1   5  20
  146      3   11   1   2  13
  147      3   11   1   2  14
  148      3   12   1   2  13
  149      3   12   1   5  20
  150      3   12   1   2  14
  151      3   13   2   3  16
  152      3   13   2   3  15
  153      3   14   2   3  16
  154      3   14   2   3  15
  155      3   15   3   4  18
  156      3   15   3   4  17
  157      3   15   3   4  19
  158      3   16   3   4  18
  159      3   16   3   4  17
  160      3   16   3   4  19
  161      3   20   5   6  22
  162      3   20   5  10  30
  163      3   20   5   6  21
  164      3   20   5  10  29
  165      3   21   6   7  24
  166      3   21   6   7  23
  167      3   22   6   7  24
  168      3   22   6   7  23
  169      3   23   7   8  26
  170      3   23   7   8  25
  171      3   24   7   8  26
  172      3   24   7   8  25
  173      3   25   8   9  27
  174      3   25   8   9  28
  175      3   26   8   9  27
  176      3   26   8   9  28
  177      3   27   9  10  29
  178      3   27   9  10  30
  179      3   28   9  10  29
  180      3   28   9  10  30

          INDEP./SYM. INTERNAL COORDINATES
          --------------------------------
 CRD  1=  -0.1169 ( 31) -0.1268 ( 32)  0.1975 ( 33)  0.3952 ( 34) -0.1815 ( 35)
          -0.5700 ( 37) -0.2720 ( 38)  0.1568 ( 41)  0.1806 ( 42) -0.1190 ( 47)
           0.1762 ( 51)  0.1531 ( 52) -0.1054 ( 92) -0.1162 ( 94) -0.1585 ( 96)
 CRD  2=   0.1375 (  1)  0.1529 ( 16)  0.1012 ( 28) -0.1263 ( 31)  0.2180 ( 34)
           0.2667 ( 35) -0.1341 ( 36)  0.1088 ( 41) -0.1018 ( 42) -0.1567 ( 43)
           0.1040 ( 52)  0.1836 ( 93)  0.1841 ( 95)  0.2834 ( 97) -0.1238 ( 98)
          -0.2017 ( 99) -0.2766 (100) -0.1500 (101) -0.2148 (105)  0.1135 (106)
           0.1165 (107)  0.3036 (108)  0.1679 (114)  0.1462 (118)
 CRD  3=  -0.3753 (  1) -0.3629 (  2) -0.2905 (  7) -0.2042 (  8) -0.2165 ( 14)
          -0.1579 ( 17) -0.2097 ( 33) -0.3422 ( 34) -0.2030 ( 37) -0.2014 ( 38)
           0.1469 ( 47)  0.1058 ( 52)  0.1221 ( 59)
 CRD  4=   0.1240 (  1) -0.1996 ( 32) -0.1910 ( 33)  0.2425 ( 34)  0.2198 ( 35)
           0.1220 ( 37) -0.3030 ( 38)  0.1609 ( 39) -0.1842 ( 41)  0.1302 ( 42)
          -0.1429 ( 43) -0.1358 ( 45)  0.1642 ( 48) -0.1304 ( 51)  0.1250 ( 58)
          -0.1354 ( 79)  0.1798 ( 91)  0.1253 ( 98)  0.2289 ( 99)  0.2282 (100)
           0.1891 (101)  0.2173 (105)  0.1141 (110)  0.1045 (125)
 CRD  5=  -0.1197 ( 14) -0.1230 ( 31)  0.1437 ( 34)  0.1019 ( 36)  0.2111 ( 37)
          -0.4391 ( 38)  0.2183 ( 40) -0.1732 ( 42) -0.1403 ( 44) -0.1641 ( 47)
           0.1823 ( 49) -0.1981 ( 52)  0.1074 ( 92)  0.1035 ( 94)  0.1885 ( 96)
          -0.1159 ( 97) -0.1253 ( 98) -0.1222 ( 99) -0.1039 (100) -0.1753 (105)
          -0.1771 (108) -0.1310 (114) -0.1134 (118) -0.1294 (142)
 CRD  6=   0.1293 (  1) -0.1531 (  7) -0.2004 (  8)  0.3105 ( 14) -0.1145 ( 16)
           0.1600 ( 17)  0.1667 ( 31)  0.1247 ( 32)  0.2662 ( 33) -0.2661 ( 34)
          -0.1363 ( 35)  0.2156 ( 37) -0.3434 ( 38)  0.1309 ( 39) -0.1557 ( 41)
          -0.1047 ( 44) -0.1067 ( 45)  0.1274 ( 48)  0.1643 ( 68) -0.1100 ( 92)
          -0.1282 ( 94) -0.1742 ( 96)
 CRD  7=   0.3644 ( 16)  0.1260 ( 28)  0.1445 ( 35) -0.1126 ( 39)  0.1003 ( 40)
           0.1309 ( 43)  0.1482 ( 44) -0.1679 ( 45)  0.1637 ( 51) -0.1313 ( 60)
           0.1997 ( 62) -0.1110 ( 72) -0.1018 ( 77)  0.1366 ( 97)  0.2086 ( 99)
          -0.1875 (102) -0.1295 (103) -0.1301 (104) -0.1791 (106) -0.1422 (107)
          -0.2569 (108)  0.1104 (109) -0.1173 (114) -0.1073 (118)  0.1127 (130)
 CRD  8=  -0.2785 (  1)  0.1591 (  2)  0.1107 (  7)  0.1066 (  8) -0.1218 ( 16)
          -0.1349 ( 17) -0.1426 ( 28)  0.1617 ( 34) -0.1228 ( 35)  0.1239 ( 36)
           0.2262 ( 37) -0.1101 ( 47) -0.2228 ( 50) -0.1312 ( 51) -0.1730 ( 52)
           0.1074 ( 53) -0.2727 ( 54)  0.2239 ( 59) -0.1177 ( 60)  0.1586 ( 62)
          -0.1756 ( 63)  0.1192 ( 67)  0.2224 ( 68)  0.1299 ( 74) -0.1307 ( 77)
          -0.1199 (126)  0.1030 (128)  0.1113 (141)
 CRD  9=   0.2094 (  1) -0.1411 (  2) -0.1596 ( 14)  0.1940 ( 17)  0.2098 ( 28)
          -0.1044 ( 37) -0.1144 ( 44)  0.1135 ( 45)  0.1198 ( 53) -0.1270 ( 55)
          -0.1607 ( 56)  0.2096 ( 62) -0.3372 ( 63)  0.1564 ( 65)  0.1439 ( 66)
           0.1298 ( 68) -0.1035 ( 70) -0.1539 ( 71)  0.1096 ( 73)  0.1155 ( 76)
          -0.1104 ( 79) -0.1133 ( 88) -0.1151 ( 97)  0.1011 (105)  0.1457 (111)
           0.1102 (112)  0.1073 (113) -0.1001 (115)  0.1183 (123)  0.1020 (124)
          -0.1853 (128) -0.1430 (139) -0.1120 (140)  0.1019 (142)
 CRD 10=   0.1716 ( 14) -0.1233 ( 20)  0.1013 ( 28) -0.1286 ( 39)  0.1210 ( 40)
           0.1176 ( 43) -0.2611 ( 44)  0.2619 ( 45) -0.1173 ( 47) -0.1564 ( 48)
           0.1628 ( 49) -0.1150 ( 54)  0.1270 ( 55) -0.1546 ( 57)  0.1269 ( 58)
          -0.1349 ( 64) -0.1355 ( 66)  0.1154 ( 70)  0.1015 ( 75) -0.1590 ( 76)
          -0.1773 ( 99)  0.1439 (100) -0.1048 (106) -0.1008 (107) -0.1149 (108)
          -0.1527 (109) -0.1447 (110)  0.1366 (113)  0.1137 (115)  0.1245 (116)
           0.1594 (117) -0.1490 (119)  0.1082 (125)  0.1212 (126) -0.1072 (136)
 CRD 11=  -0.1640 ( 16) -0.1445 ( 19) -0.3012 ( 20)  0.2858 ( 25)  0.1569 ( 28)
           0.1026 ( 29)  0.1703 ( 44) -0.1467 ( 45)  0.2837 ( 50) -0.1946 ( 54)
          -0.1149 ( 55)  0.1028 ( 61) -0.1513 ( 62) -0.1567 ( 64) -0.1396 ( 66)
           0.1507 ( 68)  0.2099 ( 73)  0.2028 ( 75) -0.1130 ( 78)  0.1161 ( 86)
           0.1153 ( 96) -0.1060 (119)  0.1574 (123) -0.1273 (130)  0.1212 (138)
          -0.1177 (144)
 CRD 12=  -0.1346 (  1) -0.3668 ( 14) -0.3777 ( 16) -0.1302 ( 19) -0.2832 ( 20)
          -0.1098 ( 21) -0.3641 ( 25) -0.1713 ( 29)  0.1292 ( 54) -0.1152 ( 56)
          -0.1925 ( 59) -0.1342 ( 69) -0.1333 ( 72)  0.1125 (113)  0.1062 (125)
          -0.1405 (133)  0.1477 (134) -0.1010 (168)  0.1060 (177)
 CRD 13=  -0.5650 (  8) -0.1235 ( 17) -0.1674 ( 20) -0.1794 ( 25) -0.1538 ( 28)
           0.1487 ( 34) -0.4462 ( 46) -0.1662 ( 48) -0.1595 ( 49)  0.2173 ( 84)
           0.2207 ( 85)
 CRD 14=   0.1442 (  1)  0.2031 (  8) -0.2677 ( 17) -0.3388 ( 20) -0.1033 ( 21)
          -0.1873 ( 24) -0.3158 ( 25) -0.1043 ( 26) -0.2362 ( 28)  0.2372 ( 46)
           0.1281 ( 53)  0.1127 ( 57)  0.1135 ( 60) -0.1095 ( 67) -0.1017 ( 71)
           0.1039 ( 77) -0.1001 ( 85)  0.1479 (119)  0.1012 (121)  0.1169 (122)
          -0.1020 (127) -0.1638 (130) -0.1201 (140) -0.1002 (144)
 CRD 15=   0.3233 (  2) -0.4448 (  7) -0.1336 ( 17)  0.1401 ( 32) -0.1232 ( 43)
           0.3036 ( 44) -0.2441 ( 46) -0.1265 ( 47) -0.1362 ( 61)  0.1235 ( 65)
          -0.1215 ( 71) -0.1355 ( 83)  0.1024 (110)  0.1151 (113) -0.1055 (128)
 CRD 16=  -0.3507 (  7)  0.1602 (  8) -0.1087 ( 20) -0.1075 ( 39)  0.1010 ( 42)
           0.3873 ( 45) -0.2212 ( 46)  0.1269 ( 49)  0.1056 ( 61) -0.1723 ( 65)
          -0.1573 ( 70)  0.1196 ( 71) -0.1012 ( 72)  0.1675 ( 76) -0.1644 ( 83)
           0.1208 ( 96)  0.1167 (101) -0.1463 (113) -0.1364 (117)
 CRD 17=   0.1039 ( 16) -0.2724 ( 17) -0.1727 ( 20) -0.1081 ( 21)  0.3829 ( 28)
          -0.1147 ( 35)  0.1767 ( 39) -0.1792 ( 40) -0.1160 ( 43) -0.1593 ( 44)
           0.1900 ( 45)  0.1016 ( 47)  0.1031 ( 48) -0.1093 ( 52) -0.1110 ( 53)
           0.1580 ( 62)  0.1418 ( 74)  0.1988 ( 78) -0.1319 ( 93)  0.1742 (102)
           0.1589 (103)  0.1561 (104) -0.1108 (114) -0.1038 (118)  0.1264 (143)
 CRD 18=  -0.1921 (  2)  0.1293 ( 16)  0.3804 ( 17)  0.1015 ( 19) -0.1772 ( 25)
          -0.1334 ( 28)  0.1432 ( 39) -0.1654 ( 40) -0.1173 ( 42)  0.1109 ( 44)
          -0.1189 ( 46)  0.1242 ( 48)  0.1118 ( 51) -0.1090 ( 52)  0.1197 ( 56)
          -0.1507 ( 57)  0.1736 ( 61)  0.1342 ( 67)  0.1268 ( 68) -0.1149 ( 69)
          -0.1269 ( 76) -0.1252 ( 95)  0.1205 (102)  0.1377 (103)  0.1204 (104)
           0.1294 (116)  0.1138 (117) -0.1089 (119) -0.1023 (120) -0.1077 (136)
          -0.1011 (170)
 CRD 19=   0.1256 (  2)  0.1196 (  6) -0.1048 ( 13) -0.1062 ( 14)  0.1196 ( 16)
          -0.1044 ( 17)  0.1812 ( 25) -0.3538 ( 28)  0.1492 ( 31) -0.3348 ( 44)
           0.2239 ( 45)  0.1011 ( 51) -0.1049 ( 52)  0.1444 ( 53) -0.1137 ( 55)
          -0.1185 ( 63) -0.1550 ( 74)  0.1008 ( 75) -0.1156 ( 77) -0.1321 ( 78)
          -0.1199 ( 84)  0.1168 ( 85)  0.1081 ( 91)  0.1078 ( 99)  0.1098 (112)
          -0.1064 (114) -0.1038 (177)  0.1006 (180)
 CRD 20=  -0.1682 (  1)  0.3810 (  2) -0.1349 (  8)  0.3225 ( 17) -0.2473 ( 20)
           0.1214 ( 28)  0.1079 ( 31)  0.1173 ( 41)  0.1259 ( 42) -0.2240 ( 44)
          -0.1292 ( 45)  0.2130 ( 46)  0.1567 ( 60)  0.1374 ( 66) -0.1438 ( 71)
           0.1545 ( 83)  0.1075 (137) -0.1047 (169)
 CRD 21=   0.1459 (  2)  0.3256 ( 20)  0.1066 ( 22) -0.3805 ( 25)  0.1830 ( 28)
          -0.1354 ( 44)  0.1025 ( 50) -0.1140 ( 54) -0.1365 ( 62)  0.1063 ( 64)
           0.1421 ( 65)  0.1229 ( 68) -0.1260 ( 69) -0.2050 ( 70)  0.1362 ( 71)
           0.1115 ( 72)  0.1622 ( 73) -0.1330 ( 75) -0.1427 ( 76)  0.1393 ( 77)
           0.1040 (111) -0.1101 (120)  0.1094 (123)  0.1067 (138) -0.1358 (143)
           0.1114 (169) -0.1095 (172) -0.1358 (174)  0.1416 (175)
 CRD 22=  -0.1407 (  3)  0.1425 ( 10)  0.2461 ( 31) -0.2911 ( 32) -0.1841 ( 39)
           0.2608 ( 40) -0.1948 ( 43)  0.1420 ( 45) -0.1046 ( 46)  0.2327 ( 47)
          -0.2029 ( 48)  0.2188 ( 49)  0.1390 ( 60) -0.1198 ( 71) -0.1084 ( 76)
           0.2058 ( 91)  0.2047 ( 98) -0.1277 (102) -0.1457 (103) -0.1569 (104)
           0.1075 (106)  0.1013 (107) -0.1020 (109) -0.1274 (110)
 CRD 23=   0.1500 (  6)  0.1712 (  7)  0.1164 ( 10)  0.1393 ( 12) -0.1081 ( 14)
          -0.1242 ( 15) -0.1211 ( 31)  0.1404 ( 32) -0.1072 ( 38)  0.1601 ( 39)
          -0.1231 ( 41)  0.2371 ( 43)  0.2856 ( 45) -0.1372 ( 46) -0.1580 ( 47)
           0.1738 ( 48) -0.1389 ( 49) -0.1425 ( 51)  0.1326 ( 52) -0.1048 ( 55)
           0.1710 ( 60) -0.1174 ( 71)  0.1411 ( 72)  0.1175 ( 85)  0.1092 ( 99)
          -0.1710 (106) -0.1703 (107)  0.1493 (109)  0.1475 (110)  0.1147 (114)
          -0.1060 (125)
 CRD 24=   0.3662 (  1)  0.1303 (  4) -0.2591 (  7) -0.1215 (  9) -0.2714 ( 14)
           0.1709 ( 36)  0.1348 ( 38) -0.1158 ( 39) -0.1268 ( 41) -0.1513 ( 44)
          -0.1010 ( 45)  0.1693 ( 46)  0.1286 ( 52) -0.1354 ( 53)  0.1568 ( 56)
          -0.1628 ( 58)  0.1012 ( 59)  0.1086 ( 67) -0.1394 ( 73)  0.1829 ( 74)
           0.1140 ( 83)  0.1014 ( 94)  0.1035 (129) -0.1671 (138)
 CRD 25=   0.2298 (  1)  0.2683 (  2)  0.1156 (  3)  0.1288 (  4)  0.1608 (  5)
           0.1239 (  6)  0.2430 (  7)  0.1257 (  9) -0.2362 ( 14)  0.1283 ( 31)
          -0.1968 ( 34)  0.1148 ( 36) -0.1111 ( 37) -0.1730 ( 38)  0.1103 ( 40)
           0.1445 ( 44) -0.1585 ( 46)  0.1201 ( 47)  0.1151 ( 51) -0.1970 ( 57)
          -0.1076 ( 66)  0.1826 ( 67)  0.1465 ( 69) -0.1007 ( 70) -0.1166 ( 81)
          -0.1042 ( 83) -0.1011 (138)
 CRD 26=  -0.1880 (  2) -0.1412 (  3) -0.1833 (  5) -0.1450 (  7) -0.1406 (  9)
          -0.1520 ( 15) -0.1984 ( 16)  0.1051 ( 27) -0.1539 ( 29)  0.1332 ( 30)
           0.1172 ( 34)  0.1030 ( 37) -0.2360 ( 42) -0.1446 ( 44)  0.1227 ( 51)
          -0.1042 ( 52)  0.1003 ( 53) -0.1708 ( 56) -0.1075 ( 65)  0.1390 ( 67)
          -0.1020 ( 68)  0.1902 ( 69) -0.1203 ( 70)  0.1914 ( 77) -0.1013 ( 78)
          -0.1041 ( 79) -0.1181 ( 94) -0.1364 ( 96) -0.1522 (101)  0.1364 (111)
           0.1521 (112) -0.1215 (135)  0.1211 (142)
 CRD 27=  -0.1429 (  1) -0.1477 (  4) -0.2159 ( 14)  0.3037 ( 16) -0.2070 ( 18)
           0.1107 ( 19) -0.1123 ( 21)  0.1040 ( 26)  0.2162 ( 30)  0.1383 ( 33)
          -0.1027 ( 35)  0.1361 ( 37) -0.2087 ( 41) -0.1814 ( 51)  0.1813 ( 53)
          -0.1194 ( 57) -0.1062 ( 58) -0.1014 ( 64)  0.1240 ( 69) -0.1599 ( 72)
           0.1045 ( 75)  0.1695 ( 79) -0.1059 ( 92)  0.1209 (101)  0.1120 (112)
           0.1097 (116) -0.1422 (129) -0.1422 (133) -0.1439 (134) -0.1001 (141)
 CRD 28=  -0.2396 (  3)  0.2904 (  4) -0.2093 (  9)  0.2227 ( 10)  0.1020 ( 14)
          -0.2107 ( 18)  0.2044 ( 19) -0.1216 ( 30) -0.1219 ( 44)  0.1280 ( 45)
          -0.1073 ( 51)  0.1227 ( 52)  0.1283 ( 55) -0.1041 ( 57) -0.1301 ( 60)
          -0.1355 ( 72) -0.1199 ( 97)  0.1399 ( 99) -0.1139 (100) -0.1276 (101)
          -0.1242 (102) -0.1031 (103) -0.1029 (104) -0.1214 (105)  0.1321 (109)
           0.1328 (110)  0.1494 (114)  0.1189 (115)  0.1400 (116)  0.1408 (118)
 CRD 29=  -0.1771 ( 18)  0.1942 ( 21) -0.3575 ( 22) -0.1761 ( 26)  0.3461 ( 27)
           0.1923 ( 30) -0.1399 ( 55)  0.1189 ( 56) -0.1094 ( 60)  0.2165 ( 64)
          -0.1635 ( 65) -0.2234 ( 75)  0.1639 ( 76)  0.1090 ( 77) -0.1904 (120)
          -0.1547 (121)  0.1568 (132)  0.1426 (135) -0.1814 (143) -0.1483 (144)
 CRD 30=   0.1017 (  1)  0.2298 ( 21)  0.2421 ( 23) -0.3651 ( 24)  0.2402 ( 26)
          -0.1562 ( 55) -0.1470 ( 56)  0.2175 ( 61) -0.1261 ( 64)  0.1137 ( 66)
           0.1083 ( 73) -0.1117 ( 75) -0.1100 ( 77)  0.2235 ( 78) -0.1429 (120)
          -0.1288 (121) -0.2267 (127) -0.1731 (131)  0.1249 (132) -0.1289 (135)
           0.1659 (136)  0.2217 (137)  0.1556 (143)  0.1397 (144)
 CRD 31=   0.1720 ( 15)  0.1343 ( 21) -0.3550 ( 22) -0.4570 ( 23)  0.1218 ( 24)
           0.1363 ( 26) -0.3623 ( 27) -0.1101 ( 56) -0.1380 ( 70) -0.1386 ( 71)
           0.1081 ( 73) -0.1005 ( 74) -0.1470 (119)  0.1233 (127)  0.1483 (130)
           0.1431 (132)  0.1243 (133) -0.1255 (134) -0.1480 (135) -0.1244 (137)
 CRD 32=   0.2925 (  5) -0.2933 (  6) -0.3205 (  9)  0.3185 ( 10)  0.1592 ( 30)
          -0.1064 ( 31)  0.1119 ( 32)  0.1184 ( 41) -0.1254 ( 42)  0.1045 ( 51)
          -0.1195 ( 52)  0.1038 ( 66) -0.1020 ( 67)  0.1091 ( 74) -0.1093 ( 91)
          -0.1100 ( 98) -0.1244 (102) -0.1053 (103) -0.1053 (104)  0.1318 (106)
           0.1328 (107)  0.1275 (109)  0.1312 (110)  0.1330 (125)  0.1270 (126)
           0.1038 (139)  0.1030 (140)  0.1164 (141)  0.1105 (142)  0.1388 (145)
           0.1448 (149)
 CRD 33=   0.1205 (  1)  0.1226 (  4)  0.7225 ( 15)  0.3161 ( 18)  0.1186 ( 22)
           0.1074 ( 27)  0.2410 ( 30) -0.1476 (122) -0.1122 (123) -0.1207 (124)
           0.1114 (128) -0.1011 (141)
 CRD 34=   0.1817 (  8)  0.4903 ( 11)  0.5103 ( 12)  0.5104 ( 13) -0.1711 ( 44)
          -0.1711 ( 45) -0.1867 ( 46)  0.1684 ( 83)  0.1803 ( 84)  0.1803 ( 85)
 CRD 35=  -0.1738 (  3)  0.2727 (  4) -0.2757 (  5)  0.2860 (  6)  0.1883 (  9)
          -0.1863 ( 10)  0.1262 ( 15) -0.1329 ( 18)  0.1217 ( 19)  0.1648 ( 30)
           0.1164 ( 41)  0.1236 ( 66) -0.1413 ( 67) -0.1040 ( 72)  0.1336 ( 74)
           0.1234 ( 92)  0.1046 ( 93)  0.1204 ( 95)  0.1321 (139)  0.1164 (140)
           0.1290 (161)  0.1132 (163)  0.1166 (164)
 CRD 36=   0.1403 ( 14)  0.1780 ( 21) -0.1189 ( 24)  0.1594 ( 26) -0.3272 ( 29)
           0.1583 ( 42)  0.1120 ( 47) -0.1002 ( 51)  0.1079 ( 69) -0.1158 ( 70)
          -0.1304 ( 73)  0.1086 ( 74)  0.1453 ( 92)  0.1372 ( 94)  0.1278 (111)
           0.1219 (112)  0.1255 (122)  0.1337 (124) -0.1183 (126) -0.1002 (140)
          -0.1033 (141) -0.1479 (142) -0.1601 (145) -0.1324 (146) -0.1468 (147)
          -0.1155 (149) -0.1022 (150) -0.1036 (153)  0.1427 (162)  0.1509 (164)
           0.1000 (176)  0.1262 (177)  0.1280 (178)  0.1204 (179)  0.1221 (180)
 CRD 37=   0.1364 (  1)  0.2208 (  3) -0.1274 ( 15) -0.1155 ( 16)  0.2895 ( 19)
          -0.1879 ( 21)  0.1405 ( 24) -0.2214 ( 26)  0.1014 ( 29)  0.1415 ( 66)
          -0.1017 ( 67)  0.1197 ( 71) -0.1023 ( 72)  0.1140 ( 73)  0.1358 ( 93)
           0.1365 ( 95)  0.1265 (115)  0.1137 (116) -0.1274 (122) -0.1135 (125)
           0.1355 (139)  0.1347 (140) -0.1093 (148) -0.1272 (149) -0.1063 (150)
           0.1617 (161) -0.1023 (162)  0.1609 (163)  0.1362 (165)  0.1490 (166)
           0.1171 (167)  0.1300 (168)
 CRD 38=  -0.2591 (  9) -0.2590 ( 10)  0.6027 ( 11) -0.2685 ( 12) -0.2685 ( 13)
          -0.3180 ( 83)  0.1501 ( 84)  0.1502 ( 85) -0.1598 (103)  0.1598 (104)
          -0.1896 (156)  0.1301 (157) -0.1301 (159)  0.1896 (160)
 CRD 39=   0.5473 ( 12) -0.5455 ( 13)  0.2958 ( 84) -0.2967 ( 85)  0.2291 (102)
           0.2247 (155)  0.2247 (158)
 CRD 40=  -0.3306 (  3) -0.3080 (  4)  0.1396 (  5)  0.1963 ( 18) -0.2087 ( 19)
          -0.1640 ( 22)  0.1400 ( 27)  0.1788 ( 29) -0.2346 ( 30)  0.1152 ( 65)
          -0.1184 ( 76)  0.1053 ( 77)  0.1030 (147)  0.1550 (169)  0.1365 (170)
           0.1595 (171)  0.1410 (172)  0.1501 (173)  0.1463 (174)  0.1566 (175)
           0.1527 (176)
 CRD 41=   0.1300 (  3)  0.2598 ( 18)  0.2741 ( 19) -0.3277 ( 21) -0.3151 ( 22)
           0.3451 ( 26)  0.3288 ( 27) -0.2733 ( 29) -0.2590 ( 30)  0.1019 ( 86)
          -0.1203 ( 87)  0.1263 ( 89) -0.1014 ( 90) -0.1056 (167) -0.1051 (179)
 CRD 42=  -0.4066 (  5) -0.4244 (  6)  0.2954 (  9)  0.2872 ( 10)  0.1609 ( 11)
          -0.1204 ( 12) -0.1095 ( 13)  0.1781 ( 21)  0.1141 ( 22) -0.2121 ( 23)
          -0.1922 ( 24)  0.1052 ( 27)  0.1653 ( 29) -0.1444 ( 81)  0.1339 (153)
           0.1024 (157)  0.1130 (170)
 CRD 43=   0.1888 (  5)  0.1916 (  6) -0.1440 (  9) -0.1420 ( 10)  0.1560 ( 19)
           0.1209 ( 21)  0.2239 ( 22) -0.5004 ( 23) -0.4472 ( 24)  0.1733 ( 26)
           0.2380 ( 27)  0.1074 ( 29) -0.1803 ( 88)  0.1058 (170) -0.1089 (171)
          -0.1324 (173)
 CRD 44=  -0.3046 (  3) -0.1718 (  4)  0.1475 (  5)  0.2101 (  6)  0.3392 (  9)
           0.3700 ( 10)  0.1271 ( 11) -0.1166 ( 13) -0.2645 ( 21) -0.1698 ( 22)
           0.1259 ( 26)  0.1811 ( 29)  0.2253 ( 30)  0.1443 ( 82) -0.1201 (148)
          -0.1082 (152) -0.1490 (154) -0.1061 (158) -0.1584 (159)
 CRD 45=   0.4026 ( 18)  0.4340 ( 19) -0.1328 ( 22) -0.1911 ( 24) -0.3345 ( 26)
          -0.3739 ( 27)  0.1591 ( 30)  0.1691 ( 86) -0.1403 ( 89) -0.1101 (140)
          -0.1040 (163) -0.1187 (167)  0.1214 (179)
 CRD 46=   0.1645 (  4) -0.2020 (  5) -0.1601 (  6) -0.2613 (  9) -0.2394 ( 10)
          -0.1448 ( 19) -0.2757 ( 21) -0.3132 ( 22)  0.1199 ( 26)  0.4218 ( 29)
           0.2879 ( 30) -0.1046 ( 82) -0.1145 ( 87)  0.1423 ( 90) -0.1135 (151)
          -0.1109 (157)
 CRD 47=  -0.1051 (  2)  0.4556 (  3)  0.3772 (  4)  0.3119 (  5)  0.2658 (  6)
           0.1579 (  9)  0.1390 ( 10) -0.1588 ( 19)  0.1788 ( 29)  0.1866 ( 80)
           0.1408 ( 81) -0.1015 (149)  0.1402 (150)  0.1318 (151)
 CRD 48=  -0.2208 ( 18) -0.2744 ( 19) -0.3429 ( 21) -0.1876 ( 22) -0.2454 ( 23)
          -0.3626 ( 24) -0.3372 ( 26) -0.1771 ( 27) -0.2499 ( 29) -0.1939 ( 30)
          -0.1106 ( 86) -0.1145 ( 87) -0.1318 ( 88) -0.1110 ( 89)  0.1105 (168)
          -0.1139 (169)  0.1010 (172)  0.1176 (175) -0.1032 (177)
 CRD 49=  -0.1352 (  3)  0.3559 (  4)  0.1236 (  6) -0.1180 ( 14)  0.1293 ( 16)
           0.2549 ( 18) -0.1003 ( 26) -0.2703 ( 30) -0.1002 ( 40)  0.1103 ( 48)
          -0.1180 ( 49) -0.1052 ( 91) -0.1103 ( 98) -0.1065 (110)  0.1571 (126)
           0.1630 (142)  0.1910 (145)  0.1246 (149) -0.1747 (151) -0.1798 (152)
          -0.1829 (153) -0.1879 (154) -0.1204 (155) -0.1409 (156) -0.1415 (157)
          -0.1217 (158) -0.1423 (159) -0.1428 (160)
 CRD 50=   0.1046 ( 15) -0.2599 ( 18)  0.2236 ( 19)  0.2412 ( 23) -0.2576 ( 24)
           0.2207 ( 29) -0.2548 ( 30) -0.1108 ( 61) -0.1003 ( 70) -0.1102 ( 78)
           0.1066 ( 93) -0.1046 ( 94) -0.1276 (122)  0.1290 (140) -0.1300 (165)
          -0.1440 (166) -0.1420 (167) -0.1559 (168) -0.1173 (169) -0.1115 (170)
          -0.1425 (171) -0.1366 (172)  0.1086 (173)  0.1344 (174)  0.1145 (175)
           0.1403 (176)  0.1587 (177)  0.1447 (178)  0.1444 (179)  0.1304 (180)
 CRD 51=   0.1991 (  3) -0.2124 (  4) -0.2127 (  5)  0.2134 (  6) -0.1089 ( 18)
           0.1037 ( 19)  0.1795 ( 21) -0.1858 ( 22) -0.1556 ( 26)  0.1594 ( 27)
          -0.1355 ( 29)  0.1477 ( 30)  0.1108 (106)  0.1107 (107)  0.1134 (114)
           0.1078 (118) -0.1027 (135)  0.1855 (146)  0.1799 (147)  0.1856 (148)
           0.1800 (150) -0.1033 (156) -0.1028 (157) -0.1048 (159) -0.1043 (160)
          -0.1437 (165) -0.1279 (166) -0.1142 (167)  0.1007 (170)  0.1089 (172)
          -0.1094 (177) -0.1391 (178) -0.1270 (179) -0.1567 (180)
 CRD 52=  -0.2278 (  3)  0.2213 (  4)  0.2239 (  5) -0.2235 (  6) -0.1194 ( 18)
           0.1227 ( 19)  0.1466 ( 21) -0.1479 ( 22) -0.1843 ( 26)  0.1874 ( 27)
          -0.1156 (106) -0.1083 (107) -0.1116 (114) -0.1052 (116) -0.1113 (118)
          -0.1057 (135) -0.1719 (146) -0.1717 (147) -0.1791 (148) -0.1789 (150)
          -0.1537 (165) -0.1348 (166) -0.1433 (167) -0.1244 (168)  0.1085 (174)
          -0.1234 (177) -0.1351 (178) -0.1393 (179) -0.1511 (180)
 CRD 53=  -0.2079 (  5)  0.2078 (  6) -0.3649 (  9)  0.3649 ( 10) -0.1162 ( 91)
          -0.1166 ( 98)  0.1652 (102)  0.1508 (103)  0.1507 (104) -0.1082 (109)
          -0.1073 (110) -0.1488 (151) -0.1492 (152) -0.1478 (153) -0.1483 (154)
           0.2607 (155)  0.2463 (156)  0.2462 (157)  0.2610 (158)  0.2466 (159)
           0.2465 (160)
 CRD 54=   0.1029 ( 15)  0.1025 ( 19)  0.1660 ( 21) -0.1554 ( 22) -0.1906 ( 23)
           0.2002 ( 24)  0.1557 ( 26) -0.1452 ( 27)  0.1007 ( 29)  0.1072 (119)
           0.1620 (120)  0.1174 (121) -0.1669 (127) -0.1056 (130) -0.1203 (131)
          -0.1327 (132) -0.1073 (133)  0.1254 (135)  0.1214 (136)  0.1680 (137)
          -0.1579 (143) -0.1156 (144) -0.1593 (165) -0.1404 (166) -0.1338 (167)
          -0.1150 (168)  0.1317 (169)  0.1763 (170)  0.1783 (171)  0.2229 (172)
          -0.1725 (173) -0.2192 (174) -0.1303 (175) -0.1769 (176)  0.1024 (177)
           0.1313 (178)  0.1200 (179)  0.1489 (180)
 CRD 55=  -0.1030 (  1) -0.1148 (  8)  0.2771 ( 11)  0.1614 ( 12)  0.1611 ( 13)
           0.1551 ( 31)  0.1559 ( 32)  0.1620 ( 39)  0.1626 ( 40) -0.1365 ( 43)
           0.1863 ( 44)  0.1861 ( 45)  0.2305 ( 46) -0.1345 ( 47) -0.2046 ( 48)
          -0.2034 ( 49)  0.1031 ( 51)  0.1050 ( 52) -0.1364 ( 83) -0.2334 ( 84)
          -0.2330 ( 85)  0.1393 ( 91) -0.1377 ( 98)  0.1444 (147) -0.1453 (148)
          -0.2289 (152)  0.2328 (153) -0.1171 (157)  0.1155 (159)
 CRD 56=  -0.1027 (  1)  0.1579 (  7)  0.3062 (  8) -0.1389 ( 11) -0.1638 ( 12)
          -0.1655 ( 13)  0.1041 ( 31)  0.1048 ( 32) -0.1170 ( 36) -0.1406 ( 41)
          -0.1412 ( 42) -0.1469 ( 43) -0.1697 ( 44) -0.1706 ( 45) -0.1670 ( 46)
          -0.1389 ( 47)  0.1568 ( 51)  0.1634 ( 52)  0.1048 ( 58)  0.1834 ( 83)
           0.1612 ( 84)  0.1628 ( 85) -0.1014 (106) -0.1022 (129)  0.1628 (138)
           0.1760 (147) -0.1896 (148) -0.1301 (149)  0.1073 (154) -0.1534 (161)
           0.1391 (162)  0.2136 (164)
 CRD 57=   0.1095 (  1)  0.1251 (  4) -0.4045 ( 15)  0.2519 ( 18) -0.1308 ( 19)
           0.1192 ( 21) -0.2094 ( 22)  0.2068 ( 23) -0.1163 ( 24)  0.1256 ( 26)
          -0.2212 ( 27) -0.1598 ( 29)  0.2723 ( 30)  0.1116 ( 66)  0.1143 ( 73)
          -0.1233 ( 86) -0.1135 ( 90) -0.1720 (122) -0.1179 (132)  0.1268 (135)
           0.1667 (140) -0.1039 (162)  0.1066 (178)
 CRD 58=  -0.1597 (  1)  0.1794 (  8)  0.1511 ( 24)  0.1094 ( 26)  0.1292 ( 36)
           0.1296 ( 56)  0.1239 ( 60)  0.1142 ( 61) -0.1057 ( 66) -0.1241 ( 67)
          -0.1122 ( 69) -0.1033 ( 72) -0.1332 ( 73) -0.1432 ( 74)  0.1406 ( 77)
           0.1195 ( 78) -0.1307 ( 88) -0.1162 ( 92)  0.1108 ( 95) -0.1025 (121)
          -0.1329 (124)  0.1280 (129)  0.1433 (131) -0.1162 (136)  0.1269 (139)
           0.1183 (144)  0.2331 (161) -0.2143 (164) -0.2014 (169) -0.1042 (170)
           0.1190 (173)  0.2434 (175) -0.1005 (179)
 CRD 59=   0.1143 ( 14) -0.1134 ( 16) -0.1858 ( 20) -0.2296 ( 21)  0.1593 ( 25)
           0.2286 ( 26) -0.1038 ( 27)  0.1010 ( 28)  0.1966 ( 64)  0.1778 ( 65)
           0.1221 ( 70) -0.1947 ( 75) -0.1928 ( 76)  0.1365 ( 87) -0.1282 ( 89)
          -0.1743 (111) -0.1623 (115) -0.1181 (120)  0.1270 (121)  0.1176 (136)
          -0.1236 (143) -0.2249 (168)  0.2448 (169)  0.1632 (171)  0.1977 (175)
           0.1549 (176) -0.2455 (177) -0.1120 (178)
 CRD 60=  -0.1311 (  1)  0.1213 (  8) -0.1358 ( 14)  0.1322 ( 15) -0.1171 ( 16)
           0.2765 ( 17) -0.1375 ( 20)  0.1185 ( 21) -0.1140 ( 22)  0.1922 ( 23)
          -0.2508 ( 24) -0.1551 ( 25) -0.1046 ( 27)  0.2726 ( 28)  0.1054 ( 53)
           0.1054 ( 57) -0.1349 ( 61)  0.1268 ( 70)  0.1379 ( 71) -0.1227 ( 78)
           0.1114 (115)  0.1195 (121)  0.1061 (127) -0.1131 (137) -0.1307 (144)
           0.2144 (168)  0.1304 (169) -0.1491 (175) -0.2030 (177)
 CRD 61=  -0.1335 ( 14)  0.1235 ( 16) -0.1465 ( 19)  0.1376 ( 20) -0.1287 ( 25)
           0.1276 ( 29)  0.1685 ( 55) -0.1542 ( 56)  0.1510 ( 60)  0.1579 ( 61)
           0.1184 ( 64) -0.1320 ( 66) -0.1334 ( 67)  0.1940 ( 69)  0.1181 ( 70)
          -0.1255 ( 71) -0.2132 ( 72)  0.1348 ( 73)  0.1347 ( 74) -0.1071 ( 75)
          -0.1389 ( 77) -0.1600 ( 78)  0.1531 ( 92)  0.1472 ( 95)  0.1219 (112)
           0.1510 (116)  0.1275 (124)  0.1041 (127) -0.1147 (132) -0.1042 (135)
          -0.1081 (136)  0.1293 (139)  0.1250 (161)  0.1295 (164) -0.1614 (166)
           0.1280 (167) -0.1684 (170)  0.1186 (171) -0.1745 (173)  0.1331 (176)
          -0.1508 (178)  0.1095 (179)
 CRD 62=  -0.2069 (  2) -0.1230 (  7)  0.2308 (  8)  0.1250 (  9) -0.1651 ( 13)
           0.1147 ( 14)  0.1164 ( 19) -0.1136 ( 20)  0.1106 ( 22)  0.1042 ( 25)
          -0.1098 ( 29)  0.1037 ( 39)  0.1356 ( 40)  0.1311 ( 41)  0.1015 ( 42)
          -0.1171 ( 49)  0.1090 ( 73)  0.1083 ( 79)  0.1647 ( 83)  0.1435 (101)
           0.1052 (134) -0.1164 (142)  0.2188 (149)  0.1188 (150) -0.1191 (152)
          -0.1030 (157)  0.1133 (158)  0.2205 (159) -0.1634 (162) -0.1266 (164)
           0.1116 (177)  0.1390 (179)
 CRD 63=   0.1015 (  2)  0.1740 (  5) -0.1817 (  6)  0.1431 (  7) -0.1446 (  8)
           0.2089 (  9) -0.2786 ( 10)  0.2621 ( 12) -0.1615 ( 39) -0.1102 ( 42)
           0.1323 ( 48)  0.1271 ( 51) -0.1259 ( 83) -0.1228 ( 84)  0.1511 ( 85)
          -0.1283 (102)  0.1588 (146)  0.1509 (147) -0.2057 (151) -0.1708 (152)
          -0.1963 (153) -0.1613 (154)  0.1854 (156)  0.3039 (157)  0.1577 (160)
 CRD 64=  -0.2046 (  3)  0.1675 (  4)  0.1261 (  5) -0.1098 (  6) -0.1299 ( 15)
          -0.1173 ( 19)  0.1336 ( 20) -0.1064 ( 23) -0.1657 ( 25)  0.1360 ( 27)
           0.1039 ( 28)  0.1175 ( 29)  0.1111 ( 53)  0.1055 ( 58) -0.1012 ( 64)
          -0.1195 (101)  0.1069 (106)  0.1334 (112)  0.1025 (129) -0.1005 (133)
          -0.1068 (141) -0.1293 (142)  0.1358 (143) -0.2376 (145)  0.1059 (146)
           0.1831 (148) -0.2150 (149)  0.1726 (150)  0.1593 (161)  0.1661 (163)
          -0.1461 (167) -0.1128 (168)  0.1372 (180)
 CRD 65=  -0.1200 (  1) -0.1154 (  3)  0.1850 (  4)  0.1871 (  7) -0.1826 (  9)
          -0.1219 ( 11)  0.2456 ( 13) -0.1239 ( 15)  0.1093 ( 17) -0.1197 ( 20)
           0.1400 ( 22) -0.1238 ( 23) -0.1611 ( 40) -0.1039 ( 41) -0.1070 ( 47)
           0.1295 ( 51)  0.1463 ( 57) -0.1267 ( 83)  0.1624 ( 84)  0.1669 (102)
          -0.1530 (116) -0.1323 (120)  0.1036 (146)  0.1512 (147)  0.1296 (155)
          -0.1129 (156) -0.2501 (159) -0.1072 (160) -0.1516 (165)  0.1129 (168)
           0.1001 (179)
 CRD 66=  -0.2426 (  2)  0.1158 (  5)  0.1347 (  6)  0.2155 (  8) -0.1254 (  9)
          -0.1377 ( 10) -0.2297 ( 11)  0.1289 ( 31)  0.1300 ( 32)  0.1192 ( 80)
          -0.2149 ( 81)  0.2242 ( 82) -0.1197 ( 83)  0.1035 ( 84)  0.1246 ( 85)
           0.1109 ( 91) -0.1175 ( 98) -0.1081 (103)  0.1087 (104) -0.1377 (109)
           0.1443 (110) -0.1600 (147)  0.1431 (148) -0.2537 (152)  0.2567 (153)
           0.1979 (157) -0.1845 (159)
 CRD 67=  -0.1739 (  2)  0.2159 (  3) -0.1557 (  5)  0.1845 (  7) -0.1200 ( 11)
           0.1745 ( 12)  0.1327 ( 14) -0.1046 ( 15) -0.1538 ( 16) -0.1320 ( 25)
           0.1153 ( 27)  0.1220 ( 28)  0.1037 ( 41) -0.1385 ( 43)  0.1290 ( 53)
          -0.1055 ( 74)  0.1122 ( 79) -0.1953 ( 80)  0.1052 ( 81) -0.1000 ( 83)
           0.1308 ( 85) -0.1246 (102)  0.1434 (112)  0.1565 (125)  0.1110 (140)
           0.1010 (141) -0.1198 (142)  0.1160 (143) -0.2300 (148)  0.2175 (149)
           0.1378 (157) -0.1007 (158)  0.1573 (180)
 CRD 68=  -0.1481 (  1) -0.1116 (  8)  0.2070 ( 16)  0.2208 ( 17) -0.1664 ( 19)
          -0.1186 ( 21) -0.1378 ( 24)  0.2259 ( 25) -0.1542 ( 26) -0.1050 ( 29)
           0.1074 ( 36) -0.1157 ( 60) -0.1359 ( 70) -0.1451 ( 76)  0.1702 ( 87)
           0.1121 ( 88)  0.1587 ( 90)  0.1006 (111) -0.1280 (135) -0.1437 (137)
           0.1943 (161)  0.1115 (163) -0.1273 (164) -0.1077 (166) -0.1297 (168)
           0.2225 (169) -0.1593 (172) -0.1010 (175) -0.1199 (176)  0.1926 (177)
 CRD 69=  -0.1105 (  1)  0.1992 ( 14) -0.1651 ( 18)  0.2257 ( 20) -0.1111 ( 21)
           0.1096 ( 22) -0.1020 ( 24) -0.1669 ( 27)  0.2035 ( 28) -0.1267 ( 29)
           0.1056 ( 30) -0.1678 ( 65) -0.1653 ( 71) -0.1018 ( 78)  0.1663 ( 86)
           0.1861 ( 89) -0.1147 (112) -0.1012 (115)  0.2048 (127)  0.1910 (132)
           0.1213 (137) -0.1172 (140) -0.1078 (162) -0.1339 (164)  0.1337 (165)
          -0.1559 (168)  0.1184 (171)  0.1904 (172)  0.1794 (174) -0.1803 (175)
 CRD 70=  -0.1015 (  4)  0.1958 (  6) -0.1019 (  7)  0.1208 ( 12) -0.1907 ( 13)
           0.1684 ( 22) -0.1307 ( 23)  0.1733 ( 30)  0.1253 ( 47) -0.1171 ( 67)
          -0.1434 ( 84)  0.1062 ( 88) -0.1186 ( 90) -0.1353 ( 93) -0.1130 ( 97)
          -0.1645 (102)  0.1104 (108) -0.1377 (116) -0.1173 (120) -0.1421 (122)
           0.1500 (126)  0.1423 (135)  0.1137 (137)  0.1039 (142)  0.1140 (143)
          -0.1527 (147) -0.1374 (150) -0.1300 (155)  0.1001 (156) -0.1490 (158)
          -0.1511 (165) -0.1186 (167)  0.1514 (174)  0.1089 (178)
 CRD 71=  -0.1252 (  2) -0.1139 (  5)  0.1266 (  7) -0.1035 ( 11)  0.1354 ( 16)
           0.1470 ( 17) -0.1240 ( 20) -0.2432 ( 28)  0.1275 ( 29)  0.1288 ( 42)
           0.1516 ( 74)  0.1098 ( 77) -0.1030 ( 79)  0.1489 ( 81)  0.1336 ( 86)
          -0.1278 ( 90) -0.1036 ( 93) -0.1582 ( 94) -0.1087 ( 96) -0.1184 (114)
           0.1165 (118) -0.1102 (122)  0.1184 (124)  0.1015 (125) -0.1282 (140)
          -0.1920 (145) -0.1597 (146)  0.1569 (150)  0.1160 (160)  0.1171 (161)
           0.1461 (164)  0.1051 (166) -0.1178 (167) -0.1157 (179)
 CRD 72=  -0.2119 (  2)  0.2618 (  7) -0.2713 (  8)  0.1926 ( 11)  0.1380 ( 31)
           0.1592 ( 32) -0.1534 ( 39) -0.1482 ( 40) -0.1449 ( 43) -0.1303 ( 47)
           0.1545 ( 48)  0.1760 ( 49)  0.1028 ( 80) -0.1141 ( 84) -0.1412 ( 91)
           0.1254 ( 98)  0.1196 (103) -0.1034 (104)  0.1007 (106) -0.1332 (109)
           0.1292 (110) -0.1412 (146)  0.1294 (150) -0.2549 (151)  0.2740 (154)
           0.1765 (156) -0.1671 (160)
 CRD 73=  -0.1273 (  2)  0.1000 (  3)  0.1149 (  5) -0.1507 ( 12) -0.1803 ( 16)
           0.1807 ( 17)  0.1750 ( 20) -0.1321 ( 21) -0.1506 ( 28)  0.1233 ( 29)
           0.1013 ( 45)  0.1030 ( 48)  0.1104 ( 55)  0.1014 ( 78) -0.1212 ( 85)
           0.1297 ( 87)  0.1192 ( 88) -0.1544 ( 90)  0.1050 ( 95)  0.1138 ( 99)
          -0.1189 (104) -0.1038 (129)  0.1096 (135)  0.1021 (143)  0.1830 (155)
           0.1004 (156) -0.1341 (160) -0.1501 (163)  0.1117 (164) -0.1236 (166)
           0.1197 (169)  0.1532 (173) -0.1536 (176)  0.1061 (178) -0.1277 (179)
 CRD 74=  -0.2205 (  1)  0.1136 (  4)  0.1169 ( 11)  0.1836 ( 14)  0.1094 ( 17)
          -0.1773 ( 25) -0.1021 ( 46) -0.1530 ( 80)  0.1356 ( 82)  0.1022 ( 83)
           0.1433 ( 86) -0.1319 ( 88) -0.1006 ( 89)  0.1050 (103) -0.1061 (106)
           0.1356 (107)  0.1183 (120)  0.1169 (132)  0.2027 (146) -0.1999 (150)
           0.1834 (156) -0.1270 (158) -0.1762 (160)  0.1156 (166) -0.1072 (167)
           0.1382 (170) -0.1172 (171) -0.1459 (178)
 CRD 75=  -0.1276 (  2)  0.1653 (  4) -0.1327 (  9) -0.1382 ( 13) -0.1236 ( 14)
           0.1202 ( 19) -0.1127 ( 24)  0.1822 ( 25) -0.1101 ( 26) -0.1012 ( 36)
           0.1097 ( 42) -0.1078 ( 70) -0.1211 ( 73) -0.1185 ( 80)  0.1079 ( 82)
          -0.1006 ( 84)  0.1223 ( 89) -0.1378 ( 96) -0.1122 ( 99)  0.1348 (103)
           0.1532 (111) -0.1095 (123)  0.1034 (128) -0.1041 (134) -0.1208 (142)
          -0.1854 (145)  0.1460 (156) -0.1983 (158) -0.1322 (160)  0.1342 (162)
           0.1442 (171)  0.1036 (178) -0.1586 (179) -0.1020 (180)
 CRD 76=  -0.1455 (  3)  0.1597 ( 10)  0.1404 ( 12)  0.2008 ( 20) -0.1265 ( 21)
          -0.1221 ( 25) -0.1125 ( 28) -0.1050 ( 45) -0.1039 ( 62) -0.1128 ( 66)
           0.1149 ( 75) -0.1064 ( 82)  0.1567 ( 87) -0.1254 ( 89)  0.1223 ( 97)
          -0.1281 ( 99)  0.1521 (101)  0.1481 (104) -0.1126 (109) -0.1647 (115)
          -0.1083 (118)  0.1083 (133) -0.1331 (141)  0.1299 (154) -0.2147 (155)
          -0.1139 (156)  0.1161 (160)  0.1134 (165) -0.1134 (166)  0.1726 (167)
           0.1352 (170) -0.1459 (176)
 CRD 77=   0.1646 (  2) -0.1176 (  5) -0.1225 (  6)  0.2031 (  7)  0.1204 (  8)
          -0.1359 (  9)  0.1102 ( 20) -0.1788 ( 34) -0.1781 ( 38) -0.1001 ( 46)
           0.1027 ( 80)  0.1945 ( 81)  0.1889 ( 82)  0.1243 ( 91) -0.1117 ( 98)
           0.1032 (109) -0.1415 (110) -0.1250 (114) -0.1210 (139) -0.1768 (146)
           0.1882 (150)  0.2465 (151) -0.2343 (154)  0.1756 (156) -0.1357 (158)
          -0.1783 (160) -0.1003 (166)  0.1125 (167)
 CRD 78=  -0.1007 ( 17)  0.1392 ( 21) -0.2063 ( 24)  0.1644 ( 26) -0.1018 ( 28)
          -0.1029 ( 54)  0.1450 ( 62) -0.1767 ( 63)  0.1631 ( 68) -0.1361 ( 87)
           0.1691 ( 88) -0.1556 ( 89) -0.1330 (111)  0.1043 (115)  0.2051 (121)
           0.2448 (131) -0.1253 (133)  0.1565 (134) -0.2308 (136) -0.2260 (144)
           0.1380 (166) -0.1048 (167) -0.1861 (170)  0.2308 (171)  0.2086 (173)
          -0.2414 (176) -0.1714 (178)  0.1331 (179)
 CRD 79=   0.2240 (  1) -0.1679 ( 14)  0.1334 ( 17) -0.1256 ( 21) -0.1514 ( 25)
           0.1799 ( 28) -0.1085 ( 29) -0.1108 ( 30) -0.1209 ( 35) -0.1089 ( 36)
          -0.1731 ( 54)  0.1028 ( 55)  0.1136 ( 59) -0.1052 ( 60) -0.1195 ( 67)
           0.1119 ( 72)  0.1763 ( 90) -0.1438 ( 92)  0.1134 ( 94)  0.1254 (117)
          -0.1721 (121) -0.2201 (124) -0.1515 (129)  0.1151 (133)  0.1083 (134)
           0.1027 (136)  0.1527 (138)  0.1945 (139)  0.2726 (162) -0.1463 (163)
          -0.1162 (165) -0.1138 (166)  0.1701 (170)  0.1034 (172) -0.1470 (178)
 CRD 80=  -0.1539 (  1)  0.1612 ( 16) -0.1395 ( 17)  0.1514 ( 18)  0.1148 ( 22)
           0.1254 ( 26) -0.1361 ( 27) -0.1177 ( 30)  0.1018 ( 33)  0.1627 ( 50)
          -0.1103 ( 56)  0.1248 ( 61) -0.1092 ( 69)  0.1306 ( 74)  0.1259 ( 77)
          -0.1689 ( 86)  0.1099 ( 93) -0.1008 ( 95)  0.1606 (113) -0.1068 (121)
           0.1113 (122)  0.1297 (124)  0.1501 (133)  0.1264 (134) -0.1439 (138)
          -0.1224 (139) -0.1779 (144)  0.2216 (163) -0.1698 (165) -0.1881 (166)
           0.1309 (173)  0.1121 (174) -0.1561 (178) -0.1926 (180)
 CRD 81=  -0.1014 (  5)  0.1099 (  9) -0.1302 ( 10) -0.1280 ( 15)  0.1677 ( 23)
           0.1312 ( 27) -0.1061 ( 70) -0.1048 ( 71) -0.1147 ( 93) -0.1344 ( 95)
          -0.1130 ( 98) -0.1408 (103) -0.1497 (104)  0.1036 (106)  0.1358 (108)
           0.1655 (109)  0.1270 (110) -0.1197 (115) -0.1495 (119)  0.1592 (126)
           0.1689 (130)  0.1081 (131)  0.1283 (133) -0.1182 (134) -0.1132 (136)
           0.1426 (155)  0.1254 (158)  0.1005 (170)  0.1716 (172) -0.2048 (174)
          -0.1135 (176)
 CRD 82=   0.1153 (  2)  0.1732 ( 14) -0.1602 ( 16) -0.1228 ( 19) -0.1053 ( 20)
           0.1157 ( 22)  0.1499 ( 29) -0.1131 ( 33) -0.1197 ( 37)  0.1089 ( 53)
          -0.1277 ( 58)  0.1031 ( 62)  0.1487 ( 79)  0.1005 ( 80)  0.1828 ( 92)
           0.1424 ( 94)  0.1019 ( 95)  0.1328 (101) -0.1186 (105)  0.1726 (111)
           0.1341 (115)  0.1350 (117) -0.1576 (125) -0.1701 (129) -0.1108 (134)
          -0.1777 (138) -0.2044 (141)  0.2142 (145) -0.1330 (165) -0.1694 (167)
           0.1077 (172) -0.1518 (179)
 CRD 83=   0.1185 (  3)  0.1390 (  5) -0.1273 (  6) -0.1034 (  9)  0.1073 ( 10)
           0.1051 ( 23)  0.1081 ( 27)  0.1008 ( 31) -0.1053 ( 32) -0.1009 ( 40)
           0.1033 ( 41)  0.1049 ( 43) -0.1035 ( 47)  0.1781 ( 91)  0.1834 ( 98)
          -0.1735 (101)  0.1437 (103)  0.1451 (104) -0.1931 (106) -0.1669 (107)
          -0.1622 (109) -0.1517 (110) -0.1374 (113)  0.1507 (114)  0.1366 (118)
          -0.1409 (119)  0.1183 (123)  0.1403 (130)  0.1181 (141) -0.1026 (155)
           0.1313 (172) -0.1388 (174)  0.1270 (180)
 CRD 84=   0.1276 (  4)  0.1692 ( 15) -0.1194 ( 16)  0.1165 ( 18)  0.1066 ( 30)
           0.1010 ( 35) -0.1123 ( 36) -0.1159 ( 52)  0.1096 ( 59) -0.1151 ( 91)
          -0.1087 ( 92)  0.2040 ( 93) -0.1686 ( 94)  0.1551 ( 95) -0.1115 ( 98)
           0.1352 (101)  0.2074 (105)  0.1101 (106)  0.1355 (107) -0.1433 (113)
          -0.1560 (114)  0.1231 (115)  0.1640 (117) -0.1672 (118) -0.1043 (119)
           0.1677 (123) -0.1523 (125) -0.2089 (126) -0.1811 (128) -0.1249 (129)
           0.1043 (130) -0.1224 (165)  0.1149 (180)

 THE DETERMINANT OF THE G MATRIX IS 10**(   -25)


                     --------------------
                     INTERNAL COORDINATES
                     --------------------

                 - - ATOMS - -         COORDINATE      COORDINATE
 NO.   TYPE    I  J  K  L  M  N        (BOHR,RAD)       (ANG,DEG)
 ----------------------------------------------------------------
   1 STRETCH   1  5                     2.8911415       1.5299263
   2 STRETCH   1  2                     2.8914492       1.5300892
   3 STRETCH   1 11                     2.0597227       1.0899584
   4 STRETCH   1 12                     2.0597797       1.0899886
   5 STRETCH   2 14                     2.0597873       1.0899926
   6 STRETCH   2 13                     2.0597797       1.0899886
   7 STRETCH   2  3                     2.8913724       1.5300485
   8 STRETCH   3  4                     2.8911970       1.5299557
   9 STRETCH   3 15                     2.0597811       1.0899893
  10 STRETCH   3 16                     2.0599291       1.0900676
  11 STRETCH   4 18                     2.0597942       1.0899962
  12 STRETCH   4 17                     2.0597227       1.0899584
  13 STRETCH   4 19                     2.0597797       1.0899886
  14 STRETCH   5  6                     2.8912553       1.5299865
  15 STRETCH   5 20                     2.0597625       1.0899795
  16 STRETCH   5 10                     2.8913763       1.5300506
  17 STRETCH   6  7                     2.8913724       1.5300485
  18 STRETCH   6 22                     2.0597625       1.0899795
  19 STRETCH   6 21                     2.0597312       1.0899629
  20 STRETCH   7  8                     2.8913763       1.5300506
  21 STRETCH   7 24                     2.0598621       1.0900321
  22 STRETCH   7 23                     2.0597625       1.0899795
  23 STRETCH   8 26                     2.0597625       1.0899795
  24 STRETCH   8 25                     2.0597942       1.0899962
  25 STRETCH   8  9                     2.8912076       1.5299613
  26 STRETCH   9 28                     2.0598224       1.0900112
  27 STRETCH   9 27                     2.0599507       1.0900790
  28 STRETCH   9 10                     2.8913089       1.5300149
  29 STRETCH  10 30                     2.0598523       1.0900270
  30 STRETCH  10 29                     2.0597625       1.0899795
  31 BEND      1  2 13                  1.9105912     109.4688133
  32 BEND      1  2 14                  1.9105801     109.4681742
  33 BEND      1  5  6                  1.9106126     109.4700376
  34 BEND      1  2  3                  1.9106108     109.4699323
  35 BEND      1  5 10                  1.9106718     109.4734310
  36 BEND      1  5 20                  1.9106376     109.4714683
  37 BEND      2  1  5                  1.9106114     109.4699677
  38 BEND      2  3  4                  1.9106023     109.4694501
  39 BEND      2  3 15                  1.9106167     109.4702751
  40 BEND      2  3 16                  1.9105378     109.4657536
  41 BEND      2  1 12                  1.9105912     109.4688133
  42 BEND      2  1 11                  1.9106225     109.4706030
  43 BEND      3  2 13                  1.9107032     109.4752275
  44 BEND      3  4 19                  1.9106208     109.4705102
  45 BEND      3  4 17                  1.9106013     109.4693883
  46 BEND      3  4 18                  1.9106329     109.4712001
  47 BEND      3  2 14                  1.9106173     109.4703059
  48 BEND      4  3 16                  1.9106644     109.4730063
  49 BEND      4  3 15                  1.9106907     109.4745120
  50 BEND      5  6  7                  1.9106160     109.4702344
  51 BEND      5  1 11                  1.9107011     109.4751063
  52 BEND      5  1 12                  1.9106626     109.4729027
  53 BEND      5 10 29                  1.9106297     109.4710158
  54 BEND      5 10  9                  1.9106659     109.4730921
  55 BEND      5  6 21                  1.9106118     109.4699945
  56 BEND      5 10 30                  1.9106293     109.4709948
  57 BEND      5  6 22                  1.9106732     109.4735122
  58 BEND      6  5 20                  1.9106732     109.4735122
  59 BEND      6  5 10                  1.9105746     109.4678589
  60 BEND      6  7 23                  1.9106760     109.4736709
  61 BEND      6  7 24                  1.9106620     109.4728692
  62 BEND      6  7  8                  1.9106299     109.4710315
  63 BEND      7  8  9                  1.9106086     109.4698084
  64 BEND      7  8 25                  1.9106712     109.4733935
  65 BEND      7  8 26                  1.9106297     109.4710158
  66 BEND      7  6 21                  1.9105336     109.4655102
  67 BEND      7  6 22                  1.9106760     109.4736709
  68 BEND      8  9 10                  1.9106705     109.4733531
  69 BEND      8  9 28                  1.9107188     109.4761235
  70 BEND      8  9 27                  1.9106023     109.4694500
  71 BEND      8  7 23                  1.9106297     109.4710158
  72 BEND      8  7 24                  1.9105207     109.4647713
  73 BEND      9 10 30                  1.9105717     109.4676931
  74 BEND      9 10 29                  1.9106148     109.4701621
  75 BEND      9  8 25                  1.9106704     109.4733498
  76 BEND      9  8 26                  1.9106101     109.4698922
  77 BEND     10  9 27                  1.9106152     109.4701872
  78 BEND     10  9 28                  1.9106177     109.4703309
  79 BEND     10  5 20                  1.9106297     109.4710158
  80 BEND     11  1 12                  1.9106107     109.4699307
  81 BEND     13  2 14                  1.9106969     109.4748703
  82 BEND     15  3 16                  1.9106874     109.4743263
  83 BEND     17  4 19                  1.9106107     109.4699307
  84 BEND     17  4 18                  1.9106975     109.4749055
  85 BEND     18  4 19                  1.9106362     109.4713890
  86 BEND     21  6 22                  1.9106888     109.4744013
  87 BEND     23  7 24                  1.9106811     109.4739647
  88 BEND     25  8 26                  1.9106096     109.4698640
  89 BEND     27  9 28                  1.9105749     109.4678788
  90 BEND     29 10 30                  1.9106881     109.4743659
  91 TORSION   1  2  3 16               1.0472056      60.0004617
  92 TORSION   1  5 10 29              -1.0471708     -59.9984684
  93 TORSION   1  5  6 21              -1.0472941     -60.0055302
  94 TORSION   1  5 10 30               1.0472869      60.0051200
  95 TORSION   1  5  6 22               1.0471804      59.9990178
  96 TORSION   1  5 10  9              -3.1415611    -179.9981926
  97 TORSION   1  5  6  7              -3.1415435    -179.9971819
  98 TORSION   1  2  3 15              -1.0471873     -59.9994152
  99 TORSION   1  2  3  4               3.1415615     179.9982170
 100 TORSION   2  1  5  6               3.0543774     175.0029351
 101 TORSION   2  1  5 20               0.9599433      55.0007014
 102 TORSION   2  3  4 18              -3.1415293    -179.9963705
 103 TORSION   2  3  4 17               1.0472019      60.0002512
 104 TORSION   2  3  4 19              -1.0471384     -59.9966119
 105 TORSION   2  1  5 10              -1.1344737     -65.0005531
 106 TORSION   3  2  1 12               1.0471514      59.9973557
 107 TORSION   3  2  1 11              -1.0471838     -59.9992122
 108 TORSION   3  2  1  5               3.1415433     179.9971744
 109 TORSION   4  3  2 13               1.0471888      59.9995007
 110 TORSION   4  3  2 14              -1.0473173     -60.0068630
 111 TORSION   5 10  9 27              -1.0471841     -59.9992268
 112 TORSION   5 10  9 28              -3.1414872    -179.9939564
 113 TORSION   5 10  9  8               1.0471849      59.9992776
 114 TORSION   5  1  2 13              -1.0472007     -60.0001813
 115 TORSION   5  6  7 23               1.0471329      59.9962969
 116 TORSION   5  6  7 24              -3.1415548    -179.9978320
 117 TORSION   5  6  7  8              -1.0472820     -60.0048370
 118 TORSION   5  1  2 14               1.0472141      60.0009489
 119 TORSION   6  7  8  9               1.0472000      60.0001426
 120 TORSION   6  7  8 25              -3.1415365    -179.9967840
 121 TORSION   6  7  8 26              -1.0471494     -59.9972403
 122 TORSION   6  5 10 30              -3.1415409    -179.9970341
 123 TORSION   6  5 10  9              -1.0472036     -60.0003466
 124 TORSION   6  5 10 29               1.0471867      59.9993775
 125 TORSION   6  5  1 12              -1.1344597     -64.9997505
 126 TORSION   6  5  1 11               0.9599674      55.0020794
 127 TORSION   7  8  9 28               3.1415842     179.9995140
 128 TORSION   7  6  5 10               1.0472481      60.0028940
 129 TORSION   7  6  5 20              -1.0471312     -59.9961997
 130 TORSION   7  8  9 10              -1.0471498     -59.9972669
 131 TORSION   7  8  9 27               1.0472270      60.0016890
 132 TORSION   8  7  6 21              -3.1415793    -179.9992350
 133 TORSION   8  7  6 22               1.0471778      59.9988661
 134 TORSION   8  9 10 29              -1.0472145     -60.0009693
 135 TORSION   8  9 10 30               3.1415575     179.9979869
 136 TORSION   9  8  7 23              -1.0472432     -60.0026171
 137 TORSION   9  8  7 24               3.1415594     179.9980967
 138 TORSION   9 10  5 20               1.0472024      60.0002759
 139 TORSION  10  5  6 22              -1.0472134     -60.0009063
 140 TORSION  10  5  6 21               3.1414975     179.9945457
 141 TORSION  10  5  1 12               0.9598746      54.9967613
 142 TORSION  10  5  1 11               3.0543016     174.9985911
 143 TORSION  10  9  8 25               3.1415862     179.9996329
 144 TORSION  10  9  8 26               1.0472116      60.0008041
 145 TORSION  11  1  5 20              -1.1344667     -65.0001544
 146 TORSION  11  1  2 13               1.0472575      60.0034321
 147 TORSION  11  1  2 14              -3.1415130    -179.9954376
 148 TORSION  12  1  2 13               3.1415927     180.0000000
 149 TORSION  12  1  5 20               3.0542916     174.9980157
 150 TORSION  12  1  2 14              -1.0471778     -59.9988697
 151 TORSION  13  2  3 16              -1.0471671     -59.9982546
 152 TORSION  13  2  3 15              -3.1415600    -179.9981315
 153 TORSION  14  2  3 16               3.1415120     179.9953817
 154 TORSION  14  2  3 15               1.0471191      59.9955048
 155 TORSION  15  3  4 18               1.0472649      60.0038564
 156 TORSION  15  3  4 17              -1.0471892     -59.9995220
 157 TORSION  15  3  4 19              -3.1415296    -179.9963851
 158 TORSION  16  3  4 18              -1.0472509     -60.0030569
 159 TORSION  16  3  4 17               3.1414803     179.9935648
 160 TORSION  16  3  4 19               1.0471400      59.9967017
 161 TORSION  20  5  6 22               3.1415927     180.0000000
 162 TORSION  20  5 10 30              -1.0471349     -59.9964116
 163 TORSION  20  5  6 21               1.0471182      59.9954520
 164 TORSION  20  5 10 29               3.1415927     180.0000000
 165 TORSION  21  6  7 24               1.0473332      60.0077700
 166 TORSION  21  6  7 23              -1.0471644     -59.9981011
 167 TORSION  22  6  7 24              -1.0470951     -59.9941289
 168 TORSION  22  6  7 23               3.1415927     180.0000000
 169 TORSION  23  7  8 26               3.1415927     180.0000000
 170 TORSION  23  7  8 25               1.0472055      60.0004563
 171 TORSION  24  7  8 26               1.0472100      60.0007138
 172 TORSION  24  7  8 25              -1.0471771     -59.9988299
 173 TORSION  25  8  9 27              -1.0472222     -60.0014112
 174 TORSION  25  8  9 28               1.0471350      59.9964138
 175 TORSION  26  8  9 27               3.1415885     179.9997600
 176 TORSION  26  8  9 28              -1.0472397     -60.0024150
 177 TORSION  27  9 10 29              -3.1415835    -179.9994738
 178 TORSION  27  9 10 30               1.0471885      59.9994824
 179 TORSION  28  9 10 29               1.0472987      60.0057967
 180 TORSION  28  9 10 30              -1.0471146     -59.9952472

     ------------------------------------------
     THE POINT GROUP IS C1 , NAXIS= 1, ORDER= 1
     ------------------------------------------

     DIMENSIONS OF THE SYMMETRY SUBSPACES ARE
 A   =  310

 ..... DONE SETTING UP THE RUN .....
 STEP CPU TIME =     0.03 TOTAL CPU TIME =        0.0 (    0.0 MIN)
 TOTAL WALL CLOCK TIME=        0.0 SECONDS, CPU UTILIZATION IS  75.00%


          -----------------------------
          STATIONARY POINT LOCATION RUN
          -----------------------------

 OBTAINING INITIAL HESSIAN, HESS=GUESS   
 DIAGONAL GUESS HESSIAN IN INTERNAL COORDS IS
     1  0.3672     2  0.3671     3  0.3464     4  0.3464     5  0.3464
     6  0.3464     7  0.3671     8  0.3672     9  0.3464    10  0.3463
    11  0.3464    12  0.3464    13  0.3464    14  0.3672    15  0.3464
    16  0.3671    17  0.3671    18  0.3464    19  0.3464    20  0.3671
    21  0.3463    22  0.3464    23  0.3464    24  0.3464    25  0.3672
    26  0.3464    27  0.3463    28  0.3672    29  0.3463    30  0.3464
    31  0.2241    32  0.2241    33  0.2485    34  0.2485    35  0.2485
    36  0.2241    37  0.2485    38  0.2485    39  0.2241    40  0.2241
    41  0.2241    42  0.2241    43  0.2241    44  0.2241    45  0.2241
    46  0.2241    47  0.2241    48  0.2241    49  0.2241    50  0.2485
    51  0.2241    52  0.2241    53  0.2241    54  0.2485    55  0.2241
    56  0.2241    57  0.2241    58  0.2241    59  0.2485    60  0.2241
    61  0.2241    62  0.2485    63  0.2485    64  0.2241    65  0.2241
    66  0.2241    67  0.2241    68  0.2485    69  0.2241    70  0.2241
    71  0.2241    72  0.2241    73  0.2241    74  0.2241    75  0.2241
    76  0.2241    77  0.2241    78  0.2241    79  0.2241    80  0.2034
    81  0.2034    82  0.2034    83  0.2034    84  0.2034    85  0.2034
    86  0.2034    87  0.2034    88  0.2034    89  0.2034    90  0.2034
    91  0.2500    92  0.2500    93  0.2500    94  0.2500    95  0.2500
    96  0.2500    97  0.2500    98  0.2500    99  0.2500   100  0.2500
   101  0.2500   102  0.2500   103  0.2500   104  0.2500   105  0.2500
   106  0.2500   107  0.2500   108  0.2500   109  0.2500   110  0.2500
   111  0.2500   112  0.2500   113  0.2500   114  0.2500   115  0.2500
   116  0.2500   117  0.2500   118  0.2500   119  0.2500   120  0.2500
   121  0.2500   122  0.2500   123  0.2500   124  0.2500   125  0.2500
   126  0.2500   127  0.2500   128  0.2500   129  0.2500   130  0.2500
   131  0.2500   132  0.2500   133  0.2500   134  0.2500   135  0.2500
   136  0.2500   137  0.2500   138  0.2500   139  0.2500   140  0.2500
   141  0.2500   142  0.2500   143  0.2500   144  0.2500   145  0.2500
   146  0.2500   147  0.2500   148  0.2500   149  0.2500   150  0.2500
   151  0.2500   152  0.2500   153  0.2500   154  0.2500   155  0.2500
   156  0.2500   157  0.2500   158  0.2500   159  0.2500   160  0.2500
   161  0.2500   162  0.2500   163  0.2500   164  0.2500   165  0.2500
   166  0.2500   167  0.2500   168  0.2500   169  0.2500   170  0.2500
   171  0.2500   172  0.2500   173  0.2500   174  0.2500   175  0.2500
   176  0.2500   177  0.2500   178  0.2500   179  0.2500   180  0.2500
 TRANSFORMING HESSIAN TO SYMMETRY COORDINATES

          PARAMETERS CONTROLLING GEOMETRY SEARCH ARE
          METHOD =QA                  UPHESS =BFGS    
          NNEG   =         0          NFRZ   =         3
          NSTEP  =        50          IFOLOW =         1
          HESS   =GUESS               RESTAR =         F
          IHREP  =         0          HSSEND =         F
          NPRT   =         0          NPUN   =         0
          OPTTOL = 5.000E-04          RMIN   = 1.500E-03
          RMAX   = 1.000E-01          RLIM   = 7.000E-02
          DXMAX  = 3.000E-01          PURIFY =         F
          MOVIE  =         F          TRUPD  =         T
          TRMAX  = 5.000E-01          TRMIN  = 5.000E-02
          ITBMAT =         5          STPT   =         F
          STSTEP = 1.000E-02          PROJCT=          F
          FROZEN COORD(S)=   1   2   3


      ***** EQUILIBRIUM GEOMETRY LOCATED *****
            (SUBJECT TO   3 CONSTRAINT(S))
 COORDINATES OF ALL ATOMS ARE (ANGS)
   ATOM   CHARGE       X              Y              Z
 ------------------------------------------------------------
 C           6.0  -0.9037636117  -0.8631955958  -0.2085617836
 C           6.0  -2.0196752529   0.0967164950   0.1613807943
 C           6.0  -3.4049650420  -0.4480755758  -0.1344575935
 C           6.0  -4.4560762522   0.6265091271   0.1057284139
 C           6.0   0.4640930507  -0.3579984286   0.2308265313
 C           6.0   1.5586238931  -1.3453395877  -0.1721721778
 C           6.0   2.9337784711  -0.8826755109   0.3025343052
 C           6.0   3.2468373205   0.5286048827  -0.2020962594
 C           6.0   2.1536216834   1.5182021275   0.2009622965
 C           6.0   0.7817174684   1.0532518394  -0.2816908029
 H           1.0  -1.0826428243  -1.8313920827   0.2575421829
 H           1.0  -0.9122000653  -1.0287155775  -1.2864127486
 H           1.0  -1.9475789991   0.3459699676   1.2201472821
 H           1.0  -1.8905024860   1.0270778982  -0.3829584719
 H           1.0  -3.4448103886  -0.7901035309  -1.1673675068
 H           1.0  -3.5915952272  -1.3183693398   0.4922263055
 H           1.0  -4.2737837663   1.4723972144  -0.5530531787
 H           1.0  -5.4621917644   0.2638922067  -0.0724358660
 H           1.0  -4.3945857886   0.9880461391   1.1294212228
 H           1.0   0.4501502511  -0.3044025607   1.3217048821
 H           1.0   1.3266738802  -2.3260032734   0.2385615469
 H           1.0   1.5572827749  -1.4512690000  -1.2576164191
 H           1.0   2.9461033829  -0.8872882501   1.3922375158
 H           1.0   3.6979768846  -1.5811109823  -0.0270299916
 H           1.0   4.2118848559   0.8582215174   0.1720923182
 H           1.0   3.3151451703   0.5080397627  -1.2897055756
 H           1.0   2.1261022313   1.6085646873   1.2869759910
 H           1.0   2.3705535157   2.5090821374  -0.1903442874
 H           1.0   0.7459226412   1.0601198245  -1.3723920853
 H           1.0   0.0311966972   1.7578074068   0.0589926634


                     --------------------
                     INTERNAL COORDINATES
                     --------------------

                 - - ATOMS - -         COORDINATE      COORDINATE
 NO.   TYPE    I  J  K  L  M  N        (BOHR,RAD)       (ANG,DEG)
 ----------------------------------------------------------------
   1 STRETCH   1  5                     2.8779218       1.5229308
   2 STRETCH   1  2                     2.8681207       1.5177442
   3 STRETCH   1 11                     2.0585485       1.0893370
   4 STRETCH   1 12                     2.0607813       1.0905186
   5 STRETCH   2 14                     2.0515177       1.0856165
   6 STRETCH   2 13                     2.0599848       1.0900971
   7 STRETCH   2  3                     2.8679956       1.5176780
   8 STRETCH   3  4                     2.8766424       1.5222537
   9 STRETCH   3 15                     2.0575234       1.0887946
  10 STRETCH   3 16                     2.0570904       1.0885655
  11 STRETCH   4 18                     2.0488517       1.0842057
  12 STRETCH   4 17                     2.0551588       1.0875433
  13 STRETCH   4 19                     2.0548866       1.0873992
  14 STRETCH   5  6                     2.8877884       1.5281519
  15 STRETCH   5 20                     2.0641159       1.0922832
  16 STRETCH   5 10                     2.9000901       1.5346617
  17 STRETCH   6  7                     2.8848228       1.5265826
  18 STRETCH   6 22                     2.0609384       1.0906017
  19 STRETCH   6 21                     2.0564215       1.0882115
  20 STRETCH   7  8                     2.8934230       1.5311336
  21 STRETCH   7 24                     2.0531366       1.0864732
  22 STRETCH   7 23                     2.0593906       1.0897827
  23 STRETCH   8 26                     2.0596998       1.0899463
  24 STRETCH   8 25                     2.0527513       1.0862693
  25 STRETCH   8  9                     2.8887967       1.5286855
  26 STRETCH   9 28                     2.0545271       1.0872090
  27 STRETCH   9 27                     2.0600167       1.0901140
  28 STRETCH   9 10                     2.8853176       1.5268444
  29 STRETCH  10 30                     2.0490636       1.0843178
  30 STRETCH  10 29                     2.0622770       1.0913101
  31 BEND      1  2 13                  1.9099890     109.4343099
  32 BEND      1  2 14                  1.9095495     109.4091258
  33 BEND      1  5  6                  1.9314618     110.6646106
  34 BEND      1  2  3                  1.9785678     113.3635828
  35 BEND      1  5 10                  1.9764184     113.2404306
  36 BEND      1  5 20                  1.8681133     107.0350083
  37 BEND      2  1  5                  1.9608613     112.3490791
  38 BEND      2  3  4                  1.9242168     110.2494988
  39 BEND      2  3 15                  1.9082546     109.3349342
  40 BEND      2  3 16                  1.9084330     109.3451571
  41 BEND      2  1 12                  1.9083937     109.3429029
  42 BEND      2  1 11                  1.9146307     109.7002592
  43 BEND      3  2 13                  1.9089778     109.3763737
  44 BEND      3  4 19                  1.9221778     110.1326778
  45 BEND      3  4 17                  1.9153139     109.7394026
  46 BEND      3  4 18                  1.9592295     112.2555803
  47 BEND      3  2 14                  1.8949385     108.5719783
  48 BEND      4  3 16                  1.9338742     110.8028290
  49 BEND      4  3 15                  1.9242800     110.2531222
  50 BEND      5  6  7                  1.9469837     111.5539470
  51 BEND      5  1 11                  1.8953398     108.5949695
  52 BEND      5  1 12                  1.9203322     110.0269326
  53 BEND      5 10 29                  1.9100396     109.4372063
  54 BEND      5 10  9                  1.9395195     111.1262796
  55 BEND      5  6 21                  1.9071468     109.2714653
  56 BEND      5 10 30                  1.9276573     110.4466294
  57 BEND      5  6 22                  1.9011144     108.9258307
  58 BEND      6  5 20                  1.8799187     107.7114056
  59 BEND      6  5 10                  1.9367440     110.9672594
  60 BEND      6  7 23                  1.8963595     108.6533956
  61 BEND      6  7 24                  1.9224505     110.1482974
  62 BEND      6  7  8                  1.9401820     111.1642388
  63 BEND      7  8  9                  1.9428857     111.3191535
  64 BEND      7  8 25                  1.9260212     110.3528879
  65 BEND      7  8 26                  1.9010635     108.9229158
  66 BEND      7  6 21                  1.9259725     110.3500938
  67 BEND      7  6 22                  1.9177500     109.8789815
  68 BEND      8  9 10                  1.9413029     111.2284628
  69 BEND      8  9 28                  1.9309374     110.6345618
  70 BEND      8  9 27                  1.9117498     109.5351933
  71 BEND      8  7 23                  1.9083128     109.3382683
  72 BEND      8  7 24                  1.9270224     110.4102520
  73 BEND      9 10 30                  1.9015285     108.9495600
  74 BEND      9 10 29                  1.9214270     110.0896561
  75 BEND      9  8 25                  1.9263110     110.3694930
  76 BEND      9  8 26                  1.8966635     108.6708162
  77 BEND     10  9 27                  1.8938692     108.5107130
  78 BEND     10  9 28                  1.9209530     110.0624983
  79 BEND     10  5 20                  1.8661222     106.9209235
  80 BEND     11  1 12                  1.8616142     106.6626374
  81 BEND     13  2 14                  1.8579015     106.4499138
  82 BEND     15  3 16                  1.8636938     106.7817913
  83 BEND     17  4 19                  1.8777792     107.5888255
  84 BEND     17  4 18                  1.8924562     108.4297555
  85 BEND     18  4 19                  1.8948099     108.5646107
  86 BEND     21  6 22                  1.8627901     106.7300109
  87 BEND     23  7 24                  1.8677788     107.0158419
  88 BEND     25  8 26                  1.8689762     107.0844478
  89 BEND     27  9 28                  1.8629898     106.7414553
  90 BEND     29 10 30                  1.8621241     106.6918507
  91 TORSION   1  2  3 16               1.1286363      64.6660954
  92 TORSION   1  5 10 29              -1.0287193     -58.9412752
  93 TORSION   1  5  6 21              -0.9718243     -55.6814335
  94 TORSION   1  5 10 30               1.0162773      58.2283998
  95 TORSION   1  5  6 22               1.0570903      60.5668106
  96 TORSION   1  5 10  9               3.1287806     179.2659212
  97 TORSION   1  5  6  7              -3.1061848    -177.9712771
  98 TORSION   1  2  3 15              -0.9061076     -51.9161404
  99 TORSION   1  2  3  4              -3.0243050    -173.2799134
 100 TORSION   2  1  5  6              -3.1318800    -179.4435045
 101 TORSION   2  1  5 20               1.1074362      63.4514202
 102 TORSION   2  3  4 18              -3.1165933    -178.5676445
 103 TORSION   2  3  4 17               1.0608951      60.7848125
 104 TORSION   2  3  4 19              -1.0031469     -57.4760810
 105 TORSION   2  1  5 10              -0.9445877     -54.1208871
 106 TORSION   3  2  1 12               1.1094855      63.5688339
 107 TORSION   3  2  1 11              -0.9263671     -53.0769238
 108 TORSION   3  2  1  5              -3.0363252    -173.9686174
 109 TORSION   4  3  2 13               1.1222372      64.2994527
 110 TORSION   4  3  2 14              -0.8984156     -51.4754203
 111 TORSION   5 10  9 27              -1.1315771     -64.8345904
 112 TORSION   5 10  9 28               3.1188948     178.6995072
 113 TORSION   5 10  9  8               0.9724894      55.7195408
 114 TORSION   5  1  2 13              -0.9002432     -51.5801366
 115 TORSION   5  6  7 23               1.1370333      65.1472103
 116 TORSION   5  6  7 24              -3.1053953    -177.9260428
 117 TORSION   5  6  7  8              -0.9636984     -55.2158525
 118 TORSION   5  1  2 14               1.1291537      64.6957414
 119 TORSION   6  7  8  9               0.9613493      55.0812597
 120 TORSION   6  7  8 25               3.1065040     177.9895698
 121 TORSION   6  7  8 26              -1.1296690     -64.7252646
 122 TORSION   6  5 10 30              -3.0824582    -176.6118449
[...]
 685  24   9.081318  -3.085828   1.113550  -0.000160   0.160148  -0.000998
 686  24   8.312855  -4.145560   1.577476  -0.000084   0.160148  -0.000523
 687  24   7.325665  -5.028886   1.160362  -0.000158   0.160148  -0.000989
 688  24   6.632340  -5.388843   0.315510  -0.000052   0.071589  -0.000728
 689   7   9.211078  -2.287629   0.827720  -0.000045   0.155809  -0.000291
 690   7   8.628982  -3.375033   1.782438   0.000246   0.155809   0.001582
 691   7   7.583473  -4.532143   1.810315   0.000239   0.155809   0.001531
 692   7   6.538112  -5.245918   0.898990  -0.000033   0.155809  -0.000210
 693  25   8.771315   0.700085   2.490171  -0.000062   0.207236  -0.000297
 694  25   9.485806   0.089219   1.338122  -0.000801   0.425077  -0.001884
 695   7   8.659549  -0.537458   2.397646   0.001176   0.566720   0.002076
 696   7   9.363229  -1.159408   0.991732   0.000870   0.291869   0.002979
 697  26   7.079361  -1.113104  -3.545070  -0.000177   0.204191  -0.000868
 698   7   6.830620  -2.102659  -3.056574   0.000632   0.287706   0.002195
 699   8   7.462445   2.692026   2.734697   0.000041   0.026696   0.001547
 700   9   7.084770   3.002789   2.830621   0.000076   0.026696   0.002856
 701  25   7.744074   2.698618   2.623503   0.000023   0.026696   0.000847
 702   8   7.939259   4.294568   0.093303   0.000056   0.026696   0.002091
 703   9   7.555285   4.584157   0.224125   0.000119   0.026696   0.004457
 704  25   8.178092   4.157326   0.219183   0.000019   0.026696   0.000712
 705   8   6.004475   3.512609  -3.212391   0.000041   0.029058   0.001428
 706   9   5.640936   3.811129  -3.047452   0.000072   0.029058   0.002487
 707  26   6.028521   3.294575  -3.423890   0.000012   0.029058   0.000417
 708   8   6.917839   2.662486   3.043007   0.000071   0.028045   0.002519
 709   9   6.585077   2.994684   3.208422   0.000044   0.028045   0.001572
 710  27   6.365077   3.006860   3.418947   0.000017   0.028045   0.000606
 711   8   7.471769   4.649698  -0.319158   0.000116   0.026417   0.004382
 712   9   7.145408   5.003361  -0.189485   0.000065   0.026417   0.002478
 713  28   6.980545   5.225218  -0.314333   0.000025   0.026417   0.000950
 714   8   5.927269   3.981435  -2.867575   0.000073   0.026417   0.002755
 715   9   5.580130   4.326107  -2.772187   0.000052   0.026417   0.001985
 716  28   5.555876   4.608802  -2.665030   0.000034   0.026417   0.001302
 717   9   7.312404   4.893330   0.081249   0.000227   0.062352   0.003638
 718   8   7.808037   4.443304  -0.179316   0.000195   0.062352   0.003128
 719   9   5.559544   4.174124  -2.907230   0.000098   0.031044   0.003152
 720   8   6.045413   3.691675  -3.114674   0.000090   0.031044   0.002887
 721   9   6.770249   3.065675   3.098135   0.000120   0.041054   0.002924
 722   8   7.303896   2.638655   2.884186   0.000108   0.041054   0.002642
 723   8   6.567333   1.302366   3.432903   0.000250   0.166606   0.001500
 724  23   6.348384   0.658909   3.763520   0.000047   0.166606   0.000280
 725  27   6.001592   1.714373   3.718979   0.000118   0.166606   0.000708
 726  23   7.076949  -0.087528   3.811367  -0.000147   0.202124  -0.000725
 727   8   7.276133   0.915289   3.321344   0.000658   0.284762   0.002309
 728  24   8.211797  -2.497843  -2.163002  -0.000056   0.206837  -0.000272
 729  24   9.053801  -2.219093  -0.973593  -0.000784   0.424185  -0.001849
 730   8   8.608077  -1.320737  -2.064270   0.001228   0.565695   0.002170
 731   8   9.432672  -1.024766  -0.622472   0.000795   0.291303   0.002731
 732  25   8.149830   2.296245   2.672371  -0.000065   0.078284  -0.000828
 733  25   8.452022   1.367442   2.711181  -0.000049   0.078284  -0.000620
 734   8   7.925167   1.713792   2.792380  -0.000201   0.166930  -0.001204
 735  25   9.880975   0.106175   0.136888  -0.000044   0.071602  -0.000613
 736  25   9.965397   0.850929  -0.736890  -0.000189   0.160207  -0.001183
 737  25   9.717639   2.128582  -1.223387  -0.000081   0.160207  -0.000506
 738  25   9.155646   3.340546  -0.841593  -0.000177   0.160207  -0.001102
 739  25   8.628351   3.957425  -0.025080  -0.000050   0.071602  -0.000696
 740   8   9.745315   0.071149  -0.454873  -0.000049   0.155808  -0.000312
 741   8   9.702856   1.294299  -1.422834   0.000240   0.155808   0.001539
 742   8   9.220607   2.776998  -1.485191   0.000185   0.155808   0.001186
 743   8   8.512652   3.861031  -0.614260  -0.000023   0.155808  -0.000150
 744  26   6.486855   3.090350  -3.639850  -0.000035   0.070026  -0.000501
 745  26   7.522659   2.666391  -3.566771  -0.000099   0.155537  -0.000635
 746  26   8.330125   1.579750  -3.495506  -0.000016   0.155537  -0.000106
 747  26   8.304112   0.224532  -3.471517  -0.000144   0.155537  -0.000927
 748  26   7.707953  -0.725304  -3.491006  -0.000045   0.070026  -0.000647
 749   8   6.949674   3.211914  -3.274609  -0.000034   0.153476  -0.000221
 750   8   8.202421   2.351235  -3.179646   0.000277   0.153476   0.001807
 751   8   8.666268   0.901819  -3.123106   0.000304   0.153476   0.001981
 752   8   8.147120  -0.529828  -3.128648   0.000020   0.153476   0.000131
 753  27   6.066152   2.559209   3.769072  -0.000143   0.194325  -0.000734
 754   8   6.975453   2.162927   3.221469   0.000642   0.273795   0.002345
 755  28   6.859748   5.365280  -0.744802  -0.000060   0.205229  -0.000294
 756  28   6.175168   5.069913  -2.014581  -0.000742   0.420658  -0.001764
 757   8   7.360144   4.434221  -1.402100   0.001132   0.561520   0.002016
 758   8   6.460257   4.044106  -2.759172   0.000850   0.289035   0.002941
 759   9   2.145433   6.061142  -0.290048   0.000042   0.027148   0.001555
 760  10   1.712919   5.869505  -0.445057   0.000070   0.027148   0.002574
 761  28   2.390192   6.196729  -0.407161   0.000023   0.027148   0.000837
 762   9   3.489752   4.754810  -2.852690   0.000064   0.027148   0.002343
 763  10   3.039599   4.580314  -2.974074   0.000122   0.027148   0.004491
 764  28   3.613950   5.007550  -2.739983   0.000030   0.027148   0.001088
 765   9   3.235439   4.310546  -3.132843   0.000102   0.027422   0.003718
 766  10   2.793894   4.183761  -3.324642   0.000054   0.027422   0.001970
 767  29   2.682038   3.997268  -3.538900   0.000026   0.027422   0.000962
 768   9   1.618116   5.858456  -0.011928   0.000072   0.028294   0.002554
 769  10   1.159538   5.747232  -0.170656   0.000042   0.028294   0.001478
 770  30   0.884626   5.723845  -0.047860   0.000020   0.028294   0.000701
 771  10   1.314877   5.817738  -0.322844   0.000116   0.042020   0.002761
 772   9   1.971906   6.038005  -0.145134   0.000117   0.042020   0.002796
 773  10   2.815951   4.388428  -3.212579   0.000115   0.029977   0.003824
 774   9   3.472537   4.577915  -3.003957   0.000115   0.029977   0.003827
 775  25   8.335655   4.059972   0.654277  -0.000105   0.207090  -0.000507
 776  25   8.130098   3.362168   1.951642  -0.000828   0.424813  -0.001949
 777   9   7.367338   4.466409   1.323187   0.001119   0.566306   0.001976
 778   9   7.090487   3.542253   2.712336   0.000827   0.291679   0.002834
 779   9   4.264707   3.298598  -3.441991   0.000256   0.166161   0.001543
 780  26   4.726237   2.778769  -3.727749   0.000082   0.166161   0.000495
 781  29   3.639602   3.011654  -3.761870   0.000082   0.166161   0.000494
 782  26   5.577652   2.937199  -3.779488  -0.000225   0.204841  -0.001098
 783   9   5.114342   3.806916  -3.229714   0.000691   0.288662   0.002393
 784   9   1.553741   4.188264   2.897275   0.000096   0.030348   0.003167
 785  27   1.746213   4.099365   3.115516   0.000008   0.030348   0.000274
 786  30   0.887842   4.142372   2.566055   0.000079   0.030348   0.002599
 787  27   6.123205   3.448414   3.629255  -0.000032   0.070220  -0.000453
 788  27   5.620376   4.449349   3.533236  -0.000140   0.156044  -0.000898
 789  27   4.471863   5.169858   3.444185  -0.000020   0.156044  -0.000130
 790  27   3.119970   5.035700   3.421086  -0.000190   0.156044  -0.001215
 791  27   2.219100   4.363935   3.454145  -0.000059   0.070220  -0.000841
 792   9   6.209329   3.911974   3.253733  -0.000015   0.153833  -0.000096
 793   9   5.252970   5.095126   3.131060   0.000259   0.153833   0.001687
 794   9   3.768419   5.443256   3.064474   0.000213   0.153833   0.001387
 795   9   2.379822   4.810002   3.081968  -0.000026   0.153833  -0.000168
 796  28   2.773773   6.493789  -0.147397  -0.000050   0.071701  -0.000700
 797  28   3.526875   6.665939   0.706025  -0.000176   0.160375  -0.001097
 798  28   4.835008   6.559595   1.161942  -0.000105   0.160375  -0.000654
 799  28   6.090024   6.124099   0.754931  -0.000149   0.160375  -0.000929
 800  28   6.739710   5.655406  -0.071726  -0.000043   0.071701  -0.000594
 801   9   2.767635   6.361357   0.446543  -0.000103   0.156084  -0.000661
 802   9   4.011909   6.458789   1.383059   0.000204   0.156084   0.001307
 803   9   5.538281   6.136120   1.412183   0.000221   0.156084   0.001415
 804   9   6.670054   5.536402   0.521002  -0.000030   0.156084  -0.000191
 805  28   5.114458   4.967204  -2.715400  -0.000046   0.077760  -0.000586
 806  28   4.164811   5.160194  -2.753174  -0.000046   0.077760  -0.000597
 807   9   4.564299   4.674448  -2.829029  -0.000147   0.166210  -0.000884
 808  29   2.828688   3.651967  -3.809008  -0.000118   0.199437  -0.000594
 809   9   3.815051   3.958512  -3.333322   0.000670   0.280935   0.002383
 810  30   0.430252   4.570622   2.223077  -0.000184   0.215953  -0.000854
 811  30   0.615709   5.463549   0.957530  -0.001224   0.444891  -0.002750
 812   9   1.550757   5.097096   2.075445   0.001053   0.588962   0.001789
 813   9   1.751012   5.961000   0.539703   0.000804   0.304296   0.002641
 814  10  -0.248405   2.184227   3.041486   0.000439   0.233576   0.001881
 815  13  -1.315740   1.790291   3.361408   0.000402   0.233576   0.001720
 816  20  -0.294612   1.567675   3.466067   0.000064   0.233576   0.000273
 817  10  -0.511513   2.979253   2.659795  -0.000036   0.103835  -0.000347
 818  13  -1.561784   2.529557   2.934025   0.000339   0.103835   0.003269
 819  30  -0.713414   3.184342   2.555487  -0.000092   0.103835  -0.000884
 820  13  -1.886430   2.186500   3.524850   0.000067   0.117141   0.000575
 821  10  -0.363635   2.833664   3.002994   0.000515   0.170290   0.003026
 822  10  -1.083113   3.136153  -3.122684   0.000270   0.060307   0.004483
 823  14  -1.986703   2.962505  -2.850293   0.000117   0.060307   0.001942
 824  29  -0.898383   3.016925  -3.335256   0.000160   0.060307   0.002655
 825  10  -1.293660   4.357440  -1.821874   0.000118   0.075750   0.001564
 826  14  -2.213217   4.097786  -1.711717  -0.000131   0.075750  -0.001735
 827  30  -1.430545   4.464256  -1.571894  -0.000120   0.075750  -0.001585
 828  14  -2.653234   3.685071  -2.270986  -0.001344   0.380183  -0.003535
 829  10  -1.271864   3.751215  -2.685546   0.001838   0.537159   0.003422
 830  10   0.944889   2.544353   3.244050   0.000206   0.162862   0.001265
 831  20   0.892792   1.887310   3.591898   0.000097   0.162862   0.000598
 832  27   1.600349   2.694225   3.576700  -0.000005   0.162862  -0.000031
 833  20   0.356878   1.566231   3.739168  -0.000077   0.068235  -0.001124
 834  10   0.363277   2.516600   3.173556   0.000230   0.096318   0.002383
 835  10   0.872058   3.928189   2.674619   0.000067   0.028198   0.002368
 836  27   1.532482   3.971490   3.015711   0.000063   0.028198   0.002252
 837  30   0.636079   4.054573   2.536048  -0.000002   0.028198  -0.000064
 838  27   1.881296   3.680380   3.535750  -0.000208   0.198646  -0.001049
 839  10   0.923019   3.329214   3.061065   0.000599   0.279982   0.002138
 840  28   3.466202   5.412619  -2.529050  -0.000069   0.210205  -0.000326
 841  28   2.784187   6.083563  -1.359652  -0.000896   0.431747  -0.002075
 842  10   2.247851   5.176160  -2.412001   0.001257   0.574335   0.002188
 843  10   1.560558   5.836562  -0.982769   0.000823   0.296090   0.002778
 844  29  -0.289826   3.372673  -3.700356   0.000040   0.082372   0.000480
 845  29   0.845645   4.005965  -3.733640  -0.000296   0.190294  -0.001553
 846  29   2.145475   4.015248  -3.776246  -0.000061   0.082372  -0.000739
 847  10  -0.008093   3.858260  -3.367614   0.000156   0.174211   0.000893
 848  10   1.680910   4.303918  -3.420248  -0.000068   0.174211  -0.000393
 849  30   0.369531   5.702263  -0.349295  -0.000069   0.083935  -0.000819
 850  30  -0.504574   5.192804  -1.221339  -0.000328   0.196249  -0.001671
 851  10   0.370649   5.492752  -0.975139  -0.000175   0.175554  -0.000994
 852  10  -0.634592   4.833945  -1.827211   0.000175   0.102545   0.001706
 853  30  -0.138723   3.778840   2.508781  -0.000167   0.079186  -0.002111
 854  10   0.292016   3.662032   2.637668  -0.000010   0.096744  -0.000104
 855  16  -5.619309  -4.868594   0.466052   0.000407   0.235163   0.001729
 856  16  -5.491761  -4.719923   1.504675  -0.000023   0.470141  -0.000050
 857  16  -5.238689  -3.939723   2.504687  -0.000035   0.470141  -0.000075
 858  11  -4.065525  -5.145810   0.724425   0.000007   0.470141   0.000016
 859  11  -3.865612  -4.719106   1.928891  -0.000163   0.470141  -0.000347
 860  11  -3.642135  -3.932523   2.598559   0.000227   0.235163   0.000963
 861  20  -0.324874  -2.676811   3.679498   0.000200   0.057654   0.003470
 862  11  -1.215537  -3.610867   3.032900   0.000189   0.057654   0.003276
 863  21   0.776802  -5.007064   2.384009   0.000144   0.252549   0.000571
 864  21   0.606440  -5.804606   1.542044  -0.000510   0.505140  -0.001009
 865  21   0.539732  -6.075838   0.142872  -0.000112   0.505140  -0.000222
 866  11  -0.737038  -5.037953   2.095509  -0.000279   0.505140  -0.000553
 867  11  -0.896048  -5.765807   0.878691  -0.000337   0.505140  -0.000667
 868  11  -0.899445  -5.737363  -0.293137   0.000407   0.252549   0.001610
 869  15  -4.881955  -0.730750  -4.199275   0.000185   0.237850   0.000777
 870  15  -4.988501  -1.793803  -4.335195  -0.000276   0.475547  -0.000581
 871  15  -5.078262  -3.002857  -3.821394  -0.000076   0.475547  -0.000160
 872  12  -3.400693  -1.275769  -4.349213   0.000011   0.475547   0.000023
 873  12  -3.519188  -2.583367  -4.249186  -0.000009   0.475547  -0.000020
 874  12  -3.573858  -3.468510  -3.638088   0.000438   0.237850   0.001843
 875  12   0.297379  -1.163343  -4.131834   0.000169   0.328208   0.000514
 876  22   1.348053  -1.342831  -4.122229   0.000040   0.328208   0.000121
 877  29   1.003727  -0.270620  -4.155412   0.000186   0.328208   0.000567
 878  22   1.084636  -4.116372  -3.724936   0.000438   0.243906   0.001794
 879  22   1.250204  -3.189856  -4.327606  -0.000053   0.487731  -0.000108
 880  22   1.438486  -2.100863  -4.494039   0.000007   0.243906   0.000029
 881  12  -0.337171  -3.524504  -3.996508   0.000163   0.487731   0.000335
 882  12  -0.116402  -2.267014  -4.476357  -0.000201   0.487731  -0.000412
 883  29   0.609186   0.365743  -4.585599   0.000091   0.268281   0.000340
 884  29  -0.281660   1.080480  -4.401526   0.000133   0.536330   0.000248
 885  12  -0.737791  -0.620680  -4.494400   0.000150   0.536330   0.000279
 886  12  -1.610443   0.083726  -4.210448   0.000430   0.268281   0.001603
 887  19  -6.991821   0.726888   4.174665   0.000050   0.240852   0.000210
 888  19  -6.716046   1.785360   4.227466  -0.000513   0.481579  -0.001064
 889  19  -6.394440   2.922421   3.600322  -0.000223   0.481579  -0.000463
 890  13  -5.417478   0.743570   4.276993  -0.000096   0.481579  -0.000200
 891  13  -5.074883   2.019545   4.066842  -0.000076   0.481579  -0.000157
 892  13  -4.837016   2.827134   3.366541   0.000432   0.240852   0.001794
 893  20  -0.400912   1.184646   4.059824   0.000359   0.276684   0.001298
 894  20  -0.729675   0.035623   4.463378  -0.000120   0.553566  -0.000216
 895  20  -1.048428  -1.169585   4.270851   0.000271   0.276684   0.000980
 896  13  -1.964022   1.145540   4.189051  -0.000356   0.553566  -0.000642
 897  13  -2.367575  -0.321693   4.320570  -0.000210   0.553566  -0.000380
 898  30  -1.300684   3.772570   2.357745  -0.000015   0.438241  -0.000035
 899  13  -2.338988   2.787030   3.170300   0.000733   0.438241   0.001673
 900  17  -6.167443   4.592259  -0.637583   0.000236   0.244847   0.000965
 901  17  -6.130974   4.357241  -1.763873  -0.000606   0.489734  -0.001238
 902  17  -6.237355   3.398738  -2.782754  -0.000643   0.489734  -0.001312
 903  14  -4.720291   4.265094  -0.971958  -0.000360   0.489734  -0.000734
 904  14  -4.734791   3.697487  -2.254837  -0.000598   0.489734  -0.001222
 905  14  -4.864486   2.755546  -2.903698   0.000064   0.244847   0.000261
 906  29  -0.969612   2.433614  -3.783313   0.000844   0.415786   0.002029
 907  14  -2.555123   2.617629  -3.125438   0.000208   0.415786   0.000500
 908  30  -1.656714   4.734159  -1.246788  -0.000078   0.235171  -0.000331
 909  30  -1.972303   4.829260  -0.031771  -0.001602   0.471033  -0.003401
 910  14  -2.930484   4.370079  -1.048930  -0.001485   0.471033  -0.003152
 911  14  -3.207725   4.356511   0.179019  -0.000014   0.235171  -0.000058
 912  20   2.876595   0.136618   4.206398   0.000156   0.320483   0.000487
 913  23   3.938931  -0.112811   4.228215   0.000175   0.320483   0.000546
 914  27   3.589207   0.950919   4.185313   0.000160   0.320483   0.000501
 915  23   4.004372  -0.860654   4.651722   0.000107   0.265797   0.000404
 916  23   3.742044  -2.004445   4.482492  -0.000105   0.531529  -0.000197
 917  20   2.400316  -0.952093   4.577042  -0.000060   0.531529  -0.000113
 918  20   2.145314  -2.077156   4.303328   0.000303   0.265797   0.001140
 919  27   1.969453   2.686054   4.119469   0.000156   0.269693   0.000578
 920  27   2.840138   1.929863   4.484048  -0.000260   0.539388  -0.000481
 921  20   1.287983   1.253401   4.312647   0.000000   0.539388   0.000000
 922  20   2.179165   0.477309   4.570155   0.000110   0.269693   0.000406
 923  22   3.441314  -0.626660  -4.096831   0.000226   0.338317   0.000667
 924  26   4.191268   0.209393  -4.111775   0.000162   0.338317   0.000480
 925  29   3.095110   0.445084  -4.146141   0.000251   0.338317   0.000742
 926  26   6.054661  -1.153693  -4.094442   0.000217   0.266115   0.000816
 927  26   5.224693  -0.414571  -4.431021  -0.000156   0.532048  -0.000293
 928  22   4.683399  -2.059481  -4.234098   0.000083   0.532048   0.000156
 929  22   3.835371  -1.302530  -4.471384   0.000144   0.266115   0.000540
 930  29   2.364497   0.434366  -4.571783   0.000128   0.245824   0.000522
 931  29   1.583471   0.181749  -4.578118   0.000081   0.245824   0.000329
 932  22   2.463148  -1.206647  -4.481737  -0.000046   0.491402  -0.000094
 933  27   4.184001   1.402722   4.566214   0.000129   0.259363   0.000496
 934  27   5.249525   1.744678   4.373710   0.000071   0.518525   0.000136
 935  23   5.090106   0.030582   4.585922  -0.000061   0.518525  -0.000118
 936  23   6.137163   0.362450   4.298049   0.000259   0.259363   0.000998
 937  29   3.356690   2.755515  -4.294908   0.000298   0.269327   0.001105
 938  29   3.124102   1.633831  -4.557139  -0.000048   0.538491  -0.000089
 939  26   4.819940   2.000209  -4.377013  -0.000057   0.538491  -0.000106
 940  26   4.580211   0.860769  -4.535897   0.000108   0.269327   0.000401
 941  30   0.478318   4.205776   2.614280   0.000076   0.010985   0.006936
 942  27   1.734835   4.122244   3.347380   0.000082   0.010985   0.007441
 =====================================================


   1 warning(s) detected.
     A line exceeding 80 characters begins with "http://cactus.nci.ni".
 There may be a problem in your input file.

              8606580  WORDS OF DYNAMIC MEMORY USED
 EXECUTION OF GAMESS TERMINATED NORMALLY Fri Nov 25 00:52:00 2016
 DDI: 263640 bytes (0.3 MB / 0 MWords) used by master data server.

 ----------------------------------------
 CPU timing information for all processes
 ========================================
 0: 6198.920 + 1.472 = 6200.392
 ----------------------------------------
 ddikick.x: exited gracefully.
