----- GAMESS execution script -----

          ******************************************************
          *         GAMESS VERSION =  5 DEC 2014 (R1)          *
          *             FROM IOWA STATE UNIVERSITY             *
          * M.W.SCHMIDT, K.K.BALDRIDGE, J.A.BOATZ, S.T.ELBERT, *
          *   M.S.GORDON, J.H.JENSEN, S.KOSEKI, N.MATSUNAGA,   *
          *          K.A.NGUYEN, S.J.SU, T.L.WINDUS,           *
          *       TOGETHER WITH M.DUPUIS, J.A.MONTGOMERY       *
          *         J.COMPUT.CHEM.  14, 1347-1363(1993)        *
          **************** 64 BIT LINUX VERSION ****************

 EXECUTION OF GAMESS BEGUN Thu Nov 24 22:37:11 2016

            ECHO OF THE FIRST FEW INPUT CARDS -
 INPUT CARD>! SELECT RESTRICTED HARTREE-FOCK AS DEFAULT                                     
 INPUT CARD>$contrl scftyp=rhf $end                                                         
 INPUT CARD>                                                                                
 INPUT CARD>! THEORY: HF OR DFT                                                             
 INPUT CARD> $contrl mplevl=0 $end                                                          
 INPUT CARD>                                                                                
 INPUT CARD> $system timlim=10000 mwords=20 $end                                            
 INPUT CARD> $SCF DIRSCF=.TRUE. $end                                                        
 INPUT CARD>                                                                                
 INPUT CARD>                                                                                
 INPUT CARD>! BASIS SETS                                                                    
 INPUT CARD>! 6-311G(d,p)                                                                   
 INPUT CARD> $BASIS GBASIS=N311 NGAUSS=6 NDFUNC=1 NPFUNC=1 $END                             
 INPUT CARD>                                                                                
 INPUT CARD>! One of the following                                                          
 INPUT CARD> $guess guess=HUCKEL $end                                                       
 INPUT CARD>                                                                                
 INPUT CARD> $statpt projct=.FALSE. $end                                                    
 INPUT CARD> $STATPT IFREEZ(1)=1,2,3 $END                                                   
 INPUT CARD>                                                                                
 INPUT CARD>! Optimize the geometry with COSMO effects                                      
 INPUT CARD> $statpt opttol=0.0005 nstep=50 $end                                            
 INPUT CARD> $contrl nzvar=1 $end                                                           
 INPUT CARD> $zmat dlc=.t. auto=.t. $end                                                    
 INPUT CARD> $contrl runtyp=OPTIMIZE maxit=200 $end                                         
 INPUT CARD>                                                                                
 INPUT CARD>! Run COSMO on perfect conductor                                                
 INPUT CARD> $COSGMS PRFCND=.TRUE. $end                                                     
 INPUT CARD>                                                                                
 INPUT CARD>! Specifying RSOLV                                                              
 INPUT CARD> $COSGMS COSRAD = 1.4 $end                                                      
 INPUT CARD>                                                                                
 INPUT CARD>! available memory                                                              
 INPUT CARD> $SYSTEM MWORDS=40 $END                                                         
 INPUT CARD>                                                                                
 INPUT CARD> $DATA                                                                          
 INPUT CARD>                                                                                
 INPUT CARD>C1                                                                              
 INPUT CARD>C      6.0      3.5915000000    1.1336000000    0.9237000000                    
 INPUT CARD>C      6.0      2.5632000000    0.8252000000    2.0004000000                    
 INPUT CARD>C      6.0      1.7193000000    2.0532000000    2.3370000000                    
 INPUT CARD>C      6.0      0.6925000000    1.7449000000    3.4145000000                    
 INPUT CARD>H      1.0      3.1053000000    1.4612000000   -0.0004000000                    
 INPUT CARD>H      1.0      4.1835000000    0.2411000000    0.6984000000                    
 INPUT CARD>H      1.0      4.2766000000    1.9222000000    1.2504000000                    
 INPUT CARD>H      1.0      3.0797000000    0.4700000000    2.9000000000                    
 INPUT CARD>H      1.0      1.9150000000    0.0107000000    1.6561000000                    
 INPUT CARD>H      1.0      1.2022000000    2.4072000000    1.4378000000                    
 INPUT CARD>H      1.0      2.3674000000    2.8678000000    2.6802000000                    
 INPUT CARD>H      1.0      0.0075000000    0.9552000000    3.0897000000                    
   40000000 WORDS OF MEMORY AVAILABLE

     BASIS OPTIONS
     -------------
     GBASIS=N311         IGAUSS=       6      POLAR=POPN311 
     NDFUNC=       1     NFFUNC=       0     DIFFSP=       F
     NPFUNC=       1      DIFFS=       F     BASNAM=        


     RUN TITLE
     ---------
                                                                                 

 THE POINT GROUP OF THE MOLECULE IS C1      
 THE ORDER OF THE PRINCIPAL AXIS IS     0

 ATOM      ATOMIC                      COORDINATES (BOHR)
           CHARGE         X                   Y                   Z
 C           6.0     6.7869508849        2.1421933797        1.7455398949
 C           6.0     4.8437456517        1.5594018851        3.7802078658
 C           6.0     3.2490058907        3.8799853980        4.4162896333
 C           6.0     1.3086352465        3.2973828760        6.4524693851
 H           1.0     5.8681661097        2.7612676133       -0.0007558904
 H           1.0     7.9056686696        0.4556129356        1.3197846298
 H           1.0     8.0816021591        3.6324312936        2.3629133750
 H           1.0     5.8197891244        0.8881712142        5.4802053644
 H           1.0     3.6188252665        0.0202200681        3.1295752083
 H           1.0     2.2718285824        4.5489483976        2.7170480251
 H           1.0     4.4737373033        5.4193561876        5.0648435923
 H           1.0     0.0141729449        1.8050662635        5.8386863843
 H           1.0     0.1884056810        4.9835853748        6.8776577323
 H           1.0     2.2291207751        2.6809542588        8.1998990059

          INTERNUCLEAR DISTANCES (ANGS.)




     $CONTRL OPTIONS
     ---------------
 SCFTYP=RHF          RUNTYP=OPTIMIZE     EXETYP=RUN     
 MPLEVL=       0     CITYP =NONE         CCTYP =NONE         VBTYP =NONE    
 DFTTYP=NONE         TDDFT =NONE    
 MULT  =       1     ICHARG=       0     NZVAR =       1     COORD =UNIQUE  
 PP    =NONE         RELWFN=NONE         LOCAL =NONE         NUMGRD=       F
 ISPHER=      -1     NOSYM =       0     MAXIT =     200     UNITS =ANGS    
 PLTORB=       F     MOLPLT=       F     AIMPAC=       F     FRIEND=        
 NPRINT=       7     IREST =       0     GEOM  =INPUT   
 NORMF =       0     NORMP =       0     ITOL  =      20     ICUT  =       9
 INTTYP=BEST         GRDTYP=BEST         QMTTOL= 1.0E-06

     $SYSTEM OPTIONS
     ---------------
  REPLICATED MEMORY=    40000000 WORDS (ON EVERY NODE).
 DISTRIBUTED MEMDDI=           0 MILLION WORDS IN AGGREGATE,
 MEMDDI DISTRIBUTED OVER   1 PROCESSORS IS           0 WORDS/PROCESSOR.
 TOTAL MEMORY REQUESTED ON EACH PROCESSOR=    40000000 WORDS.
 TIMLIM=       10000.00 MINUTES, OR       6.9 DAYS.
 PARALL= F  BALTYP=  DLB     KDIAG=    0  COREFL= F
 MXSEQ2=     300 MXSEQ3=     150  mem10=         0

     $COSGMS OPTIONS
     ---------------
     EPSI  =   INFTY     NSPA  =      92     COSRAD=    1.40
     DISEX =   10.00     OUTCHG=DBLCAV       COSBUG=       F
     COSWRT=       F     DCOSMO=       F

     SYMMETRY COORDINATES WILL NOT BE USED FOR 
     THE COSMO CALCULATION, EVEN IF SPECIFIED:
         -- SWITCHING TO C1 POINT GROUP --


     DEFINITION OF CAVITY
     ---------------------------
     ATOM         COORDINATES           RADIUS 
     1    6.7870    2.1422    1.7455    2.0000
     2    4.8437    1.5594    3.7802    2.0000
     3    3.2490    3.8800    4.4163    2.0000
     4    1.3086    3.2974    6.4525    2.0000
     5    5.8682    2.7613   -0.0008    1.3000
     6    7.9057    0.4556    1.3198    1.3000
     7    8.0816    3.6324    2.3629    1.3000
     8    5.8198    0.8882    5.4802    1.3000
     9    3.6188    0.0202    3.1296    1.3000
    10    2.2718    4.5489    2.7170    1.3000
    11    4.4737    5.4194    5.0648    1.3000
    12    0.0142    1.8051    5.8387    1.3000
    13    0.1884    4.9836    6.8777    1.3000
    14    2.2291    2.6810    8.1999    1.3000

          ----------------
          PROPERTIES INPUT
          ----------------

     MOMENTS            FIELD           POTENTIAL          DENSITY
 IEMOM =       1   IEFLD =       0   IEPOT =       0   IEDEN =       0
 WHERE =COMASS     WHERE =NUCLEI     WHERE =NUCLEI     WHERE =NUCLEI  
 OUTPUT=BOTH       OUTPUT=BOTH       OUTPUT=BOTH       OUTPUT=BOTH    
 IEMINT=       0   IEFINT=       0                     IEDINT=       0
                                                       MORB  =       0
          EXTRAPOLATION IN EFFECT
          SOSCF IN EFFECT
 ORBITAL PRINTING OPTION: NPREO=     1   136     2     1

     -------------------------------
     INTEGRAL TRANSFORMATION OPTIONS
     -------------------------------
     NWORD  =            0
     CUTOFF = 1.0E-09     MPTRAN =       0
     DIRTRF =       T     AOINTS =DUP     

          ----------------------
          INTEGRAL INPUT OPTIONS
          ----------------------
 NOPK  =       1 NORDER=       0 SCHWRZ=       T


 -----------------------------------------------
  STATISTICS ON AUTOMATIC COORDINATE GENERATION 
 -----------------------------------------------
  NUMBER OF USER SPECIFIED BONDS                             0
  NUMBER OF BONDS                                           13
  NUMBER OF ANGLES                                          24
  NUMBER OF TORSIONS                                        27
  NUMBER OF EXTRA COORD.                                     0
  NUMBER OF EXTRA COORD. FOR CONSTRAINTS                     0
  NUMBER OF CONSTRAINED COORD.                               0

  TOTAL NUMBER OF PRIMITIVES                                64
 -----------------------------------------------

   --- ENCODED Z MATRIX ---
 COORD  TYPE   I   J   K   L   M   N
    1      1    1   5
    2      1    1   7
    3      1    1   6
    4      1    1   2
    5      1    2   8
    6      1    2   3
    7      1    2   9
    8      1    3   4
    9      1    3  11
   10      1    3  10
   11      1    4  14
   12      1    4  13
   13      1    4  12
   14      2    1   2   9
   15      2    1   2   3
   16      2    1   2   8
   17      2    2   1   6
   18      2    2   1   7
   19      2    2   3  11
   20      2    2   3   4
   21      2    2   3  10
   22      2    2   1   5
   23      2    3   2   9
   24      2    3   4  12
   25      2    3   4  13
   26      2    3   4  14
   27      2    3   2   8
   28      2    4   3  10
   29      2    4   3  11
   30      2    5   1   6
   31      2    5   1   7
   32      2    6   1   7
   33      2    8   2   9
   34      2   10   3  11
   35      2   12   4  13
   36      2   12   4  14
   37      2   13   4  14
   38      3    1   2   3   4
   39      3    1   2   3  10
   40      3    1   2   3  11
   41      3    2   3   4  12
   42      3    2   3   4  13
   43      3    2   3   4  14
   44      3    3   2   1   6
   45      3    3   2   1   7
   46      3    3   2   1   5
   47      3    4   3   2   9
   48      3    4   3   2   8
   49      3    5   1   2   9
   50      3    5   1   2   8
   51      3    6   1   2   9
   52      3    6   1   2   8
   53      3    7   1   2   8
   54      3    7   1   2   9
   55      3    8   2   3  10
   56      3    8   2   3  11
   57      3    9   2   3  10
   58      3    9   2   3  11
   59      3   10   3   4  14
   60      3   10   3   4  13
   61      3   10   3   4  12
   62      3   11   3   4  14
   63      3   11   3   4  13
   64      3   11   3   4  12

          INDEP./SYM. INTERNAL COORDINATES
          --------------------------------
 CRD  1=   0.1495 ( 14) -0.5595 ( 15)  0.1496 ( 16)  0.1353 ( 17) -0.1931 ( 19)
           0.5597 ( 20) -0.1930 ( 21)  0.1929 ( 23) -0.1353 ( 25)  0.1930 ( 27)
          -0.1495 ( 28) -0.1496 ( 29) -0.1073 ( 33)  0.1074 ( 34)
 CRD  2=  -0.3210 (  4) -0.3354 (  6) -0.3210 (  8)  0.1635 ( 14) -0.4316 ( 15)
           0.1633 ( 16) -0.1281 ( 18)  0.1004 ( 19) -0.4314 ( 20)  0.1005 ( 21)
          -0.1278 ( 22)  0.1005 ( 23) -0.1277 ( 24) -0.1280 ( 26)  0.1004 ( 27)
           0.1633 ( 28)  0.1631 ( 29)
 CRD  3=   0.1903 ( 14) -0.1905 ( 16) -0.2951 ( 18)  0.2951 ( 22)  0.2953 ( 24)
          -0.2953 ( 26)  0.1904 ( 28) -0.1906 ( 29)  0.4292 ( 38)  0.2270 ( 39)
           0.2270 ( 40) -0.1041 ( 42) -0.1041 ( 44)  0.2271 ( 47)  0.2271 ( 48)
 CRD  4=   0.1326 ( 14) -0.1339 ( 16)  0.2984 ( 19) -0.2987 ( 21) -0.2987 ( 23)
           0.2985 ( 27)  0.1324 ( 28) -0.1338 ( 29)  0.2863 ( 41)  0.3050 ( 42)
           0.2868 ( 43)  0.3049 ( 44)  0.2867 ( 45)  0.2863 ( 46)
 CRD  5=   0.3027 (  4)  0.2684 (  6)  0.3015 (  8)  0.1075 ( 14) -0.1808 ( 15)
           0.1060 ( 16)  0.4528 ( 17) -0.1808 ( 20)  0.4519 ( 25)  0.1071 ( 28)
           0.1057 ( 29) -0.1587 ( 30) -0.1592 ( 32) -0.1583 ( 35) -0.1588 ( 37)
 CRD  6=   0.4907 (  4) -0.4818 (  8)  0.1045 ( 14)  0.1048 ( 16)  0.2945 ( 17)
          -0.2980 ( 25) -0.1001 ( 28) -0.1003 ( 29) -0.1777 ( 30) -0.1785 ( 32)
           0.1766 ( 35)  0.1774 ( 37)  0.1502 ( 55) -0.1502 ( 58)
 CRD  7=   0.2928 (  4) -0.5690 (  6)  0.3086 (  8)  0.1419 ( 14)  0.1416 ( 16)
           0.1680 ( 18) -0.1126 ( 19) -0.1132 ( 21)  0.1681 ( 22) -0.1102 ( 23)
           0.1700 ( 24)  0.1702 ( 26) -0.1097 ( 27)  0.1451 ( 28)  0.1448 ( 29)
          -0.1749 ( 31) -0.1781 ( 36)  0.1294 ( 56) -0.1293 ( 57)
 CRD  8=  -0.1064 ( 14)  0.1060 ( 16)  0.4305 ( 18) -0.4302 ( 22)  0.4301 ( 24)
          -0.4302 ( 26)  0.1064 ( 28) -0.1059 ( 29)  0.1597 ( 30) -0.1588 ( 32)
          -0.1597 ( 35)  0.1589 ( 37) -0.1087 ( 39) -0.1084 ( 40)  0.1087 ( 47)
           0.1084 ( 48)
 CRD  9=   0.1382 (  3) -0.1628 (  4)  0.1627 (  8) -0.1381 ( 12)  0.1157 ( 15)
           0.4063 ( 17) -0.2803 ( 18) -0.1155 ( 20) -0.2809 ( 22)  0.2806 ( 24)
          -0.4061 ( 25)  0.2802 ( 26)  0.2586 ( 31) -0.2587 ( 36)
 CRD 10=   0.2876 ( 14) -0.2879 ( 16) -0.2759 ( 19)  0.2759 ( 21) -0.2760 ( 23)
           0.2759 ( 27) -0.2874 ( 28)  0.2877 ( 29)  0.1755 ( 39)  0.1756 ( 40)
          -0.1623 ( 41) -0.1393 ( 42) -0.1623 ( 43)  0.1391 ( 44)  0.1620 ( 45)
           0.1621 ( 46) -0.1755 ( 47) -0.1757 ( 48)
 CRD 11=  -0.1029 (  3)  0.1012 (  4)  0.1805 (  5)  0.3880 (  6)  0.2008 (  7)
           0.1013 (  8)  0.1806 (  9)  0.2008 ( 10) -0.1030 ( 12) -0.2523 ( 15)
          -0.2531 ( 17)  0.1994 ( 18)  0.1498 ( 19) -0.2524 ( 20)  0.1528 ( 21)
           0.1663 ( 22)  0.1527 ( 23)  0.1664 ( 24) -0.2533 ( 25)  0.1996 ( 26)
           0.1498 ( 27) -0.1818 ( 31) -0.1491 ( 33) -0.1491 ( 34) -0.1822 ( 36)
 CRD 12=  -0.1714 (  1)  0.1665 (  2) -0.1994 (  5)  0.1787 (  7) -0.1994 (  9)
           0.1786 ( 10)  0.1665 ( 11) -0.1715 ( 13)  0.2965 ( 18) -0.3160 ( 22)
          -0.3161 ( 24)  0.2965 ( 26)  0.1682 ( 30) -0.1715 ( 32)  0.1683 ( 35)
          -0.1717 ( 37)  0.2761 ( 38)  0.1536 ( 39)  0.1534 ( 40)  0.1537 ( 47)
           0.1536 ( 48)
 CRD 13=  -0.4188 (  5)  0.4190 (  7)  0.4187 (  9) -0.4189 ( 10)  0.1421 ( 39)
           0.1421 ( 40)  0.1277 ( 41)  0.1522 ( 42)  0.1278 ( 43) -0.1523 ( 44)
          -0.1279 ( 45) -0.1278 ( 46) -0.1422 ( 47) -0.1422 ( 48)
 CRD 14=   0.2341 (  1)  0.2341 (  2)  0.2198 (  3) -0.1559 (  8) -0.4494 ( 11)
          -0.4254 ( 12) -0.4493 ( 13)  0.1552 ( 24)  0.1695 ( 25)  0.1551 ( 26)
          -0.1703 ( 35) -0.1616 ( 36) -0.1702 ( 37)
 CRD 15=  -0.4496 (  1) -0.4496 (  2) -0.4287 (  3) -0.1566 (  4) -0.2346 ( 11)
          -0.2256 ( 12) -0.2346 ( 13)  0.1686 ( 17)  0.1559 ( 18)  0.1559 ( 22)
          -0.1699 ( 30) -0.1627 ( 31) -0.1698 ( 32)
 CRD 16=  -0.1859 ( 14)  0.1858 ( 16) -0.1457 ( 19)  0.1456 ( 21)  0.1456 ( 23)
          -0.1456 ( 27) -0.1861 ( 28)  0.1860 ( 29)  0.1387 ( 39)  0.1386 ( 40)
           0.1123 ( 42)  0.1124 ( 44)  0.1000 ( 45)  0.1384 ( 47)  0.1383 ( 48)
           0.1569 ( 49)  0.1569 ( 50)  0.1697 ( 51)  0.1697 ( 52)  0.1573 ( 53)
           0.1572 ( 54)  0.2742 ( 55)  0.2741 ( 56)  0.2743 ( 57)  0.2742 ( 58)
           0.1571 ( 59)  0.1695 ( 60)  0.1566 ( 61)  0.1571 ( 62)  0.1696 ( 63)
           0.1567 ( 64)
 CRD 17=   0.1738 (  1)  0.1728 (  2) -0.3886 (  3)  0.1354 (  5)  0.1356 (  7)
          -0.1613 (  9) -0.1615 ( 10) -0.2215 ( 11)  0.4971 ( 12) -0.2259 ( 13)
           0.1993 ( 31)  0.1212 ( 35) -0.2554 ( 36)  0.1237 ( 37)  0.1313 ( 41)
          -0.1321 ( 43)  0.1026 ( 45) -0.1023 ( 46) -0.1148 ( 49)  0.1151 ( 53)
          -0.1170 ( 59)  0.1464 ( 61) -0.1473 ( 62)  0.1161 ( 64)
 CRD 18=  -0.2333 (  1) -0.2318 (  2)  0.5009 (  3) -0.1266 (  5) -0.1268 (  7)
          -0.1823 ( 11)  0.3940 ( 12) -0.1870 ( 13)  0.1258 ( 30) -0.2595 ( 31)
           0.1267 ( 32) -0.2046 ( 36)  0.1013 ( 37)  0.1063 ( 41) -0.1068 ( 43)
          -0.1348 ( 45)  0.1348 ( 46)  0.1480 ( 49)  0.1216 ( 50) -0.1480 ( 53)
          -0.1216 ( 54)  0.1160 ( 61) -0.1165 ( 62)
 CRD 19=   0.3377 (  1) -0.3379 (  2)  0.4341 ( 11) -0.4315 ( 13)  0.1813 ( 30)
          -0.1812 ( 32) -0.2341 ( 35)  0.2326 ( 37)  0.1783 ( 42) -0.1411 ( 44)
          -0.1397 ( 51) -0.1397 ( 52)  0.1733 ( 60)  0.1735 ( 63)
 CRD 20=  -0.4298 (  1)  0.4309 (  2)  0.3356 ( 11) -0.3335 ( 13) -0.2357 ( 30)
           0.2351 ( 32) -0.1845 ( 35)  0.1833 ( 37)  0.1299 ( 42)  0.1695 ( 44)
           0.1545 ( 51)  0.1545 ( 52)  0.1156 ( 60)  0.1158 ( 63)
 CRD 21=   0.1119 (  1)  0.1118 (  2) -0.1286 (  3) -0.4240 (  5) -0.4238 (  7)
           0.4218 (  9)  0.4216 ( 10) -0.1110 ( 11)  0.1272 ( 12) -0.1108 ( 13)
          -0.1484 ( 33)  0.1474 ( 34) -0.1067 ( 50)  0.1068 ( 54)  0.1375 ( 55)
          -0.1375 ( 58) -0.1059 ( 59)  0.1058 ( 64)
 CRD 22=   0.4069 (  5) -0.1197 (  6)  0.4070 (  7)  0.4096 (  9)  0.4097 ( 10)
           0.1821 ( 33)  0.1829 ( 34)  0.1150 ( 50) -0.1150 ( 54) -0.1251 ( 56)
           0.1251 ( 57) -0.1154 ( 59)  0.1155 ( 64)
 CRD 23=  -0.1418 (  5)  0.1418 (  7)  0.1377 (  9) -0.1376 ( 10) -0.1706 ( 41)
          -0.1602 ( 42) -0.1706 ( 43)  0.1614 ( 44)  0.1714 ( 45)  0.1715 ( 46)
           0.2492 ( 49)  0.2493 ( 50)  0.2391 ( 51)  0.2392 ( 52)  0.2492 ( 53)
           0.2492 ( 54) -0.2478 ( 59) -0.2374 ( 60) -0.2478 ( 61) -0.2478 ( 62)
          -0.2375 ( 63) -0.2478 ( 64)
 CRD 24=   0.3544 (  5) -0.3544 (  7)  0.3561 (  9) -0.3561 ( 10)  0.1273 ( 39)
           0.1272 ( 40)  0.1271 ( 47)  0.1271 ( 48) -0.1316 ( 49) -0.1315 ( 50)
          -0.1555 ( 51) -0.1555 ( 52) -0.1315 ( 53) -0.1316 ( 54)  0.1622 ( 55)
           0.1622 ( 56)  0.1623 ( 57)  0.1622 ( 58) -0.1345 ( 59) -0.1582 ( 60)
          -0.1345 ( 61) -0.1344 ( 62) -0.1582 ( 63) -0.1344 ( 64)
 CRD 25=  -0.1254 (  1) -0.1254 (  2) -0.2364 (  3)  0.1251 ( 11)  0.2360 ( 12)
           0.1251 ( 13)  0.1955 ( 14)  0.1955 ( 16) -0.1788 ( 17) -0.1373 ( 18)
           0.1536 ( 19)  0.1536 ( 21) -0.1373 ( 22) -0.1538 ( 23)  0.1369 ( 24)
           0.1783 ( 25)  0.1368 ( 26) -0.1538 ( 27) -0.1953 ( 28) -0.1952 ( 29)
           0.1884 ( 30)  0.1883 ( 32) -0.1880 ( 35) -0.1879 ( 37)  0.1226 ( 39)
          -0.1225 ( 40) -0.1227 ( 47)  0.1226 ( 48)  0.1106 ( 50) -0.1105 ( 54)
           0.2452 ( 55) -0.2452 ( 58)  0.1105 ( 59) -0.1106 ( 64)
 CRD 26=   0.1833 (  1)  0.1833 (  2)  0.2179 (  3) -0.2630 (  4) -0.1578 (  6)
          -0.2629 (  8)  0.1836 ( 11)  0.2185 ( 12)  0.1836 ( 13)  0.2036 ( 17)
           0.1909 ( 18)  0.1909 ( 22)  0.1911 ( 24)  0.2039 ( 25)  0.1910 ( 26)
          -0.2131 ( 30) -0.1863 ( 31) -0.2131 ( 32) -0.2135 ( 35) -0.1864 ( 36)
          -0.2135 ( 37) -0.1434 ( 56)  0.1433 ( 57)
 CRD 27=   0.1827 (  1)  0.1825 (  2) -0.3720 (  4)  0.3718 (  8) -0.1827 ( 11)
          -0.1828 ( 13)  0.1007 ( 14)  0.1007 ( 16)  0.1128 ( 17)  0.1267 ( 18)
           0.1365 ( 19)  0.1365 ( 21)  0.1267 ( 22) -0.1366 ( 23) -0.1266 ( 24)
          -0.1128 ( 25) -0.1266 ( 26) -0.1366 ( 27) -0.1006 ( 28) -0.1005 ( 29)
          -0.2334 ( 31)  0.1026 ( 33) -0.1025 ( 34)  0.2334 ( 36)  0.1809 ( 50)
          -0.1185 ( 51)  0.1185 ( 52) -0.1809 ( 54)  0.1809 ( 59)  0.1184 ( 60)
          -0.1185 ( 63) -0.1809 ( 64)
 CRD 28=   0.1601 (  1) -0.1601 (  2) -0.2496 (  5)  0.2496 (  7) -0.2498 (  9)
           0.2498 ( 10) -0.1604 ( 11)  0.1606 ( 13) -0.1210 ( 30)  0.1209 ( 32)
          -0.1211 ( 35)  0.1211 ( 37) -0.1819 ( 49) -0.1819 ( 50) -0.1819 ( 53)
          -0.1819 ( 54)  0.2319 ( 55)  0.2320 ( 56)  0.2319 ( 57)  0.2319 ( 58)
          -0.1822 ( 59) -0.1820 ( 61) -0.1821 ( 62) -0.1820 ( 64)
 CRD 29=  -0.1520 (  1) -0.1518 (  2)  0.2253 (  3)  0.1553 (  4) -0.3981 (  6)
           0.1552 (  8) -0.1521 ( 11)  0.2257 ( 12) -0.1521 ( 13)  0.1260 ( 19)
           0.1260 ( 21)  0.1259 ( 23)  0.1260 ( 27)  0.2230 ( 31) -0.1170 ( 33)
          -0.1171 ( 34)  0.2231 ( 36) -0.1357 ( 41)  0.1357 ( 43)  0.1355 ( 45)
          -0.1355 ( 46) -0.2375 ( 50)  0.1018 ( 51) -0.1020 ( 52)  0.2374 ( 54)
           0.2376 ( 59)  0.1019 ( 60) -0.1021 ( 63) -0.2378 ( 64)
 CRD 30=  -0.2595 (  1)  0.2592 (  2)  0.1406 (  5) -0.1393 (  7) -0.1402 (  9)
           0.1389 ( 10) -0.2591 ( 11)  0.2594 ( 13)  0.1119 ( 19) -0.1121 ( 21)
           0.1121 ( 23) -0.1119 ( 27)  0.1980 ( 30) -0.1990 ( 32) -0.1978 ( 35)
           0.1988 ( 37)  0.2816 ( 42) -0.2817 ( 44)  0.1414 ( 49)  0.1407 ( 50)
          -0.1522 ( 51) -0.1529 ( 52)  0.1413 ( 53)  0.1420 ( 54) -0.1419 ( 59)
           0.1523 ( 60) -0.1411 ( 61) -0.1412 ( 62)  0.1530 ( 63) -0.1404 ( 64)
 CRD 31=  -0.2217 (  3)  0.2765 (  4) -0.1418 (  5) -0.1428 (  7) -0.2764 (  8)
           0.1416 (  9)  0.1426 ( 10)  0.2215 ( 12) -0.1117 ( 14) -0.1115 ( 16)
           0.1117 ( 28)  0.1115 ( 29)  0.1184 ( 30)  0.1168 ( 32)  0.2322 ( 33)
          -0.2320 ( 34) -0.1183 ( 35) -0.1166 ( 37) -0.1358 ( 39)  0.1362 ( 40)
          -0.1001 ( 41)  0.1000 ( 43) -0.1001 ( 45)  0.1002 ( 46)  0.1360 ( 47)
          -0.1363 ( 48)  0.1769 ( 50) -0.1758 ( 54) -0.2721 ( 55)  0.2722 ( 58)
           0.1756 ( 59) -0.1767 ( 64)
 CRD 32=  -0.1843 (  3)  0.2749 (  4) -0.2844 (  6)  0.2753 (  8) -0.1837 ( 12)
          -0.1642 ( 14) -0.1645 ( 16)  0.1533 ( 19)  0.1532 ( 21)  0.1534 ( 23)
           0.1534 ( 27) -0.1642 ( 28) -0.1645 ( 29)  0.1330 ( 39) -0.1328 ( 40)
           0.1075 ( 41) -0.1077 ( 43) -0.1082 ( 45)  0.1079 ( 46)  0.1327 ( 47)
          -0.1325 ( 48)  0.1606 ( 49) -0.1607 ( 53) -0.2656 ( 56)  0.2654 ( 57)
           0.1599 ( 61) -0.1600 ( 62)
 CRD 33=  -0.1094 (  1) -0.1090 (  2)  0.2052 (  3) -0.1101 (  5) -0.1098 (  7)
           0.1095 (  9)  0.1094 ( 10)  0.1090 ( 11) -0.2053 ( 12)  0.1091 ( 13)
          -0.1217 ( 15) -0.1618 ( 17)  0.1210 ( 20)  0.1617 ( 25)  0.1653 ( 31)
           0.1749 ( 33) -0.1743 ( 34) -0.1650 ( 36)  0.1526 ( 41) -0.1526 ( 43)
           0.1527 ( 45) -0.1524 ( 46) -0.2863 ( 49) -0.1340 ( 51)  0.1335 ( 52)
           0.2863 ( 53) -0.1278 ( 55)  0.1278 ( 58)  0.1338 ( 60)  0.2864 ( 61)
          -0.2863 ( 62) -0.1336 ( 63)
 CRD 34=  -0.2053 (  1)  0.2057 (  2) -0.1253 (  5)  0.1255 (  7) -0.1254 (  9)
           0.1254 ( 10)  0.2055 ( 11) -0.2053 ( 13) -0.1289 ( 14)  0.1285 ( 16)
          -0.1401 ( 18)  0.1397 ( 22)  0.1398 ( 24) -0.1400 ( 26) -0.1289 ( 28)
           0.1285 ( 29)  0.1543 ( 30) -0.1539 ( 32)  0.1540 ( 35) -0.1538 ( 37)
          -0.2608 ( 38)  0.1386 ( 41) -0.1442 ( 42)  0.1382 ( 43) -0.1442 ( 44)
           0.1382 ( 45)  0.1388 ( 46) -0.2609 ( 51) -0.2612 ( 52) -0.2608 ( 60)
          -0.2610 ( 63)
 CRD 35=  -0.1362 (  4)  0.1433 (  5) -0.2474 (  6)  0.1431 (  7) -0.1364 (  8)
           0.1436 (  9)  0.1434 ( 10)  0.2140 ( 15)  0.1253 ( 17)  0.2143 ( 20)
           0.1257 ( 25) -0.2216 ( 33) -0.2222 ( 34) -0.1389 ( 39)  0.1390 ( 40)
          -0.1387 ( 47)  0.1388 ( 48)  0.2205 ( 49)  0.1325 ( 51) -0.1321 ( 52)
          -0.2205 ( 53)  0.2776 ( 56) -0.2778 ( 57)  0.1329 ( 60)  0.2213 ( 61)
          -0.2212 ( 62) -0.1326 ( 63)
 CRD 36=   0.1745 (  5) -0.1746 (  7) -0.1746 (  9)  0.1747 ( 10)  0.1196 ( 14)
          -0.1197 ( 16)  0.1053 ( 18)  0.1502 ( 19) -0.1502 ( 21) -0.1052 ( 22)
           0.1502 ( 23)  0.1053 ( 24) -0.1054 ( 26) -0.1501 ( 27) -0.1197 ( 28)
           0.1198 ( 29)  0.2528 ( 39)  0.2530 ( 40)  0.2363 ( 41)  0.2362 ( 43)
          -0.2362 ( 45) -0.2363 ( 46) -0.2528 ( 47) -0.2530 ( 48)  0.1831 ( 51)
           0.1832 ( 52) -0.1832 ( 60) -0.1833 ( 63)

 THE DETERMINANT OF THE G MATRIX IS 10**(    -9)


                     --------------------
                     INTERNAL COORDINATES
                     --------------------

                 - - ATOMS - -         COORDINATE      COORDINATE
 NO.   TYPE    I  J  K  L  M  N        (BOHR,RAD)       (ANG,DEG)
 ----------------------------------------------------------------
   1 STRETCH   1  5                     2.0680830       1.0943825
   2 STRETCH   1  7                     2.0683522       1.0945249
   3 STRETCH   1  6                     2.0681757       1.0944315
   4 STRETCH   1  2                     2.8732501       1.5204586
   5 STRETCH   2  8                     2.0720046       1.0964577
   6 STRETCH   2  3                     2.8866768       1.5275637
   7 STRETCH   2  9                     2.0719154       1.0964105
   8 STRETCH   3  4                     2.8723670       1.5199912
   9 STRETCH   3 11                     2.0712923       1.0960807
  10 STRETCH   3 10                     2.0711854       1.0960242
  11 STRETCH   4 14                     2.0690066       1.0948712
  12 STRETCH   4 13                     2.0685691       1.0946397
  13 STRETCH   4 12                     2.0686641       1.0946900
  14 BEND      1  2  9                  1.9051323     109.1560408
  15 BEND      1  2  3                  1.9461576     111.5066186
  16 BEND      1  2  8                  1.9051161     109.1551116
  17 BEND      2  1  6                  1.9243121     110.2549635
  18 BEND      2  1  7                  1.9370232     110.9832565
  19 BEND      2  3 11                  1.9174878     109.8639593
  20 BEND      2  3  4                  1.9458743     111.4903862
  21 BEND      2  3 10                  1.9171913     109.8469672
  22 BEND      2  1  5                  1.9371479     110.9904016
  23 BEND      3  2  9                  1.9174827     109.8636652
  24 BEND      3  4 12                  1.9376729     111.0204798
  25 BEND      3  4 13                  1.9243178     110.2552884
  26 BEND      3  4 14                  1.9375623     111.0141401
  27 BEND      3  2  8                  1.9175771     109.8690738
  28 BEND      4  3 10                  1.9053869     109.1706298
  29 BEND      4  3 11                  1.9052065     109.1602940
  30 BEND      5  1  6                  1.8866203     108.0953812
  31 BEND      5  1  7                  1.8906704     108.3274338
  32 BEND      6  1  7                  1.8864356     108.0847998
  33 BEND      8  2  9                  1.8707548     107.1863556
  34 BEND     10  3 11                  1.8711030     107.2063055
  35 BEND     12  4 13                  1.8861571     108.0688396
  36 BEND     12  4 14                  1.8902548     108.3036245
  37 BEND     13  4 14                  1.8861929     108.0708913
  38 TORSION   1  2  3  4              -3.1404757    -179.9360026
  39 TORSION   1  2  3 10               1.0282026      58.9116689
  40 TORSION   1  2  3 11              -1.0259950     -58.7851831
  41 TORSION   2  3  4 12              -1.0515287     -60.2481540
  42 TORSION   2  3  4 13              -3.1412883    -179.9825605
  43 TORSION   2  3  4 14               1.0521639      60.2845534
  44 TORSION   3  2  1  6              -3.1411519    -179.9747491
  45 TORSION   3  2  1  7               1.0523478      60.2950870
  46 TORSION   3  2  1  5              -1.0511552     -60.2267579
  47 TORSION   4  3  2  9               1.0281390      58.9080245
  48 TORSION   4  3  2  8              -1.0258614     -58.7775300
  49 TORSION   5  1  2  9               1.0705951      61.3405823
  50 TORSION   5  1  2  8               3.1101721     178.1997367
  51 TORSION   6  1  2  9              -1.0194016     -58.4074089
  52 TORSION   6  1  2  8               1.0201754      58.4517456
  53 TORSION   7  1  2  8              -1.0695102     -61.2784183
  54 TORSION   7  1  2  9              -3.1090872    -178.1375728
  55 TORSION   8  2  3 10              -3.1403685    -179.9298585
  56 TORSION   8  2  3 11               1.0886193      62.3732895
  57 TORSION   9  2  3 10              -1.0863680     -62.2443039
  58 TORSION   9  2  3 11              -3.1405656    -179.9411559
  59 TORSION  10  3  4 14              -3.1096491    -178.1697668
  60 TORSION  10  3  4 13              -1.0199160     -58.4368808
  61 TORSION  10  3  4 12               1.0698436      61.2975257
  62 TORSION  11  3  4 14              -1.0694589     -61.2754836
  63 TORSION  11  3  4 13               1.0202741      58.4574025
  64 TORSION  11  3  4 12               3.1100338     178.1918090

     ------------------------------------------
     THE POINT GROUP IS C1 , NAXIS= 1, ORDER= 1
     ------------------------------------------

     DIMENSIONS OF THE SYMMETRY SUBSPACES ARE
 A   =  136

 ..... DONE SETTING UP THE RUN .....
 STEP CPU TIME =     0.01 TOTAL CPU TIME =        0.0 (    0.0 MIN)
 TOTAL WALL CLOCK TIME=        0.0 SECONDS, CPU UTILIZATION IS 100.00%


          -----------------------------
          STATIONARY POINT LOCATION RUN
          -----------------------------

 OBTAINING INITIAL HESSIAN, HESS=GUESS   
 DIAGONAL GUESS HESSIAN IN INTERNAL COORDS IS
     1  0.3434     2  0.3433     3  0.3434     4  0.3740     5  0.3420
     6  0.3689     7  0.3421     8  0.3744     9  0.3423    10  0.3423
    11  0.3431    12  0.3433    13  0.3432    14  0.2243    15  0.2493
    16  0.2243    17  0.2244    18  0.2244    19  0.2239    20  0.2494
    21  0.2239    22  0.2244    23  0.2238    24  0.2244    25  0.2244
    26  0.2244    27  0.2238    28  0.2243    29  0.2243    30  0.2030
    31  0.2030    32  0.2030    33  0.2028    34  0.2028    35  0.2029
    36  0.2029    37  0.2029    38  0.2500    39  0.2500    40  0.2500
    41  0.2500    42  0.2500    43  0.2500    44  0.2500    45  0.2500
    46  0.2500    47  0.2500    48  0.2500    49  0.2500    50  0.2500
    51  0.2500    52  0.2500    53  0.2500    54  0.2500    55  0.2500
    56  0.2500    57  0.2500    58  0.2500    59  0.2500    60  0.2500
    61  0.2500    62  0.2500    63  0.2500    64  0.2500
 TRANSFORMING HESSIAN TO SYMMETRY COORDINATES

          PARAMETERS CONTROLLING GEOMETRY SEARCH ARE
          METHOD =QA                  UPHESS =BFGS    
          NNEG   =         0          NFRZ   =         3
          NSTEP  =        50          IFOLOW =         1
          HESS   =GUESS               RESTAR =         F
          IHREP  =         0          HSSEND =         F
          NPRT   =         0          NPUN   =         0
          OPTTOL = 5.000E-04          RMIN   = 1.500E-03
          RMAX   = 1.000E-01          RLIM   = 7.000E-02
          DXMAX  = 3.000E-01          PURIFY =         F
          MOVIE  =         F          TRUPD  =         T
          TRMAX  = 5.000E-01          TRMIN  = 5.000E-02
          ITBMAT =         5          STPT   =         F
          STSTEP = 1.000E-02          PROJCT=          F
          FROZEN COORD(S)=   1   2   3


      ***** EQUILIBRIUM GEOMETRY LOCATED *****
            (SUBJECT TO   3 CONSTRAINT(S))
 COORDINATES OF ALL ATOMS ARE (ANGS)
   ATOM   CHARGE       X              Y              Z
 ------------------------------------------------------------
 C           6.0   3.5985028048   1.1291827964   0.9188183306
 C           6.0   2.5650328700   0.8278885232   1.9976613245
 C           6.0   1.7176361036   2.0503394038   2.3395840214
 C           6.0   0.6852982229   1.7494098241   3.4196100411
 H           1.0   3.1100329865   1.4632599843   0.0067142818
 H           1.0   4.1966445776   0.2549039599   0.6810684600
 H           1.0   4.2696548405   1.9198516926   1.2452124342
 H           1.0   3.0630404401   0.4746977598   2.8995914746
 H           1.0   1.9116728856   0.0204662473   1.6699125073
 H           1.0   1.2187360801   2.4029137541   1.4379084230
 H           1.0   2.3710814863   2.8580998671   2.6663251123
 H           1.0   0.0144232135   0.9578830771   3.0947111836
 H           1.0   0.0867049659   2.6234881393   3.6569634342
 H           1.0   1.1748657135   1.4166815455   4.3316149459


                     --------------------
                     INTERNAL COORDINATES
                     --------------------

                 - - ATOMS - -         COORDINATE      COORDINATE
 NO.   TYPE    I  J  K  L  M  N        (BOHR,RAD)       (ANG,DEG)
 ----------------------------------------------------------------
   1 STRETCH   1  5                     2.0546320       1.0872645
   2 STRETCH   1  7                     2.0546245       1.0872605
   3 STRETCH   1  6                     2.0516038       1.0856620
   4 STRETCH   1  2                     2.8800444       1.5240540
   5 STRETCH   2  8                     2.0581825       1.0891434
   6 STRETCH   2  3                     2.8841568       1.5262302
   7 STRETCH   2  9                     2.0581791       1.0891415
   8 STRETCH   3  4                     2.8800418       1.5240526
   9 STRETCH   3 11                     2.0581776       1.0891408
  10 STRETCH   3 10                     2.0581786       1.0891413
  11 STRETCH   4 14                     2.0546261       1.0872614
  12 STRETCH   4 13                     2.0516050       1.0856627
  13 STRETCH   4 12                     2.0546346       1.0872659
  14 BEND      1  2  9                  1.9180595     109.8967147
  15 BEND      1  2  3                  1.9570725     112.1319961
  16 BEND      1  2  8                  1.9179753     109.8918872
  17 BEND      2  1  6                  1.9491785     111.6797022
  18 BEND      2  1  7                  1.9282039     110.4779456
  19 BEND      2  3 11                  1.9051173     109.1551825
  20 BEND      2  3  4                  1.9570223     112.1291196
  21 BEND      2  3 10                  1.9051347     109.1561778
  22 BEND      2  1  5                  1.9282942     110.4831183
  23 BEND      3  2  9                  1.9051193     109.1552963
  24 BEND      3  4 12                  1.9283008     110.4834996
  25 BEND      3  4 13                  1.9491924     111.6804999
  26 BEND      3  4 14                  1.9282080     110.4781793
  27 BEND      3  2  8                  1.9050769     109.1528651
  28 BEND      4  3 10                  1.9180533     109.8963588
  29 BEND      4  3 11                  1.9179681     109.8914797
  30 BEND      5  1  6                  1.8873027     108.1344822
  31 BEND      5  1  7                  1.8814861     107.8012150
  32 BEND      6  1  7                  1.8873244     108.1357242
  33 BEND      8  2  9                  1.8578111     106.4447355
  34 BEND     10  3 11                  1.8578225     106.4453887
  35 BEND     12  4 13                  1.8872957     108.1340775
  36 BEND     12  4 14                  1.8814732     107.8004722
  37 BEND     13  4 14                  1.8873184     108.1353786
  38 TORSION   1  2  3  4              -3.1404056    -179.9319896
  39 TORSION   1  2  3 10               1.0131713      58.0504389
  40 TORSION   1  2  3 11              -1.0109173     -57.9212953
  41 TORSION   2  3  4 12              -1.0400098     -59.5881723
  42 TORSION   2  3  4 13              -3.1414060    -179.9893057
  43 TORSION   2  3  4 14               1.0404175      59.6115322
  44 TORSION   3  2  1  6              -3.1411653    -179.9755123
  45 TORSION   3  2  1  7               1.0406627      59.6255786
  46 TORSION   3  2  1  5              -1.0397739     -59.5746575
  47 TORSION   4  3  2  9               1.0131408      58.0486922
  48 TORSION   4  3  2  8              -1.0109031     -57.9204838
  49 TORSION   5  1  2  9               1.0824657      62.0207173
  50 TORSION   5  1  2  8               3.1212847     178.8364425
  51 TORSION   6  1  2  9              -1.0189256     -58.3801375
  52 TORSION   6  1  2  8               1.0198934      58.4355877
  53 TORSION   7  1  2  8              -1.0814640     -61.9633215
  54 TORSION   7  1  2  9              -3.1202830    -178.7790466
  55 TORSION   8  2  3 10              -3.1405115    -179.9380553
  56 TORSION   8  2  3 11               1.1185852      64.0902105
  57 TORSION   9  2  3 10              -1.1164676     -63.9688792
  58 TORSION   9  2  3 11              -3.1405562    -179.9406134
  59 TORSION  10  3  4 14              -3.1205468    -178.7941616
  60 TORSION  10  3  4 13              -1.0191850     -58.3949994
  61 TORSION  10  3  4 12               1.0822112      62.0061340
  62 TORSION  11  3  4 14              -1.0817218     -61.9780917
  63 TORSION  11  3  4 13               1.0196400      58.4210705
  64 TORSION  11  3  4 12               3.1210362     178.8222039

          INTERNUCLEAR DISTANCES (ANGS.)


 =====================================================
   GAMESS/COSab RESULTS
 =====================================================

   Dielectric Constant                  = INFTY
   Basic Grid Size                      =                 1082
   Number of Segments                   =                   92
   Number of Segments located on spheres=                  199
   Number of Segments of the cavity     =                  519
   Solvent Radius (rsolv)               = 1.40
   Outlying Charge Error Method         = double cavity

 =====================================================

  Total solvated Energy (a.u.)          =  -157.3407516554
  Total Energy corrected (a.u.)         =  -157.3406719750

  Outlying charge effect (a.u.)         =     0.0000796804
  Outlying charge effect (kcal/mol)     =     0.0500002268

  Dielectric Energy (a.u.)              =    -0.0009339952
  Dielectric energy corr. (a.u.)        =    -0.0008543149

  Sum of polarization charges           =     0.0257885739
  Sum of polarization charges(cor.)     =    -0.0257885739

  Total surface area of cavity (A**2)   =  115.96
  Total volume of cavity (A**3)         =  101.29

 =====================================================
 NPS=                   519
NR.  ATOM  (X, Y, Z)(a.u.)                  CHARGE(e)  AREA(A**2) SIGMA(e/A**2)
   1   1   7.291777   5.681543   0.529489   0.001143   0.232280   0.004922
   2   1   9.113627   2.489141  -1.231190   0.000975   0.371649   0.002622
   3   1   6.545528  -0.236789  -1.196189   0.001820   0.371649   0.004898
   4   1   9.572873   1.822927   4.285780   0.001455   0.418105   0.003481
   5   1  10.198250   2.078772   3.389913   0.000765   0.185824   0.004117
   6   1   9.366067   0.584463   4.038471   0.000827   0.278737   0.002965
   7   1   9.812485   0.711597   3.521680   0.000690   0.185824   0.003712
   8   1   3.863604   1.045094  -0.379196   0.000098   0.092912   0.001054
   9   1   6.132431   0.507449  -1.609319   0.001263   0.278737   0.004530
  10   1   8.140406   2.779541  -1.738050   0.001350   0.418105   0.003230
  11   1   6.860570   5.428789  -0.114079   0.001141   0.232280   0.004913
  12   1  10.574116   2.155540   1.939464   0.001940   0.371649   0.005220
  13   1  10.511064   1.434854   1.894707   0.001100   0.232280   0.004734
  14   1   6.543778   5.804367   0.872743   0.000940   0.185824   0.005057
  15   1   8.040894   5.063455  -0.303857   0.002604   0.511017   0.005095
  16   1   8.810663   3.784402  -1.005573   0.001314   0.418105   0.003142
  17   1   8.577742   1.383452  -1.513538   0.001693   0.418105   0.004050
  18   1   7.432607   0.489172  -1.607251   0.001774   0.325193   0.005456
  19   1   5.186913  -0.176973  -0.781974   0.001614   0.464561   0.003474
  20   1   4.213120   0.345294  -0.359506   0.000249   0.092912   0.002677
  21   1  10.316380   3.002252   0.656248   0.001428   0.371649   0.003843
  22   1   9.795841   2.999358  -0.399395   0.001306   0.464561   0.002810
  23   1   9.666438   1.716574  -0.691609   0.000998   0.325193   0.003068
  24   1   6.070682  -0.879420  -0.425253   0.000988   0.278737   0.003546
  25   1   5.966121  -1.406106   0.708020   0.000267   0.139368   0.001913
  26   1   9.056657   2.518346   4.743759   0.000383   0.185824   0.002061
  27   1  10.228154   1.305106   3.095175   0.001762   0.371649   0.004740
  28   1   8.853763  -0.331850   3.733170   0.000428   0.185824   0.002303
  29   1   4.552000   0.500400  -0.825289   0.000371   0.139368   0.002664
  30   1   7.649039   1.424690  -1.877670   0.001437   0.325193   0.004419
  31   1   8.017221   4.325568  -1.092020   0.001061   0.278737   0.003808
  32   1   5.954865   5.533691   0.318317   0.000520   0.139368   0.003731
  33   1  10.343087   1.923470   0.437119   0.001701   0.418105   0.004068
  34   1   9.354981   4.216242  -0.113263   0.001181   0.371649   0.003179
  35   1   5.437354  -0.982719   0.088885   0.000674   0.232280   0.002901
  36   2   5.007469  -2.139189   4.510868   0.001790   0.371649   0.004817
  37   2   2.486308   1.270566   0.838361   0.000180   0.092912   0.001939
  38   2   2.063991   1.084962   1.263452   0.000062   0.046456   0.001330
  39   2   5.352247  -1.854150   5.305457   0.001351   0.278737   0.004848
  40   2   7.597169   2.903664   5.995062   0.000279   0.139368   0.002000
  41   2   3.379092  -1.279135   5.785695   0.001049   0.232280   0.004516
  42   2   4.140865  -1.759805   5.428663   0.001834   0.325193   0.005640
  43   2   6.151165  -1.946370   4.282908   0.001311   0.371649   0.003527
  44   2   6.824812  -1.650788   3.963300   0.000325   0.139368   0.002329
  45   2   5.500501  -2.116676   3.221305   0.001077   0.325193   0.003311
  46   2   2.666887   0.927468   0.754321   0.000100   0.046456   0.002145
  47   2   7.096416  -1.348052   4.636732   0.000438   0.185824   0.002357
  48   2   4.129007  -1.218527   6.229279   0.000592   0.139368   0.004250
  49   2   7.183033   3.116302   6.308803   0.000103   0.046456   0.002209
  50   3   1.871801   7.386443   4.672159   0.000534   0.232280   0.002297
  51   3   4.641349   6.812716   2.496558   0.001365   0.325193   0.004198
  52   3   5.597704   4.176502   7.364288   0.000178   0.092912   0.001919
  53   3   5.307451   4.721793   7.473438   0.000071   0.046456   0.001536
  54   3   3.894134   6.788445   2.103133   0.001154   0.232280   0.004967
  55   3   1.423293   7.095982   3.656300   0.001347   0.418105   0.003222
  56   3   0.944473   2.306031   1.866264   0.000275   0.139368   0.001974
  57   3   2.665451   7.574221   3.911299   0.001649   0.371649   0.004438
  58   3   3.728487   7.337901   2.987068   0.001616   0.278737   0.005798
  59   3   2.695275   7.556876   5.070601   0.000855   0.278737   0.003068
  60   3   5.875619   4.287941   7.104035   0.000096   0.046456   0.002060
  61   3   2.828543   7.384608   3.083362   0.001374   0.278737   0.004928
  62   3   0.525927   2.513924   2.177321   0.000106   0.046456   0.002284
  63   4   1.329884  -0.034181   8.230428   0.001143   0.232280   0.004921
  64   4  -1.639588   2.705354   8.766847   0.000975   0.371649   0.002622
  65   4  -2.215593   4.190892   5.377387   0.001820   0.371649   0.004898
  66   4   3.204126   5.464018   8.907971   0.001456   0.418105   0.003481
  67   4   2.378663   5.129178   9.590338   0.000765   0.185824   0.004118
  68   4   2.574553   6.372502   8.262978   0.000827   0.278737   0.002966
  69   4   2.080359   6.226487   8.728786   0.000690   0.185824   0.003712
  70   4  -0.670905   2.460407   3.346925   0.000098   0.092912   0.001055
  71   4  -2.290905   3.253943   5.269356   0.001263   0.278737   0.004530
  72   4  -1.886412   1.933595   7.971948   0.001350   0.418105   0.003230
  73   4   0.699574  -0.200252   7.741416   0.001141   0.232280   0.004912
  74   4   1.007719   4.659744   9.979072   0.001940   0.371649   0.005220
  75   4   0.726248   5.244508   9.656285   0.001100   0.232280   0.004735
  76   4   1.787301  -0.271622   7.577126   0.000940   0.185824   0.005057
  77   4   0.246078   0.451812   8.706715   0.002604   0.511017   0.005095
  78   4  -0.945313   1.564485   8.958660   0.001314   0.418105   0.003142
  79   4  -2.213897   3.373036   7.864734   0.001693   0.418105   0.004050
  80   4  -2.461923   3.717689   6.472056   0.001774   0.325193   0.005456
  81   4  -1.635579   3.823934   4.132432   0.001614   0.464561   0.003474
  82   4  -0.938126   3.192675   3.415086   0.000249   0.092912   0.002677
  83   4   0.138411   3.368313  10.059722   0.001428   0.371649   0.003843
  84   4  -0.777797   2.804321   9.582411   0.001306   0.464561   0.002810
  85   4  -1.474308   3.761252   8.993491   0.000998   0.325193   0.003068
  86   4  -1.658691   4.865946   4.694044   0.000988   0.278737   0.003545
  87   4  -0.772326   5.701138   4.394959   0.000267   0.139368   0.001913
  88   4   3.935523   4.853521   8.679537   0.000383   0.185824   0.002061
  89   4   1.834525   5.699952   9.336459   0.001762   0.371649   0.004741
  90   4   2.041018   6.876198   7.452468   0.000429   0.185824   0.002306
  91   4  -1.361466   3.004218   3.790743   0.000371   0.139368   0.002664
  92   4  -2.419378   2.884323   7.018732   0.001437   0.325193   0.004419
  93   4  -0.737857   0.792134   8.419847   0.001061   0.278737   0.003808
  94   4   1.253958  -0.443728   6.934167   0.000520   0.139368   0.003731
  95   4  -0.439949   4.229446   9.690329   0.001701   0.418105   0.004068
  96   4  -0.036520   1.705975   9.616734   0.001181   0.371649   0.003179
  97   4  -1.134807   4.926101   4.063139   0.000674   0.232280   0.002900
  98   5   5.120142   3.433061  -2.226957  -0.002238   0.451437  -0.004958
  99   5   5.420507   4.988557  -0.927078  -0.000806   0.353299  -0.002282
 100   5   3.900904   2.049750  -1.259272  -0.001090   0.353299  -0.003084
 101   5   5.628631   1.786821  -2.226995  -0.000658   0.372926  -0.001765
 102   5   6.720600   3.515585  -2.169167  -0.000816   0.412182  -0.001980
 103   5   4.748487   4.319535  -1.518735  -0.001925   0.392554  -0.004903
 104   5   4.055656   3.238507  -1.566348  -0.002169   0.412182  -0.005262
 105   5   4.618917   1.983958  -1.947350  -0.001370   0.431809  -0.003173
 106   5   6.056932   2.674209  -2.435674  -0.001340   0.431809  -0.003102
 107   5   6.158758   4.478791  -1.724916  -0.001332   0.510320  -0.002610
 108   6   9.348474  -1.446479   0.733291  -0.003405   0.608459  -0.005596
 109   6   8.420139  -1.795025   2.069256  -0.001214   0.353299  -0.003437
 110   6   9.935989  -0.486874   2.323868  -0.000618   0.333671  -0.001851
 111   6  10.216209   0.160256   0.445960  -0.000715   0.353299  -0.002023
 112   6   8.596989  -0.587231  -0.822076  -0.000694   0.372926  -0.001862
 113   6   7.301435  -1.694059   0.335489  -0.000658   0.353299  -0.001863
 114   6   9.237811  -1.296109   2.366594  -0.001631   0.490692  -0.003325
 115   6  10.223917  -0.397272   1.340176  -0.001617   0.490692  -0.003295
 116   6   9.597256  -0.377152  -0.300256  -0.001743   0.510320  -0.003416
 117   6   8.197010  -1.393027  -0.278056  -0.001726   0.490692  -0.003518
 118   6   7.970234  -1.970343   1.142110  -0.001803   0.490692  -0.003675
 119   7   9.922966   5.191983   2.740268  -0.002320   0.471065  -0.004925
 120   7  10.417185   3.696454   3.070045  -0.000786   0.392554  -0.002003
 121   7   9.163521   4.232677   4.467423  -0.001202   0.372926  -0.003223
 122   7   8.280316   6.031311   1.890244  -0.000944   0.392554  -0.002406
 123   7  10.045766   4.690554   1.354916  -0.000762   0.372926  -0.002043
 124   7   9.955878   4.030093   3.873351  -0.001195   0.412182  -0.002899
 125   7   9.215083   5.225516   3.825620  -0.002255   0.431809  -0.005222
 126   7   8.850919   5.911608   2.809126  -0.002117   0.431809  -0.004902
 127   7   9.268438   5.535852   1.375743  -0.001248   0.490692  -0.002544
 128   7  10.451880   4.190588   2.158212  -0.000925   0.372926  -0.002481
 129   8   7.358154   0.429600   7.310329  -0.001420   0.353299  -0.004020
 130   8   7.725475   1.646944   6.790966  -0.000721   0.392554  -0.001837
 131   8   7.701765  -0.496792   6.135916  -0.001099   0.412182  -0.002667
 132   8   5.889840  -1.254273   6.661227  -0.000449   0.353299  -0.001272
 133   8   6.886623   1.668821   7.536904  -0.001695   0.490692  -0.003454
 134   8   8.024173   0.529528   6.428594  -0.000763   0.353299  -0.002161
 135   8   6.819750  -0.603427   7.128619  -0.001517   0.392554  -0.003864
 136   8   5.462580  -0.660794   7.350844  -0.001126   0.392554  -0.002868
 137   8   6.339606   0.340824   7.807913  -0.001942   0.412182  -0.004711
 138   8   6.900165  -1.215706   6.058344  -0.000453   0.333671  -0.001359
 139   9   2.329774  -1.850517   2.249846  -0.001861   0.431809  -0.004310
 140   9   3.076431  -1.209607   1.108861  -0.000684   0.294415  -0.002324
 141   9   1.695055  -0.046182   1.622329  -0.000775   0.333671  -0.002323
 142   9   2.873636  -2.051745   4.213611  -0.000537   0.372926  -0.001440
 143   9   4.106696  -2.286409   2.535321  -0.000501   0.353299  -0.001419
 144   9   2.298754  -0.743208   1.232733  -0.001097   0.412182  -0.002661
 145   9   1.546058  -1.013668   2.344926  -0.001827   0.412182  -0.004433
 146   9   2.024542  -1.812347   3.450723  -0.001721   0.412182  -0.004175
 147   9   3.293346  -2.395309   3.249933  -0.001097   0.451437  -0.002430
 148   9   3.480956  -1.977688   1.758528  -0.001137   0.451437  -0.002519
 149  10   0.974969   5.399416   0.837334  -0.001861   0.431809  -0.004310
 150  10   0.038510   4.683480   1.775730  -0.000684   0.294415  -0.002324
 151  10   1.093727   3.391364   0.914125  -0.000776   0.333671  -0.002324
 152  10   2.662441   6.481565   1.254516  -0.000529   0.372926  -0.001418
 153  10   0.862490   6.492311   2.327930  -0.000503   0.353299  -0.001424
 154  10   0.414018   4.058351   1.222682  -0.001097   0.412182  -0.002661
 155  10   1.451967   4.441510   0.414891  -0.001827   0.412182  -0.004433
 156  10   2.144209   5.702394   0.558386  -0.001719   0.412182  -0.004172
 157  10   1.594030   6.568988   1.526035  -0.001097   0.451437  -0.002429
 158  10   0.326525   5.724976   1.865105  -0.001138   0.451437  -0.002521
 159  11   5.821310   7.017437   6.313394  -0.001420   0.353299  -0.004020
 160  11   5.710077   5.901125   7.105898  -0.000720   0.392554  -0.001835
 161  11   4.366072   7.504945   6.301741  -0.001098   0.412182  -0.002665
 162  11   4.826452   7.729006   4.334345  -0.000448   0.353299  -0.001269
 163  11   6.519034   5.867519   6.328059  -0.001695   0.490692  -0.003455
 164  11   4.950143   6.836450   6.976217  -0.000763   0.353299  -0.002160
 165  11   5.365857   7.658160   5.434714  -0.001517   0.392554  -0.003865
 166  11   5.726937   7.322379   4.149623  -0.001127   0.392554  -0.002872
 167  11   6.384246   6.926426   5.329660  -0.001942   0.412182  -0.004712
 168  11   4.149352   7.821909   5.292789  -0.000452   0.333671  -0.001355
 169  12  -1.729234   0.150517   5.406010  -0.002238   0.451437  -0.004958
 170  12  -0.023516  -0.613467   6.246443  -0.000807   0.353299  -0.002284
 171  12  -1.148704   1.281912   3.756940  -0.001090   0.353299  -0.003084
 172  12  -2.360764   1.748216   5.274876  -0.000658   0.372926  -0.001765
 173  12  -1.852234   0.650875   6.924605  -0.000816   0.412182  -0.001980
 174  12  -0.717871  -0.483537   5.380274  -0.001925   0.392554  -0.004903
 175  12  -1.045234   0.195007   4.339451  -0.002169   0.412182  -0.005262
 176  12  -1.903405   1.333185   4.405877  -0.001370   0.431809  -0.003173
 177  12  -2.304504   1.051980   6.000505  -0.001340   0.431809  -0.003102
 178  12  -1.035637  -0.211798   6.752105  -0.001332   0.510320  -0.002610
 179  13  -1.196293   6.908618   7.526201  -0.003405   0.608459  -0.005597
 180  13   0.045480   7.380921   6.524691  -0.001214   0.353299  -0.003436
 181  13   0.538026   6.865135   8.412878  -0.000617   0.333671  -0.001851
 182  13  -1.022051   5.712940   8.925169  -0.000715   0.353299  -0.002024
 183  13  -2.251130   5.336630   7.154214  -0.000694   0.372926  -0.001862
 184  13  -1.389088   6.272517   5.534187  -0.000658   0.353299  -0.001863
 185  13   0.388877   7.340088   7.466140  -0.001631   0.490692  -0.003324
 186  13  -0.383062   6.525668   8.721001  -0.001617   0.490692  -0.003296
 187  13  -1.821696   5.690631   8.157824  -0.001744   0.510320  -0.003417
 188  13  -1.971032   6.095171   6.482345  -0.001727   0.490692  -0.003519
 189  13  -0.819567   7.037399   6.048837  -0.001804   0.490692  -0.003676
 190  14   2.880607   2.105314  10.481643  -0.002320   0.471065  -0.004925
 191  14   2.609548   3.688902  10.390067  -0.000786   0.392554  -0.002003
 192  14   4.254516   3.307143   9.410163  -0.001202   0.372926  -0.003222
 193  14   2.589217   0.502936   9.268059  -0.000944   0.392554  -0.002406
 194  14   1.403748   2.072467  10.422295  -0.000762   0.372926  -0.002043
 195  14   3.530668   3.536716  10.077345  -0.001195   0.412182  -0.002899
 196  14   3.992451   2.231218   9.827302  -0.002255   0.431809  -0.005221
 197  14   3.329624   1.139903   9.747987  -0.002116   0.431809  -0.004901
 198  14   1.813543   1.082175  10.009267  -0.001248   0.490692  -0.002544
 199  14   1.926914   2.939092  10.610540  -0.000925   0.372926  -0.002481
 200   1   3.632093   1.306602  -0.165903   0.000001   0.026583   0.000054
 201   2   3.325105   1.218644   0.214773   0.000041   0.026583   0.001539
 202   5   3.688374   1.520801  -0.373170  -0.000028   0.026583  -0.001055
 203   1   6.262834  -1.608482   1.534243   0.000025   0.024808   0.001015
 204   2   5.927655  -1.664395   1.896698   0.000053   0.024808   0.002141
 205   6   6.553922  -1.655407   1.466642  -0.000003   0.024808  -0.000101
 206   1   8.202908  -0.844572   3.606065   0.000030   0.024808   0.001206
 207   2   7.841700  -0.910733   3.940724   0.000087   0.024808   0.003499
 208   6   8.319374  -0.960255   3.351984  -0.000005   0.024808  -0.000212
 209   1   8.446298   3.201627   4.975093   0.000004   0.026589   0.000143
 210   2   8.082758   3.091409   5.295380   0.000029   0.026589   0.001072
 211   7   8.572884   3.443551   4.842973  -0.000033   0.026589  -0.001232
 212   1   8.108280  -0.527724   4.248785   0.000102   0.027482   0.003701
 213   2   7.798130  -0.655428   4.615410   0.000045   0.027482   0.001634
 214   8   7.765711  -0.604626   4.913644   0.000012   0.027482   0.000438
 215   1   8.330214   2.456328   5.294761   0.000058   0.027482   0.002127
 216   2   8.022998   2.368080   5.675216   0.000025   0.027482   0.000920
 217   8   7.970420   2.147829   5.878440   0.000004   0.027482   0.000161
 218   1   3.577014   0.580638   0.217653   0.000089   0.027475   0.003250
 219   2   3.213765   0.470278   0.538255   0.000047   0.027475   0.001700
 220   9   3.093587   0.223403   0.669333   0.000010   0.027475   0.000350
 221   1   5.546205  -1.538342   1.512244   0.000065   0.027475   0.002382
 222   2   5.208995  -1.676723   1.849965   0.000040   0.027475   0.001440
 223   9   4.909945  -1.731121   1.863449   0.000019   0.027475   0.000704
 224   2   5.467221  -1.731403   1.917337   0.000158   0.063011   0.002510
 225   1   6.005962  -1.606772   1.461980   0.000143   0.063011   0.002265
 226   2   7.753984  -0.868416   4.348938   0.000172   0.063534   0.002702
 227   1   8.269990  -0.676133   3.890695   0.000154   0.063534   0.002431
 228   2   8.026569   2.675517   5.599795   0.000149   0.083211   0.001791
 229   1   8.477405   2.911072   5.091209   0.000146   0.083211   0.001751
 230   2   3.145343   0.859610   0.416719   0.000179   0.083958   0.002133
 231   1   3.661260   0.905011  -0.082629   0.000186   0.083958   0.002216
 232   1   4.807549   5.510472   0.892067   0.000221   0.067428   0.003278
 233   3   4.187340   5.880729   1.310567   0.000202   0.067428   0.002994
 234  10   3.915051   5.834952   1.178821  -0.000029   0.067428  -0.000433
 235   1   6.163630   6.047397   2.338746   0.000234   0.067478   0.003461
 236   3   5.566919   6.426905   2.782376   0.000141   0.067478   0.002097
 237  11   5.670612   6.529581   3.051264  -0.000022   0.067478  -0.000324
 238   3   5.071928   6.283752   2.078418   0.001257   0.516729   0.002432
 239   1   5.713154   5.753285   1.148782   0.001401   0.516729   0.002710
 240   1   5.025167   5.282463   0.422154   0.000078   0.087906   0.000892
 241   5   4.928243   5.158860   0.159027  -0.000030   0.087906  -0.000339
 242  10   4.130370   5.477852   0.801648   0.000174   0.087906   0.001975
 243   5   5.505860   5.173229  -0.313207  -0.000039   0.066819  -0.000579
 244   5   6.396398   4.943057  -0.874443  -0.000085   0.147253  -0.000575
 245   5   7.111981   4.099623  -1.566608  -0.000195   0.147253  -0.001323
 246   5   7.145708   2.880761  -2.031118  -0.000228   0.147253  -0.001551
 247   5   6.484549   1.757326  -2.088530  -0.000107   0.147253  -0.000728
 248   5   5.383916   1.163311  -1.716663  -0.000196   0.147253  -0.001328
 249   5   4.268991   1.328187  -1.059175  -0.000297   0.147253  -0.002017
 250   1   6.075822   5.254680  -0.188405   0.000096   0.147536   0.000649
 251   1   7.161429   4.672084  -0.983196   0.000170   0.147536   0.001151
 252   1   7.604345   3.453061  -1.666907  -0.000023   0.147536  -0.000153
 253   1   7.233470   2.068529  -1.975414   0.000101   0.147536   0.000684
 254   1   6.192075   1.053345  -1.789540   0.000136   0.147536   0.000921
 255   1   4.882459   0.799681  -1.181089  -0.000019   0.147536  -0.000130
 256   1   3.944249   1.161664  -0.546042   0.000001   0.081634   0.000015
 257   6   6.802117  -1.678921   0.987288  -0.000092   0.069788  -0.001324
 258   6   6.981605  -1.274826  -0.047123  -0.000304   0.155331  -0.001957
 259   6   7.744956  -0.524664  -0.885203  -0.000150   0.155331  -0.000965
 260   6   8.863046   0.247935  -0.913321  -0.000246   0.155331  -0.001586
 261   6   9.862468   0.715849  -0.119573  -0.000293   0.155331  -0.001889
 262   6  10.320063   0.680959   1.159964  -0.000160   0.155331  -0.001031
 263   6  10.042080   0.158039   2.383527  -0.000201   0.155331  -0.001295
 264   6   9.146220  -0.631504   3.033051  -0.000325   0.155331  -0.002093
 265   1   6.445689  -1.399927   0.592254  -0.000114   0.152611  -0.000747
 266   1   6.949812  -0.710783  -0.673625   0.000027   0.152611   0.000176
 267   1   8.067303   0.193668  -1.188108   0.000018   0.152611   0.000116
 268   1   9.325010   0.930476  -0.733358   0.000012   0.152611   0.000081
 269   1  10.190412   1.187673   0.498079   0.000041   0.152611   0.000269
 270   1  10.297093   0.856359   1.984807   0.000134   0.152611   0.000879
 271   1   9.599883   0.076815   3.097336  -0.000024   0.152611  -0.000155
 272   1   8.670843  -0.659286   3.466862  -0.000003   0.085261  -0.000032
 273   1   6.715322   5.947917   2.222805   0.000102   0.087860   0.001158
 274   7   6.989944   5.970640   2.356863  -0.000106   0.087860  -0.001202
 275  11   6.179371   6.285357   2.984989   0.000191   0.087860   0.002172
 276   7   9.046133   3.491547   4.604428  -0.000075   0.066793  -0.001119
 277   7   9.807634   3.119597   3.939614  -0.000221   0.147186  -0.001502
 278   7  10.384048   3.113340   2.769529  -0.000125   0.147186  -0.000853
 279   7  10.347798   3.637040   1.575453  -0.000162   0.147186  -0.001103
 280   7   9.712879   4.488533   0.818335  -0.000224   0.147186  -0.001525
 281   7   8.724387   5.339119   0.790443  -0.000115   0.147186  -0.000778
 282   7   7.763908   5.860448   1.502545  -0.000199   0.147186  -0.001349
 283   1   9.213179   2.942034   4.473737  -0.000106   0.147490  -0.000718
 284   1  10.125200   2.622818   3.371674   0.000130   0.147490   0.000883
 285   1  10.444479   2.928667   1.974270   0.000221   0.147490   0.001496
 286   1  10.047766   3.741514   0.820961   0.000023   0.147490   0.000155
 287   1   9.088202   4.747577   0.356958  -0.000000   0.147490  -0.000001
 288   1   7.936208   5.558486   0.761380   0.000182   0.147490   0.001236
 289   1   7.139817   5.898116   1.576227   0.000168   0.081603   0.002058
 290   8   7.949930  -0.307306   5.250343  -0.000143   0.212596  -0.000675
 291   8   8.138022   1.117146   5.771852  -0.001059   0.437080  -0.002424
 292   1   8.662622   0.437890   4.547327   0.000955   0.580496   0.001646
 293   1   8.710188   2.083545   5.103937   0.000693   0.299473   0.002315
 294   9   3.203888  -0.246456   0.721042  -0.000147   0.212552  -0.000692
 295   9   4.150093  -1.311808   1.273465  -0.001006   0.436982  -0.002302
 296   1   4.339274  -0.283683   0.204400   0.000939   0.580383   0.001617
 297   1   5.419601  -1.403219   0.978057   0.000726   0.299411   0.002425
 298  10   3.748235   5.899289   1.025417   0.000031   0.024274   0.001257
 299   1   5.061925   5.522657   0.502356   0.000158   0.034457   0.004598
 300  11   5.789591   6.698880   3.195441   0.000054   0.026814   0.002021
 301   1   6.543854   6.113469   2.087330   0.000191   0.038061   0.005014
 302   2   6.545374   3.112273   6.785988   0.000024   0.028407   0.000840
 303   3   6.242873   3.499109   6.866663   0.000043   0.028407   0.001513
 304   8   6.595661   2.840142   6.912531  -0.000012   0.028407  -0.000433
 305   2   1.733511   1.214023   1.647265   0.000010   0.028403   0.000367
 306   3   1.486535   1.622762   1.787235   0.000029   0.028403   0.001037
 307   9   1.715817   0.915064   1.701161  -0.000022   0.028403  -0.000787
 308   2   1.848127   1.937900   1.331759   0.000029   0.028403   0.001036
 309   3   1.545603   2.324711   1.412459   0.000003   0.028403   0.000119
 310  10   1.495119   2.596765   1.285827  -0.000027   0.028403  -0.000934
 311   2   6.608191   3.818205   6.406216   0.000043   0.028404   0.001512
 312   3   6.361236   4.226967   6.546156   0.000023   0.028404   0.000817
 313  11   6.378816   4.525903   6.492074  -0.000013   0.028404  -0.000452
 314   3   6.249979   3.936986   6.798263   0.000154   0.079488   0.001935
 315   2   6.694357   3.417142   6.574110   0.000157   0.079488   0.001976
 316   3   1.446525   2.072963   1.558046   0.000121   0.078241   0.001547
 317   2   1.795008   1.450932   1.461574   0.000137   0.078241   0.001750
 318   2   3.903407  -0.444320   6.883311   0.000158   0.067481   0.002343
 319   4   3.283643  -0.073941   7.302342   0.000233   0.067481   0.003457
 320   8   4.175521  -0.398621   7.015456  -0.000019   0.067481  -0.000280
 321   2   2.523624  -0.987394   5.410841   0.000175   0.067427   0.002598
 322   4   1.927397  -0.607698   5.854928   0.000218   0.067427   0.003230
 323   9   2.420247  -1.089896   5.141774  -0.000037   0.067427  -0.000542
 324   4   2.133511  -0.411681   6.784402   0.001391   0.516657   0.002691
 325   2   3.262946  -0.749394   6.375703   0.001342   0.516657   0.002598
 326   2   2.758695   2.169318   0.589787   0.000073   0.166726   0.000439
 327   5   3.198323   2.433438   0.030836  -0.000159   0.166726  -0.000956
 328  10   2.399447   2.829830   0.634429  -0.000060   0.166726  -0.000359
 329   5   3.589522   1.850685  -0.483966  -0.000223   0.138665  -0.001611
 330   2   2.930574   1.548471   0.382427   0.000325   0.195453   0.001664
 331   6   8.201872  -1.265831   3.048582  -0.000194   0.194523  -0.000996
 332   6   7.278565  -1.693006   2.090261  -0.000960   0.397357  -0.002415
 333   2   7.080773  -1.500975   3.514975   0.000848   0.533625   0.001589
 334   2   6.034261  -1.855083   2.372172   0.000694   0.273942   0.002533
 335   2   7.332106   3.974405   5.475429   0.000073   0.166717   0.000440
 336   7   7.818431   4.256472   4.966170  -0.000110   0.166717  -0.000660
 337  11   7.017535   4.652678   5.566616  -0.000107   0.166717  -0.000640
 338   7   8.473640   3.924065   4.815392  -0.000226   0.139550  -0.001619
 339   2   7.830021   3.344220   5.540533   0.000357   0.196699   0.001813
 340   8   4.683826  -0.833091   6.831507   0.000003   0.067669   0.000048
 341   8   5.412951  -1.361610   6.221962  -0.000069   0.149328  -0.000465
 342   8   6.562132  -1.379961   5.580260  -0.000189   0.149328  -0.001267
 343   8   7.476119  -0.877681   5.272292  -0.000056   0.067669  -0.000820
 344   2   4.623843  -1.149103   6.333765   0.000225   0.149232   0.001507
 345   2   5.771410  -1.607060   5.520811   0.000174   0.149232   0.001165
 346   2   7.076211  -1.188264   4.964365  -0.000027   0.149232  -0.000181
 347   8   7.692331   2.179697   6.350140  -0.000070   0.071333  -0.000987
 348   8   7.033271   2.513896   6.844905  -0.000078   0.071333  -0.001094
 349   2   7.326288   2.663851   6.334723  -0.000194   0.155663  -0.001249
 350   9   4.632785  -1.999324   2.235441  -0.000044   0.067691  -0.000646
 351   9   4.400855  -2.232535   3.272314  -0.000154   0.149389  -0.001032
 352   9   3.648943  -2.057046   4.338926  -0.000051   0.149389  -0.000343
 353   9   2.805884  -1.572943   4.826960  -0.000055   0.067691  -0.000814
 354   2   4.974294  -2.017423   2.719544  -0.000072   0.149271  -0.000483
 355   2   4.431933  -2.135242   4.090988   0.000207   0.149271   0.001386
 356   2   3.369770  -1.642942   4.995614   0.000190   0.149271   0.001273
 357   9   1.947379   0.507459   1.413261  -0.000078   0.071368  -0.001094
 358   9   2.607836   0.173482   0.919404  -0.000069   0.071368  -0.000966
 359   2   2.408427   0.723500   1.082255  -0.000176   0.155723  -0.001133
 360  10   1.705370   2.884140   0.928628  -0.000177   0.141945  -0.001248
 361   2   2.128919   1.847183   1.001697   0.000372   0.200145   0.001856
 362  11   6.560356   4.787146   6.304139  -0.000135   0.140423  -0.000961
 363   2   7.050593   3.803634   6.076060   0.000353   0.198002   0.001782
 364   3   0.293493   6.093101   3.582256   0.000038   0.027476   0.001394
 365   4  -0.016264   5.965533   3.949261   0.000065   0.027476   0.002376
 366  10   0.325676   6.042162   3.284021   0.000018   0.027476   0.000649
 367   3   0.068305   3.069508   2.524560   0.000047   0.027476   0.001723
 368   4  -0.238512   2.981401   2.905368   0.000089   0.027476   0.003253
 369  10   0.120677   3.289634   2.321147   0.000010   0.027476   0.000371
 370   3   4.882381   4.970578   7.655784   0.000032   0.027483   0.001159
 371   4   4.519473   4.860322   7.976808   0.000058   0.027483   0.002128
 372  11   5.002339   5.217449   7.524487   0.000008   0.027483   0.000305
 373   3   2.884884   7.116890   6.344507   0.000051   0.027483   0.001861
 374   4   2.548043   6.978625   6.682643   0.000102   0.027483   0.003721
 375  11   3.183915   7.171347   6.330764   0.000015   0.027483   0.000541
 376   3   0.010340   2.343187   2.905222   0.000041   0.026582   0.001545
 377   4  -0.352848   2.233032   3.225927   0.000001   0.026582   0.000054
 378  12  -0.479173   1.991188   3.358449  -0.000028   0.026582  -0.001054
 379   3   2.164608   7.104613   6.297023   0.000089   0.024808   0.003595
 380   4   1.829775   7.048834   6.659818   0.000031   0.024808   0.001230
 381  13   1.538712   7.095614   6.727618  -0.000005   0.024808  -0.000198
 382   3   0.249429   6.347430   4.255439   0.000054   0.024808   0.002197
 383   4  -0.111447   6.281354   4.590471   0.000025   0.024808   0.001020
 384  13  -0.227784   6.397213   4.844529  -0.000003   0.024808  -0.000101
 385   3   4.770596   4.225703   7.979779   0.000028   0.026589   0.001066
 386   4   4.463990   4.137924   8.360802   0.000004   0.026589   0.000144
 387  14   4.408091   3.923876   8.568329  -0.000033   0.026589  -0.001232
 388   4   4.467921   4.442709   8.282202   0.000146   0.083365   0.001751
 389   3   4.917683   4.678076   7.772544   0.000165   0.083365   0.001978
 390   4   2.143445   7.030956   6.781518   0.000155   0.063372   0.002446
 391   3   2.569831   7.187805   6.227638   0.000194   0.063372   0.003057
 392   4  -0.145293   6.164748   4.352492   0.000143   0.063161   0.002264
 393   3   0.304379   6.254173   3.802084   0.000156   0.063161   0.002469
 394   4  -0.417120   2.620165   3.105054   0.000186   0.083800   0.002218
 395   3   0.097822   2.665419   2.604727   0.000183   0.083800   0.002180
 396   3   5.337868   3.271346   7.604502   0.000073   0.166714   0.000441
 397   8   5.696442   2.610457   7.560290  -0.000107   0.166714  -0.000639
 398  14   4.898902   3.007825   8.164223  -0.000110   0.166714  -0.000661
 399   8   6.487397   2.607829   7.178784  -0.000135   0.140463  -0.000958
 400   3   5.873924   3.542675   7.275379   0.000339   0.198059   0.001711
 401   3   0.759283   1.463772   2.724572   0.000073   0.166724   0.000439
 402   9   1.074171   0.785753   2.632633  -0.000060   0.166724  -0.000359
 403  12   0.273824   1.181616   3.234646  -0.000160   0.166724  -0.000957
 404   9   1.455538   0.607963   2.004848  -0.000176   0.141906  -0.001239
 405   3   1.112335   1.676621   2.017522   0.000366   0.200091   0.001830
 406  10   1.057375   2.922966   1.353720  -0.000081   0.071366  -0.001138
 407  10   0.398398   3.257470   1.849124  -0.000067   0.071366  -0.000942
 408   3   0.764719   2.773352   1.864369  -0.000195   0.155721  -0.001254
 409  10   0.614938   6.315171   2.924942  -0.000048   0.067696  -0.000711
 410  10   1.528902   6.817640   2.615731  -0.000174   0.149402  -0.001167
 411  10   2.677873   6.798856   1.972673  -0.000028   0.149402  -0.000184
 412  10   3.406543   6.269533   1.362531  -0.000042   0.067696  -0.000624
 413   3   1.015200   6.626086   3.232284  -0.000060   0.149281  -0.000400
 414   3   2.319904   7.044844   2.674148   0.000211   0.149281   0.001415
 415   3   3.467005   6.586002   1.860053   0.000158   0.149281   0.001055
 416  11   5.487722   5.267438   7.273955  -0.000068   0.071335  -0.000952
 417  11   6.147499   4.933569   6.779858  -0.000080   0.071335  -0.001118
 418   3   5.686989   4.717452   7.111319  -0.000176   0.155667  -0.001129
 419  11   5.284779   7.012438   3.365890   0.000002   0.067672   0.000028
 420  11   4.442324   7.496290   3.854540  -0.000079   0.149337  -0.000531
 421  11   3.691603   7.671994   4.921523  -0.000175   0.149337  -0.001171
 422  11   3.460687   7.439363   5.958433  -0.000055   0.067672  -0.000812
 423   3   4.720770   7.082124   3.197781   0.000155   0.149237   0.001041
 424   3   3.659678   7.574306   4.103089   0.000197   0.149237   0.001322
 425   3   3.118734   7.457078   5.474722  -0.000045   0.149237  -0.000304
 426  12  -0.455926   1.631191   3.388423  -0.000224   0.138810  -0.001612
 427   3   0.330586   1.983586   2.658058   0.000340   0.195657   0.001738
 428  13   1.166440   7.207937   6.508470  -0.000192   0.194518  -0.000985
 429  13   0.246454   6.907827   5.500085  -0.000961   0.397348  -0.002419
 430   3   1.663088   7.196758   5.375827   0.000828   0.533613   0.001551
 431   3   0.612433   6.723416   4.281042   0.000640   0.273935   0.002336
 432  14   4.560324   3.464801   8.652673  -0.000225   0.139370  -0.001617
 433   3   5.117892   4.010636   7.835703   0.000361   0.196446   0.001840
 434   4   3.070490   0.158858   7.779290   0.000102   0.087859   0.001159
 435   8   3.964306  -0.037250   7.399042   0.000191   0.087859   0.002177
 436  14   3.167808   0.282861   8.042079  -0.000106   0.087859  -0.001202
 437   8   4.352426  -0.451244   7.186889   0.000055   0.026624   0.002063
 438   4   3.023610  -0.092687   7.681893   0.000190   0.037791   0.005023
 439   4   1.383262  -0.508275   5.976675   0.000078   0.087901   0.000884
 440   9   1.918323  -0.845656   5.213344   0.000171   0.087901   0.001950
 441  12   1.108420  -0.531352   5.843121  -0.000030   0.087901  -0.000342
 442   9   2.320853  -1.259205   5.011220   0.000029   0.024486   0.001172
 443   4   1.536066  -0.673779   6.098639   0.000159   0.034758   0.004569
 444  10  -0.007087   3.752615   2.250846  -0.000147   0.212558  -0.000691
 445  10   0.018700   5.201699   2.735647  -0.001007   0.436994  -0.002304
 446   4  -0.646092   3.985745   3.297149   0.000939   0.580398   0.001617
 447   4  -0.450380   5.609043   3.885141   0.000725   0.299419   0.002423
 448  11   3.575775   7.101438   6.608749  -0.000142   0.212602  -0.000667
 449  11   4.526964   6.126680   7.302775  -0.001059   0.437095  -0.002422
 450   4   3.086938   6.444536   7.550554   0.000956   0.580513   0.001648
 451   4   4.164934   5.243149   8.194813   0.000694   0.299482   0.002318
 452  12   0.599975  -0.518395   6.389158  -0.000039   0.066817  -0.000582
 453  12  -0.115428  -0.219101   7.137221  -0.000085   0.147249  -0.000576
 454  12  -1.141117   0.501968   7.498453  -0.000195   0.147249  -0.001323
 455  12  -1.996760   1.396504   7.085964  -0.000228   0.147249  -0.001551
 456  12  -2.351829   2.118955   6.059097  -0.000107   0.147249  -0.000728
 457  12  -2.069163   2.390245   4.814521  -0.000195   0.147249  -0.001327
 458  12  -1.257954   2.105575   3.833007  -0.000297   0.147249  -0.002016
 459   4   0.670999  -0.346922   6.948275   0.000096   0.147533   0.000649
 460   4  -0.407880   0.238341   7.750185   0.000170   0.147533   0.001150
 461   4  -1.519932   1.193323   7.719887  -0.000023   0.147533  -0.000153
 462   4  -2.235582   2.149122   6.869086   0.000101   0.147533   0.000685
 463   4  -2.278379   2.736521   5.526439   0.000136   0.147533   0.000921
 464   4  -1.631791   2.728612   4.210601  -0.000019   0.147533  -0.000130
 465   4  -0.796311   2.326138   3.465964   0.000001   0.081632   0.000016
 466  13  -0.713572   6.326958   5.070377  -0.000092   0.069787  -0.001325
 467  13  -1.559752   5.659764   5.393413  -0.000304   0.155330  -0.001957
 468  13  -2.179104   4.966349   6.385083  -0.000150   0.155330  -0.000966
 469  13  -2.082802   4.672844   7.708869  -0.000246   0.155330  -0.001586
 470  13  -1.311622   4.903521   8.804268  -0.000293   0.155330  -0.001890
 471  13  -0.192088   5.560711   9.207476  -0.000160   0.155330  -0.001032
 472  13   0.801777   6.366151   8.747772  -0.000201   0.155330  -0.001295
 473  13   1.249161   6.978812   7.619798  -0.000325   0.155330  -0.002092
 474   4  -0.939356   5.818246   4.844186  -0.000114   0.152610  -0.000748
 475   4  -1.944398   4.931387   5.575546   0.000027   0.152610   0.000176
 476   4  -2.255066   4.345201   6.950823   0.000018   0.152610   0.000115
 477   4  -1.739821   4.307884   8.387711   0.000012   0.152610   0.000081
 478   4  -0.616822   4.835237   9.277816   0.000041   0.152610   0.000269
 479   4   0.638442   5.703974   9.244260   0.000134   0.152610   0.000879
 480   4   1.494479   6.546262   8.301250  -0.000024   0.152610  -0.000154
 481   4   1.704053   6.998548   7.164135  -0.000002   0.085260  -0.000027
 482  14   4.142052   3.957610   9.027956  -0.000075   0.066794  -0.001118
 483  14   3.298095   4.296988   9.604817  -0.000221   0.147187  -0.001501
 484  14   2.133667   4.071194  10.147514  -0.000125   0.147187  -0.000852
 485  14   1.207760   3.167841  10.314971  -0.000162   0.147187  -0.001103
 486  14   0.877798   1.935647  10.042545  -0.000224   0.147187  -0.001525
 487  14   1.271157   0.850272   9.435401  -0.000115   0.147187  -0.000778
 488  14   2.235988   0.330701   8.727912  -0.000199   0.147187  -0.001349
 489   4   3.810040   4.442036   8.982669  -0.000106   0.147491  -0.000718
 490   4   2.558210   4.627124   9.722189   0.000130   0.147491   0.000883
 491   4   1.322658   3.959710  10.141945   0.000221   0.147491   0.001497
 492   4   0.580341   2.697434  10.079900   0.000023   0.147491   0.000155
 493   4   0.617814   1.327569   9.560005  -0.000000   0.147491  -0.000001
 494   4   1.420610   0.378920   8.782954   0.000182   0.147491   0.001236
 495   4   2.397477   0.110536   8.160647   0.000168   0.081603   0.002057
 496  10   3.530245   5.712993   0.639983   0.000277   0.251358   0.001103
 497  10   2.811421   4.972200   0.176438  -0.000281   0.502601  -0.000559
 498  10   2.225641   3.723950   0.221879  -0.000240   0.502601  -0.000478
 499   5   4.386692   4.884694  -0.419092  -0.000097   0.502601  -0.000194
 500   5   3.593741   3.808567  -0.760430  -0.000560   0.502601  -0.001115
 501   5   3.249262   2.756758  -0.525088  -0.000011   0.251358  -0.000044
 502  11   7.089513   5.286372   5.651187   0.000116   0.251177   0.000463
 503  11   6.992690   6.163002   4.943066  -0.000395   0.502241  -0.000787
 504  11   6.409587   6.695536   3.812467   0.000006   0.502241   0.000011
 505   7   8.213940   5.072153   4.542426  -0.000433   0.502241  -0.000862
 506   7   7.904592   5.966114   3.538935  -0.000482   0.502241  -0.000961
 507   7   7.313113   6.189669   2.601138   0.000296   0.251177   0.001180
 508  14   3.428950   0.294414   8.421291   0.000296   0.251216   0.001180
 509  14   4.148550   1.035500   8.882626  -0.000483   0.502318  -0.000961
 510  14   4.734705   2.283213   8.834749  -0.000433   0.502318  -0.000862
 511   8   4.845625  -0.008669   7.757717   0.000007   0.502318   0.000014
 512   8   5.639317   1.067450   8.096360  -0.000396   0.502318  -0.000788
 513   8   5.983909   2.118596   7.859276   0.000116   0.251216   0.000462
 514  12  -0.138562   0.715684   3.404888  -0.000011   0.251323  -0.000045
 515  12  -0.039851  -0.161030   4.113146  -0.000561   0.502531  -0.001115
 516  12   0.545941  -0.692889   5.243106  -0.000098   0.502531  -0.000195
 517   9   1.020362  -0.198110   2.802309  -0.000240   0.502531  -0.000477
 518   9   1.332264  -1.091878   3.805669  -0.000282   0.502531  -0.000561
 519   9   1.925878  -1.314645   4.742685   0.000273   0.251323   0.001085
 =====================================================

              1784214  WORDS OF DYNAMIC MEMORY USED
 EXECUTION OF GAMESS TERMINATED NORMALLY Thu Nov 24 22:40:50 2016
 DDI: 263640 bytes (0.3 MB / 0 MWords) used by master data server.

 ----------------------------------------
 CPU timing information for all processes
 ========================================
 0: 218.216 + 0.140 = 218.356
 ----------------------------------------
 ddikick.x: exited gracefully.
