----- GAMESS execution script -----

          ******************************************************
          *         GAMESS VERSION =  5 DEC 2014 (R1)          *
          *             FROM IOWA STATE UNIVERSITY             *
          * M.W.SCHMIDT, K.K.BALDRIDGE, J.A.BOATZ, S.T.ELBERT, *
          *   M.S.GORDON, J.H.JENSEN, S.KOSEKI, N.MATSUNAGA,   *
          *          K.A.NGUYEN, S.J.SU, T.L.WINDUS,           *
          *       TOGETHER WITH M.DUPUIS, J.A.MONTGOMERY       *
          *         J.COMPUT.CHEM.  14, 1347-1363(1993)        *
          **************** 64 BIT LINUX VERSION ****************

 EXECUTION OF GAMESS BEGUN Fri Nov 25 00:18:24 2016

            ECHO OF THE FIRST FEW INPUT CARDS -
 INPUT CARD>! SELECT RESTRICTED HARTREE-FOCK AS DEFAULT                                     
 INPUT CARD>$contrl scftyp=rhf $end                                                         
 INPUT CARD>                                                                                
 INPUT CARD>! THEORY: HF OR DFT                                                             
 INPUT CARD> $contrl mplevl=0 $end                                                          
 INPUT CARD>                                                                                
 INPUT CARD> $system timlim=10000 mwords=20 $end                                            
 INPUT CARD> $SCF DIRSCF=.TRUE. $end                                                        
 INPUT CARD>                                                                                
 INPUT CARD>                                                                                
 INPUT CARD>! BASIS SETS                                                                    
 INPUT CARD>! 6-311G(d,p)                                                                   
 INPUT CARD> $BASIS GBASIS=N311 NGAUSS=6 NDFUNC=1 NPFUNC=1 $END                             
 INPUT CARD>                                                                                
 INPUT CARD>! One of the following                                                          
 INPUT CARD> $guess guess=HUCKEL $end                                                       
 INPUT CARD>                                                                                
 INPUT CARD> $statpt projct=.FALSE. $end                                                    
 INPUT CARD> $STATPT IFREEZ(1)=1,2,3 $END                                                   
 INPUT CARD>                                                                                
 INPUT CARD>! Optimize the geometry with COSMO effects                                      
 INPUT CARD> $statpt opttol=0.0005 nstep=50 $end                                            
 INPUT CARD> $contrl nzvar=1 $end                                                           
 INPUT CARD> $zmat dlc=.t. auto=.t. $end                                                    
 INPUT CARD> $contrl runtyp=OPTIMIZE maxit=200 $end                                         
 INPUT CARD>                                                                                
 INPUT CARD>! Run COSMO on perfect conductor                                                
 INPUT CARD> $COSGMS PRFCND=.TRUE. $end                                                     
 INPUT CARD>                                                                                
 INPUT CARD>! Specifying RSOLV                                                              
 INPUT CARD> $COSGMS COSRAD = 1.4 $end                                                      
 INPUT CARD>                                                                                
 INPUT CARD>! available memory                                                              
 INPUT CARD> $SYSTEM MWORDS=40 $END                                                         
 INPUT CARD>                                                                                
 INPUT CARD> $DATA                                                                          
 INPUT CARD>Decane, ID: C124185                                                             
 INPUT CARD>C1                                                                              
 INPUT CARD>C      6.0      5.2659000000    1.2820000000    1.0926000000                    
 INPUT CARD>C      6.0      6.2961000000    1.9117000000    2.0320000000                    
 INPUT CARD>C      6.0      7.6744000000    1.2763000000    1.8437000000                    
 INPUT CARD>C      6.0      3.8904000000    1.9318000000    1.2478000000                    
 INPUT CARD>C      6.0      8.7050000000    1.8733000000    2.8037000000                    
 INPUT CARD>C      6.0      2.8593000000    1.2672000000    0.3333000000                    
 INPUT CARD>C      6.0     10.0864000000    1.2563000000    2.5851000000                    
 INPUT CARD>C      6.0      1.4913000000    1.9381000000    0.4526000000                    
 INPUT CARD>C      6.0     11.1137000000    1.8264000000    3.5485000000                    
 INPUT CARD>C      6.0      0.4621000000    1.2644000000   -0.4416000000                    
 INPUT CARD>H      1.0      5.1909000000    0.2076000000    1.3013000000                    
 INPUT CARD>H      1.0      5.6039000000    1.3859000000    0.0541000000                    
   40000000 WORDS OF MEMORY AVAILABLE

     BASIS OPTIONS
     -------------
     GBASIS=N311         IGAUSS=       6      POLAR=POPN311 
     NDFUNC=       1     NFFUNC=       0     DIFFSP=       F
     NPFUNC=       1      DIFFS=       F     BASNAM=        


     RUN TITLE
     ---------
 Decane, ID: C124185                                                             

 THE POINT GROUP OF THE MOLECULE IS C1      
 THE ORDER OF THE PRINCIPAL AXIS IS     0

 ATOM      ATOMIC                      COORDINATES (BOHR)
           CHARGE         X                   Y                   Z
 C           6.0     9.9511080787        2.4226287163        2.0647146142
 C           6.0    11.8979037913        3.6125891707        3.8399232071
 C           6.0    14.5025131202        2.4118572781        3.4840878036
 C           6.0     7.3517899826        3.6505726631        2.3580000875
 C           6.0    16.4500647231        3.5400236928        5.2982247518
 C           6.0     5.4032935167        2.3946607716        0.6298456717
 C           6.0    19.0605322026        2.3740627584        4.8851306509
 C           6.0     2.8181483655        3.6624779368        0.8552899820
 C           6.0    21.0018477097        3.4513955440        6.7056926674
 C           6.0     0.8732423789        2.3893695389       -0.8345029962
 H           1.0     9.8093786297        0.3923071151        2.4591004278
 H           1.0    10.5898354626        2.6189712464        0.1022341759
 H           1.0    11.2807192837        3.3746726689        5.8048602891
 H           1.0    12.0173344737        5.6508476211        3.4791745160
 H           1.0    15.1304690659        2.6922926147        1.5289772967
 H           1.0    14.3734448352        0.3669847868        3.7955146463
 H           1.0     7.4850156648        5.6697448810        1.9074894120
 H           1.0     6.7272355437        3.5029850634        4.3284173749
 H           1.0    15.8440295989        3.2161246585        7.2548470395
 H           1.0    16.5547555428        5.5915102251        5.0234585932
 H           1.0     6.0522254209        2.4912257696       -1.3364142185
 H           1.0     5.2381314654        0.3872048549        1.1194736751
 H           1.0    19.6847086963        2.7246069291        2.9409805547
 H           1.0    18.9624554238        0.3191747193        5.1349524264
 H           1.0     2.1641142011        3.5895345137        2.8189042559
 H           1.0     2.9683815815        5.6606741962        0.3314579382
 H           1.0    22.8564247941        2.6044203563        6.3596838391
 H           1.0    21.1789150348        5.5006144051        6.4760909599
 H           1.0    20.4744251866        3.0609781549        8.6685510509
 H           1.0     0.6154837542        0.4066690326       -0.3029230758
 H           1.0    -0.9546895690        3.3414134915       -0.6666953285
 H           1.0     1.4543331202        2.4591004278       -2.8189042559

          INTERNUCLEAR DISTANCES (ANGS.)




     $CONTRL OPTIONS
     ---------------
 SCFTYP=RHF          RUNTYP=OPTIMIZE     EXETYP=RUN     
 MPLEVL=       0     CITYP =NONE         CCTYP =NONE         VBTYP =NONE    
 DFTTYP=NONE         TDDFT =NONE    
 MULT  =       1     ICHARG=       0     NZVAR =       1     COORD =UNIQUE  
 PP    =NONE         RELWFN=NONE         LOCAL =NONE         NUMGRD=       F
 ISPHER=      -1     NOSYM =       0     MAXIT =     200     UNITS =ANGS    
 PLTORB=       F     MOLPLT=       F     AIMPAC=       F     FRIEND=        
 NPRINT=       7     IREST =       0     GEOM  =INPUT   
 NORMF =       0     NORMP =       0     ITOL  =      20     ICUT  =       9
 INTTYP=BEST         GRDTYP=BEST         QMTTOL= 1.0E-06

     $SYSTEM OPTIONS
     ---------------
  REPLICATED MEMORY=    40000000 WORDS (ON EVERY NODE).
 DISTRIBUTED MEMDDI=           0 MILLION WORDS IN AGGREGATE,
 MEMDDI DISTRIBUTED OVER   1 PROCESSORS IS           0 WORDS/PROCESSOR.
 TOTAL MEMORY REQUESTED ON EACH PROCESSOR=    40000000 WORDS.
 TIMLIM=       10000.00 MINUTES, OR       6.9 DAYS.
 PARALL= F  BALTYP=  DLB     KDIAG=    0  COREFL= F
 MXSEQ2=     300 MXSEQ3=     150  mem10=         0

     $COSGMS OPTIONS
     ---------------
     EPSI  =   INFTY     NSPA  =      92     COSRAD=    1.40
     DISEX =   10.00     OUTCHG=DBLCAV       COSBUG=       F
     COSWRT=       F     DCOSMO=       F

     SYMMETRY COORDINATES WILL NOT BE USED FOR 
     THE COSMO CALCULATION, EVEN IF SPECIFIED:
         -- SWITCHING TO C1 POINT GROUP --


     DEFINITION OF CAVITY
     ---------------------------
     ATOM         COORDINATES           RADIUS 
     1    9.9511    2.4226    2.0647    2.0000
     2   11.8979    3.6126    3.8399    2.0000
     3   14.5025    2.4119    3.4841    2.0000
     4    7.3518    3.6506    2.3580    2.0000
     5   16.4501    3.5400    5.2982    2.0000
     6    5.4033    2.3947    0.6298    2.0000
     7   19.0605    2.3741    4.8851    2.0000
     8    2.8181    3.6625    0.8553    2.0000
     9   21.0018    3.4514    6.7057    2.0000
    10    0.8732    2.3894   -0.8345    2.0000
    11    9.8094    0.3923    2.4591    1.3000
    12   10.5898    2.6190    0.1022    1.3000
    13   11.2807    3.3747    5.8049    1.3000
    14   12.0173    5.6508    3.4792    1.3000
    15   15.1305    2.6923    1.5290    1.3000
    16   14.3734    0.3670    3.7955    1.3000
    17    7.4850    5.6697    1.9075    1.3000
    18    6.7272    3.5030    4.3284    1.3000
    19   15.8440    3.2161    7.2548    1.3000
    20   16.5548    5.5915    5.0235    1.3000
    21    6.0522    2.4912   -1.3364    1.3000
    22    5.2381    0.3872    1.1195    1.3000
    23   19.6847    2.7246    2.9410    1.3000
    24   18.9625    0.3192    5.1350    1.3000
    25    2.1641    3.5895    2.8189    1.3000
    26    2.9684    5.6607    0.3315    1.3000
    27   22.8564    2.6044    6.3597    1.3000
    28   21.1789    5.5006    6.4761    1.3000
    29   20.4744    3.0610    8.6686    1.3000
    30    0.6155    0.4067   -0.3029    1.3000
    31   -0.9547    3.3414   -0.6667    1.3000
    32    1.4543    2.4591   -2.8189    1.3000

          ----------------
          PROPERTIES INPUT
          ----------------

     MOMENTS            FIELD           POTENTIAL          DENSITY
 IEMOM =       1   IEFLD =       0   IEPOT =       0   IEDEN =       0
 WHERE =COMASS     WHERE =NUCLEI     WHERE =NUCLEI     WHERE =NUCLEI  
 OUTPUT=BOTH       OUTPUT=BOTH       OUTPUT=BOTH       OUTPUT=BOTH    
 IEMINT=       0   IEFINT=       0                     IEDINT=       0
                                                       MORB  =       0
          EXTRAPOLATION IN EFFECT
          SOSCF IN EFFECT
 ORBITAL PRINTING OPTION: NPREO=     1   322     2     1

     -------------------------------
     INTEGRAL TRANSFORMATION OPTIONS
     -------------------------------
     NWORD  =            0
     CUTOFF = 1.0E-09     MPTRAN =       0
     DIRTRF =       T     AOINTS =DUP     

          ----------------------
          INTEGRAL INPUT OPTIONS
          ----------------------
 NOPK  =       1 NORDER=       0 SCHWRZ=       T


 -----------------------------------------------
  STATISTICS ON AUTOMATIC COORDINATE GENERATION 
 -----------------------------------------------
  NUMBER OF USER SPECIFIED BONDS                             0
  NUMBER OF BONDS                                           31
  NUMBER OF ANGLES                                          60
  NUMBER OF TORSIONS                                        81
  NUMBER OF EXTRA COORD.                                     0
  NUMBER OF EXTRA COORD. FOR CONSTRAINTS                     0
  NUMBER OF CONSTRAINED COORD.                               0

  TOTAL NUMBER OF PRIMITIVES                               172
 -----------------------------------------------

   --- ENCODED Z MATRIX ---
 COORD  TYPE   I   J   K   L   M   N
    1      1    1  12
    2      1    1   4
    3      1    1  11
    4      1    1   2
    5      1    2  13
    6      1    2   3
    7      1    2  14
    8      1    3  16
    9      1    3  15
   10      1    3   5
   11      1    4   6
   12      1    4  17
   13      1    4  18
   14      1    5   7
   15      1    5  20
   16      1    5  19
   17      1    6   8
   18      1    6  22
   19      1    6  21
   20      1    7  24
   21      1    7  23
   22      1    7   9
   23      1    8  26
   24      1    8  25
   25      1    8  10
   26      1    9  29
   27      1    9  28
   28      1    9  27
   29      1   10  32
   30      1   10  31
   31      1   10  30
   32      2    1   2  13
   33      2    1   2   3
   34      2    1   4   6
   35      2    1   4  17
   36      2    1   2  14
   37      2    1   4  18
   38      2    2   3  16
   39      2    2   3  15
   40      2    2   1  11
   41      2    2   1  12
   42      2    2   3   5
   43      2    2   1   4
   44      2    3   5   7
   45      2    3   2  13
   46      2    3   5  19
   47      2    3   2  14
   48      2    3   5  20
   49      2    4   1  12
   50      2    4   6   8
   51      2    4   6  21
   52      2    4   1  11
   53      2    4   6  22
   54      2    5   7   9
   55      2    5   3  16
   56      2    5   3  15
   57      2    5   7  23
   58      2    5   7  24
   59      2    6   4  17
   60      2    6   8  10
   61      2    6   8  25
   62      2    6   8  26
   63      2    6   4  18
   64      2    7   5  20
   65      2    7   9  27
   66      2    7   9  28
   67      2    7   9  29
   68      2    7   5  19
   69      2    8  10  30
   70      2    8  10  31
   71      2    8  10  32
   72      2    8   6  21
   73      2    8   6  22
   74      2    9   7  23
   75      2    9   7  24
   76      2   10   8  25
   77      2   10   8  26
   78      2   11   1  12
   79      2   13   2  14
   80      2   15   3  16
   81      2   17   4  18
   82      2   19   5  20
   83      2   21   6  22
   84      2   23   7  24
   85      2   25   8  26
   86      2   27   9  28
   87      2   27   9  29
   88      2   28   9  29
   89      2   30  10  31
   90      2   30  10  32
   91      2   31  10  32
   92      3    1   4   6  21
   93      3    1   2   3  16
   94      3    1   4   6  22
   95      3    1   4   6   8
   96      3    1   2   3   5
   97      3    1   2   3  15
   98      3    2   1   4  18
   99      3    2   1   4   6
  100      3    2   3   5  19
  101      3    2   3   5  20
  102      3    2   3   5   7
  103      3    2   1   4  17
  104      3    3   5   7   9
  105      3    3   5   7  23
  106      3    3   5   7  24
  107      3    3   2   1  11
  108      3    3   2   1   4
  109      3    3   2   1  12
  110      3    4   1   2  14
  111      3    4   6   8  10
  112      3    4   6   8  25
  113      3    4   6   8  26
  114      3    4   1   2  13
  115      3    5   7   9  27
  116      3    5   7   9  28
  117      3    5   7   9  29
  118      3    5   3   2  14
  119      3    5   3   2  13
  120      3    6   8  10  30
  121      3    6   8  10  31
  122      3    6   8  10  32
  123      3    6   4   1  11
  124      3    6   4   1  12
  125      3    7   5   3  15
  126      3    7   5   3  16
  127      3    8   6   4  18
  128      3    8   6   4  17
  129      3    9   7   5  19
  130      3    9   7   5  20
  131      3   10   8   6  21
  132      3   10   8   6  22
  133      3   11   1   2  13
  134      3   11   1   4  18
  135      3   11   1   2  14
  136      3   11   1   4  17
  137      3   12   1   4  18
  138      3   12   1   2  14
  139      3   12   1   2  13
  140      3   12   1   4  17
  141      3   13   2   3  15
  142      3   13   2   3  16
  143      3   14   2   3  15
  144      3   14   2   3  16
  145      3   15   3   5  19
  146      3   15   3   5  20
  147      3   16   3   5  19
  148      3   16   3   5  20
  149      3   17   4   6  22
  150      3   17   4   6  21
  151      3   18   4   6  22
  152      3   18   4   6  21
  153      3   19   5   7  24
  154      3   19   5   7  23
  155      3   20   5   7  24
  156      3   20   5   7  23
  157      3   21   6   8  26
  158      3   21   6   8  25
  159      3   22   6   8  26
  160      3   22   6   8  25
  161      3   23   7   9  27
  162      3   23   7   9  29
  163      3   23   7   9  28
  164      3   24   7   9  27
  165      3   24   7   9  29
  166      3   24   7   9  28
  167      3   25   8  10  32
  168      3   25   8  10  31
  169      3   25   8  10  30
  170      3   26   8  10  32
  171      3   26   8  10  31
  172      3   26   8  10  30

          INDEP./SYM. INTERNAL COORDINATES
          --------------------------------
 CRD  1=   0.1180 ( 32) -0.3935 ( 33) -0.3391 ( 34)  0.1023 ( 35)  0.1194 ( 36)
           0.1050 ( 37) -0.1046 ( 38) -0.1022 ( 39) -0.1178 ( 40) -0.1189 ( 41)
           0.3376 ( 42)  0.3921 ( 43) -0.2379 ( 44)  0.1176 ( 45)  0.1178 ( 47)
          -0.1173 ( 49)  0.2373 ( 50) -0.1174 ( 52)  0.1263 ( 54) -0.1001 ( 55)
          -0.1272 ( 60)  0.1005 ( 63)
 CRD  2=   0.1052 ( 32)  0.1200 ( 34)  0.1027 ( 40)  0.1198 ( 42) -0.1193 ( 44)
          -0.1215 ( 50) -0.1292 ( 56) -0.1292 ( 59) -0.1378 ( 93)  0.1123 ( 94)
           0.2048 ( 95) -0.2989 ( 96) -0.1526 ( 97) -0.1365 ( 98) -0.2976 ( 99)
           0.1108 (100)  0.2033 (102) -0.1514 (103) -0.1550 (104)  0.1239 (107)
           0.2849 (108)  0.1225 (109)  0.1219 (110) -0.1530 (111)  0.1238 (114)
          -0.1221 (118) -0.1290 (119) -0.1286 (123) -0.1220 (124)
 CRD  3=   0.1126 (  4)  0.3378 ( 34) -0.1188 ( 37) -0.1179 ( 38)  0.3373 ( 42)
          -0.3076 ( 44)  0.1222 ( 48) -0.3046 ( 50)  0.1209 ( 51)  0.2713 ( 54)
          -0.1412 ( 55)  0.2714 ( 60) -0.1411 ( 63)  0.1069 ( 64)  0.1062 ( 72)
           0.1082 ( 96)  0.1074 ( 99)
 CRD  4=   0.3127 (  2)  0.3040 (  4)  0.3126 (  6)  0.2637 ( 10)  0.2618 ( 11)
           0.1915 ( 14)  0.1911 ( 17)  0.1285 ( 22)  0.1275 ( 25)  0.2606 ( 33)
           0.1144 ( 34)  0.1172 ( 42)  0.2605 ( 43)  0.2492 ( 44)  0.2527 ( 50)
 CRD  5=  -0.1285 ( 32) -0.1373 ( 35)  0.1235 ( 36)  0.1350 ( 37)  0.1365 ( 38)
          -0.1373 ( 39) -0.1257 ( 40)  0.1276 ( 41)  0.1484 ( 45) -0.1526 ( 47)
          -0.1491 ( 49)  0.1501 ( 52) -0.1035 ( 53) -0.1087 ( 55)  0.1079 ( 56)
           0.1105 ( 59) -0.1107 ( 63)  0.1343 ( 92)  0.1085 ( 93)  0.1334 ( 94)
           0.1863 ( 95)  0.1518 ( 96)  0.1082 ( 97)  0.1092 ( 98)  0.1564 ( 99)
           0.1352 (100)  0.1356 (101)  0.1916 (102)  0.1082 (103)  0.1100 (104)
           0.1500 (107)  0.2521 (108)  0.1495 (109)  0.1481 (110)  0.1163 (111)
           0.1470 (114)
 CRD  6=  -0.1023 ( 32)  0.3000 ( 33) -0.1150 ( 36)  0.1079 ( 40)  0.1104 ( 41)
          -0.3012 ( 43) -0.2640 ( 44)  0.2599 ( 50)  0.3916 ( 54) -0.1311 ( 57)
          -0.1296 ( 58) -0.3938 ( 60)  0.1272 ( 61)  0.1335 ( 62) -0.1155 ( 74)
          -0.1049 ( 75)  0.1084 ( 76)  0.1141 ( 77)
 CRD  7=   0.1561 (  2) -0.1553 (  6) -0.2524 ( 10)  0.2527 ( 11) -0.2643 ( 14)
           0.2638 ( 17) -0.2028 ( 22)  0.2002 ( 25)  0.1459 ( 34) -0.1405 ( 42)
          -0.3373 ( 44)  0.1277 ( 46)  0.3404 ( 50) -0.1271 ( 53) -0.1747 ( 54)
           0.1648 ( 60)  0.1083 ( 68) -0.1108 ( 73)
 CRD  8=  -0.1302 ( 48)  0.1273 ( 51) -0.1222 ( 66)  0.1343 ( 67) -0.1351 ( 69)
           0.1178 ( 71) -0.1091 ( 92) -0.1011 ( 94) -0.2391 ( 95) -0.1904 ( 96)
           0.1896 ( 99)  0.1053 (101)  0.2339 (102) -0.2860 (104) -0.1553 (105)
          -0.1606 (106)  0.2833 (111)  0.1573 (112)  0.1537 (113)  0.1175 (115)
          -0.1285 (118) -0.1365 (119) -0.1192 (121)  0.1350 (123)  0.1290 (124)
           0.1043 (125)  0.1105 (126) -0.1133 (127) -0.1064 (128) -0.1130 (129)
          -0.1243 (130)  0.1221 (131)  0.1128 (132)
 CRD  9=  -0.1321 ( 33)  0.3415 ( 34) -0.1066 ( 35) -0.1087 ( 37) -0.1113 ( 38)
          -0.1046 ( 39)  0.3398 ( 42) -0.1286 ( 43) -0.3896 ( 54) -0.1063 ( 55)
          -0.1059 ( 56)  0.1323 ( 57)  0.1277 ( 58) -0.1101 ( 59) -0.3949 ( 60)
           0.1302 ( 61)  0.1319 ( 62) -0.1048 ( 63)  0.1154 ( 74)  0.1101 ( 75)
           0.1154 ( 76)  0.1142 ( 77)
 CRD 10=   0.1013 (  2)  0.2322 (  4)  0.1584 (  6) -0.1767 ( 14) -0.1806 ( 17)
          -0.1789 ( 22) -0.1471 ( 25)  0.3858 ( 33) -0.1331 ( 34)  0.1057 ( 35)
           0.1056 ( 37)  0.2836 ( 43) -0.2856 ( 44) -0.1484 ( 45)  0.1222 ( 46)
          -0.1472 ( 47)  0.1216 ( 48) -0.1373 ( 49) -0.2589 ( 50) -0.1403 ( 52)
          -0.1761 ( 54)
 CRD 11=  -0.1687 (  2)  0.1175 (  6)  0.1264 ( 10)  0.1115 ( 25) -0.1245 ( 32)
           0.1902 ( 33) -0.3280 ( 34) -0.1256 ( 36) -0.1080 ( 39)  0.1516 ( 40)
           0.1522 ( 41)  0.3582 ( 42) -0.3272 ( 43)  0.1275 ( 50) -0.2202 ( 54)
          -0.1244 ( 55) -0.1197 ( 56)  0.1373 ( 59)  0.2670 ( 60)  0.1415 ( 63)
 CRD 12=   0.1319 ( 35) -0.1342 ( 37)  0.1351 ( 38) -0.1320 ( 39) -0.1237 ( 46)
           0.1178 ( 48) -0.1189 ( 51)  0.1262 ( 53) -0.1047 ( 55)  0.1110 ( 56)
          -0.1397 ( 57)  0.1363 ( 58) -0.1117 ( 59) -0.1358 ( 61)  0.1397 ( 62)
           0.1048 ( 63) -0.1632 ( 64)  0.1618 ( 68)  0.1623 ( 72) -0.1603 ( 73)
           0.1031 ( 76) -0.1322 ( 92) -0.1301 ( 94) -0.2512 ( 95)  0.1305 (100)
           0.1323 (101)  0.2544 (102)  0.1163 (104) -0.1229 (111)  0.1274 (116)
           0.1277 (117) -0.1267 (120) -0.1264 (122)  0.1587 (125)  0.1603 (126)
          -0.1578 (127) -0.1557 (128)
 CRD 13=  -0.1125 ( 32)  0.1111 ( 36) -0.1118 ( 40)  0.1098 ( 41) -0.2783 ( 66)
           0.2792 ( 67)  0.2778 ( 69) -0.2759 ( 71) -0.1165 ( 74)  0.1189 ( 75)
           0.1170 ( 76) -0.1144 ( 77)  0.1455 ( 93)  0.1597 ( 96)  0.1444 ( 97)
           0.1440 ( 98)  0.1587 ( 99)  0.1428 (103) -0.2434 (104) -0.1019 (108)
          -0.2419 (111)  0.1248 (115)  0.1279 (121) -0.1588 (129) -0.1607 (130)
          -0.1598 (131) -0.1576 (132)
 CRD 14=   0.1082 ( 32) -0.1118 ( 36)  0.1106 ( 40) -0.1137 ( 41) -0.1428 ( 45)
           0.1519 ( 47)  0.1524 ( 49) -0.1431 ( 52) -0.1959 ( 57)  0.1999 ( 58)
           0.2005 ( 61) -0.1972 ( 62) -0.1558 ( 64)  0.1524 ( 68) -0.1549 ( 72)
           0.1512 ( 73)  0.1107 ( 74) -0.1178 ( 75) -0.1210 ( 76)  0.1157 ( 77)
           0.1235 ( 95)  0.1235 (102) -0.1446 (107) -0.2529 (108) -0.1415 (109)
          -0.1400 (110) -0.1433 (114)  0.1783 (115)  0.1783 (116)  0.1793 (117)
           0.1789 (120)  0.1747 (121)  0.1782 (122)  0.1601 (125)  0.1578 (126)
           0.1573 (127)  0.1594 (128)
 CRD 15=  -0.2135 (  2)  0.2067 (  4) -0.2154 (  6)  0.1501 ( 10)  0.1516 ( 11)
          -0.1632 ( 14) -0.1641 ( 17)  0.3699 ( 22)  0.3590 ( 25)  0.2119 ( 65)
           0.2024 ( 70)  0.1271 ( 74)  0.1224 ( 75)  0.1185 ( 76)  0.1239 ( 77)
          -0.1256 ( 86) -0.1282 ( 87) -0.1232 ( 89) -0.1216 ( 91)
 CRD 16=   0.4387 ( 22) -0.4406 ( 25) -0.1062 ( 44)  0.1043 ( 50)  0.3358 ( 65)
          -0.3298 ( 70)  0.1343 ( 74)  0.1275 ( 75) -0.1297 ( 76) -0.1346 ( 77)
          -0.1731 ( 86) -0.1666 ( 87)  0.1656 ( 89)  0.1721 ( 91)
 CRD 17=   0.1837 (  2) -0.2358 (  4)  0.1887 (  6) -0.2246 ( 10) -0.2199 ( 11)
           0.2233 ( 14)  0.2161 ( 17)  0.2185 ( 22)  0.2340 ( 25) -0.1050 ( 44)
          -0.1074 ( 50)  0.1028 ( 64)  0.3160 ( 65)  0.1029 ( 68)  0.3249 ( 70)
           0.1029 ( 72)  0.1015 ( 73) -0.1149 ( 86) -0.1204 ( 87) -0.1223 ( 89)
          -0.1236 ( 91)
 CRD 18=   0.1274 ( 55) -0.1248 ( 56)  0.1238 ( 59) -0.1303 ( 63)  0.3366 ( 66)
          -0.3545 ( 67)  0.3572 ( 69) -0.3396 ( 71) -0.1227 ( 86)  0.1260 ( 87)
          -0.1307 ( 89)  0.1204 ( 91) -0.1839 ( 96)  0.1833 ( 99) -0.1388 (118)
          -0.1388 (119)  0.1398 (123)  0.1417 (124)  0.1015 (130)
 CRD 19=  -0.1047 (  2)  0.1023 (  6) -0.2568 ( 10)  0.2589 ( 11)  0.3847 ( 14)
          -0.3861 ( 17)  0.1208 ( 64)  0.2298 ( 65) -0.1500 ( 66) -0.1259 ( 67)
           0.1229 ( 68)  0.1262 ( 69) -0.2365 ( 70)  0.1523 ( 71) -0.1223 ( 72)
          -0.1253 ( 73)  0.1250 ( 88) -0.1255 ( 90)
 CRD 20=  -0.2549 (  2)  0.2997 (  4) -0.2542 (  6)  0.3073 ( 14)  0.3072 ( 17)
          -0.1504 ( 22) -0.1513 ( 25)  0.1919 ( 65) -0.1710 ( 66) -0.1569 ( 67)
          -0.1566 ( 69)  0.1952 ( 70) -0.1755 ( 71)  0.1549 ( 88)  0.1565 ( 90)
 CRD 21=  -0.3356 (  2)  0.3368 (  6) -0.2899 ( 10)  0.2998 ( 11) -0.1237 ( 14)
           0.1212 ( 17)  0.1429 ( 22) -0.1446 ( 25) -0.1012 ( 35)  0.1013 ( 39)
          -0.1113 ( 56)  0.1117 ( 59) -0.1714 ( 65)  0.1564 ( 66)  0.1491 ( 67)
          -0.1491 ( 69)  0.1721 ( 70) -0.1588 ( 71) -0.1437 ( 88)  0.1446 ( 90)
           0.1003 (135) -0.1003 (139)
 CRD 22=   0.1565 ( 35) -0.1641 ( 37)  0.1627 ( 38) -0.1545 ( 39)  0.1380 ( 45)
          -0.1325 ( 47)  0.1319 ( 49) -0.1366 ( 52) -0.1102 ( 55)  0.1007 ( 56)
           0.2032 ( 57) -0.2036 ( 58) -0.1031 ( 59)  0.2054 ( 61) -0.2052 ( 62)
           0.1131 ( 63)  0.1488 ( 66) -0.1352 ( 67)  0.1251 ( 69) -0.1390 ( 71)
          -0.1542 ( 74)  0.1572 ( 75) -0.1588 ( 76)  0.1557 ( 77) -0.1390 ( 92)
          -0.1383 ( 94)  0.1380 (100)  0.1384 (101)  0.1143 (107)  0.1103 (109)
          -0.1109 (110) -0.1153 (114) -0.1586 (115) -0.1562 (116) -0.1550 (117)
           0.1568 (120)  0.1593 (121)  0.1580 (122)
 CRD 23=  -0.1421 ( 32)  0.1062 ( 36) -0.1447 ( 40)  0.1080 ( 41)  0.1790 ( 46)
          -0.1380 ( 48) -0.1366 ( 51)  0.1782 ( 53)  0.1083 ( 55)  0.1039 ( 63)
           0.2306 ( 66) -0.2951 ( 67) -0.2976 ( 69)  0.2337 ( 71) -0.1158 ( 86)
           0.1112 ( 87)  0.1127 ( 89) -0.1175 ( 91)  0.1419 ( 93)  0.1201 ( 97)
           0.1413 ( 98)  0.1197 (103) -0.1339 (104) -0.1639 (105) -0.1683 (106)
          -0.1346 (111) -0.1663 (112) -0.1621 (113)
 CRD 24=  -0.4027 (  4)  0.3664 ( 10)  0.3539 ( 11) -0.1096 ( 22) -0.1045 ( 25)
          -0.1210 ( 36) -0.1236 ( 41)  0.1276 ( 48)  0.1245 ( 51)  0.1056 ( 56)
           0.1017 ( 59)  0.1677 ( 65) -0.1834 ( 66)  0.1575 ( 70) -0.1769 ( 71)
           0.1277 ( 88)  0.1205 ( 90) -0.1031 (136)  0.1009 (137) -0.1045 (141)
           0.1024 (144)
 CRD 25=  -0.3450 (  2)  0.3425 (  6)  0.1190 (  8)  0.1393 (  9)  0.1952 ( 10)
          -0.2011 ( 11) -0.1340 ( 12) -0.1282 ( 13) -0.1687 ( 14)  0.1720 ( 17)
           0.1441 ( 34) -0.1050 ( 37) -0.1433 ( 42)  0.1880 ( 65) -0.1436 ( 66)
          -0.1298 ( 67)  0.1546 ( 69) -0.1912 ( 70)  0.1237 ( 71)  0.1282 ( 88)
          -0.1304 ( 90)
 CRD 26=  -0.1203 ( 15)  0.1142 ( 16)  0.1121 ( 18) -0.1198 ( 19) -0.1044 ( 26)
           0.1022 ( 27)  0.1059 ( 29) -0.1057 ( 35)  0.1078 ( 38) -0.1088 ( 55)
           0.1026 ( 56)  0.1595 ( 57) -0.1644 ( 58) -0.1573 ( 61)  0.1714 ( 62)
          -0.1125 ( 63)  0.1776 ( 66) -0.1833 ( 67) -0.1624 ( 69)  0.1935 ( 71)
          -0.1735 ( 74)  0.1750 ( 75)  0.1783 ( 76) -0.1745 ( 77) -0.1003 ( 86)
           0.1268 ( 95)  0.1261 (102) -0.1421 (108) -0.1215 (129) -0.1187 (130)
          -0.1162 (131) -0.1263 (132)
 CRD 27=   0.1016 ( 32)  0.1816 ( 35) -0.1004 ( 36) -0.1652 ( 37)  0.1682 ( 38)
          -0.1848 ( 39) -0.1032 ( 40) -0.1048 ( 45)  0.1855 ( 46) -0.1959 ( 48)
           0.1966 ( 51)  0.1062 ( 52) -0.1848 ( 53) -0.1768 ( 55)  0.1709 ( 56)
           0.1052 ( 58) -0.1676 ( 59) -0.1040 ( 61)  0.1742 ( 63)  0.2041 ( 64)
          -0.1965 ( 68) -0.2037 ( 72)  0.1954 ( 73)  0.1144 ( 74) -0.1151 ( 75)
           0.1136 ( 76) -0.1130 ( 77) -0.1058 ( 92)  0.1005 (100)  0.1066 (101)
          -0.1082 (105) -0.1099 (106)  0.1097 (112)  0.1082 (113)  0.1008 (118)
           0.1031 (119) -0.1031 (123) -0.1282 (125) -0.1203 (126)  0.1186 (127)
           0.1267 (128)
 CRD 28=   0.2304 ( 32) -0.2321 ( 36) -0.2365 ( 40)  0.2383 ( 41) -0.2454 ( 45)
          -0.1209 ( 46)  0.2530 ( 47)  0.1191 ( 48) -0.2570 ( 49) -0.1131 ( 51)
           0.2499 ( 52)  0.1154 ( 53)  0.1066 ( 57) -0.1088 ( 58)  0.1058 ( 61)
          -0.1041 ( 62) -0.1062 ( 74)  0.1069 ( 75) -0.1031 ( 76)  0.1024 ( 77)
          -0.1322 ( 93) -0.1289 ( 97)  0.1355 ( 98)  0.1319 (103) -0.1557 (107)
          -0.1601 (109)  0.1602 (110)  0.1557 (114)
 CRD 29=   0.1210 ( 32) -0.2090 ( 35) -0.1136 ( 36)  0.2065 ( 37)  0.2097 ( 38)
          -0.2101 ( 39)  0.1142 ( 40) -0.1064 ( 41)  0.1638 ( 46) -0.1661 ( 48)
          -0.1735 ( 51)  0.1700 ( 53) -0.2003 ( 55)  0.2002 ( 56)  0.1964 ( 59)
          -0.1970 ( 63)  0.1879 ( 64) -0.1867 ( 68)  0.1940 ( 72) -0.1920 ( 73)
           0.1279 ( 92)  0.1261 ( 94)  0.1260 (100)  0.1271 (101)  0.1116 (118)
           0.1158 (119)  0.1145 (123)  0.1100 (124) -0.1268 (125) -0.1260 (126)
          -0.1277 (127) -0.1296 (128)
 CRD 30=   0.1301 (  1)  0.1903 (  2)  0.1350 (  3)  0.2942 (  4)  0.1362 (  5)
           0.1941 (  6)  0.1311 (  7) -0.2449 ( 14) -0.2451 ( 17) -0.1133 ( 20)
          -0.1139 ( 21) -0.1142 ( 23) -0.1132 ( 24) -0.1781 ( 33) -0.1776 ( 43)
           0.1561 ( 54) -0.1006 ( 57) -0.1024 ( 58)  0.1561 ( 60) -0.1026 ( 61)
           0.1968 ( 65) -0.1375 ( 66) -0.1365 ( 67) -0.1372 ( 69)  0.1969 ( 70)
          -0.1372 ( 71) -0.1050 ( 78) -0.1062 ( 79)  0.1328 ( 88)  0.1328 ( 90)
 CRD 31=   0.1202 (  2) -0.1188 (  6) -0.1056 (  8) -0.1035 (  9) -0.2205 ( 10)
           0.2208 ( 11)  0.1039 ( 12)  0.1062 ( 13) -0.2438 ( 14) -0.1455 ( 15)
          -0.1455 ( 16)  0.2436 ( 17)  0.1450 ( 18)  0.1459 ( 19) -0.1183 ( 20)
          -0.1212 ( 21)  0.1215 ( 23)  0.1176 ( 24) -0.1493 ( 34)  0.1488 ( 42)
           0.1915 ( 44) -0.1915 ( 50)  0.1736 ( 54) -0.1014 ( 57) -0.1020 ( 58)
          -0.1734 ( 60)  0.1014 ( 61)  0.1011 ( 62)  0.1655 ( 65) -0.1132 ( 66)
          -0.1146 ( 67)  0.1148 ( 69) -0.1653 ( 70)  0.1128 ( 71)  0.1130 ( 82)
          -0.1127 ( 83)  0.1140 ( 88) -0.1138 ( 90)
 CRD 32=  -0.1397 (  1) -0.2000 (  2) -0.1391 (  3) -0.2052 (  4) -0.1404 (  5)
          -0.2005 (  6) -0.1387 (  7) -0.1323 (  8) -0.1317 (  9) -0.1876 ( 10)
          -0.1877 ( 11) -0.1325 ( 12) -0.1311 ( 13) -0.1535 ( 14) -0.1169 ( 15)
          -0.1166 ( 16) -0.1532 ( 17) -0.1174 ( 18) -0.1159 ( 19)  0.2011 ( 33)
           0.1888 ( 34)  0.1890 ( 42)  0.2010 ( 43)  0.1593 ( 44)  0.1590 ( 50)
           0.1156 ( 54)  0.1154 ( 60)  0.1106 ( 78)  0.1113 ( 79)  0.1044 ( 80)
           0.1048 ( 81)
 CRD 33=   0.1267 (  1) -0.1374 (  3)  0.1366 (  5) -0.1292 (  7)  0.1563 (  8)
          -0.1490 (  9)  0.1505 ( 12) -0.1605 ( 13)  0.1042 ( 15) -0.1120 ( 16)
           0.1127 ( 18) -0.1053 ( 19) -0.1706 ( 20)  0.1646 ( 21) -0.1688 ( 23)
           0.1747 ( 24)  0.1093 ( 26) -0.1089 ( 27)  0.1110 ( 29) -0.1119 ( 31)
          -0.1666 ( 66)  0.1647 ( 67) -0.1689 ( 69)  0.1699 ( 71)  0.1008 ( 86)
          -0.1002 ( 87)  0.1022 ( 89) -0.1033 ( 91) -0.1597 ( 96)  0.1608 ( 99)
           0.1637 (104) -0.1666 (111) -0.1025 (118) -0.1021 (119)  0.1005 (121)
           0.1044 (123)  0.1053 (124)  0.1258 (129)  0.1263 (130) -0.1295 (131)
          -0.1294 (132)
 CRD 34=   0.1568 (  1) -0.1490 (  3) -0.1463 (  5)  0.1539 (  7)  0.2230 (  8)
          -0.2265 (  9) -0.2220 ( 12)  0.2178 ( 13) -0.2372 ( 20)  0.2363 ( 21)
           0.2308 ( 23) -0.2319 ( 24)  0.1117 ( 92)  0.1131 ( 94)  0.1011 ( 95)
           0.1154 (100)  0.1142 (101)  0.1025 (102) -0.1160 (108) -0.1170 (115)
          -0.1060 (118) -0.1045 (119) -0.1144 (121) -0.1025 (123) -0.1041 (124)
           0.1219 (129)  0.1229 (130)  0.1200 (131)  0.1191 (132)
 CRD 35=  -0.2357 (  1)  0.2390 (  3) -0.2364 (  5)  0.2332 (  7) -0.2048 ( 15)
           0.2017 ( 16) -0.2036 ( 18)  0.2068 ( 19) -0.2356 ( 20)  0.2371 ( 21)
          -0.2375 ( 23)  0.2360 ( 24)  0.1019 ( 93)  0.1029 ( 97) -0.1032 ( 98)
          -0.1043 (103)
 CRD 36=  -0.1762 ( 22) -0.5067 ( 26) -0.5071 ( 27) -0.4813 ( 28)  0.1911 ( 65)
           0.1753 ( 66)  0.1753 ( 67) -0.1922 ( 86) -0.1919 ( 87) -0.1829 ( 88)
 CRD 37=   0.1763 ( 25)  0.5072 ( 29)  0.4816 ( 30)  0.5066 ( 31) -0.1753 ( 69)
          -0.1908 ( 70) -0.1753 ( 71)  0.1917 ( 89)  0.1828 ( 90)  0.1920 ( 91)
 CRD 38=   0.2173 (  8) -0.2147 (  9) -0.2134 ( 12)  0.2163 ( 13)  0.2690 ( 15)
          -0.2700 ( 16) -0.2705 ( 18)  0.2690 ( 19)  0.2022 ( 20) -0.2045 ( 21)
          -0.2043 ( 23)  0.2021 ( 24)
 CRD 39=   0.2641 (  1) -0.2639 (  3)  0.2635 (  5) -0.2634 (  7) -0.2478 (  8)
           0.2488 (  9) -0.2487 ( 12)  0.2478 ( 13) -0.2145 ( 15)  0.2165 ( 16)
          -0.2169 ( 18)  0.2143 ( 19) -0.1439 ( 20)  0.1458 ( 21) -0.1457 ( 23)
           0.1438 ( 24)
 CRD 40=  -0.1141 ( 32) -0.1003 ( 35)  0.1142 ( 36)  0.1003 ( 37)  0.1009 ( 38)
          -0.1009 ( 39) -0.1130 ( 40)  0.1131 ( 41)  0.1193 ( 45) -0.1191 ( 47)
          -0.1184 ( 49)  0.1186 ( 52) -0.1155 ( 55)  0.1158 ( 56)  0.1162 ( 59)
          -0.1158 ( 63) -0.1050 ( 64)  0.1054 ( 68) -0.1037 ( 72)  0.1040 ( 73)
          -0.1452 (133) -0.1391 (134) -0.1448 (135) -0.1396 (136) -0.1393 (137)
          -0.1445 (138) -0.1448 (139) -0.1398 (140) -0.1399 (141) -0.1396 (142)
          -0.1402 (143) -0.1398 (144) -0.1256 (145) -0.1252 (146) -0.1258 (147)
          -0.1254 (148) -0.1243 (149) -0.1240 (150) -0.1245 (151) -0.1242 (152)
          -0.1017 (153) -0.1019 (154) -0.1018 (155) -0.1020 (156) -0.1007 (157)
          -0.1005 (158) -0.1006 (159) -0.1004 (160)
 CRD 41=  -0.1493 (  1)  0.1498 (  3) -0.1520 (  5)  0.1513 (  7) -0.1075 ( 46)
           0.1079 ( 48) -0.1077 ( 51)  0.1071 ( 53) -0.1049 ( 64)  0.1051 ( 68)
           0.1051 ( 72) -0.1052 ( 73)  0.1088 ( 74) -0.1088 ( 75)  0.1091 ( 76)
          -0.1091 ( 77) -0.1429 (145) -0.1425 (146) -0.1433 (147) -0.1429 (148)
           0.1437 (149)  0.1434 (150)  0.1441 (151)  0.1438 (152) -0.1501 (153)
          -0.1503 (154) -0.1505 (155) -0.1506 (156)  0.1505 (157)  0.1503 (158)
           0.1500 (159)  0.1498 (160)
 CRD 42=  -0.1820 ( 20) -0.1818 ( 21) -0.2882 ( 26) -0.2919 ( 27)  0.6344 ( 28)
           0.1571 ( 86)  0.1592 ( 87) -0.3274 ( 88)  0.1689 (116) -0.1702 (117)
          -0.1525 (162)  0.1866 (163) -0.1880 (165)  0.1511 (166)
 CRD 43=   0.1842 ( 23)  0.1844 ( 24)  0.2913 ( 29) -0.6337 ( 30)  0.2877 ( 31)
          -0.1590 ( 89)  0.3272 ( 90) -0.1568 ( 91)  0.1701 (120) -0.1685 (122)
          -0.1503 (167)  0.1883 (169) -0.1866 (170)  0.1519 (172)
 CRD 44=  -0.4334 ( 26)  0.4315 ( 27)  0.3244 ( 29) -0.3258 ( 31)  0.2334 ( 86)
          -0.2326 ( 87) -0.1747 ( 89)  0.1751 ( 91) -0.1901 (115) -0.1453 (121)
          -0.1891 (161) -0.1890 (164) -0.1459 (168) -0.1462 (171)
 CRD 45=  -0.3319 ( 26)  0.3296 ( 27) -0.4352 ( 29)  0.4385 ( 31)  0.1797 ( 86)
          -0.1787 ( 87)  0.2356 ( 89) -0.2370 ( 91) -0.1366 (115)  0.1833 (121)
          -0.1307 (161) -0.1305 (164)  0.1773 (168)  0.1776 (171)
 CRD 46=   0.1400 (  8) -0.1431 (  9) -0.1366 ( 12)  0.1532 ( 13) -0.1020 ( 18)
           0.1610 (133)  0.1585 (135)  0.1580 (138)  0.1604 (139) -0.1536 (153)
          -0.1547 (154) -0.1529 (155) -0.1540 (156) -0.1557 (157) -0.1560 (158)
          -0.1540 (159) -0.1542 (160) -0.1205 (162) -0.1222 (163) -0.1216 (165)
          -0.1232 (166) -0.1223 (167) -0.1211 (169) -0.1221 (170) -0.1209 (172)
 CRD 47=  -0.3041 (  1) -0.3020 (  3)  0.3090 (  5)  0.3069 (  7) -0.2598 (  8)
          -0.2544 (  9)  0.2742 ( 12)  0.2701 ( 13)  0.1859 ( 15)  0.1879 ( 16)
          -0.1905 ( 18) -0.1952 ( 19)
 CRD 48=   0.1174 (  5)  0.1161 (  7) -0.2661 (  8) -0.2679 (  9) -0.2695 ( 12)
          -0.2675 ( 13)  0.3005 ( 15)  0.2983 ( 16)  0.2906 ( 18)  0.2929 ( 19)
          -0.1737 ( 20) -0.1719 ( 21) -0.1733 ( 23) -0.1749 ( 24)  0.1005 ( 82)
 CRD 49=   0.2476 (  1)  0.2467 (  3) -0.2598 (  5) -0.2617 (  7)  0.2729 ( 15)
           0.2738 ( 16) -0.2581 ( 18) -0.2588 ( 19) -0.2403 ( 20) -0.2386 ( 21)
           0.2377 ( 23)  0.2396 ( 24)
 CRD 50=  -0.1776 (  1) -0.1804 (  3) -0.1991 (  5) -0.1969 (  7)  0.2301 (  8)
           0.2287 (  9)  0.2625 ( 12)  0.2642 ( 13)  0.1132 ( 15)  0.1157 ( 16)
           0.1152 ( 18)  0.1122 ( 19) -0.2556 ( 20) -0.2546 ( 21) -0.2924 ( 23)
          -0.2937 ( 24)  0.1023 ( 81) -0.1106 ( 85)
 CRD 51=   0.1934 (  1)  0.1912 (  3) -0.1694 (  5) -0.1723 (  7) -0.2688 (  8)
          -0.2697 (  9)  0.2359 ( 12)  0.2336 ( 13)  0.2923 ( 20)  0.2922 ( 21)
          -0.2547 ( 23) -0.2548 ( 24) -0.1117 ( 80)  0.1195 ( 84) -0.1048 ( 85)
 CRD 52=  -0.2535 (  1) -0.2563 (  3) -0.2417 (  5) -0.2389 (  7)  0.2295 ( 15)
           0.2260 ( 16)  0.2391 ( 18)  0.2424 ( 19)  0.2403 ( 20)  0.2415 ( 21)
           0.2402 ( 23)  0.2391 ( 24) -0.1139 ( 78) -0.1089 ( 79)  0.1026 ( 82)
           0.1076 ( 83)  0.1066 ( 84)  0.1067 ( 85)
 CRD 53=   0.1001 (  1) -0.2361 (  8) -0.2342 (  9)  0.2314 ( 12)  0.2334 ( 13)
          -0.2678 ( 15) -0.2673 ( 16)  0.2768 ( 18)  0.2766 ( 19) -0.1809 ( 20)
          -0.1823 ( 21)  0.1815 ( 23)  0.1803 ( 24) -0.1116 ( 80)  0.1119 ( 81)
          -0.1283 ( 82)  0.1317 ( 83)
 CRD 54=   0.2650 (  1)  0.2662 (  3)  0.2601 (  5)  0.2589 (  7)  0.2413 (  8)
           0.2442 (  9)  0.2296 ( 12)  0.2267 ( 13)  0.1815 ( 15)  0.1840 ( 16)
           0.1797 ( 18)  0.1769 ( 19)  0.1019 ( 20)  0.1027 ( 21)  0.1317 ( 78)
           0.1305 ( 79)  0.1202 ( 80)  0.1146 ( 81) -0.1010 (138)
 CRD 55=   0.1114 (  1) -0.1109 (  3)  0.1180 (  5) -0.1185 (  7)  0.1438 ( 15)
          -0.1462 ( 16)  0.1391 ( 18) -0.1378 ( 19)  0.1091 (118)  0.1092 (119)
          -0.1069 (123) -0.1068 (124) -0.1601 (134) -0.1602 (136) -0.1600 (137)
          -0.1601 (140)  0.1615 (141)  0.1614 (142)  0.1613 (143)  0.1613 (144)
          -0.1164 (153) -0.1168 (154) -0.1166 (155) -0.1169 (156)  0.1151 (157)
           0.1147 (158)  0.1150 (159)  0.1145 (160) -0.1158 (161) -0.1330 (162)
          -0.1333 (163) -0.1161 (164) -0.1333 (165) -0.1335 (166)  0.1303 (167)
           0.1131 (168)  0.1299 (169)  0.1301 (170)  0.1129 (171)  0.1297 (172)
 CRD 56=  -0.1491 (  8)  0.1493 (  9)  0.1571 ( 12) -0.1565 ( 13)  0.1906 ( 15)
          -0.1918 ( 16) -0.1998 ( 18)  0.1993 ( 19)  0.1244 ( 92)  0.1244 ( 94)
           0.1193 (100)  0.1193 (101)  0.1090 (125)  0.1094 (126)  0.1142 (127)
           0.1137 (128) -0.1401 (133) -0.1397 (135) -0.1392 (138) -0.1397 (139)
           0.1752 (145)  0.1752 (146)  0.1757 (147)  0.1756 (148)  0.1830 (149)
           0.1829 (150)  0.1835 (151)  0.1834 (152) -0.1017 (162) -0.1018 (163)
          -0.1021 (165) -0.1022 (166) -0.1095 (167) -0.1093 (169) -0.1091 (170)
          -0.1089 (172)
 CRD 57=  -0.3117 (  1)  0.3117 (  3)  0.3138 (  5) -0.3139 (  7)  0.2068 (  8)
          -0.2067 (  9) -0.2016 ( 12)  0.2014 ( 13) -0.1210 ( 15)  0.1211 ( 16)
           0.1152 ( 18) -0.1153 ( 19) -0.1645 (133)  0.1107 (134) -0.1645 (135)
           0.1112 (136)  0.1101 (137) -0.1645 (138) -0.1645 (139)  0.1106 (140)
           0.1116 (141)  0.1112 (142)  0.1111 (143)  0.1107 (144)
 CRD 58=  -0.1150 (  1)  0.1152 (  3) -0.1062 (  5)  0.1060 (  7) -0.2507 (  8)
           0.2509 (  9) -0.2514 ( 12)  0.2508 ( 13)  0.2383 ( 15) -0.2391 ( 16)
           0.2353 ( 18) -0.2351 ( 19) -0.1352 ( 20)  0.1352 ( 21) -0.1354 ( 23)
           0.1353 ( 24)  0.1104 (134)  0.1099 (136)  0.1113 (137)  0.1108 (140)
          -0.1087 (141) -0.1091 (142) -0.1096 (143) -0.1100 (144)  0.1285 (145)
           0.1282 (146)  0.1286 (147)  0.1283 (148) -0.1241 (149) -0.1237 (150)
          -0.1242 (151) -0.1238 (152)
 CRD 59=  -0.1293 (  1)  0.1292 (  3)  0.1260 (  5) -0.1260 (  7)  0.1385 ( 15)
          -0.1388 ( 16) -0.1451 ( 18)  0.1450 ( 19) -0.2395 ( 20)  0.2397 ( 21)
           0.2553 ( 23) -0.2544 ( 24)  0.1080 (115)  0.1022 (120)  0.1153 (121)
           0.1020 (122) -0.1012 (153) -0.1012 (154) -0.1019 (155) -0.1019 (156)
          -0.1079 (157) -0.1079 (158) -0.1072 (159) -0.1072 (160)  0.1619 (161)
           0.1492 (162)  0.1491 (163)  0.1618 (164)  0.1492 (165)  0.1491 (166)
           0.1595 (167)  0.1727 (168)  0.1596 (169)  0.1595 (170)  0.1727 (171)
           0.1596 (172)
 CRD 60=  -0.2329 ( 20)  0.2332 ( 21) -0.2184 ( 23)  0.2176 ( 24)  0.1265 (115)
           0.1154 (116)  0.1155 (117) -0.1081 (120) -0.1182 (121) -0.1080 (122)
           0.1848 (161)  0.1737 (162)  0.1736 (163)  0.1849 (164)  0.1738 (165)
           0.1737 (166) -0.1626 (167) -0.1728 (168) -0.1627 (169) -0.1625 (170)
          -0.1727 (171) -0.1625 (172)
 CRD 61=   0.1066 ( 28) -0.1049 ( 30)  0.1371 ( 32) -0.1256 ( 35)  0.1380 ( 36)
          -0.1267 ( 37)  0.1277 ( 38)  0.1270 ( 39) -0.1375 ( 40) -0.1383 ( 41)
          -0.1394 ( 45)  0.1076 ( 46) -0.1387 ( 47)  0.1084 ( 48)  0.1392 ( 49)
          -0.1075 ( 51)  0.1400 ( 52) -0.1068 ( 53) -0.1318 ( 55) -0.1327 ( 56)
           0.1315 ( 59)  0.1306 ( 63) -0.1138 ( 64) -0.1141 ( 68)  0.1131 ( 72)
           0.1137 ( 73) -0.1004 ( 74) -0.1003 ( 75) -0.1616 (135) -0.1561 (136)
           0.1557 (137)  0.1615 (139)  0.1568 (141) -0.1566 (144)  0.1393 (145)
          -0.1398 (148) -0.1386 (149)  0.1393 (152)  0.1244 (154) -0.1253 (155)
           0.1237 (158) -0.1226 (159)
 CRD 62=   0.1815 ( 28)  0.1808 ( 30)  0.1257 ( 46)  0.1268 ( 48)  0.1276 ( 51)
           0.1267 ( 53)  0.1191 ( 57)  0.1194 ( 58)  0.1191 ( 61)  0.1186 ( 62)
          -0.1160 ( 64)  0.1376 ( 65)  0.1059 ( 66)  0.1061 ( 67) -0.1163 ( 68)
           0.1057 ( 69)  0.1371 ( 70)  0.1053 ( 71) -0.1171 ( 72) -0.1176 ( 73)
          -0.1472 ( 74) -0.1469 ( 75) -0.1467 ( 76) -0.1467 ( 77) -0.1450 ( 86)
          -0.1452 ( 87) -0.1448 ( 89) -0.1443 ( 91)  0.1209 (145) -0.1207 (148)
           0.1219 (149) -0.1219 (152)  0.1645 (154) -0.1652 (155) -0.1655 (158)
           0.1646 (159)
 CRD 63=  -0.1304 ( 10)  0.1303 ( 11) -0.1228 ( 22)  0.1233 ( 25)  0.1294 ( 26)
           0.1291 ( 27)  0.1933 ( 28) -0.1294 ( 29) -0.1942 ( 30) -0.1299 ( 31)
          -0.1081 ( 32) -0.1089 ( 36)  0.1083 ( 40)  0.1091 ( 41)  0.1188 ( 45)
           0.1181 ( 47) -0.1186 ( 49) -0.1194 ( 52)  0.1604 ( 65)  0.1393 ( 66)
           0.1394 ( 67) -0.1401 ( 69) -0.1612 ( 70) -0.1399 ( 71) -0.1149 ( 74)
          -0.1146 ( 75)  0.1153 ( 76)  0.1156 ( 77) -0.1702 ( 86) -0.1704 ( 87)
          -0.1193 ( 88)  0.1713 ( 89)  0.1196 ( 90)  0.1709 ( 91)  0.1336 (135)
          -0.1336 (139)  0.1007 (144)  0.1011 (154) -0.1011 (155)  0.1027 (158)
          -0.1028 (159)
 CRD 64=   0.1645 (  4) -0.1381 ( 14) -0.1382 ( 17) -0.2296 ( 22) -0.2303 ( 25)
           0.1414 ( 26)  0.1414 ( 27)  0.1369 ( 28)  0.1419 ( 29)  0.1372 ( 30)
           0.1417 ( 31) -0.1189 ( 35) -0.1203 ( 37) -0.1211 ( 38) -0.1200 ( 39)
           0.1135 ( 55)  0.1139 ( 56)  0.1132 ( 59)  0.1127 ( 63)  0.1017 ( 64)
           0.1428 ( 65)  0.1412 ( 66)  0.1412 ( 67)  0.1025 ( 68)  0.1417 ( 69)
           0.1433 ( 70)  0.1417 ( 71)  0.1018 ( 72)  0.1028 ( 73) -0.1471 ( 86)
          -0.1472 ( 87) -0.1508 ( 88) -0.1475 ( 89) -0.1513 ( 90) -0.1476 ( 91)
          -0.1010 (136)  0.1003 (137) -0.1002 (141) -0.1243 (145)  0.1251 (148)
          -0.1244 (149)  0.1252 (152)
 CRD 65=   0.1837 (  2) -0.1828 (  6) -0.1327 ( 10)  0.1349 ( 11)  0.2878 ( 22)
          -0.2887 ( 25) -0.1380 ( 26) -0.1385 ( 27)  0.1393 ( 29)  0.1381 ( 31)
           0.1064 ( 45)  0.1142 ( 46)  0.1055 ( 47)  0.1147 ( 48) -0.1069 ( 49)
          -0.1158 ( 51) -0.1077 ( 52) -0.1153 ( 53) -0.1176 ( 64) -0.1047 ( 65)
          -0.1137 ( 66) -0.1137 ( 67) -0.1182 ( 68)  0.1140 ( 69)  0.1049 ( 70)
           0.1141 ( 71)  0.1183 ( 72)  0.1190 ( 73)  0.1671 ( 88) -0.1678 ( 90)
           0.1146 (135) -0.1145 (139)
 CRD 66=  -0.2194 (  4)  0.1995 ( 10)  0.1978 ( 11)  0.1238 ( 14)  0.1210 ( 17)
          -0.2585 ( 22) -0.2544 ( 25)  0.1305 ( 26)  0.1318 ( 27)  0.1302 ( 29)
           0.1278 ( 31) -0.1077 ( 55) -0.1092 ( 56) -0.1170 ( 57) -0.1174 ( 58)
          -0.1076 ( 59) -0.1155 ( 61) -0.1152 ( 62) -0.1061 ( 63) -0.1758 ( 88)
          -0.1730 ( 90)  0.1068 (136) -0.1073 (137)  0.1072 (141) -0.1072 (144)
          -0.1582 (162)  0.1588 (166)  0.1563 (167) -0.1559 (172)
 CRD 67=  -0.1325 (  1)  0.1343 (  3)  0.1346 (  5) -0.1329 (  7)  0.1169 ( 15)
          -0.1129 ( 16) -0.1124 ( 18)  0.1165 ( 19) -0.1941 ( 20)  0.1925 ( 21)
           0.1920 ( 23) -0.1938 ( 24) -0.1524 ( 26)  0.1522 ( 27)  0.1511 ( 29)
          -0.1521 ( 31) -0.1163 ( 86)  0.1158 ( 87)  0.1153 ( 89) -0.1159 ( 91)
           0.1217 (115)  0.1212 (121)  0.1144 (133)  0.1170 (135)  0.1196 (138)
           0.1171 (139)  0.1386 (153)  0.1390 (154)  0.1349 (155)  0.1352 (156)
           0.1348 (157)  0.1343 (158)  0.1386 (159)  0.1381 (160) -0.1444 (162)
          -0.1447 (163) -0.1426 (165) -0.1429 (166) -0.1426 (167) -0.1417 (169)
          -0.1445 (170) -0.1436 (172)
 CRD 68=   0.1574 ( 15) -0.1552 ( 16)  0.1559 ( 18) -0.1578 ( 19) -0.1813 ( 20)
           0.1807 ( 21) -0.1814 ( 23)  0.1823 ( 24) -0.1308 ( 26)  0.1300 ( 27)
          -0.1302 ( 29)  0.1312 ( 31) -0.1226 (145) -0.1216 (146) -0.1204 (147)
          -0.1194 (148)  0.1228 (149)  0.1220 (150)  0.1205 (151)  0.1197 (152)
           0.1580 (153)  0.1583 (154)  0.1560 (155)  0.1563 (156) -0.1570 (157)
          -0.1566 (158) -0.1589 (159) -0.1585 (160) -0.1341 (162) -0.1349 (163)
          -0.1335 (165) -0.1343 (166)  0.1346 (167)  0.1337 (169)  0.1355 (170)
           0.1345 (172)
 CRD 69=  -0.2115 (  2)  0.2107 (  6) -0.2389 ( 14)  0.2414 ( 17)  0.1144 ( 22)
          -0.1169 ( 25) -0.1078 ( 26) -0.1201 ( 27)  0.1641 ( 28)  0.1219 ( 29)
          -0.1656 ( 30)  0.1089 ( 31)  0.1176 ( 57)  0.1133 ( 58) -0.1149 ( 61)
          -0.1192 ( 62) -0.1212 ( 84)  0.1219 ( 85)  0.1662 ( 88) -0.1684 ( 90)
          -0.1070 (135)  0.1085 (139)  0.1982 (162) -0.1020 (164) -0.1915 (166)
           0.1939 (167)  0.1038 (168) -0.2001 (172)
 CRD 70=   0.1881 (  1) -0.1878 (  3) -0.1878 (  5)  0.1869 (  7) -0.1514 (  8)
           0.1529 (  9)  0.1533 ( 12) -0.1524 ( 13)  0.1027 ( 15) -0.1039 ( 16)
          -0.1043 ( 18)  0.1030 ( 19) -0.1781 (133)  0.1643 (134) -0.1798 (135)
           0.1639 (136)  0.1637 (137) -0.1803 (138) -0.1786 (139)  0.1632 (140)
           0.1627 (141)  0.1641 (142)  0.1622 (143)  0.1636 (144) -0.1245 (145)
          -0.1250 (146) -0.1252 (147) -0.1257 (148) -0.1245 (149) -0.1253 (150)
          -0.1253 (151) -0.1262 (152)
 CRD 71=  -0.1102 (  1)  0.1116 (  7) -0.1989 (  8)  0.1968 (  9) -0.1971 ( 12)
           0.1996 ( 13)  0.1009 ( 20) -0.1027 ( 21)  0.1037 ( 23) -0.1019 ( 24)
           0.1563 ( 26) -0.1477 ( 27)  0.1474 ( 29) -0.1574 ( 31)  0.1182 ( 86)
          -0.1154 ( 87)  0.1156 ( 89) -0.1188 ( 91) -0.1175 ( 96)  0.1173 ( 99)
          -0.1701 (115)  0.1706 (121) -0.1274 (134) -0.1301 (136) -0.1191 (137)
          -0.1218 (140)  0.1307 (141)  0.1279 (142)  0.1229 (143)  0.1201 (144)
          -0.1142 (145) -0.1193 (146) -0.1130 (147) -0.1181 (148)  0.1138 (149)
           0.1195 (150)  0.1122 (151)  0.1179 (152)
 CRD 72=   0.1625 (  4) -0.1943 ( 10) -0.1920 ( 11)  0.1455 ( 14)  0.1517 ( 17)
          -0.1023 ( 20) -0.1046 ( 21)  0.1012 ( 22) -0.1015 ( 23) -0.1998 ( 28)
          -0.1975 ( 30)  0.1038 ( 46)  0.1065 ( 48)  0.1036 ( 51)  0.1010 ( 53)
          -0.1151 ( 82) -0.1057 ( 83)  0.1689 ( 84)  0.1640 ( 85) -0.1195 ( 88)
          -0.1207 ( 90) -0.1004 (117) -0.1001 (120)  0.1663 (154) -0.1691 (155)
          -0.1608 (158)  0.1581 (159) -0.1783 (162)  0.1793 (166)  0.1777 (167)
          -0.1769 (172)
 CRD 73=  -0.1189 (  1) -0.1243 (  3)  0.1240 (  5)  0.1199 (  7) -0.1099 (  8)
          -0.1180 (  9)  0.1186 ( 12)  0.1110 ( 13) -0.1010 ( 14)  0.1070 ( 22)
          -0.1132 ( 25)  0.2025 ( 78) -0.2029 ( 79)  0.1885 ( 80) -0.1901 ( 81)
          -0.1385 ( 82)  0.1457 ( 83) -0.1076 (118)  0.1079 (119) -0.1050 (123)
           0.1056 (124) -0.1015 (125)  0.1035 (126) -0.1060 (127)  0.1036 (128)
           0.1727 (135) -0.1747 (136)  0.1803 (137) -0.1733 (139)  0.1779 (141)
          -0.1829 (144) -0.1650 (145)  0.1700 (148)  0.1681 (149) -0.1727 (152)
          -0.1001 (155)  0.1107 (158) -0.1091 (159)
 CRD 74=   0.1271 (  2) -0.2303 (  4)  0.1273 (  6) -0.1238 (  8) -0.1145 (  9)
          -0.1142 ( 12) -0.1236 ( 13) -0.1887 ( 14)  0.1096 ( 15) -0.1884 ( 17)
           0.1096 ( 19)  0.1200 ( 22)  0.1190 ( 25)  0.1936 ( 80)  0.1933 ( 81)
          -0.1679 ( 82) -0.1674 ( 83)  0.1042 ( 92) -0.1047 ( 94) -0.1047 (100)
           0.1046 (101)  0.1558 (136) -0.1555 (137)  0.1555 (141) -0.1549 (144)
          -0.1965 (145)  0.1877 (148) -0.1960 (149)  0.1869 (152)
 CRD 75=  -0.2152 (  2)  0.2150 (  6) -0.2099 ( 10)  0.2108 ( 11)  0.1795 ( 22)
          -0.1805 ( 25) -0.1466 ( 28)  0.1472 ( 30) -0.1475 ( 78)  0.1471 ( 79)
          -0.1035 ( 82)  0.1059 ( 83)  0.1387 ( 84) -0.1398 ( 85) -0.1751 (135)
          -0.1005 (137)  0.1754 (139)  0.1002 (144)  0.1490 (154) -0.1488 (155)
           0.1508 (158) -0.1508 (159) -0.1069 (162)  0.1103 (166) -0.1106 (167)
           0.1077 (172)
 CRD 76=   0.1188 (  1) -0.1217 (  3) -0.1239 (  5)  0.1196 (  7) -0.1460 ( 15)
           0.1589 ( 16)  0.1575 ( 18) -0.1431 ( 19) -0.1839 ( 26)  0.1770 ( 27)
           0.1742 ( 29) -0.1827 ( 31) -0.1361 ( 86)  0.1385 ( 87)  0.1366 ( 89)
          -0.1351 ( 91) -0.1429 ( 95) -0.1439 (102)  0.1536 (108)  0.1948 (115)
           0.1928 (121) -0.1033 (138)  0.1004 (146)  0.1006 (150)  0.1495 (161)
           0.1517 (164)  0.1499 (168)  0.1477 (171)
 CRD 77=  -0.1314 (  2)  0.1750 (  4) -0.1290 (  6)  0.1290 ( 14)  0.1207 ( 17)
          -0.1938 ( 22) -0.1919 ( 25)  0.1261 ( 28)  0.1310 ( 30) -0.1008 ( 32)
          -0.1054 ( 36) -0.1047 ( 40) -0.1083 ( 41)  0.1193 ( 45)  0.1090 ( 47)
           0.1110 ( 49)  0.1210 ( 52)  0.1084 ( 74)  0.1020 ( 75)  0.1027 ( 76)
           0.1084 ( 77)  0.1108 ( 80)  0.1144 ( 81)  0.1016 (109)  0.1044 (110)
          -0.1001 (114) -0.2065 (133) -0.1096 (134)  0.1960 (138)  0.1128 (140)
           0.1029 (143)  0.1454 (153) -0.1522 (156) -0.1523 (157)  0.1463 (160)
 CRD 78=   0.1394 ( 10) -0.1410 ( 11) -0.1335 ( 14)  0.1394 ( 17)  0.1022 ( 28)
          -0.1038 ( 37)  0.1043 ( 38)  0.1007 ( 39) -0.1186 ( 55) -0.1160 ( 56)
           0.1148 ( 59)  0.1173 ( 63) -0.1309 ( 78)  0.1292 ( 79) -0.1461 ( 82)
           0.1435 ( 83) -0.1157 ( 92)  0.1186 ( 94) -0.1182 (100)  0.1155 (101)
           0.1058 (118) -0.1065 (119)  0.1039 (123) -0.1026 (124)  0.1874 (134)
          -0.1858 (140) -0.1935 (142)  0.1919 (143)  0.1551 (146) -0.1606 (147)
          -0.1577 (150)  0.1646 (151)  0.1035 (165)
 CRD 79=   0.1390 (  2) -0.1404 (  6)  0.1921 ( 10) -0.1892 ( 11) -0.1867 ( 14)
           0.1858 ( 17)  0.1851 ( 22) -0.1852 ( 25) -0.1430 ( 28)  0.1425 ( 30)
          -0.1142 ( 46) -0.1039 ( 48)  0.1032 ( 51)  0.1134 ( 53)  0.1094 ( 57)
           0.1121 ( 58) -0.1116 ( 61) -0.1090 ( 62)  0.1001 ( 64) -0.1111 ( 74)
          -0.1219 ( 75)  0.1218 ( 76)  0.1111 ( 77)  0.1011 (130) -0.1001 (131)
          -0.1912 (153)  0.1829 (156) -0.1823 (157)  0.1908 (160)  0.1276 (163)
          -0.1331 (165)  0.1326 (169) -0.1269 (170)
 CRD 80=  -0.2484 (  2)  0.2985 (  4) -0.2470 (  6)  0.1679 ( 10)  0.1696 ( 11)
          -0.1417 ( 14) -0.1421 ( 17)  0.1006 ( 22)  0.1016 ( 25) -0.1032 ( 32)
           0.1184 ( 35) -0.1041 ( 36)  0.1212 ( 37)  0.1202 ( 38)  0.1178 ( 39)
          -0.1035 ( 40) -0.1041 ( 41) -0.1050 ( 55) -0.1054 ( 56) -0.1058 ( 59)
          -0.1058 ( 63) -0.1235 (134)  0.1243 (140) -0.1225 (142)  0.1235 (143)
           0.1764 (146) -0.1792 (147)  0.1766 (150) -0.1802 (151)
 CRD 81=  -0.1018 (  1)  0.1052 (  3) -0.1054 (  5)  0.1016 (  7) -0.1084 ( 15)
           0.1245 ( 16) -0.1266 ( 18)  0.1092 ( 19) -0.1680 ( 26)  0.1487 ( 27)
          -0.1514 ( 29)  0.1720 ( 31)  0.1056 ( 67) -0.1080 ( 69) -0.1275 ( 86)
           0.1106 ( 87) -0.1129 ( 89)  0.1305 ( 91) -0.1593 ( 96)  0.1605 ( 99)
           0.1676 (104) -0.1706 (111)  0.1298 (115) -0.1324 (121)  0.1758 (161)
           0.1964 (164) -0.2007 (168) -0.1795 (171)
 CRD 82=   0.1703 ( 10)  0.1705 ( 11) -0.1522 ( 28) -0.1536 ( 30)  0.1025 ( 65)
           0.1033 ( 70) -0.1084 ( 78) -0.1079 ( 79)  0.1219 ( 82)  0.1228 ( 83)
          -0.1078 ( 88) -0.1087 ( 90)  0.1029 (116) -0.1105 (117) -0.1119 (120)
           0.1034 (122) -0.1859 (133)  0.1850 (138) -0.1027 (146)  0.1030 (147)
          -0.1032 (150)  0.1039 (151)  0.1902 (163) -0.1932 (165) -0.1952 (169)
           0.1917 (170)
 CRD 83=  -0.1116 (  2)  0.1104 (  6) -0.1062 (  8)  0.1063 ( 13)  0.1002 ( 20)
          -0.1006 ( 24) -0.1106 ( 28)  0.1101 ( 30)  0.1161 ( 34) -0.1168 ( 42)
           0.1111 ( 54) -0.1105 ( 60)  0.1068 ( 65) -0.1064 ( 70)  0.1581 ( 80)
          -0.1578 ( 81) -0.1467 ( 84)  0.1465 ( 85)  0.1638 (134) -0.1706 (140)
          -0.1646 (142)  0.1713 (143) -0.1112 (146)  0.1105 (147)  0.1104 (150)
          -0.1097 (151)  0.1138 (161)  0.1877 (163) -0.1899 (165)  0.1897 (169)
          -0.1870 (170) -0.1152 (171)
 CRD 84=  -0.1006 (  3)  0.1406 (  4) -0.1000 (  5) -0.1368 ( 14) -0.1371 ( 17)
           0.1148 ( 21)  0.1144 ( 23) -0.1242 ( 33) -0.1247 ( 43)  0.1396 ( 54)
           0.1393 ( 60)  0.1398 ( 78)  0.1396 ( 79) -0.1563 ( 84) -0.1565 ( 85)
           0.1722 (133) -0.1155 (134) -0.1872 (138)  0.1106 (140) -0.1147 (142)
           0.1092 (143)  0.1671 (153) -0.1545 (156) -0.1544 (157)  0.1670 (160)
           0.1653 (163) -0.1174 (164) -0.1664 (165) -0.1167 (168) -0.1664 (169)
           0.1650 (170)
 CRD 85=  -0.1266 (  8)  0.1249 (  9)  0.1231 ( 12) -0.1254 ( 13)  0.1347 ( 20)
          -0.1127 ( 21) -0.1130 ( 23)  0.1324 ( 24) -0.1127 ( 26)  0.1209 ( 27)
           0.1186 ( 29) -0.1121 ( 31) -0.1019 ( 66) -0.1002 ( 71)  0.1001 ( 74)
           0.1168 ( 92)  0.1284 ( 95)  0.1010 (100)  0.1192 (101)  0.1289 (102)
           0.1501 (104) -0.1614 (108)  0.1473 (111) -0.1342 (116) -0.1458 (117)
          -0.1104 (118) -0.1341 (119) -0.1433 (120) -0.1341 (122) -0.1331 (123)
          -0.1085 (124)  0.1316 (129)  0.1101 (130)  0.1104 (131)  0.1298 (132)
           0.1888 (161)  0.1685 (164)  0.1677 (168)  0.1856 (171)
 CRD 86=  -0.1400 ( 10)  0.1399 ( 11) -0.1516 ( 14)  0.1516 ( 17) -0.1184 ( 34)
           0.1188 ( 42)  0.1501 ( 44) -0.1505 ( 50)  0.1308 ( 54) -0.1311 ( 60)
          -0.1178 ( 80)  0.1176 ( 81) -0.1499 ( 82)  0.1502 ( 83) -0.1299 ( 84)
           0.1304 ( 85) -0.1037 (134)  0.1019 (140)  0.1044 (142) -0.1030 (143)
           0.1724 (146) -0.1700 (147) -0.1718 (150)  0.1708 (151)  0.1776 (153)
          -0.1764 (156)  0.1773 (157) -0.1781 (160)  0.1251 (163) -0.1260 (165)
           0.1261 (169) -0.1251 (170)
 CRD 87=   0.1488 (  2)  0.1560 (  4)  0.1492 (  6)  0.1289 ( 10)  0.1295 ( 11)
          -0.1556 ( 33) -0.1423 ( 34) -0.1424 ( 42) -0.1557 ( 43) -0.1158 ( 44)
          -0.1159 ( 50)  0.1439 ( 78)  0.1440 ( 79)  0.1317 ( 80)  0.1317 ( 81)
           0.1075 ( 82)  0.1076 ( 83)  0.1818 (133) -0.1751 (134) -0.1829 (138)
           0.1747 (140) -0.1749 (142)  0.1747 (143) -0.1517 (146)  0.1521 (147)
          -0.1514 (150)  0.1519 (151) -0.1141 (153)  0.1147 (156)  0.1148 (157)
          -0.1149 (160)
 CRD 88=  -0.1088 (  1)  0.1121 (  3) -0.1117 (  5)  0.1089 (  7) -0.1226 ( 20)
           0.1227 ( 21) -0.1230 ( 23)  0.1228 ( 24) -0.1271 ( 93)  0.1415 ( 95)
          -0.1219 ( 96) -0.1209 ( 97)  0.1284 ( 98)  0.1236 ( 99) -0.1406 (102)
           0.1210 (103)  0.1239 (105)  0.1241 (106)  0.1383 (107)  0.1416 (109)
          -0.1423 (110) -0.1255 (112) -0.1253 (113) -0.1395 (114)  0.1588 (116)
           0.1573 (117) -0.1569 (120) -0.1590 (122) -0.1024 (125)  0.1043 (128)
          -0.1641 (129) -0.1605 (130)  0.1604 (131)  0.1643 (132) -0.1372 (161)
          -0.1372 (164)  0.1370 (168)  0.1369 (171)
 CRD 89=   0.1003 ( 13)  0.1189 ( 15) -0.1198 ( 16) -0.1199 ( 18)  0.1189 ( 19)
          -0.1515 ( 92) -0.1496 ( 94) -0.1499 (100) -0.1516 (101) -0.1706 (105)
          -0.1727 (106)  0.1152 (108) -0.1734 (112) -0.1712 (113) -0.1324 (116)
          -0.1310 (117)  0.1346 (118)  0.1383 (119) -0.1302 (120) -0.1320 (122)
           0.1385 (123)  0.1346 (124)  0.1738 (125)  0.1714 (126)  0.1721 (127)
           0.1747 (128)  0.1458 (129)  0.1460 (130)  0.1453 (131)  0.1450 (132)
 CRD 90=  -0.1141 (  1)  0.1141 (  3) -0.1144 (  5)  0.1141 (  7)  0.1013 (  8)
          -0.1021 (  9)  0.1019 ( 12) -0.1009 ( 13)  0.1614 ( 92) -0.1835 ( 93)
           0.1588 ( 94) -0.1816 ( 97)  0.1847 ( 98) -0.1605 (100) -0.1628 (101)
           0.1824 (103) -0.1207 (105) -0.1222 (106)  0.1841 (107)  0.1854 (109)
          -0.1866 (110)  0.1219 (112)  0.1204 (113) -0.1852 (114)  0.1675 (118)
           0.1684 (119) -0.1670 (123) -0.1659 (124)  0.1310 (125)  0.1309 (126)
          -0.1306 (127) -0.1307 (128)

 THE DETERMINANT OF THE G MATRIX IS 10**(   -31)


                     --------------------
                     INTERNAL COORDINATES
                     --------------------

                 - - ATOMS - -         COORDINATE      COORDINATE
 NO.   TYPE    I  J  K  L  M  N        (BOHR,RAD)       (ANG,DEG)
 ----------------------------------------------------------------
   1 STRETCH   1 12                     2.0731263       1.0970513
   2 STRETCH   1  4                     2.8896916       1.5291590
   3 STRETCH   1 11                     2.0731216       1.0970488
   4 STRETCH   1  2                     2.8909142       1.5298060
   5 STRETCH   2 13                     2.0732821       1.0971337
   6 STRETCH   2  3                     2.8900460       1.5293466
   7 STRETCH   2 14                     2.0733791       1.0971850
   8 STRETCH   3 16                     2.0724741       1.0967061
   9 STRETCH   3 15                     2.0725419       1.0967420
  10 STRETCH   3  5                     2.8908147       1.5297534
  11 STRETCH   4  6                     2.8914479       1.5300884
  12 STRETCH   4 17                     2.0731053       1.0970401
  13 STRETCH   4 18                     2.0722921       1.0966098
  14 STRETCH   5  7                     2.8887111       1.5286402
  15 STRETCH   5 20                     2.0724511       1.0966940
  16 STRETCH   5 19                     2.0737791       1.0973967
  17 STRETCH   6  8                     2.8881068       1.5283204
  18 STRETCH   6 22                     2.0728949       1.0969288
  19 STRETCH   6 21                     2.0728279       1.0968933
  20 STRETCH   7 24                     2.0723404       1.0966354
  21 STRETCH   7 23                     2.0717618       1.0963292
  22 STRETCH   7  9                     2.8712015       1.5193745
  23 STRETCH   8 26                     2.0711732       1.0960177
  24 STRETCH   8 25                     2.0709569       1.0959033
  25 STRETCH   8 10                     2.8738240       1.5207623
  26 STRETCH   9 29                     2.0696409       1.0952069
  27 STRETCH   9 28                     2.0696299       1.0952010
  28 STRETCH   9 27                     2.0679810       1.0943285
  29 STRETCH  10 32                     2.0689072       1.0948186
  30 STRETCH  10 31                     2.0678207       1.0942437
  31 STRETCH  10 30                     2.0688446       1.0947855
  32 BEND      1  2 13                  1.9116308     109.5283779
  33 BEND      1  2  3                  1.9393698     111.1177044
  34 BEND      1  4  6                  1.9400636     111.1574562
  35 BEND      1  4 17                  1.9113642     109.5131010
  36 BEND      1  2 14                  1.9140971     109.6696862
  37 BEND      1  4 18                  1.9148849     109.7148245
  38 BEND      2  3 16                  1.9127306     109.5913901
  39 BEND      2  3 15                  1.9102737     109.4506196
  40 BEND      2  1 11                  1.9095830     109.4110478
  41 BEND      2  1 12                  1.9122189     109.5620717
  42 BEND      2  3  5                  1.9473913     111.5773045
  43 BEND      2  1  4                  1.9482041     111.6238746
  44 BEND      3  5  7                  1.9407270     111.1954685
  45 BEND      3  2 13                  1.9148407     109.7122925
  46 BEND      3  5 19                  1.9116207     109.5277995
  47 BEND      3  2 14                  1.9125062     109.5785317
  48 BEND      3  5 20                  1.9146765     109.7028802
  49 BEND      4  1 12                  1.9102484     109.4491739
  50 BEND      4  6  8                  1.9453594     111.4608830
  51 BEND      4  6 21                  1.9131929     109.6178800
  52 BEND      4  1 11                  1.9127869     109.5946182
  53 BEND      4  6 22                  1.9104498     109.4607109
  54 BEND      5  7  9                  1.9486043     111.6468018
  55 BEND      5  3 16                  1.9099794     109.4337598
  56 BEND      5  3 15                  1.9124701     109.5764642
  57 BEND      5  7 23                  1.9157565     109.7647615
  58 BEND      5  7 24                  1.9179476     109.8903031
  59 BEND      6  4 17                  1.9139703     109.6624214
  60 BEND      6  8 10                  1.9448658     111.4326018
  61 BEND      6  8 25                  1.9190275     109.9521764
  62 BEND      6  8 26                  1.9164827     109.8063708
  63 BEND      6  4 18                  1.9116208     109.5278035
  64 BEND      7  5 20                  1.9123321     109.5685580
  65 BEND      7  9 27                  1.9247306     110.2789398
  66 BEND      7  9 28                  1.9380170     111.0401966
  67 BEND      7  9 29                  1.9372168     110.9943461
  68 BEND      7  5 19                  1.9134323     109.6315925
  69 BEND      8 10 30                  1.9366983     110.9646390
  70 BEND      8 10 31                  1.9247137     110.2779714
  71 BEND      8 10 32                  1.9379544     111.0366066
  72 BEND      8  6 21                  1.9111511     109.5008897
  73 BEND      8  6 22                  1.9127875     109.5946500
  74 BEND      9  7 23                  1.9048004     109.1370228
  75 BEND      9  7 24                  1.9045809     109.1244457
  76 BEND     10  8 25                  1.9051756     109.1585187
  77 BEND     10  8 26                  1.9047374     109.1334161
  78 BEND     11  1 12                  1.8691016     107.0916355
  79 BEND     13  2 14                  1.8701004     107.1488630
  80 BEND     15  3 16                  1.8693425     107.1054338
  81 BEND     17  4 18                  1.8706324     107.1793408
  82 BEND     19  5 20                  1.8696874     107.1251942
  83 BEND     21  6 22                  1.8693318     107.1048239
  84 BEND     23  7 24                  1.8704190     107.1671119
  85 BEND     25  8 26                  1.8720263     107.2592059
  86 BEND     27  9 28                  1.8862406     108.0736246
  87 BEND     27  9 29                  1.8859513     108.0570490
  88 BEND     28  9 29                  1.8899858     108.2882124
  89 BEND     30 10 31                  1.8862524     108.0743005
  90 BEND     30 10 32                  1.8899305     108.2850418
  91 BEND     31 10 32                  1.8866250     108.0956507
  92 TORSION   1  4  6 21              -0.9937165     -56.9357591
  93 TORSION   1  2  3 16              -0.9976018     -57.1583727
  94 TORSION   1  4  6 22               1.0518238      60.2650645
  95 TORSION   1  4  6  8              -3.1124378    -178.3295522
  96 TORSION   1  2  3  5              -3.1158691    -178.5261514
  97 TORSION   1  2  3 15               1.0475806      60.0219496
  98 TORSION   2  1  4 18              -0.9958088     -57.0556426
  99 TORSION   2  1  4  6              -3.1127880    -178.3496131
 100 TORSION   2  3  5 19               1.0480371      60.0481009
 101 TORSION   2  3  5 20              -0.9994818     -57.2660865
 102 TORSION   2  3  5  7              -3.1176495    -178.6281569
 103 TORSION   2  1  4 17               1.0528271      60.3225476
 104 TORSION   3  5  7  9              -3.1259299    -179.1025927
 105 TORSION   3  5  7 23               1.0426622      59.7401428
 106 TORSION   3  5  7 24              -1.0101192     -57.8755650
 107 TORSION   3  2  1 11               1.0449818      59.8730494
 108 TORSION   3  2  1  4              -3.1180054    -178.6485499
 109 TORSION   3  2  1 12              -0.9992123     -57.2506459
 110 TORSION   4  1  2 14              -1.0008959     -57.3471129
 111 TORSION   4  6  8 10              -3.1273142    -179.1819049
 112 TORSION   4  6  8 25              -1.0124946     -58.0116697
 113 TORSION   4  6  8 26               1.0433256      59.7781564
 114 TORSION   4  1  2 13               1.0467912      59.9767155
 115 TORSION   5  7  9 27              -3.1306824    -179.3748900
 116 TORSION   5  7  9 28              -1.0403264     -59.6063146
 117 TORSION   5  7  9 29               1.0630249      60.9068405
 118 TORSION   5  3  2 14               1.0492747      60.1190146
 119 TORSION   5  3  2 13              -0.9993609     -57.2591600
 120 TORSION   6  8 10 30               1.0666863      61.1166240
 121 TORSION   6  8 10 31              -3.1269898    -179.1633172
 122 TORSION   6  8 10 32              -1.0362044     -59.3701396
 123 TORSION   6  4  1 11              -0.9944471     -56.9776203
 124 TORSION   6  4  1 12               1.0504621      60.1870447
 125 TORSION   7  5  3 15              -0.9991884     -57.2492761
 126 TORSION   7  5  3 16               1.0456722      59.9126015
 127 TORSION   8  6  4 18               1.0518581      60.2670282
 128 TORSION   8  6  4 17              -0.9963938     -57.0891587
 129 TORSION   9  7  5 19              -1.0094912     -57.8395851
 130 TORSION   9  7  5 20               1.0377174      59.4568282
 131 TORSION  10  8  6 21               1.0359626      59.3562819
 132 TORSION  10  8  6 22              -1.0097506     -57.8544470
 133 TORSION  11  1  2 13              -1.0734069     -61.5016852
 134 TORSION  11  1  4 18               1.1225321      64.3163501
 135 TORSION  11  1  2 14              -3.1210940    -178.8255137
 136 TORSION  11  1  4 17              -3.1120173    -178.3054597
 137 TORSION  12  1  4 18              -3.1157441    -178.5189848
 138 TORSION  12  1  2 14               1.1178972      64.0507910
 139 TORSION  12  1  2 13              -3.1176010    -178.6253805
 140 TORSION  12  1  4 17              -1.0671082     -61.1407946
 141 TORSION  13  2  3 15              -3.1190964    -178.7110590
 142 TORSION  13  2  3 16               1.1189065      64.1086187
 143 TORSION  14  2  3 15              -1.0704608     -61.3328844
 144 TORSION  14  2  3 16              -3.1156432    -178.5132067
 145 TORSION  15  3  5 19              -3.1166871    -178.5730182
 146 TORSION  15  3  5 20               1.1189794      64.1127943
 147 TORSION  16  3  5 19              -1.0718266     -61.4111406
 148 TORSION  16  3  5 20              -3.1193454    -178.7253281
 149 TORSION  17  4  6 22              -3.1153175    -178.4945419
 150 TORSION  17  4  6 21               1.1223276      64.3046344
 151 TORSION  18  4  6 22              -1.0670656     -61.1383551
 152 TORSION  18  4  6 21              -3.1126059    -178.3391787
 153 TORSION  19  5  7 24               1.1063196      63.3874426
 154 TORSION  19  5  7 23              -3.1240844    -178.9968496
 155 TORSION  20  5  7 24              -3.1296571    -179.3161440
 156 TORSION  20  5  7 23              -1.0768758     -61.7004363
 157 TORSION  21  6  8 26              -1.0765829     -61.6836568
 158 TORSION  21  6  8 25              -3.1324032    -179.4734829
 159 TORSION  22  6  8 26              -3.1222960    -178.8943857
 160 TORSION  22  6  8 25               1.1050690      63.3157883
 161 TORSION  23  7  9 27              -1.0097353     -57.8535721
 162 TORSION  23  7  9 29              -3.0992133    -177.5718416
 163 TORSION  23  7  9 28               1.0806207      61.9150033
 164 TORSION  24  7  9 27               1.0289491      58.9544430
 165 TORSION  24  7  9 29              -1.0605288     -60.7638265
 166 TORSION  24  7  9 28               3.1193051     178.7230183
 167 TORSION  25  8 10 32               3.1241009     178.9977950
 168 TORSION  25  8 10 31               1.0333155      59.2046174
 169 TORSION  25  8 10 30              -1.0561937     -60.5154414
 170 TORSION  26  8 10 32               1.0831876      62.0620770
 171 TORSION  26  8 10 31              -1.0075978     -57.7311007
 172 TORSION  26  8 10 30              -3.0971070    -177.4511594

     ------------------------------------------
     THE POINT GROUP IS C1 , NAXIS= 1, ORDER= 1
     ------------------------------------------

     DIMENSIONS OF THE SYMMETRY SUBSPACES ARE
 A   =  322

 ..... DONE SETTING UP THE RUN .....
 STEP CPU TIME =     0.04 TOTAL CPU TIME =        0.0 (    0.0 MIN)
 TOTAL WALL CLOCK TIME=        0.1 SECONDS, CPU UTILIZATION IS  80.00%


          -----------------------------
          STATIONARY POINT LOCATION RUN
          -----------------------------

 OBTAINING INITIAL HESSIAN, HESS=GUESS   
 DIAGONAL GUESS HESSIAN IN INTERNAL COORDS IS
     1  0.3417     2  0.3678     3  0.3417     4  0.3673     5  0.3416
     6  0.3676     7  0.3416     8  0.3419     9  0.3419    10  0.3673
    11  0.3671    12  0.3417    13  0.3419    14  0.3681    15  0.3419
    16  0.3414    17  0.3684    18  0.3417    19  0.3418    20  0.3419
    21  0.3421    22  0.3748    23  0.3423    24  0.3424    25  0.3738
    26  0.3429    27  0.3429    28  0.3435    29  0.3431    30  0.3435
    31  0.3432    32  0.2237    33  0.2485    34  0.2485    35  0.2237
    36  0.2237    37  0.2237    38  0.2237    39  0.2237    40  0.2237
    41  0.2237    42  0.2486    43  0.2486    44  0.2486    45  0.2237
    46  0.2237    47  0.2237    48  0.2237    49  0.2237    50  0.2486
    51  0.2237    52  0.2237    53  0.2237    54  0.2493    55  0.2237
    56  0.2237    57  0.2238    58  0.2238    59  0.2237    60  0.2493
    61  0.2238    62  0.2238    63  0.2237    64  0.2238    65  0.2245
    66  0.2244    67  0.2244    68  0.2237    69  0.2243    70  0.2244
    71  0.2243    72  0.2238    73  0.2238    74  0.2243    75  0.2243
    76  0.2243    77  0.2243    78  0.2027    79  0.2027    80  0.2027
    81  0.2027    82  0.2027    83  0.2027    84  0.2028    85  0.2028
    86  0.2029    87  0.2029    88  0.2029    89  0.2029    90  0.2029
    91  0.2029    92  0.2500    93  0.2500    94  0.2500    95  0.2500
    96  0.2500    97  0.2500    98  0.2500    99  0.2500   100  0.2500
   101  0.2500   102  0.2500   103  0.2500   104  0.2500   105  0.2500
   106  0.2500   107  0.2500   108  0.2500   109  0.2500   110  0.2500
   111  0.2500   112  0.2500   113  0.2500   114  0.2500   115  0.2500
   116  0.2500   117  0.2500   118  0.2500   119  0.2500   120  0.2500
   121  0.2500   122  0.2500   123  0.2500   124  0.2500   125  0.2500
   126  0.2500   127  0.2500   128  0.2500   129  0.2500   130  0.2500
   131  0.2500   132  0.2500   133  0.2500   134  0.2500   135  0.2500
   136  0.2500   137  0.2500   138  0.2500   139  0.2500   140  0.2500
   141  0.2500   142  0.2500   143  0.2500   144  0.2500   145  0.2500
   146  0.2500   147  0.2500   148  0.2500   149  0.2500   150  0.2500
   151  0.2500   152  0.2500   153  0.2500   154  0.2500   155  0.2500
   156  0.2500   157  0.2500   158  0.2500   159  0.2500   160  0.2500
   161  0.2500   162  0.2500   163  0.2500   164  0.2500   165  0.2500
   166  0.2500   167  0.2500   168  0.2500   169  0.2500   170  0.2500
   171  0.2500   172  0.2500
 TRANSFORMING HESSIAN TO SYMMETRY COORDINATES

          PARAMETERS CONTROLLING GEOMETRY SEARCH ARE
          METHOD =QA                  UPHESS =BFGS    
          NNEG   =         0          NFRZ   =         3
          NSTEP  =        50          IFOLOW =         1
          HESS   =GUESS               RESTAR =         F
          IHREP  =         0          HSSEND =         F
          NPRT   =         0          NPUN   =         0
          OPTTOL = 5.000E-04          RMIN   = 1.500E-03
          RMAX   = 1.000E-01          RLIM   = 7.000E-02
          DXMAX  = 3.000E-01          PURIFY =         F
          MOVIE  =         F          TRUPD  =         T
          TRMAX  = 5.000E-01          TRMIN  = 5.000E-02
          ITBMAT =         5          STPT   =         F
          STSTEP = 1.000E-02          PROJCT=          F
          FROZEN COORD(S)=   1   2   3


      ***** EQUILIBRIUM GEOMETRY LOCATED *****
            (SUBJECT TO   3 CONSTRAINT(S))
 COORDINATES OF ALL ATOMS ARE (ANGS)
   ATOM   CHARGE       X              Y              Z
 ------------------------------------------------------------
 C           6.0   5.2531659330   1.2941580558   1.1000085916
 C           6.0   6.3085196176   1.9004327338   2.0249305576
 C           6.0   7.6934567567   1.2749138360   1.8511035614
 C           6.0   3.8703713408   1.9317634246   1.2431259522
 C           6.0   8.7433323082   1.8573548336   2.7974152112
 C           6.0   2.8219257538   1.2872141085   0.3359188996
 C           6.0  10.1372060310   1.2573739679   2.6072816445
 C           6.0   1.4387599168   1.9317490929   0.4340705876
 C           6.0  11.1716047517   1.8351910293   3.5728124155
 C           6.0   0.4061078170   1.2572851259  -0.4688186019
 H           1.0   5.1751794052   0.2255938237   1.2984751150
 H           1.0   5.5849146159   1.3914986006   0.0666860362
 H           1.0   5.9896736417   1.7831987409   3.0602794795
 H           1.0   6.3741801429   2.9726506668   1.8421531962
 H           1.0   8.0221444175   1.4126051609   0.8213223230
 H           1.0   7.6234884385   0.1992179457   2.0106742360
 H           1.0   3.9387468888   2.9954460225   1.0164331345
 H           1.0   3.5446439661   1.8576614837   2.2803917354
 H           1.0   8.4248627906   1.6994595378   3.8275577122
 H           1.0   8.7970497369   2.9362789307   2.6538106746
 H           1.0   3.1644875836   1.3367637052  -0.6974046531
 H           1.0   2.7390644261   0.2287827635   0.5816589127
 H           1.0  10.4645818279   1.4279386335   1.5829741586
 H           1.0  10.0842627172   0.1777242998   2.7381691416
 H           1.0   1.0961531928   1.8935043206   1.4668844822
 H           1.0   1.5137706261   2.9860038668   0.1726173383
 H           1.0  12.1525068424   1.3980358448   3.4077588154
 H           1.0  11.2616571889   2.9118082056   3.4485758644
 H           1.0  10.8906642918   1.6430176789   4.6056274931
 H           1.0   0.2788369744   0.2110222363  -0.2009473951
 H           1.0  -0.5634931893   1.7412526449  -0.3908552634
 H           1.0   0.7153068015   1.2969944427  -1.5107145032


                     --------------------
                     INTERNAL COORDINATES
                     --------------------

                 - - ATOMS - -         COORDINATE      COORDINATE
 NO.   TYPE    I  J  K  L  M  N        (BOHR,RAD)       (ANG,DEG)
 ----------------------------------------------------------------
   1 STRETCH   1 12                     2.0590972       1.0896274
   2 STRETCH   1  4                     2.8901962       1.5294261
   3 STRETCH   1 11                     2.0591081       1.0896331
   4 STRETCH   1  2                     2.8887607       1.5286664
   5 STRETCH   2 13                     2.0591545       1.0896577
   6 STRETCH   2  3                     2.8904411       1.5295557
   7 STRETCH   2 14                     2.0591686       1.0896652
   8 STRETCH   3 16                     2.0592638       1.0897156
   9 STRETCH   3 15                     2.0592325       1.0896990
  10 STRETCH   3  5                     2.8888601       1.5287190
  11 STRETCH   4  6                     2.8893080       1.5289561
  12 STRETCH   4 17                     2.0592686       1.0897181
  13 STRETCH   4 18                     2.0592896       1.0897292
  14 STRETCH   5  7                     2.8901144       1.5293828
  15 STRETCH   5 20                     2.0593549       1.0897638
  16 STRETCH   5 19                     2.0593222       1.0897465
  17 STRETCH   6  8                     2.8896171       1.5291196
  18 STRETCH   6 22                     2.0593081       1.0897390
  19 STRETCH   6 21                     2.0593343       1.0897529
  20 STRETCH   7 24                     2.0576139       1.0888425
  21 STRETCH   7 23                     2.0575229       1.0887943
  22 STRETCH   7  9                     2.8883168       1.5284315
  23 STRETCH   8 26                     2.0574921       1.0887780
  24 STRETCH   8 25                     2.0575867       1.0888281
  25 STRETCH   8 10                     2.8885504       1.5285552
  26 STRETCH   9 29                     2.0549978       1.0874581
  27 STRETCH   9 28                     2.0550705       1.0874965
  28 STRETCH   9 27                     2.0532169       1.0865156
  29 STRETCH  10 32                     2.0551393       1.0875329
  30 STRETCH  10 31                     2.0531409       1.0864755
  31 STRETCH  10 30                     2.0550445       1.0874828
  32 BEND      1  2 13                  1.9073270     109.2817858
  33 BEND      1  2  3                  1.9759354     113.2127597
  34 BEND      1  4  6                  1.9700322     112.8745331
  35 BEND      1  4 17                  1.9078783     109.3133736
  36 BEND      1  2 14                  1.9074856     109.2908753
  37 BEND      1  4 18                  1.9081292     109.3277508
  38 BEND      2  3 16                  1.9059505     109.2029169
  39 BEND      2  3 15                  1.9058657     109.1980629
  40 BEND      2  1 11                  1.9051319     109.1560178
  41 BEND      2  1 12                  1.9051558     109.1573850
  42 BEND      2  3  5                  1.9775981     113.3080225
  43 BEND      2  1  4                  1.9847450     113.7175104
  44 BEND      3  5  7                  1.9817608     113.5465299
  45 BEND      3  2 13                  1.9059641     109.2037015
  46 BEND      3  5 19                  1.9063150     109.2238026
  47 BEND      3  2 14                  1.9058119     109.1949779
  48 BEND      3  5 20                  1.9065598     109.2378296
  49 BEND      4  1 12                  1.9036791     109.0727767
  50 BEND      4  6  8                  1.9872247     113.8595878
  51 BEND      4  6 21                  1.9048774     109.1414363
  52 BEND      4  1 11                  1.9040056     109.0914847
  53 BEND      4  6 22                  1.9047585     109.1346247
  54 BEND      5  7  9                  1.9713884     112.9522372
  55 BEND      5  3 16                  1.9066211     109.2413450
  56 BEND      5  3 15                  1.9067739     109.2500991
  57 BEND      5  7 23                  1.9066099     109.2407017
  58 BEND      5  7 24                  1.9068149     109.2524454
  59 BEND      6  4 17                  1.9082467     109.3344836
  60 BEND      6  8 10                  1.9683770     112.7796932
  61 BEND      6  8 25                  1.9078452     109.3114804
  62 BEND      6  8 26                  1.9075339     109.2936430
  63 BEND      6  4 18                  1.9083185     109.3385951
  64 BEND      7  5 20                  1.9040218     109.0924160
  65 BEND      7  9 27                  1.9421930     111.2794598
  66 BEND      7  9 28                  1.9370689     110.9858734
  67 BEND      7  9 29                  1.9372665     110.9971936
  68 BEND      7  5 19                  1.9039526     109.0884507
[...]
 854  17   5.515185   7.197532   2.778044   0.000076   0.033086   0.002310
 855   8   4.060063   6.943054   2.671216   0.000223   0.047023   0.004746
 856   8   3.867897   4.489549  -2.763079   0.000124   0.167866   0.000740
 857  21   4.497017   4.108796  -2.928594   0.000004   0.167866   0.000021
 858  32   3.462115   4.091118  -3.271222  -0.000093   0.167866  -0.000554
 859  21   5.203487   4.408610  -2.778888  -0.000164   0.155220  -0.001059
 860   8   4.382053   5.074239  -2.395358   0.000444   0.218828   0.002030
 861   8   2.223911   0.154805   2.369462   0.000121   0.167895   0.000724
 862  22   2.832556  -0.271877   2.244205  -0.000050   0.167895  -0.000298
 863  30   1.793589  -0.278601   1.912574  -0.000045   0.167895  -0.000266
 864  22   3.481071  -0.238088   2.827688  -0.000105   0.136476  -0.000772
 865   8   2.546168   0.376228   2.923286   0.000376   0.192435   0.001956
 866  25   1.322680   1.425243   3.684179  -0.000060   0.071471  -0.000843
 867  25   2.168600   1.434629   3.965137  -0.000071   0.071471  -0.000987
 868   8   1.856682   1.202895   3.497915  -0.000178   0.155868  -0.001140
 869  25   2.603620   5.461671   4.258551   0.000015   0.067854   0.000228
 870  25   1.579250   5.632370   3.925065  -0.000035   0.149848  -0.000235
 871  25   0.416076   5.155970   3.521575  -0.000197   0.149848  -0.001313
 872  25  -0.221160   4.304728   3.278671  -0.000066   0.067854  -0.000977
 873   8   2.379771   5.820492   3.842409   0.000253   0.149531   0.001695
 874   8   0.974498   5.746988   3.373528   0.000197   0.149531   0.001320
 875   8  -0.101488   4.804246   2.981693  -0.000022   0.149531  -0.000144
 876  26   4.012316   6.260346  -1.752426  -0.000069   0.071297  -0.000961
 877  26   3.168304   6.250918  -2.032609  -0.000063   0.071297  -0.000877
 878   8   3.640679   5.869738  -2.031263  -0.000159   0.155562  -0.001019
 879  26   0.792612   6.957520   0.134855  -0.000043   0.067400  -0.000640
 880  26   1.182839   7.174700   1.122519  -0.000134   0.148652  -0.000903
 881  26   2.202112   7.304614   1.938806  -0.000034   0.148652  -0.000228
 882  26   3.270469   7.273342   2.119253  -0.000039   0.067400  -0.000586
 883   8   0.641313   6.752817   0.668829  -0.000080   0.148718  -0.000539
 884   8   1.440886   6.997145   1.883410   0.000222   0.148718   0.001495
 885   8   2.817235   7.030155   2.411422   0.000221   0.148718   0.001488
 886  30   1.031082  -0.307582   1.977845  -0.000202   0.147040  -0.001374
 887   8   1.514379   0.445025   2.678700   0.000408   0.207188   0.001972
 888  31  -1.614705   4.481575   1.383295  -0.000209   0.198225  -0.001055
 889  31  -1.283493   5.415058   0.363823  -0.000994   0.405310  -0.002452
 890   8  -0.643754   5.202846   1.659768   0.000913   0.543337   0.001681
 891   8  -0.222748   6.149894   0.419219   0.000696   0.279140   0.002494
 892  32   2.743442   4.422936  -3.570974  -0.000154   0.127916  -0.001203
 893   8   3.395714   4.938157  -2.799080   0.000335   0.180270   0.001859
 894   9  18.520918   4.744692   9.290085   0.000112   0.088028   0.001272
 895  19  17.569657   4.505906   9.112831   0.000229   0.088028   0.002601
 896  29  18.584663   4.536188   9.505502  -0.000086   0.088028  -0.000979
 897  19  16.976552   4.707772   9.089000   0.000094   0.051629   0.001812
 898   9  18.401026   5.042162   9.244337   0.000317   0.073325   0.004317
 899   9  19.050435   6.618437   7.538924   0.000118   0.088712   0.001327
 900  20  18.216883   6.756744   7.001014   0.000215   0.088712   0.002420
 901  28  19.233899   6.813586   7.389786  -0.000019   0.088712  -0.000211
 902  20  17.629783   6.935853   6.984357   0.000021   0.013544   0.001515
 903   9  18.885238   6.658991   7.714022   0.000110   0.019246   0.005703
 904  23  21.170514   4.691534   2.497201  -0.000148   0.216706  -0.000682
 905  23  21.990753   3.368225   2.476592  -0.001130   0.446226  -0.002531
 906   9  22.120965   4.617081   3.307759   0.000960   0.591113   0.001625
 907   9  22.908365   3.032293   3.352334   0.000732   0.305271   0.002397
 908  24  21.089193  -0.880241   5.918266  -0.000162   0.216612  -0.000749
 909  24  20.025197  -0.750407   7.046560  -0.001125   0.446013  -0.002522
 910   9  21.452268  -0.279543   6.954216   0.001011   0.590876   0.001710
 911   9  20.154682  -0.019690   8.128624   0.000747   0.305138   0.002449
 912  27  23.793535   2.433191   4.136937  -0.000084   0.069495  -0.001206
 913  27  24.274005   3.353249   4.555458  -0.000290   0.154454  -0.001875
 914  27  24.753541   4.024450   5.627577  -0.000135   0.154454  -0.000872
 915  27  24.931129   3.918211   6.964395  -0.000262   0.154454  -0.001698
 916  27  24.732464   3.078983   8.006573  -0.000295   0.154454  -0.001907
 917  27  24.240670   1.857907   8.318052  -0.000181   0.154454  -0.001174
 918  27  23.661519   0.765895   7.768506  -0.000214   0.154454  -0.001388
 919  27  23.237333   0.259857   6.587872  -0.000321   0.154454  -0.002079
 920   9  23.671951   3.017044   4.074362  -0.000144   0.152192  -0.000944
 921   9  24.301356   4.108619   4.923730   0.000089   0.152192   0.000582
 922   9  24.691404   4.443963   6.353597   0.000089   0.152192   0.000582
 923   9  24.678894   3.882763   7.765693  -0.000052   0.152192  -0.000344
 924   9  24.269060   2.659833   8.569180  -0.000024   0.152192  -0.000156
 925   9  23.633381   1.286859   8.427871   0.000103   0.152192   0.000674
 926   9  23.037832   0.338308   7.400892  -0.000107   0.152192  -0.000701
 927   9  22.730687   0.091088   6.230307   0.000048   0.084904   0.000567
 928  28  19.820057   6.969070   7.841077  -0.000035   0.067705  -0.000522
 929  28  20.773278   6.950439   8.370563  -0.000105   0.149574  -0.000703
 930  28  22.088188   6.837961   8.348988  -0.000208   0.149574  -0.001388
 931  28  23.122329   6.659092   7.548573  -0.000250   0.149574  -0.001669
 932  28  23.466206   6.484659   6.286263  -0.000131   0.149574  -0.000875
 933  28  22.983654   6.383733   5.061901  -0.000187   0.149574  -0.001249
 934  28  21.865751   6.396277   4.360303  -0.000308   0.149574  -0.002058
 935   9  19.997947   6.670264   8.320944   0.000071   0.149137   0.000478
 936   9  21.412395   6.602780   8.761410   0.000045   0.149137   0.000304
 937   9  22.802657   6.430350   8.274923  -0.000006   0.149137  -0.000039
 938   9  23.618222   6.221251   7.054121   0.000016   0.149137   0.000104
 939   9  23.536149   6.058282   5.582410   0.000048   0.149137   0.000319
 940   9  22.588936   6.005974   4.442550   0.000045   0.149137   0.000302
 941   9  21.466312   6.050011   4.010424   0.000008   0.082716   0.000093
 942  29  19.828360   0.847860   9.320909  -0.000099   0.067442  -0.001466
 943  29  20.873554   0.896212   9.614213  -0.000244   0.148881  -0.001638
 944  29  21.909014   1.595139  10.025926  -0.000108   0.148881  -0.000724
 945  29  22.302483   2.805501  10.358176  -0.000236   0.148881  -0.001586
 946  29  21.899314   4.051578  10.480375  -0.000236   0.148881  -0.001587
 947  29  20.857966   4.843611  10.344494  -0.000168   0.148881  -0.001131
 948  29  19.587732   4.870300  10.003939  -0.000129   0.148881  -0.000866
 949   9  20.318256   0.640681   9.061963  -0.000106   0.148667  -0.000716
 950   9  21.682480   1.002580   9.500391   0.000148   0.148667   0.000993
 951   9  22.527856   2.132143   9.940530   0.000144   0.148667   0.000972
 952   9  22.522117   3.585409  10.209389  -0.000038   0.148667  -0.000254
 953   9  21.667520   4.791184  10.201294  -0.000057   0.148667  -0.000385
 954   9  20.299954   5.275552   9.919428   0.000192   0.148667   0.001292
 955   9  19.169575   5.071769   9.574031   0.000185   0.082395   0.002251
 956  10   3.390370   0.715721  -3.156732   0.000120   0.088586   0.001351
 957  21   4.344015   0.972899  -3.003115   0.000216   0.088586   0.002433
 958  32   3.336573   0.892240  -3.401559  -0.000015   0.088586  -0.000171
 959  21   4.930176   0.804634  -2.974759   0.000019   0.011725   0.001654
 960  10   3.496542   0.499396  -3.141564   0.000100   0.016658   0.005992
 961  10   2.718617  -0.918423  -1.236058   0.000103   0.087864   0.001177
 962  22   3.545815  -1.003739  -0.689882   0.000227   0.087864   0.002578
 963  30   2.528285  -1.084789  -1.062744  -0.000088   0.087864  -0.001004
 964  22   4.150023  -1.170584  -0.681986   0.000094   0.053892   0.001753
 965  10   2.938917  -0.935113  -1.479132   0.000307   0.076526   0.004012
 966  25  -0.370229   3.571546   3.222769  -0.000163   0.216414  -0.000755
 967  25   0.280760   2.177898   3.448766  -0.001073   0.445562  -0.002408
 968  10  -0.816031   2.633880   2.524395   0.000955   0.590369   0.001617
 969  10   0.071910   1.116458   2.706605   0.000748   0.304856   0.002455
 970  26   2.409101   6.329394  -2.016674  -0.000147   0.216527  -0.000679
 971  26   1.252069   6.712003  -1.049814  -0.001112   0.445819  -0.002495
 972  10   1.287159   5.839933  -2.276357   0.000969   0.590656   0.001640
 973  10   0.054616   6.175871  -1.053321   0.000803   0.305016   0.002632
 974  30   0.274603  -0.188998   1.993432  -0.000097   0.067373  -0.001437
 975  30  -0.733361  -0.169455   1.590840  -0.000257   0.148696  -0.001730
 976  30  -1.557659  -0.328050   0.579752  -0.000096   0.148696  -0.000647
 977  30  -1.618488  -0.646695  -0.693701  -0.000222   0.148696  -0.001493
 978  30  -0.891990  -1.000411  -1.730042  -0.000229   0.148696  -0.001541
 979  30   0.336886  -1.250463  -2.122795  -0.000155   0.148696  -0.001043
 980  30   1.586148  -1.298774  -1.717914  -0.000131   0.148696  -0.000879
 981  10  -0.151539   0.219806   2.024033  -0.000132   0.148545  -0.000890
 982  10  -1.387147   0.163647   1.217605   0.000093   0.148545   0.000625
 983  10  -1.910745  -0.118665  -0.133820   0.000135   0.148545   0.000907
 984  10  -1.516967  -0.516402  -1.500183  -0.000017   0.148545  -0.000117
 985  10  -0.360262  -0.873562  -2.345567  -0.000064   0.148545  -0.000428
 986  10   1.105686  -1.050059  -2.338393   0.000095   0.148545   0.000639
 987  10   2.157078  -1.030894  -1.763984   0.000082   0.082310   0.001001
 988  31  -1.169870   5.743615  -0.801329  -0.000074   0.069562  -0.001067
 989  31  -1.426135   5.396760  -1.835223  -0.000223   0.154638  -0.001440
 990  31  -1.963380   4.450147  -2.640532  -0.000213   0.154638  -0.001377
 991  31  -2.566148   3.238068  -2.612866  -0.000216   0.154638  -0.001400
 992  31  -2.981718   2.268707  -1.763824  -0.000292   0.154638  -0.001890
 993  31  -3.035856   1.948487  -0.449382  -0.000164   0.154638  -0.001058
 994  31  -2.705862   2.411664   0.779358  -0.000223   0.154638  -0.001442
 995  31  -2.130093   3.464044   1.407226  -0.000331   0.154638  -0.002143
 996  10  -0.850851   5.712062  -1.308412  -0.000149   0.152304  -0.000981
 997  10  -1.316093   4.981372  -2.558578   0.000061   0.152304   0.000404
 998  10  -1.992843   3.699899  -3.020213   0.000046   0.152304   0.000302
 999  10  -2.597364   2.404922  -2.499769  -0.000032   0.152304  -0.000210
1000  10  -2.876198   1.639382  -1.215451  -0.000001   0.152304  -0.000008
1001  10  -2.712440   1.724246   0.294269   0.000042   0.152304   0.000277
1002  10  -2.174749   2.623932   1.396415   0.000033   0.152304   0.000216
1003  10  -1.622367   3.675171   1.740526   0.000027   0.084985   0.000318
1004  32   2.724987   0.619007  -3.748302  -0.000038   0.067635  -0.000560
1005  32   1.704638   0.397722  -4.059534  -0.000142   0.149387  -0.000948
1006  32   0.501066   0.814513  -4.400817  -0.000233   0.149387  -0.001557
1007  32  -0.233876   1.894946  -4.577734  -0.000250   0.149387  -0.001670
1008  32  -0.209787   3.212104  -4.520378  -0.000138   0.149387  -0.000922
1009  32   0.563815   4.245532  -4.251413  -0.000163   0.149387  -0.001090
1010  32   1.781253   4.586886  -3.877116  -0.000323   0.149387  -0.002160
1011  10   2.320493   0.244212  -3.531984   0.000145   0.149016   0.000973
1012  10   0.900113   0.247320  -3.953375   0.000105   0.149016   0.000707
1013  10  -0.247052   1.133340  -4.260033  -0.000046   0.149016  -0.000312
1014  10  -0.667717   2.552175  -4.330786  -0.000024   0.149016  -0.000159
1015  10  -0.195663   3.943194  -4.137678   0.000106   0.149016   0.000710
1016  10   0.982585   4.756756  -3.757011  -0.000004   0.149016  -0.000026
1017  10   2.131956   4.837676  -3.412841  -0.000003   0.082631  -0.000037
1018  16  12.370133  -1.004736   4.866951   0.000186   0.252085   0.000737
1019  16  12.640469  -1.563751   3.916907  -0.000212   0.504060  -0.000420
1020  16  13.027148  -1.502588   2.589876   0.000159   0.504060   0.000316
1021  11  10.996720  -1.228418   4.089950  -0.000098   0.504060  -0.000195
1022  11  11.361826  -1.637504   2.819667  -0.000092   0.504060  -0.000182
1023  11  11.671146  -1.346752   1.767075   0.000444   0.252085   0.001759
1024  22   7.057476  -1.377842   0.493371   0.000441   0.251500   0.001753
1025  22   6.743814  -1.621330   1.558274  -0.000102   0.502903  -0.000204
1026  22   6.376129  -1.154897   2.809932  -0.000127   0.502903  -0.000253
1027  11   8.403833  -1.502049   1.324780   0.000092   0.502903   0.000183
1028  11   8.012755  -1.503480   2.653861  -0.000216   0.502903  -0.000430
1029  11   7.741370  -0.901449   3.578846   0.000183   0.251500   0.000729
1030  15  14.094104   1.351213  -0.526784   0.000442   0.251751   0.001757
1031  15  14.193586   2.423794  -0.878079  -0.000097   0.503389  -0.000192
1032  15  14.089688   3.768595  -0.580136  -0.000102   0.503389  -0.000203
1033  12  12.674831   1.738490  -1.141710   0.000165   0.503389   0.000328
1034  12  12.710261   3.110877  -1.294522  -0.000203   0.503389  -0.000404
1035  12  12.557981   4.133610  -0.831312   0.000186   0.251751   0.000740
1036  21   7.980583   3.997529  -2.325569   0.000181   0.251607   0.000719
1037  21   8.137707   2.953650  -2.748507  -0.000218   0.503120  -0.000434
1038  21   8.102614   1.583775  -2.539212   0.000129   0.503120   0.000256
1039  12   9.503551   3.643647  -2.054175  -0.000124   0.503120  -0.000246
1040  12   9.611331   2.283333  -2.298142  -0.000101   0.503120  -0.000201
1041  12   9.510252   1.222177  -1.901936   0.000441   0.251607   0.001751
1042  18   7.765373   2.010506   6.264369   0.000196   0.251410   0.000779
1043  18   7.653202   3.036365   6.713995  -0.000190   0.502682  -0.000378
1044  18   7.745799   4.396589   6.553571   0.000159   0.502682   0.000316
1045  13   9.185315   2.345223   6.930801  -0.000074   0.502682  -0.000146
1046  13   9.135477   3.687294   7.215197  -0.000077   0.502682  -0.000153
1047  13   9.280632   4.745948   6.861203   0.000447   0.251410   0.001776
1048  19  13.882641   4.537058   8.367504   0.000445   0.251777   0.001766
1049  19  13.745404   3.459362   8.685442  -0.000093   0.503437  -0.000184
1050  19  13.805691   2.122469   8.348190  -0.000102   0.503437  -0.000202
1051  13  12.357361   4.184967   8.054584   0.000162   0.503437   0.000321
1052  13  12.275117   2.811819   8.165738  -0.000206   0.503437  -0.000409
1053  13  12.395422   1.799633   7.673442   0.000187   0.251777   0.000745
1054  17   8.662443   7.431270   3.531145   0.000443   0.250753   0.001766
1055  17   9.014930   7.690705   2.498658  -0.000067   0.501361  -0.000134
1056  17   9.428211   7.260265   1.267811  -0.000044   0.501361  -0.000087
1057  14  10.260775   7.545038   3.640484   0.000169   0.501361   0.000337
1058  14  10.700129   7.573517   2.345407  -0.000179   0.501361  -0.000357
1059  14  11.005517   7.003937   1.428947   0.000196   0.250753   0.000783
1060  20  15.579798   7.000184   3.014549   0.000185   0.251670   0.000735
1061  20  15.271139   7.539008   3.960062  -0.000205   0.503220  -0.000408
1062  20  14.832718   7.454797   5.265008   0.000163   0.503220   0.000323
1063  14  14.009525   7.253954   2.874079  -0.000097   0.503220  -0.000193
1064  14  13.593950   7.638127   4.131814  -0.000093   0.503220  -0.000185
1065  14  13.244011   7.330632   5.162632   0.000439   0.251670   0.001745
1066  23  18.718014   1.438079   0.871318   0.000403   0.252521   0.001596
1067  23  18.810287   2.522292   0.553592  -0.000146   0.504921  -0.000290
1068  23  18.695687   3.856646   0.894222  -0.000142   0.504921  -0.000280
1069  15  17.292604   1.834171   0.264552   0.000150   0.504921   0.000297
1070  15  17.318141   3.211485   0.154934  -0.000223   0.504921  -0.000442
1071  15  17.157196   4.218072   0.650780   0.000180   0.252521   0.000713
1072  24  17.025446  -1.109087   6.172355   0.000166   0.251758   0.000659
1073  24  17.305409  -1.625956   5.210104  -0.000244   0.503381  -0.000484
1074  24  17.694859  -1.515649   3.896042   0.000134   0.503381   0.000267
1075  16  15.647616  -1.319776   5.380179  -0.000097   0.503381  -0.000193
1076  16  16.021226  -1.676460   4.105898  -0.000102   0.503381  -0.000203
1077  16  16.329807  -1.349621   3.071774   0.000440   0.251758   0.001747
1078  26   4.061621   7.469028   1.885717   0.000418   0.252219   0.001656
1079  26   4.424444   7.693670   0.840530  -0.000137   0.504304  -0.000271
1080  26   4.849979   7.212586  -0.376982  -0.000121   0.504304  -0.000240
1081  17   5.657308   7.589544   1.999954   0.000148   0.504304   0.000294
1082  17   6.109723   7.570582   0.700024  -0.000213   0.504304  -0.000422
1083  17   6.423981   6.960301  -0.196257   0.000187   0.252219   0.000743
1084  25   3.125574   2.174161   4.806987   0.000172   0.250716   0.000685
1085  25   3.008191   3.212029   5.206014  -0.000227   0.501273  -0.000452
1086  25   3.099326   4.555885   4.990919   0.000143   0.501273   0.000286
1087  18   4.546185   2.537869   5.474620  -0.000050   0.501273  -0.000099
1088  18   4.491693   3.882381   5.697865  -0.000079   0.501273  -0.000157
1089  18   4.637352   4.919064   5.305128   0.000439   0.250716   0.001750
1090  29  18.487762   4.308703   9.888135   0.000334   0.248137   0.001346
1091  29  18.380583   3.240192  10.150285  -0.000255   0.496100  -0.000514
1092  29  18.468942   1.946676   9.776431  -0.000282   0.496100  -0.000569
1093  19  16.953932   3.942357   9.545863   0.000125   0.496100   0.000252
1094  19  16.906210   2.594907   9.599354  -0.000231   0.496100  -0.000466
1095  19  17.044773   1.623791   9.089787   0.000156   0.248137   0.000630
1096  28  20.171410   6.992697   4.572874   0.000074   0.251561   0.000293
1097  28  19.869202   7.494200   5.525488  -0.000383   0.502953  -0.000761
1098  28  19.451124   7.374173   6.818294   0.000040   0.502953   0.000080
1099  20  18.576004   7.224871   4.445444  -0.000117   0.502953  -0.000232
1100  20  18.173734   7.565794   5.703416  -0.000129   0.502953  -0.000257
1101  20  17.842973   7.234731   6.718947   0.000370   0.251561   0.001472
1102  32   3.416141   3.843155  -3.866169   0.000097   0.252242   0.000384
1103  32   3.559643   2.795320  -4.247078  -0.000425   0.504330  -0.000843
1104  32   3.499638   1.448107  -4.000503   0.000032   0.504330   0.000063
1105  21   4.953939   3.477740  -3.548026  -0.000129   0.504330  -0.000255
1106  21   5.041181   2.123801  -3.744545  -0.000133   0.504330  -0.000264
1107  21   4.918687   1.088117  -3.325025   0.000369   0.252242   0.001464
1108  30   2.424180  -1.454814  -0.818423   0.000332   0.247895   0.001338
1109  30   2.094436  -1.632749   0.222204  -0.000256   0.495620  -0.000517
1110  30   1.711734  -1.126355   1.413788  -0.000240   0.495620  -0.000484
1111  22   3.781180  -1.540081   0.045418   0.000121   0.495620   0.000244
1112  22   3.371964  -1.475101   1.330363  -0.000235   0.495620  -0.000474
1113  22   3.090102  -0.855888   2.202387   0.000153   0.247895   0.000617
 =====================================================

              9360015  WORDS OF DYNAMIC MEMORY USED
 EXECUTION OF GAMESS TERMINATED NORMALLY Fri Nov 25 00:51:00 2016
 DDI: 263640 bytes (0.3 MB / 0 MWords) used by master data server.

 ----------------------------------------
 CPU timing information for all processes
 ========================================
 0: 1955.828 + 0.544 = 1956.372
 ----------------------------------------
 ddikick.x: exited gracefully.
