----- GAMESS execution script -----

          ******************************************************
          *         GAMESS VERSION =  5 DEC 2014 (R1)          *
          *             FROM IOWA STATE UNIVERSITY             *
          * M.W.SCHMIDT, K.K.BALDRIDGE, J.A.BOATZ, S.T.ELBERT, *
          *   M.S.GORDON, J.H.JENSEN, S.KOSEKI, N.MATSUNAGA,   *
          *          K.A.NGUYEN, S.J.SU, T.L.WINDUS,           *
          *       TOGETHER WITH M.DUPUIS, J.A.MONTGOMERY       *
          *         J.COMPUT.CHEM.  14, 1347-1363(1993)        *
          **************** 64 BIT LINUX VERSION ****************

 EXECUTION OF GAMESS BEGUN Fri Nov 25 02:33:32 2016

            ECHO OF THE FIRST FEW INPUT CARDS -
 INPUT CARD>! SELECT RESTRICTED HARTREE-FOCK AS DEFAULT                                     
 INPUT CARD>$contrl scftyp=rhf $end                                                         
 INPUT CARD>                                                                                
 INPUT CARD>! THEORY: HF OR DFT                                                             
 INPUT CARD> $contrl mplevl=0 $end                                                          
 INPUT CARD>                                                                                
 INPUT CARD> $system timlim=10000 mwords=20 $end                                            
 INPUT CARD> $SCF DIRSCF=.TRUE. $end                                                        
 INPUT CARD>                                                                                
 INPUT CARD>                                                                                
 INPUT CARD>! BASIS SETS                                                                    
 INPUT CARD>! 6-311G(d,p)                                                                   
 INPUT CARD> $BASIS GBASIS=N311 NGAUSS=6 NDFUNC=1 NPFUNC=1 $END                             
 INPUT CARD>                                                                                
 INPUT CARD>! One of the following                                                          
 INPUT CARD> $guess guess=HUCKEL $end                                                       
 INPUT CARD>                                                                                
 INPUT CARD> $statpt projct=.FALSE. $end                                                    
 INPUT CARD> $STATPT IFREEZ(1)=1,2,3 $END                                                   
 INPUT CARD>                                                                                
 INPUT CARD>! Optimize the geometry with COSMO effects                                      
 INPUT CARD> $statpt opttol=0.0005 nstep=50 $end                                            
 INPUT CARD> $contrl nzvar=1 $end                                                           
 INPUT CARD> $zmat dlc=.t. auto=.t. $end                                                    
 INPUT CARD> $contrl runtyp=OPTIMIZE maxit=200 $end                                         
 INPUT CARD>                                                                                
 INPUT CARD>! Run COSMO on perfect conductor                                                
 INPUT CARD> $COSGMS PRFCND=.TRUE. $end                                                     
 INPUT CARD>                                                                                
 INPUT CARD>! Specifying RSOLV                                                              
 INPUT CARD> $COSGMS COSRAD = 1.4 $end                                                      
 INPUT CARD>                                                                                
 INPUT CARD>! available memory                                                              
 INPUT CARD> $SYSTEM MWORDS=40 $END                                                         
 INPUT CARD>                                                                                
 INPUT CARD> $DATA                                                                          
 INPUT CARD>http://cactus.nci.nih.gov/chemical/structure/N-ETHYLACETAMIDE/file?format=sdf&ge
 INPUT CARD>C1                                                                              
 INPUT CARD>C      6.0     -1.3947000000   -0.4561000000    0.0000000000                    
 INPUT CARD>C      6.0     -2.6916000000    0.3557000000    0.0000000000                    
 INPUT CARD>N      7.0     -0.2479000000    0.4556000000    0.0000000000                    
 INPUT CARD>C      6.0      1.0059000000   -0.0387000000    0.0000000000                    
 INPUT CARD>C      6.0      2.1855000000    0.8991000000    0.0000000000                    
 INPUT CARD>O      8.0      1.1848000000   -1.2382000000    0.0000000000                    
 INPUT CARD>H      1.0     -1.3594000000   -1.0844000000    0.8900000000                    
 INPUT CARD>H      1.0     -1.3594000000   -1.0844000000   -0.8900000000                    
 INPUT CARD>H      1.0     -2.7269000000    0.9840000000   -0.8900000000                    
 INPUT CARD>H      1.0     -3.5448000000   -0.3226000000   -0.0000000000                    
 INPUT CARD>H      1.0     -2.7269000000    0.9840000000    0.8900000000                    
 INPUT CARD>H      1.0     -0.3911000000    1.4150000000    0.0000000000                    
   40000000 WORDS OF MEMORY AVAILABLE

     BASIS OPTIONS
     -------------
     GBASIS=N311         IGAUSS=       6      POLAR=POPN311 
     NDFUNC=       1     NFFUNC=       0     DIFFSP=       F
     NPFUNC=       1      DIFFS=       F     BASNAM=        


     RUN TITLE
     ---------
 http://cactus.nci.nih.gov/chemical/structure/N-ETHYLACETAMIDE/file?format=sdf&ge

 THE POINT GROUP OF THE MOLECULE IS C1      
 THE ORDER OF THE PRINCIPAL AXIS IS     0

 ATOM      ATOMIC                      COORDINATES (BOHR)
           CHARGE         X                   Y                   Z
 C           6.0    -2.6356008351       -0.8619040230        0.0000000000
 C           6.0    -5.0863864686        0.6721755338        0.0000000000
 N           7.0    -0.4684630724        0.8609591600        0.0000000000
 C           6.0     1.9008753710       -0.0731323957        0.0000000000
 C           6.0     4.1299961462        1.6990526356        0.0000000000
 O           8.0     2.2389473503       -2.3398587180        0.0000000000
 H           1.0    -2.5688935077       -2.0492188611        1.6818561291
 H           1.0    -2.5688935077       -2.0492188611       -1.6818561291
 H           1.0    -5.1530937959        1.8594903719       -1.6818561291
 H           1.0    -6.6987006813       -0.6096256036       -0.0000000000
 H           1.0    -5.1530937959        1.8594903719        1.6818561291
 H           1.0    -0.7390718338        2.6739622726        0.0000000000
 H           1.0     4.6676231897        2.1263196814        1.9420713976
 H           1.0     5.7141534417        0.8097475857       -0.9709412125
 H           1.0     3.6209039651        3.4428917770       -0.9709412125

          INTERNUCLEAR DISTANCES (ANGS.)




     $CONTRL OPTIONS
     ---------------
 SCFTYP=RHF          RUNTYP=OPTIMIZE     EXETYP=RUN     
 MPLEVL=       0     CITYP =NONE         CCTYP =NONE         VBTYP =NONE    
 DFTTYP=NONE         TDDFT =NONE    
 MULT  =       1     ICHARG=       0     NZVAR =       1     COORD =UNIQUE  
 PP    =NONE         RELWFN=NONE         LOCAL =NONE         NUMGRD=       F
 ISPHER=      -1     NOSYM =       0     MAXIT =     200     UNITS =ANGS    
 PLTORB=       F     MOLPLT=       F     AIMPAC=       F     FRIEND=        
 NPRINT=       7     IREST =       0     GEOM  =INPUT   
 NORMF =       0     NORMP =       0     ITOL  =      20     ICUT  =       9
 INTTYP=BEST         GRDTYP=BEST         QMTTOL= 1.0E-06

     $SYSTEM OPTIONS
     ---------------
  REPLICATED MEMORY=    40000000 WORDS (ON EVERY NODE).
 DISTRIBUTED MEMDDI=           0 MILLION WORDS IN AGGREGATE,
 MEMDDI DISTRIBUTED OVER   1 PROCESSORS IS           0 WORDS/PROCESSOR.
 TOTAL MEMORY REQUESTED ON EACH PROCESSOR=    40000000 WORDS.
 TIMLIM=       10000.00 MINUTES, OR       6.9 DAYS.
 PARALL= F  BALTYP=  DLB     KDIAG=    0  COREFL= F
 MXSEQ2=     300 MXSEQ3=     150  mem10=         0

     $COSGMS OPTIONS
     ---------------
     EPSI  =   INFTY     NSPA  =      92     COSRAD=    1.40
     DISEX =   10.00     OUTCHG=DBLCAV       COSBUG=       F
     COSWRT=       F     DCOSMO=       F

     SYMMETRY COORDINATES WILL NOT BE USED FOR 
     THE COSMO CALCULATION, EVEN IF SPECIFIED:
         -- SWITCHING TO C1 POINT GROUP --


     DEFINITION OF CAVITY
     ---------------------------
     ATOM         COORDINATES           RADIUS 
     1   -2.6356   -0.8619    0.0000    2.0000
     2   -5.0864    0.6722    0.0000    2.0000
     3   -0.4685    0.8610    0.0000    1.8300
     4    1.9009   -0.0731    0.0000    2.0000
     5    4.1300    1.6991    0.0000    2.0000
     6    2.2389   -2.3399    0.0000    1.7200
     7   -2.5689   -2.0492    1.6819    1.3000
     8   -2.5689   -2.0492   -1.6819    1.3000
     9   -5.1531    1.8595   -1.6819    1.3000
    10   -6.6987   -0.6096   -0.0000    1.3000
    11   -5.1531    1.8595    1.6819    1.3000
    12   -0.7391    2.6740    0.0000    1.3000
    13    4.6676    2.1263    1.9421    1.3000
    14    5.7142    0.8097   -0.9709    1.3000
    15    3.6209    3.4429   -0.9709    1.3000

          ----------------
          PROPERTIES INPUT
          ----------------

     MOMENTS            FIELD           POTENTIAL          DENSITY
 IEMOM =       1   IEFLD =       0   IEPOT =       0   IEDEN =       0
 WHERE =COMASS     WHERE =NUCLEI     WHERE =NUCLEI     WHERE =NUCLEI  
 OUTPUT=BOTH       OUTPUT=BOTH       OUTPUT=BOTH       OUTPUT=BOTH    
 IEMINT=       0   IEFINT=       0                     IEDINT=       0
                                                       MORB  =       0
          EXTRAPOLATION IN EFFECT
          SOSCF IN EFFECT
 ORBITAL PRINTING OPTION: NPREO=     1   168     2     1

     -------------------------------
     INTEGRAL TRANSFORMATION OPTIONS
     -------------------------------
     NWORD  =            0
     CUTOFF = 1.0E-09     MPTRAN =       0
     DIRTRF =       T     AOINTS =DUP     

          ----------------------
          INTEGRAL INPUT OPTIONS
          ----------------------
 NOPK  =       1 NORDER=       0 SCHWRZ=       T


 -----------------------------------------------
  STATISTICS ON AUTOMATIC COORDINATE GENERATION 
 -----------------------------------------------
  NUMBER OF USER SPECIFIED BONDS                             0
  NUMBER OF BONDS                                           14
  NUMBER OF ANGLES                                          24
  NUMBER OF TORSIONS                                        25
  NUMBER OF EXTRA COORD.                                     0
  NUMBER OF EXTRA COORD. FOR CONSTRAINTS                     0
  NUMBER OF CONSTRAINED COORD.                               0

  TOTAL NUMBER OF PRIMITIVES                                63
 -----------------------------------------------

   --- ENCODED Z MATRIX ---
 COORD  TYPE   I   J   K   L   M   N
    1      1    1   2
    2      1    1   7
    3      1    1   3
    4      1    1   8
    5      1    2  11
    6      1    2  10
    7      1    2   9
    8      1    3   4
    9      1    3  12
   10      1    4   6
   11      1    4   5
   12      1    5  15
   13      1    5  14
   14      1    5  13
   15      2    1   3  12
   16      2    1   3   4
   17      2    1   2  11
   18      2    1   2  10
   19      2    1   2   9
   20      2    2   1   8
   21      2    2   1   3
   22      2    2   1   7
   23      2    3   1   7
   24      2    3   1   8
   25      2    3   4   5
   26      2    3   4   6
   27      2    4   3  12
   28      2    4   5  13
   29      2    4   5  14
   30      2    4   5  15
   31      2    5   4   6
   32      2    7   1   8
   33      2    9   2  10
   34      2    9   2  11
   35      2   10   2  11
   36      2   13   5  14
   37      2   13   5  15
   38      2   14   5  15
   39      3    1   3   4   6
   40      3    1   3   4   5
   41      3    2   1   3  12
   42      3    2   1   3   4
   43      3    3   1   2  10
   44      3    3   1   2  11
   45      3    3   4   5  13
   46      3    3   4   5  14
   47      3    3   4   5  15
   48      3    3   1   2   9
   49      3    4   3   1   8
   50      3    4   3   1   7
   51      3    5   4   3  12
   52      3    6   4   5  15
   53      3    6   4   5  14
   54      3    6   4   5  13
   55      3    6   4   3  12
   56      3    7   1   2   9
   57      3    7   1   2  10
   58      3    7   1   2  11
   59      3    7   1   3  12
   60      3    8   1   2  10
   61      3    8   1   3  12
   62      3    8   1   2  11
   63      3    8   1   2   9

          INDEP./SYM. INTERNAL COORDINATES
          --------------------------------
 CRD  1=  -0.2302 ( 15)  0.4547 ( 16)  0.1255 ( 20) -0.5040 ( 21)  0.1255 ( 22)
           0.1655 ( 23)  0.1655 ( 24) -0.4159 ( 25)  0.2433 ( 26) -0.2244 ( 27)
           0.1725 ( 31)
 CRD  2=   0.2848 (  1)  0.3989 (  3)  0.4060 (  8)  0.2964 ( 11) -0.2009 ( 15)
           0.4392 ( 16) -0.1120 ( 20)  0.2366 ( 21) -0.1120 ( 22)  0.1026 ( 26)
          -0.2384 ( 27) -0.1622 ( 31)
 CRD  3=   0.1135 (  1) -0.2328 ( 11)  0.1498 ( 15)  0.1191 ( 17) -0.1488 ( 18)
           0.1191 ( 19) -0.1121 ( 20)  0.4640 ( 21) -0.1121 ( 22) -0.1685 ( 23)
          -0.1685 ( 24) -0.5033 ( 25)  0.2833 ( 26) -0.1372 ( 27)  0.1268 ( 29)
          -0.2490 ( 30)  0.2200 ( 31)
 CRD  4=  -0.1530 ( 17)  0.1530 ( 19) -0.1368 ( 23)  0.1368 ( 24) -0.3003 ( 28)
           0.1501 ( 29)  0.1502 ( 30)  0.2794 ( 39)  0.4854 ( 40) -0.3216 ( 42)
           0.2381 ( 43)  0.1763 ( 44) -0.1331 ( 45) -0.2067 ( 46)  0.1763 ( 48)
          -0.1493 ( 49) -0.1493 ( 50)  0.2476 ( 51)  0.1465 ( 52)
 CRD  5=  -0.2514 ( 17)  0.2514 ( 19)  0.2290 ( 20) -0.2290 ( 22)  0.1344 ( 23)
          -0.1344 ( 24)  0.1187 ( 28) -0.2423 ( 39) -0.1777 ( 40) -0.3304 ( 41)
          -0.3792 ( 42) -0.1463 ( 45) -0.1215 ( 46) -0.1710 ( 47) -0.1810 ( 49)
          -0.1810 ( 50) -0.2264 ( 51) -0.1064 ( 52) -0.2910 ( 55) -0.1323 ( 59)
          -0.1323 ( 61)
 CRD  6=  -0.2226 (  1)  0.1104 (  3)  0.4673 ( 11)  0.1071 ( 15) -0.3699 ( 26)
           0.1397 ( 28)  0.4005 ( 29) -0.1213 ( 30)  0.4696 ( 31) -0.2018 ( 36)
          -0.1396 ( 38)
 CRD  7=  -0.5867 (  1)  0.1479 ( 16) -0.4401 ( 18) -0.1970 ( 20)  0.1011 ( 21)
          -0.1970 ( 22)  0.1454 ( 26) -0.1022 ( 27) -0.1470 ( 29) -0.1597 ( 31)
           0.2213 ( 33)  0.2213 ( 35) -0.1186 ( 49)  0.1186 ( 50)  0.1186 ( 59)
          -0.1186 ( 61)
 CRD  8=  -0.1351 ( 14)  0.3163 ( 17) -0.3163 ( 19)  0.1707 ( 23) -0.1707 ( 24)
          -0.5161 ( 28)  0.2581 ( 29)  0.2580 ( 30)  0.1231 ( 33) -0.1231 ( 35)
          -0.1768 ( 38) -0.1281 ( 39) -0.2059 ( 43) -0.1630 ( 44) -0.1414 ( 45)
          -0.1912 ( 46) -0.1630 ( 48) -0.1057 ( 55)
 CRD  9=  -0.4022 (  3) -0.1237 (  6)  0.3141 (  8) -0.3581 ( 15)  0.1929 ( 17)
          -0.3619 ( 18)  0.1929 ( 19)  0.3577 ( 27)  0.2768 ( 29) -0.2354 ( 30)
          -0.1629 ( 34) -0.1226 ( 36)
 CRD 10=  -0.1903 (  1)  0.1290 (  3)  0.1171 (  6)  0.2910 (  8)  0.2208 (  9)
          -0.1813 ( 11) -0.1239 ( 12)  0.1129 ( 13) -0.1035 ( 16) -0.2713 ( 17)
           0.3523 ( 18) -0.2712 ( 19)  0.1487 ( 26)  0.1149 ( 27)  0.2872 ( 29)
          -0.4079 ( 30) -0.1778 ( 31)  0.2326 ( 34)  0.1990 ( 37)
 CRD 11=   0.1112 (  2) -0.1111 (  4) -0.1251 (  5)  0.1251 (  7) -0.4165 ( 17)
           0.4165 ( 19)  0.1294 ( 20) -0.1294 ( 22)  0.1667 ( 23) -0.1667 ( 24)
          -0.2944 ( 28)  0.1472 ( 29)  0.1472 ( 30) -0.1736 ( 33)  0.1736 ( 35)
          -0.1190 ( 38)  0.1705 ( 42) -0.1327 ( 44)  0.1289 ( 45)  0.1116 ( 46)
           0.1462 ( 47) -0.1327 ( 48)  0.2269 ( 49)  0.2269 ( 50)  0.1352 ( 55)
 CRD 12=  -0.1188 (  1) -0.1744 (  2) -0.4101 (  3) -0.1745 (  4)  0.1266 (  8)
          -0.1580 (  9)  0.2990 ( 10)  0.2026 ( 11) -0.2172 ( 15) -0.1966 ( 17)
           0.2546 ( 18) -0.1966 ( 19)  0.2099 ( 21) -0.1435 ( 23) -0.1435 ( 24)
          -0.1296 ( 25)  0.1572 ( 27) -0.1407 ( 29)  0.2982 ( 30)  0.1362 ( 32)
           0.1787 ( 34) -0.1746 ( 37)
 CRD 13=  -0.1213 (  5)  0.1213 (  7) -0.1123 ( 14) -0.1588 ( 17)  0.1588 ( 19)
          -0.3520 ( 20)  0.3520 ( 22) -0.2804 ( 23)  0.2804 ( 24) -0.2275 ( 28)
           0.1137 ( 29)  0.1137 ( 30) -0.1189 ( 38) -0.2171 ( 39) -0.1964 ( 40)
           0.1769 ( 41)  0.1407 ( 42)  0.1026 ( 43)  0.1253 ( 44)  0.1253 ( 48)
          -0.1187 ( 49) -0.1187 ( 50) -0.2326 ( 51) -0.2534 ( 55)
 CRD 14=  -0.1095 (  2) -0.1805 (  3) -0.1095 (  4) -0.2797 (  8) -0.5363 (  9)
          -0.4709 ( 10) -0.1380 ( 15)  0.2677 ( 16)  0.1505 ( 21)  0.2401 ( 25)
          -0.2198 ( 26) -0.1297 ( 27) -0.1837 ( 30)  0.1225 ( 37)
 CRD 15=  -0.4263 (  2)  0.4263 (  4)  0.1040 ( 20) -0.1040 ( 22) -0.1614 ( 28)
          -0.1187 ( 38) -0.1324 ( 39) -0.2082 ( 40) -0.1463 ( 41)  0.1973 ( 43)
           0.1742 ( 44)  0.2424 ( 45)  0.2656 ( 46)  0.2191 ( 47)  0.1742 ( 48)
          -0.1476 ( 51)  0.1433 ( 52)  0.1899 ( 53)  0.1666 ( 54)
 CRD 16=   0.1202 ( 10)  0.1164 ( 11)  0.4981 ( 12)  0.4626 ( 13)  0.4803 ( 14)
          -0.1961 ( 28) -0.2306 ( 29) -0.1616 ( 30)  0.1169 ( 31)  0.2233 ( 36)
           0.1689 ( 37)  0.1961 ( 38)
 CRD 17=   0.1737 (  1)  0.5075 (  5)  0.4869 (  6)  0.5075 (  7) -0.1726 ( 17)
          -0.1909 ( 18) -0.1726 ( 19)  0.1832 ( 33)  0.1697 ( 34)  0.1832 ( 35)
 CRD 18=   0.5291 ( 12) -0.5058 ( 13) -0.3552 ( 36)  0.3509 ( 37)  0.2593 ( 45)
          -0.1310 ( 46) -0.1286 ( 47) -0.1285 ( 52) -0.1310 ( 53)  0.2594 ( 54)
 CRD 19=  -0.2982 ( 12) -0.3040 ( 13)  0.6022 ( 14)  0.1978 ( 36)  0.2017 ( 37)
          -0.3996 ( 38)  0.2431 ( 46) -0.2014 ( 47) -0.2076 ( 52)  0.2369 ( 53)
 CRD 20=   0.1914 (  2) -0.1914 (  4) -0.1286 ( 20)  0.1286 ( 22) -0.1560 ( 41)
          -0.1186 ( 42) -0.1260 ( 43) -0.1332 ( 44)  0.2359 ( 45)  0.2009 ( 46)
           0.2710 ( 47) -0.1332 ( 48) -0.2534 ( 49) -0.2534 ( 50)  0.3290 ( 52)
           0.2588 ( 53)  0.2938 ( 54) -0.2908 ( 59) -0.2908 ( 61)
 CRD 21=  -0.5333 (  2) -0.5333 (  4) -0.1329 (  5)  0.3244 (  6) -0.1329 (  7)
          -0.2293 ( 32) -0.1905 ( 34)  0.1080 ( 49) -0.1080 ( 50)  0.1679 ( 58)
          -0.1080 ( 59)  0.1080 ( 61) -0.1679 ( 63)
 CRD 22=  -0.5520 (  5)  0.5520 (  7)  0.2964 ( 33) -0.2964 ( 35)  0.2246 ( 43)
           0.2146 ( 57)  0.2146 ( 60)
 CRD 23=  -0.2979 (  2) -0.2979 (  4)  0.2932 (  5) -0.5644 (  6)  0.2932 (  7)
          -0.1354 ( 32) -0.1418 ( 33)  0.2775 ( 34) -0.1418 ( 35) -0.1546 ( 44)
           0.1546 ( 48)  0.2117 ( 56) -0.2117 ( 62)
 CRD 24=   0.3191 (  2) -0.3190 (  4)  0.1200 ( 23) -0.1201 ( 24)  0.1931 ( 43)
           0.1964 ( 44)  0.1964 ( 48)  0.3124 ( 56)  0.3090 ( 57)  0.3124 ( 58)
           0.3090 ( 60)  0.3124 ( 62)  0.3124 ( 63)
 CRD 25=  -0.2239 (  3)  0.2627 ( 11)  0.2853 ( 13)  0.1902 ( 14)  0.3828 ( 15)
           0.1201 ( 20)  0.1201 ( 22)  0.3465 ( 26) -0.3133 ( 27)  0.1204 ( 28)
           0.1893 ( 29) -0.3782 ( 31) -0.1786 ( 36) -0.1204 ( 38)
 CRD 26=  -0.1492 (  3)  0.1013 (  6) -0.1069 (  8)  0.5533 (  9) -0.5887 ( 10)
           0.1997 ( 12)  0.1196 ( 14) -0.1494 ( 15) -0.1023 ( 25)  0.1152 ( 27)
           0.1133 ( 28)  0.1756 ( 30)  0.1026 ( 32) -0.1659 ( 37) -0.1133 ( 38)
 CRD 27=  -0.1343 (  1)  0.1683 (  5)  0.2520 (  6)  0.1683 (  7) -0.3176 (  8)
          -0.1689 (  9)  0.3323 ( 10)  0.1651 ( 13)  0.1876 ( 17)  0.2213 ( 18)
           0.1876 ( 19) -0.1699 ( 20) -0.1699 ( 22)  0.1691 ( 23)  0.1691 ( 24)
           0.1362 ( 26)  0.1041 ( 27)  0.1195 ( 29) -0.1764 ( 31) -0.2218 ( 33)
          -0.1529 ( 34) -0.2218 ( 35) -0.1336 ( 36) -0.1342 ( 49)  0.1342 ( 50)
           0.1342 ( 59) -0.1342 ( 61)
 CRD 28=  -0.2308 (  1) -0.2518 (  3)  0.1435 (  5)  0.1435 (  7)  0.1381 (  8)
           0.2662 (  9)  0.3177 ( 11) -0.1912 ( 12) -0.1471 ( 13) -0.1691 ( 14)
           0.1994 ( 15)  0.1141 ( 16)  0.1387 ( 17)  0.1206 ( 18)  0.1387 ( 19)
           0.1166 ( 25) -0.1332 ( 26) -0.3135 ( 27) -0.1826 ( 28) -0.1871 ( 29)
          -0.1782 ( 30)  0.1190 ( 32) -0.1161 ( 33) -0.1659 ( 34) -0.1161 ( 35)
           0.1662 ( 36)  0.1991 ( 37)  0.1827 ( 38)
 CRD 29=   0.3148 (  1) -0.1167 (  5) -0.1167 (  7) -0.5024 (  8)  0.4147 (  9)
           0.2891 ( 10)  0.1086 ( 11) -0.2080 ( 12)  0.1346 ( 13) -0.1779 ( 15)
           0.1961 ( 16) -0.1164 ( 17) -0.1247 ( 18) -0.1164 ( 19)  0.1467 ( 25)
          -0.1077 ( 31)  0.1103 ( 33)  0.1369 ( 34)  0.1103 ( 35)  0.1639 ( 37)
 CRD 30=  -0.1637 (  2)  0.1637 (  4) -0.1251 (  5)  0.1251 (  7) -0.1990 ( 12)
          -0.1989 ( 13)  0.3980 ( 14) -0.1005 ( 33)  0.1005 ( 35) -0.1448 ( 36)
          -0.1449 ( 37)  0.2897 ( 38) -0.2351 ( 39)  0.1252 ( 41)  0.1040 ( 42)
          -0.1456 ( 43) -0.2821 ( 46)  0.1131 ( 47)  0.3918 ( 52)  0.1942 ( 54)
          -0.2563 ( 55)  0.1011 ( 56)  0.1011 ( 58)  0.1011 ( 62)  0.1011 ( 63)
 CRD 31=  -0.1624 (  1)  0.1105 (  5) -0.1180 (  6)  0.1105 (  7)  0.1461 (  9)
           0.2451 ( 10) -0.5304 ( 11)  0.1765 ( 13)  0.1122 ( 14)  0.1855 ( 16)
          -0.1385 ( 23) -0.1385 ( 24)  0.1489 ( 25) -0.2639 ( 26) -0.1941 ( 27)
           0.1308 ( 28)  0.1210 ( 29)  0.1407 ( 30)  0.1150 ( 31)  0.1278 ( 32)
          -0.1601 ( 34) -0.1773 ( 36) -0.1308 ( 38) -0.1920 ( 56) -0.1188 ( 57)
           0.1188 ( 60)  0.1920 ( 62)
 CRD 32=  -0.2965 (  2)  0.2965 (  4) -0.2030 (  5)  0.2030 (  7)  0.1067 ( 23)
          -0.1067 ( 24) -0.1584 ( 33)  0.1584 ( 35)  0.1469 ( 39) -0.1271 ( 41)
          -0.1768 ( 43) -0.1404 ( 49) -0.1404 ( 50)  0.2015 ( 51) -0.1519 ( 52)
          -0.1213 ( 54)  0.3090 ( 55)  0.2002 ( 56)  0.2002 ( 58) -0.3024 ( 59)
          -0.3024 ( 61)  0.2002 ( 62)  0.2002 ( 63)
 CRD 33=   0.1788 (  1) -0.4308 (  3) -0.1611 (  5)  0.2404 (  6) -0.1611 (  7)
           0.2639 (  8) -0.2552 ( 11)  0.1940 ( 15)  0.1440 ( 23)  0.1440 ( 24)
           0.1113 ( 25) -0.1937 ( 26) -0.2702 ( 27)  0.2425 ( 34) -0.1434 ( 44)
           0.1434 ( 48)  0.2450 ( 56)  0.1016 ( 57) -0.1016 ( 60) -0.2450 ( 62)
 CRD 34=  -0.2331 (  1)  0.1354 (  6) -0.1473 ( 10) -0.3377 ( 12)  0.3312 ( 13)
          -0.2015 ( 25) -0.1912 ( 29)  0.1833 ( 30)  0.1870 ( 31) -0.1438 ( 32)
          -0.2397 ( 36)  0.2476 ( 37)  0.2754 ( 45) -0.1377 ( 46) -0.1377 ( 47)
           0.1182 ( 49) -0.1182 ( 50) -0.1377 ( 52) -0.1377 ( 53)  0.2754 ( 54)
          -0.1182 ( 59)  0.1181 ( 61)
 CRD 35=  -0.3619 (  1)  0.1201 (  2)  0.1201 (  4)  0.2323 (  6) -0.2307 (  8)
           0.1327 (  9)  0.1228 ( 10)  0.1626 ( 12) -0.1616 ( 13) -0.2046 ( 15)
           0.1832 ( 16)  0.1708 ( 20)  0.1708 ( 22) -0.1245 ( 23) -0.1245 ( 24)
           0.1381 ( 25)  0.1088 ( 29) -0.1077 ( 30) -0.1240 ( 31) -0.1856 ( 32)
          -0.1260 ( 33) -0.1259 ( 35)  0.1177 ( 36) -0.1188 ( 37) -0.1139 ( 44)
          -0.1408 ( 45)  0.1139 ( 48)  0.1899 ( 49) -0.1899 ( 50) -0.1407 ( 54)
           0.1230 ( 56) -0.1049 ( 58) -0.1899 ( 59)  0.1900 ( 61) -0.1230 ( 62)
           0.1049 ( 63)
 CRD 36=   0.2289 (  5) -0.2290 (  7) -0.1242 ( 12) -0.1243 ( 13)  0.2485 ( 14)
          -0.1054 ( 17)  0.1054 ( 19) -0.1551 ( 28)  0.1792 ( 33) -0.1792 ( 35)
           0.1805 ( 38) -0.2021 ( 40) -0.1385 ( 41)  0.1260 ( 42)  0.2253 ( 43)
          -0.1209 ( 46)  0.1952 ( 47) -0.3289 ( 53) -0.1710 ( 54)  0.2705 ( 55)
           0.2183 ( 57) -0.2137 ( 59)  0.2183 ( 60) -0.2136 ( 61)
 CRD 37=   0.1713 (  2) -0.2770 (  3)  0.1713 (  4)  0.1232 (  5) -0.2262 (  6)
           0.1232 (  7)  0.1076 ( 16)  0.2093 ( 18)  0.2340 ( 21) -0.2738 ( 32)
          -0.1898 ( 34)  0.1725 ( 44) -0.1725 ( 48)  0.1184 ( 49) -0.1184 ( 50)
           0.2048 ( 57)  0.3772 ( 58) -0.1184 ( 59) -0.2048 ( 60)  0.1184 ( 61)
          -0.3772 ( 63)
 CRD 38=   0.1837 (  2) -0.1837 (  4) -0.1932 (  5)  0.1932 (  7)  0.1528 ( 14)
           0.1500 ( 17) -0.1500 ( 19)  0.1515 ( 20) -0.1515 ( 22) -0.1313 ( 28)
          -0.1487 ( 33)  0.1487 ( 35)  0.1102 ( 38) -0.2067 ( 40) -0.2254 ( 41)
          -0.1996 ( 42)  0.2151 ( 44)  0.1299 ( 45)  0.2376 ( 47)  0.2151 ( 48)
          -0.1809 ( 51) -0.2781 ( 53) -0.1705 ( 54)  0.1195 ( 55) -0.2732 ( 57)
          -0.2732 ( 60)
 CRD 39=  -0.1187 ( 23)  0.1187 ( 24) -0.3776 ( 39) -0.3304 ( 41)  0.1313 ( 42)
           0.1014 ( 43)  0.1601 ( 44) -0.2003 ( 45) -0.1522 ( 46) -0.2484 ( 47)
           0.1601 ( 48)  0.2782 ( 49)  0.2782 ( 50)  0.4091 ( 51)  0.1727 ( 53)
           0.1246 ( 54) -0.1835 ( 59) -0.1835 ( 61)

 THE DETERMINANT OF THE G MATRIX IS 10**(   -16)


                     --------------------
                     INTERNAL COORDINATES
                     --------------------

                 - - ATOMS - -         COORDINATE      COORDINATE
 NO.   TYPE    I  J  K  L  M  N        (BOHR,RAD)       (ANG,DEG)
 ----------------------------------------------------------------
   1 STRETCH   1  2                     2.8913233       1.5300225
   2 STRETCH   1  7                     2.0598074       1.0900032
   3 STRETCH   1  3                     2.7685273       1.4650417
   4 STRETCH   1  8                     2.0598074       1.0900032
   5 STRETCH   2 11                     2.0598074       1.0900032
   6 STRETCH   2 10                     2.0597503       1.0899730
   7 STRETCH   2  9                     2.0598074       1.0900032
   8 STRETCH   3  4                     2.5468199       1.3477192
   9 STRETCH   3 12                     1.8330874       0.9700281
  10 STRETCH   4  6                     2.2917986       1.2127677
  11 STRETCH   4  5                     2.8477393       1.5069589
  12 STRETCH   5 15                     2.0598244       1.0900122
  13 STRETCH   5 14                     2.0598895       1.0900466
  14 STRETCH   5 13                     2.0599129       1.0900591
  15 BEND      1  3 12                  2.0943117     119.9952231
  16 BEND      1  3  4                  2.0943788     119.9990671
  17 BEND      1  2 11                  1.9105853     109.4684768
  18 BEND      1  2 10                  1.9106184     109.4703729
  19 BEND      1  2  9                  1.9105853     109.4684768
  20 BEND      2  1  8                  1.9105853     109.4684768
  21 BEND      2  1  3                  1.9106260     109.4708035
  22 BEND      2  1  7                  1.9105853     109.4684768
  23 BEND      3  1  7                  1.9106592     109.4727059
  24 BEND      3  1  8                  1.9106592     109.4727059
  25 BEND      3  4  5                  2.0943663     119.9983477
  26 BEND      3  4  6                  2.0943828     119.9992936
  27 BEND      4  3 12                  2.0944948     120.0057098
  28 BEND      4  5 13                  1.9106815     109.4739853
  29 BEND      4  5 14                  1.9106191     109.4704135
  30 BEND      4  5 15                  1.9106869     109.4742942
  31 BEND      5  4  6                  2.0944363     120.0023587
  32 BEND      7  1  8                  1.9106844     109.4741546
  33 BEND      9  2 10                  1.9106629     109.4729212
  34 BEND      9  2 11                  1.9106844     109.4741546
  35 BEND     10  2 11                  1.9106629     109.4729212
  36 BEND     13  5 14                  1.9105144     109.4644098
  37 BEND     13  5 15                  1.9106085     109.4698013
  38 BEND     14  5 15                  1.9106891     109.4744193
  39 TORSION   1  3  4  6               0.0000000       0.0000000
  40 TORSION   1  3  4  5               3.1415927     180.0000000
  41 TORSION   2  1  3 12               0.0000000       0.0000000
  42 TORSION   2  1  3  4               3.1415927     180.0000000
  43 TORSION   3  1  2 10               3.1415927     180.0000000
  44 TORSION   3  1  2 11              -1.0471996     -60.0001165
  45 TORSION   3  4  5 13               1.5708587      90.0035716
  46 TORSION   3  4  5 14              -2.6180562    -150.0035712
  47 TORSION   3  4  5 15              -0.5235685     -29.9982655
  48 TORSION   3  1  2  9               1.0471996      60.0001165
  49 TORSION   4  3  1  8              -1.0472448     -60.0027064
  50 TORSION   4  3  1  7               1.0472448      60.0027064
  51 TORSION   5  4  3 12               0.0000000       0.0000000
  52 TORSION   6  4  5 15               2.6180242     150.0017345
  53 TORSION   6  4  5 14               0.5235364      29.9964288
  54 TORSION   6  4  5 13              -1.5707340     -89.9964284
  55 TORSION   6  4  3 12               3.1415927     180.0000000
  56 TORSION   7  1  2  9               3.1415927     180.0000000
  57 TORSION   7  1  2 10              -1.0471996     -60.0001165
  58 TORSION   7  1  2 11               1.0471935      59.9997669
  59 TORSION   7  1  3 12              -2.0943479    -119.9972936
  60 TORSION   8  1  2 10               1.0471996      60.0001165
  61 TORSION   8  1  3 12               2.0943479     119.9972936
  62 TORSION   8  1  2 11               3.1415927     180.0000000
  63 TORSION   8  1  2  9              -1.0471935     -59.9997669

     ------------------------------------------
     THE POINT GROUP IS C1 , NAXIS= 1, ORDER= 1
     ------------------------------------------

     DIMENSIONS OF THE SYMMETRY SUBSPACES ARE
 A   =  168

 ..... DONE SETTING UP THE RUN .....
 STEP CPU TIME =     0.01 TOTAL CPU TIME =        0.0 (    0.0 MIN)
 TOTAL WALL CLOCK TIME=        0.0 SECONDS, CPU UTILIZATION IS  50.00%


          -----------------------------
          STATIONARY POINT LOCATION RUN
          -----------------------------

 OBTAINING INITIAL HESSIAN, HESS=GUESS   
 DIAGONAL GUESS HESSIAN IN INTERNAL COORDS IS
     1  0.3672     2  0.3464     3  0.3636     4  0.3464     5  0.3464
     6  0.3464     7  0.3464     8  0.4567     9  0.3817    10  0.5493
    11  0.3840    12  0.3464    13  0.3463    14  0.3463    15  0.2203
    16  0.2498    17  0.2241    18  0.2241    19  0.2241    20  0.2241
    21  0.2451    22  0.2241    23  0.2212    24  0.2212    25  0.2550
    26  0.2635    27  0.2273    28  0.2254    29  0.2255    30  0.2255
    31  0.2601    32  0.2034    33  0.2034    34  0.2034    35  0.2034
    36  0.2034    37  0.2034    38  0.2034    39  0.2500    40  0.2500
    41  0.2500    42  0.2500    43  0.2500    44  0.2500    45  0.2500
    46  0.2500    47  0.2500    48  0.2500    49  0.2500    50  0.2500
    51  0.2500    52  0.2500    53  0.2500    54  0.2500    55  0.2500
    56  0.2500    57  0.2500    58  0.2500    59  0.2500    60  0.2500
    61  0.2500    62  0.2500    63  0.2500
 TRANSFORMING HESSIAN TO SYMMETRY COORDINATES

          PARAMETERS CONTROLLING GEOMETRY SEARCH ARE
          METHOD =QA                  UPHESS =BFGS    
          NNEG   =         0          NFRZ   =         3
          NSTEP  =        50          IFOLOW =         1
          HESS   =GUESS               RESTAR =         F
          IHREP  =         0          HSSEND =         F
          NPRT   =         0          NPUN   =         0
          OPTTOL = 5.000E-04          RMIN   = 1.500E-03
          RMAX   = 1.000E-01          RLIM   = 7.000E-02
          DXMAX  = 3.000E-01          PURIFY =         F
          MOVIE  =         F          TRUPD  =         T
          TRMAX  = 5.000E-01          TRMIN  = 5.000E-02
          ITBMAT =         5          STPT   =         F
          STSTEP = 1.000E-02          PROJCT=          F
          FROZEN COORD(S)=   1   2   3


      ***** EQUILIBRIUM GEOMETRY LOCATED *****
            (SUBJECT TO   3 CONSTRAINT(S))
 COORDINATES OF ALL ATOMS ARE (ANGS)
   ATOM   CHARGE       X              Y              Z
 ------------------------------------------------------------
 C           6.0  -1.3981466658  -0.4428387868   0.0121182911
 C           6.0  -2.6838615246   0.3641914582  -0.0055855568
 N           7.0  -0.2414373339   0.4420065426  -0.0211269146
 C           6.0   0.9988087344  -0.0510325854  -0.0069860903
 C           6.0   2.1599281286   0.9135056322   0.0038503541
 O           8.0   1.2022193899  -1.2470891984   0.0125089815
 H           1.0  -1.3517048396  -1.0610533834   0.9024983195
 H           1.0  -1.3600554227  -1.1117940661  -0.8409138482
 H           1.0  -2.7463573257   0.9684910676  -0.9056443082
 H           1.0  -3.5390828505  -0.3022967598   0.0182277121
 H           1.0  -2.7382922771   1.0203181154   0.8580414350
 H           1.0  -0.3869832476   1.4258855005  -0.0268912878
 H           1.0   2.5892715537   0.9172048572   1.0007788691
 H           1.0   2.9078798399   0.5297553009  -0.6792482381
 H           1.0   1.8982843058   1.9269508165  -0.2721780143


                     --------------------
                     INTERNAL COORDINATES
                     --------------------

                 - - ATOMS - -         COORDINATE      COORDINATE
 NO.   TYPE    I  J  K  L  M  N        (BOHR,RAD)       (ANG,DEG)
 ----------------------------------------------------------------
   1 STRETCH   1  2                     2.8688219       1.5181153
   2 STRETCH   1  7                     2.0502636       1.0849529
   3 STRETCH   1  3                     2.7528015       1.4567199
   4 STRETCH   1  8                     2.0498222       1.0847193
   5 STRETCH   2 11                     2.0521732       1.0859634
   6 STRETCH   2 10                     2.0494400       1.0845170
   7 STRETCH   2  9                     2.0520628       1.0859049
   8 STRETCH   3  4                     2.5222695       1.3347276
   9 STRETCH   3 12                     1.8795267       0.9946028
  10 STRETCH   4  6                     2.2929685       1.2133867
  11 STRETCH   4  5                     2.8525786       1.5095197
  12 STRETCH   5 15                     2.0455534       1.0824603
  13 STRETCH   5 14                     2.0469490       1.0831989
  14 STRETCH   5 13                     2.0512155       1.0854566
  15 BEND      1  3 12                  2.0769401     118.9999044
  16 BEND      1  3  4                  2.1097315     120.8787083
  17 BEND      1  2 11                  1.9330277     110.7543307
  18 BEND      1  2 10                  1.9186755     109.9320064
  19 BEND      1  2  9                  1.9328972     110.7468540
  20 BEND      2  1  8                  1.9266725     110.3902002
  21 BEND      2  1  3                  1.9276429     110.4458007
  22 BEND      2  1  7                  1.9270150     110.4098246
  23 BEND      3  1  7                  1.9080046     109.3206115
  24 BEND      3  1  8                  1.9057987     109.1942194
  25 BEND      3  4  5                  2.0700762     118.6066304
  26 BEND      3  4  6                  2.1177170     121.3362456
  27 BEND      4  3 12                  2.0960687     120.0958920
  28 BEND      4  5 13                  1.8891683     108.2413711
  29 BEND      4  5 14                  1.8757352     107.4717099
  30 BEND      4  5 15                  1.9937723     114.2347380
  31 BEND      5  4  6                  2.0952977     120.0517172
  32 BEND      7  1  8                  1.8676023     107.0057300
  33 BEND      9  2 10                  1.8910510     108.3492409
  34 BEND      9  2 11                  1.8965753     108.6657609
  35 BEND     10  2 11                  1.8905326     108.3195380
  36 BEND     13  5 14                  1.8831322     107.8955269
  37 BEND     13  5 15                  1.9035216     109.0637525
  38 BEND     14  5 15                  1.9153523     109.7416024
  39 TORSION   1  3  4  6               0.0205735       1.1787721
  40 TORSION   1  3  4  5              -3.1062593    -177.9755463
  41 TORSION   2  1  3 12               0.0269864       1.5462097
  42 TORSION   2  1  3  4               3.1365525     179.7112199
  43 TORSION   3  1  2 10               3.1404737     179.9358876
  44 TORSION   3  1  2 11              -1.0541216     -60.3967210
  45 TORSION   3  4  5 13               1.8454520     105.7366102
  46 TORSION   3  4  5 14              -2.4080748    -137.9725200
  47 TORSION   3  4  5 15              -0.2786472     -15.9653069
  48 TORSION   3  1  2  9               1.0513220      60.2363151
  49 TORSION   4  3  1  8              -1.0248752     -58.7210264
  50 TORSION   4  3  1  7               1.0129284      58.0365237
  51 TORSION   5  4  3 12               0.0029575       0.1694501
  52 TORSION   6  4  5 15               2.8775103     164.8691931
  53 TORSION   6  4  5 14               0.7480827      42.8619801
  54 TORSION   6  4  5 13              -1.2815759     -73.4288898
  55 TORSION   6  4  3 12               3.1297902     179.3237685
  56 TORSION   7  1  2  9              -3.1195134    -178.7349500
  57 TORSION   7  1  2 10              -1.0303617     -59.0353775
  58 TORSION   7  1  2 11               1.0582283      60.6320138
  59 TORSION   7  1  3 12              -2.0966376    -120.1284865
  60 TORSION   8  1  2 10               1.0311138      59.0784664
  61 TORSION   8  1  3 12               2.1487440     123.1139634
  62 TORSION   8  1  2 11               3.1197037     178.7458577
  63 TORSION   8  1  2  9              -1.0580379     -60.6211061

          INTERNUCLEAR DISTANCES (ANGS.)


 =====================================================
   GAMESS/COSab RESULTS
 =====================================================

   Dielectric Constant                  = INFTY
   Basic Grid Size                      =                 1082
   Number of Segments                   =                   92
   Number of Segments located on spheres=                  237
   Number of Segments of the cavity     =                  553
   Solvent Radius (rsolv)               = 1.40
   Outlying Charge Error Method         = double cavity

 =====================================================

  Total solvated Energy (a.u.)          =  -286.1362037064
  Total Energy corrected (a.u.)         =  -286.1359113403

  Outlying charge effect (a.u.)         =     0.0002923661
  Outlying charge effect (kcal/mol)     =     0.1834626600

  Dielectric Energy (a.u.)              =    -0.0208994084
  Dielectric energy corr. (a.u.)        =    -0.0206070423

  Sum of polarization charges           =     0.0208707540
  Sum of polarization charges(cor.)     =    -0.0208707540

  Total surface area of cavity (A**2)   =  135.31
  Total volume of cavity (A**3)         =  121.22

 =====================================================
 NPS=                   553
NR.  ATOM  (X, Y, Z)(a.u.)                  CHARGE(e)  AREA(A**2) SIGMA(e/A**2)
   1   1  -2.134596   0.280232   3.597638   0.000023   0.139368   0.000162
   2   1  -4.924876  -3.848152  -0.049826  -0.000193   0.232280  -0.000833
   3   1  -1.960967  -4.540291  -0.300879   0.000090   0.139368   0.000645
   4   1  -2.607242  -0.290472  -3.716696   0.000089   0.139368   0.000639
   5   1  -2.316310   0.344335  -3.552429  -0.000013   0.046456  -0.000289
   6   1  -1.968283  -4.512805   0.586425   0.000333   0.139368   0.002388
   7   1  -4.570023  -3.924690   1.039081  -0.000573   0.418105  -0.001371
   8   1  -1.755030  -0.266004   3.652145   0.000029   0.139368   0.000209
   9   1  -3.946305  -4.382839  -0.073469   0.000146   0.371649   0.000394
  10   1  -2.601472  -4.615866  -0.017677   0.000619   0.232280   0.002663
  11   1  -4.599739  -3.929888  -0.917881  -0.000377   0.278737  -0.001353
  12   1  -1.887376  -0.273579  -3.637350   0.000120   0.139368   0.000860
  13   1  -3.278367  -4.537356   0.453802   0.000294   0.278737   0.001053
  14   1  -2.666001  -0.100670   3.729874   0.000088   0.139368   0.000633
  15   2  -8.150107   1.005862   2.159036   0.001670   0.418105   0.003994
  16   2  -5.926523  -1.054453  -3.253515   0.000359   0.232280   0.001546
  17   2  -8.398762   1.011750  -1.774263   0.001321   0.418105   0.003160
  18   2  -6.868294   3.993230   0.354941   0.001056   0.371649   0.002841
  19   2  -5.005462   0.028730   3.710320   0.000354   0.278737   0.001272
  20   2  -6.308117  -1.759406   2.590372   0.000320   0.232280   0.001377
  21   2  -6.053588  -0.885975   3.282191   0.000590   0.325193   0.001814
  22   2  -7.011835  -0.007083   3.157552   0.001152   0.325193   0.003543
  23   2  -6.462517   4.143406  -0.652191   0.001150   0.371649   0.003095
  24   2  -7.865938   1.482568  -2.428375   0.000825   0.278737   0.002962
  25   2  -5.924508  -0.155952  -3.594478   0.000451   0.232280   0.001941
  26   2  -7.728968  -0.064427   2.569564   0.000695   0.232280   0.002993
  27   2  -7.394933   0.874194   2.964762   0.000955   0.278737   0.003425
  28   2  -4.957213  -0.221875  -3.677013   0.000218   0.232280   0.000941
  29   2  -6.714087  -0.736621  -3.101979   0.001029   0.325193   0.003163
  30   2  -7.793111   0.295441  -2.603674   0.001120   0.278737   0.004017
  31   2  -8.256205   2.266041  -1.296650   0.000977   0.464561   0.002102
  32   2  -7.708674   3.377105  -0.328059   0.000858   0.464561   0.001846
  33   2  -5.558958   4.433240   0.136629   0.001659   0.418105   0.003968
  34   2  -4.502995   4.417549  -0.240368   0.000764   0.232280   0.003288
  35   2  -6.264190  -1.684939  -2.699522   0.000476   0.278737   0.001709
  36   2  -8.757890   1.387788  -0.465869   0.000672   0.418105   0.001607
  37   2  -8.643175   1.428915   0.979702   0.000880   0.418105   0.002104
  38   2  -8.105690   2.180229   1.678647   0.001109   0.464561   0.002386
  39   2  -7.655459   3.281015   0.930789   0.000579   0.325193   0.001781
  40   2  -6.851251  -1.047918   2.836109   0.000480   0.232280   0.002066
  41   2  -5.966590  -0.001796   3.596021   0.000534   0.232280   0.002300
  42   2  -7.620462   3.169802  -1.287312   0.000457   0.278737   0.001640
  43   2  -7.091414   0.161892  -3.161472   0.000967   0.278737   0.003468
  44   2  -4.784555   4.367260  -0.826881   0.000484   0.185824   0.002607
  45   2  -6.140610  -2.272165  -2.102922   0.000004   0.139368   0.000026
  46   2  -7.481877  -0.640695  -2.600850   0.000430   0.185824   0.002314
  47   2  -8.411828   2.446744   0.178588   0.000618   0.464561   0.001331
  48   2  -4.393647   4.362452   0.558987   0.000239   0.139368   0.001713
  49   3  -0.904839   2.470554  -3.053843   0.001619   0.272259   0.005945
  50   3  -0.928954   2.551804   2.924736   0.001159   0.233365   0.004966
  51   3  -0.142178   2.741334   2.828423   0.001229   0.272259   0.004516
  52   3  -0.083819   2.577604  -3.003814   0.001361   0.233365   0.005832
  53   3  -0.965777   1.686244   3.272988   0.001590   0.194471   0.008177
  54   3  -0.540563   0.903781   3.416572   0.001385   0.194471   0.007124
  55   3  -0.247394   1.549089  -3.417192   0.001882   0.233365   0.008067
  56   3  -1.037759   1.514043  -3.380616   0.002200   0.233365   0.009428
  57   3  -0.456765   0.714939  -3.496024   0.000976   0.116683   0.008367
  58   3  -0.084829   1.860689   3.241799   0.001605   0.194471   0.008254
  59   4   1.319556   1.187861   3.495699  -0.000477   0.139368  -0.003425
  60   4   3.409216  -1.171428   3.275109   0.000126   0.046456   0.002714
  61   4   2.063787  -1.181404  -3.629269  -0.000094   0.139368  -0.000672
  62   4   1.447928   1.050722  -3.587418  -0.000766   0.232280  -0.003298
  63   4   2.823098  -1.180854   3.484363   0.000011   0.092912   0.000121
  64   4   1.401152  -1.231880   3.558716  -0.000036   0.232280  -0.000156
  65   4   1.221513  -1.429038  -3.486654   0.000136   0.232280   0.000586
  66   4   2.531002  -0.588306   3.678445  -0.000637   0.185824  -0.003428
  67   4   1.949276   0.212631   3.753095  -0.001232   0.232280  -0.005302
  68   4   1.070716   0.178448   3.666702  -0.000820   0.278737  -0.002940
  69   4   0.971024  -0.037946  -3.679385  -0.000563   0.232280  -0.002422
  70   4   1.504629  -0.642650  -3.733319  -0.000869   0.278737  -0.003117
  71   4   2.887375  -0.737795  -3.601101  -0.001689   0.464561  -0.003636
  72   4   2.011673   0.356618  -3.763335  -0.000889   0.325193  -0.002734
  73   4   1.779589  -0.766562   3.704812  -0.000900   0.278737  -0.003228
  74   5   2.875077   2.551839  -3.477955  -0.000193   0.232280  -0.000832
  75   5   6.141645   3.714746  -2.459863   0.000970   0.418105   0.002320
  76   5   2.569772   3.918455   2.689219   0.000065   0.371649   0.000174
  77   5   7.839319   1.580854   0.385677   0.000810   0.418105   0.001936
  78   5   5.805401   4.927830   1.038355   0.000243   0.371649   0.000655
  79   5   2.666405   3.271347  -3.138205  -0.000276   0.185824  -0.001484
  80   5   3.762482   1.274353  -3.731456  -0.000116   0.278737  -0.000416
  81   5   3.843885   2.424045  -3.699587   0.000205   0.325193   0.000629
  82   5   4.679009   3.160501  -3.438077   0.000911   0.371649   0.002451
  83   5   5.814268   4.422204   2.010871   0.000257   0.371649   0.000692
  84   5   7.617950   1.510385   1.323475   0.000298   0.278737   0.001068
  85   5   6.348390  -0.733879   1.766208   0.000229   0.278737   0.000820
  86   5   3.443386   3.678222   3.180099   0.000032   0.232280   0.000137
  87   5   5.534911   2.998746  -3.241290   0.000336   0.232280   0.001446
  88   5   5.134048   3.925149  -2.880932   0.000445   0.278737   0.001596
  89   5   2.417739   2.830864   3.215937  -0.000382   0.185824  -0.002057
  90   5   6.826044  -0.786946   0.667838   0.000344   0.325193   0.001057
  91   5   7.533293   0.361615   0.720186   0.000957   0.325193   0.002944
  92   5   7.603790   2.842790   0.802482   0.000362   0.464561   0.000780
  93   5   6.801633   4.191080   0.907750   0.000085   0.464561   0.000182
  94   5   4.698281   4.979892   1.828842   0.000752   0.371649   0.002025
  95   5   3.510218   4.466652   2.546587   0.000457   0.232280   0.001969
  96   5   2.509483   4.564446   1.945660  -0.000066   0.185824  -0.000354
  97   5   7.706194   2.674101  -0.491455   0.000150   0.418105   0.000358
  98   5   7.063237   3.489616  -1.504405   0.000200   0.418105   0.000478
  99   5   6.349559   4.397120  -1.409615   0.000200   0.464561   0.000431
 100   5   6.233700   4.830993  -0.110269  -0.000132   0.371649  -0.000356
 101   5   4.434339   1.795293  -3.755051   0.000055   0.232280   0.000237
 102   5   3.615750   3.407393  -3.345490   0.000290   0.278737   0.001042
 103   5   7.065418   3.475210   1.531344  -0.000086   0.278737  -0.000308
 104   5   7.095675  -0.104181   1.367217   0.000466   0.278737   0.001671
 105   5   2.876587   2.875248   3.400199  -0.000145   0.139368  -0.001037
 106   5   4.406165   4.446684   2.610813   0.000432   0.278737   0.001550
 107   5   7.208383   3.834671  -0.242996  -0.000022   0.464561  -0.000047
 108   5   3.347609   4.882133   1.953051   0.000217   0.185824   0.001169
 109   6   2.909135  -5.543688   0.060323   0.005956   0.377948   0.015759
 110   6   4.271039  -3.589027   2.270679   0.005706   0.309230   0.018453
 111   6   5.174336  -3.409911  -0.991755   0.006697   0.309230   0.021656
 112   6   2.450508  -3.912137  -2.824739   0.005698   0.343589   0.016584
 113   6   1.384058  -4.043255   2.656459   0.003669   0.171795   0.021360
 114   6   3.486078  -5.188605   1.058230   0.006718   0.412307   0.016295
 115   6   4.096323  -4.450512   1.712351   0.006072   0.343589   0.017673
 116   6   3.964180  -5.114374  -0.285757   0.006982   0.412307   0.016934
 117   6   4.766150  -4.344181  -0.603239   0.006555   0.343589   0.019078
 118   6   2.802828  -5.348468  -1.130396   0.006613   0.412307   0.016038
 119   6   2.426478  -4.810308  -2.102474   0.006267   0.377948   0.016580
 120   6   1.773391  -5.552559  -0.296281   0.006315   0.377948   0.016707
 121   6   0.838301  -5.227043  -0.496339   0.006984   0.309230   0.022586
 122   6   2.122975  -5.450432   1.009023   0.007309   0.446666   0.016363
 123   6   1.615757  -4.942648   1.880180   0.005489   0.309230   0.017751
 124   6   4.935347  -3.653497   1.361070   0.005353   0.274871   0.019476
 125   6   5.294905  -3.542320   0.165491   0.008228   0.377948   0.021770
 126   6   4.572256  -3.803168  -1.759761   0.007414   0.377948   0.019616
 127   6   3.515643  -3.925566  -2.536877   0.007092   0.412307   0.017200
 128   6   1.484777  -4.279591  -2.475856   0.005473   0.274871   0.019913
 129   6   0.961518  -4.805609  -1.664631   0.004112   0.206154   0.019947
 130   6   0.875266  -4.760386   1.707729   0.004064   0.206154   0.019711
 131   6   2.161982  -4.196134   2.701104   0.005794   0.343589   0.016863
 132   6   3.316754  -3.906676   2.682632   0.006962   0.412307   0.016886
 133   6   4.747248  -2.871454   2.066212   0.003735   0.206154   0.018116
 134   6   3.450429  -2.743432  -2.980709   0.003004   0.206154   0.014573
 135   6   2.717045  -2.987456  -3.133672   0.003974   0.240512   0.016524
 136   6   1.652707  -3.216070  -3.049264   0.005139   0.309230   0.016620
 137   6   1.732326  -3.128314   3.134588   0.004512   0.274871   0.016415
 138   6   3.746392  -2.772238   2.890287   0.005841   0.343589   0.017000
 139   6   4.589874  -4.548737   0.645151   0.007691   0.412307   0.018653
 140   6   3.775746  -4.756026  -1.571997   0.008221   0.481025   0.017090
 141   6   1.619644  -5.190518  -1.428421   0.004749   0.274871   0.017276
 142   6   0.918473  -5.247383   0.637326   0.007517   0.377948   0.019888
 143   6   2.839824  -4.850645   2.029142   0.006197   0.377948   0.016397
 144   6   5.248043  -3.048549   1.131933   0.004086   0.171795   0.023782
 145   6   4.265865  -3.015733  -2.457148   0.005662   0.309230   0.018310
 146   6   2.679304  -2.977724   3.187947   0.005559   0.343589   0.016178
 147   7  -2.727125  -3.268861   3.805038  -0.002612   0.431809  -0.006048
 148   7  -3.732679  -2.284667   3.842873  -0.001212   0.294415  -0.004116
 149   7  -2.000441  -1.503626   4.045728  -0.001366   0.353299  -0.003867
 150   7  -2.279059  -4.410677   2.120872  -0.001408   0.372926  -0.003775
 151   7  -4.016336  -3.816537   2.490598  -0.001418   0.353299  -0.004014
 152   7  -2.906909  -1.948327   4.136022  -0.001797   0.412182  -0.004359
 153   7  -1.596042  -2.613961   3.884014  -0.002536   0.431809  -0.005874
 154   7  -1.838524  -3.807289   3.213730  -0.002573   0.412182  -0.006242
 155   7  -3.050648  -4.218209   2.649386  -0.001953   0.412182  -0.004737
 156   7  -3.900527  -3.236198   3.350866  -0.002059   0.451437  -0.004562
 157   8  -2.937657  -3.707576  -3.410874  -0.002766   0.451437  -0.006127
 158   8  -1.747844  -1.895707  -3.894902  -0.001437   0.314043  -0.004575
 159   8  -3.041449  -1.839207  -3.985843  -0.001269   0.372926  -0.003403
 160   8  -4.204365  -3.449627  -2.832302  -0.001523   0.333671  -0.004566
 161   8  -2.510912  -4.545695  -1.823606  -0.001593   0.372926  -0.004272
 162   8  -2.365137  -2.683254  -3.966909  -0.001964   0.372926  -0.005265
 163   8  -3.756577  -2.760123  -3.636772  -0.001743   0.412182  -0.004230
 164   8  -3.573270  -4.220964  -2.320207  -0.002014   0.471065  -0.004275
 165   8  -2.041784  -4.242574  -2.670542  -0.002156   0.372926  -0.005780
 166   8  -1.622764  -3.344087  -3.484418  -0.002563   0.412182  -0.006219
 167   9  -5.496589   3.164254  -3.751345  -0.003415   0.549575  -0.006214
 168   9  -4.597429   4.139762  -2.303036  -0.001376   0.333671  -0.004123
 169   9  -6.311753   3.943523  -2.268462  -0.000993   0.353299  -0.002810
 170   9  -6.944725   2.177597  -3.395127  -0.001021   0.372926  -0.002738
 171   9  -5.248663   1.281207  -4.105215  -0.001327   0.412182  -0.003220
 172   9  -4.199428   3.306081  -3.407265  -0.003033   0.529948  -0.005723
 173   9  -5.416557   4.109000  -2.600658  -0.001807   0.412182  -0.004385
 174   9  -6.736530   3.242439  -2.995352  -0.002079   0.490692  -0.004236
 175   9  -6.121421   1.909606  -3.983202  -0.002027   0.471065  -0.004303
 176   9  -4.374041   2.081207  -4.015009  -0.002663   0.529948  -0.005025
 177  10  -8.657937  -2.038687   0.060111  -0.003940   0.569203  -0.006922
 178  10  -8.339819  -1.085156   1.778606  -0.001168   0.372926  -0.003133
 179  10  -7.203916  -2.633649   1.265438  -0.001275   0.353299  -0.003610
 180  10  -7.236202  -2.730960  -1.000044  -0.001449   0.353299  -0.004101
 181  10  -8.419391  -1.157839  -1.606576  -0.001196   0.372926  -0.003206
 182  10  -9.115098  -0.192822   0.057486  -0.001436   0.412182  -0.003483
 183  10  -7.997657  -2.079838   1.464049  -0.002274   0.471065  -0.004827
 184  10  -7.557967  -2.867833   0.096204  -0.002560   0.490692  -0.005218
 185  10  -7.997807  -2.145042  -1.322922  -0.002249   0.471065  -0.004775
 186  10  -8.987632  -0.872350  -0.775265  -0.002312   0.471065  -0.004909
 187  10  -8.960711  -0.905241   0.904968  -0.002456   0.490692  -0.005006
 188  11  -5.429624   3.381175   3.585823  -0.003602   0.569203  -0.006328
 189  11  -4.136630   2.506690   3.771564  -0.002237   0.431809  -0.005180
 190  11  -5.913723   1.564352   3.935884  -0.000923   0.333671  -0.002766
 191  11  -7.028782   2.885178   2.918093  -0.001062   0.353299  -0.003005
 192  11  -5.687607   4.305400   1.968540  -0.001260   0.412182  -0.003056
 193  11  -4.911314   1.871738   4.063310  -0.002031   0.471065  -0.004310
 194  11  -6.470804   2.383526   3.658041  -0.002025   0.490692  -0.004126
 195  11  -6.461582   3.780817   2.594266  -0.002169   0.510320  -0.004251
 196  11  -4.700217   4.222097   2.361518  -0.002075   0.471065  -0.004405
 197  11  -4.142217   3.538140   3.163235  -0.002296   0.392554  -0.005849
 198  12  -0.719060   5.148975  -0.154272  -0.005361   0.314043  -0.017071
 199  12  -0.822279   4.135105  -2.038675  -0.005908   0.431809  -0.013682
 200  12  -0.402472   4.395083   1.691350  -0.003802   0.255160  -0.014900
 201  12  -1.683103   4.956070   0.070249  -0.005884   0.314043  -0.018737
 202  12  -1.499428   4.778729  -1.100212  -0.006298   0.333671  -0.018876
 203  12  -0.628732   4.887257  -1.153799  -0.004393   0.235532  -0.018652
 204  12  -0.418802   4.972748   0.813605  -0.004952   0.255160  -0.019408
 205  12  -1.360785   4.730626   1.171156  -0.006717   0.372926  -0.018010
 206  12  -0.976959   3.999183   2.016229  -0.002414   0.196277  -0.012297
 207  13   5.867139   1.853264   4.143253  -0.004925   0.569203  -0.008652
 208  13   4.429669   1.174455   4.238129  -0.002473   0.372926  -0.006630
 209  13   4.421910   3.075353   3.894175  -0.001630   0.333671  -0.004885
 210  13   6.265296   3.337322   3.147760  -0.001877   0.353299  -0.005312
 211  13   7.166570   1.382684   2.753266  -0.001937   0.372926  -0.005194
 212  13   6.027633  -0.008199   3.200790  -0.001802   0.314043  -0.005737
 213  13   4.243896   2.114187   4.229698  -0.002956   0.451437  -0.006548
 214  13   5.437339   3.200207   3.785101  -0.003125   0.490692  -0.006368
 215  13   6.880389   2.415290   3.164106  -0.003306   0.510320  -0.006478
 216  13   6.612071   0.797893   3.376129  -0.003148   0.471065  -0.006683
 217  13   5.269882   0.475632   3.967587  -0.003739   0.510320  -0.007328
 218  14   7.236373   0.210266  -2.825551  -0.004445   0.549575  -0.008088
 219  14   6.358364   1.827645  -3.429900  -0.001660   0.372926  -0.004451
 220  14   5.412354   0.119245  -3.575009  -0.002263   0.372926  -0.006068
 221  14   7.674549  -0.087008  -0.965589  -0.001683   0.372926  -0.004513
 222  14   7.760031   1.738332  -1.884933  -0.001904   0.412182  -0.004620
 223  14   6.122871   0.821303  -3.651851  -0.002559   0.431809  -0.005927
 224  14   6.295403  -0.618238  -2.948640  -0.003809   0.490692  -0.007762
 225  14   7.111201  -0.805973  -1.680875  -0.003788   0.529948  -0.007147
 226  14   7.911422   0.702244  -1.610920  -0.002905   0.471065  -0.006167
 227  14   7.261732   1.628221  -2.871284  -0.002975   0.471065  -0.006316
 228  15   3.550122   5.942276  -1.374439  -0.003005   0.392554  -0.007654
 229  15   2.951372   4.681472  -2.647193  -0.002087   0.412182  -0.005063
 230  15   4.766783   5.557997  -1.499467  -0.002001   0.372926  -0.005365
 231  15   3.990198   5.820580   0.545836  -0.001411   0.314043  -0.004493
 232  15   2.802685   5.646143   0.669159  -0.002233   0.392554  -0.005689
 233  15   2.614543   5.369438  -1.964484  -0.003241   0.412182  -0.007864
 234  15   4.104253   5.213941  -2.329541  -0.002281   0.431809  -0.005282
 235  15   4.605218   5.875889  -0.437258  -0.002452   0.431809  -0.005679
 236  15   3.300064   6.061870  -0.207674  -0.002413   0.333671  -0.007231
 237  15   2.407450   5.779734  -0.780457  -0.003438   0.392554  -0.008759
 238   1  -5.065892  -2.842901   2.130115  -0.000120   0.026451  -0.004544
 239   2  -5.464113  -2.550367   2.101905  -0.000087   0.026451  -0.003283
 240   7  -4.848887  -2.918032   2.326598  -0.000173   0.026451  -0.006541
 241   1  -3.632226  -0.525198   3.664581  -0.000065   0.026451  -0.002472
 242   2  -4.049149  -0.262899   3.616353  -0.000034   0.026451  -0.001271
 243   7  -3.543752  -0.808116   3.723495  -0.000083   0.026451  -0.003144
 244   1  -3.665439  -0.737759  -3.621612  -0.000067   0.026458  -0.002544
 245   2  -4.081979  -0.472985  -3.584990  -0.000044   0.026458  -0.001681
 246   8  -3.577613  -1.023596  -3.664677  -0.000112   0.026458  -0.004244
 247   1  -5.084885  -2.962276  -1.940482  -0.000111   0.026458  -0.004199
 248   2  -5.482915  -2.668494  -1.925782  -0.000082   0.026458  -0.003089
 249   8  -4.869814  -3.048697  -2.134251  -0.000128   0.026458  -0.004853
 250   1  -3.696296   0.066344  -3.607652  -0.000054   0.026080  -0.002081
 251   2  -4.113529   0.328082  -3.656125  -0.000076   0.026080  -0.002916
 252   9  -4.206151   0.609374  -3.718606  -0.000126   0.026080  -0.004849
 253   1  -5.579210  -2.892507  -1.476608  -0.000101   0.027026  -0.003721
 254   2  -6.016507  -2.662079  -1.501967  -0.000086   0.027026  -0.003199
 255  10  -6.281936  -2.663525  -1.357841  -0.000102   0.027026  -0.003781
 256   1  -5.564126  -2.799472   1.669317  -0.000094   0.027026  -0.003484
 257   2  -6.001225  -2.567824   1.685203  -0.000094   0.027026  -0.003472
 258  10  -6.268023  -2.577709   1.543965  -0.000140   0.027026  -0.005175
 259   1  -3.662635   0.278210   3.603836  -0.000058   0.026075  -0.002213
 260   2  -4.079468   0.542457   3.640759  -0.000077   0.026075  -0.002958
 261  11  -4.171654   0.826959   3.687499  -0.000089   0.026075  -0.003411
 262   2  -4.163348   0.024177  -3.672007  -0.000035   0.080617  -0.000435
 263   1  -3.614242  -0.435431  -3.660337  -0.000035   0.080617  -0.000433
 264   2  -5.854958  -2.629032  -1.767274  -0.000033   0.054267  -0.000606
 265   1  -5.271131  -3.032132  -1.701211  -0.000091   0.054267  -0.001680
 266   2  -5.854996  -2.548875   1.889880  -0.000045   0.053938  -0.000839
 267   1  -5.236600  -2.896950   1.953813  -0.000091   0.053938  -0.001689
 268   2  -4.181371   0.156654   3.676796  -0.000025   0.080907  -0.000309
 269   1  -3.528493  -0.137747   3.683154  -0.000040   0.080907  -0.000493
 270   1  -0.788256  -0.198321   3.380577   0.000216   0.051901   0.004168
 271   3  -0.406921   0.099297   3.354688   0.000367   0.051901   0.007072
 272   4   0.002167  -0.069050   3.377853   0.000161   0.051901   0.003107
 273   1  -0.803953  -0.431731  -3.379403   0.000226   0.051901   0.004357
 274   3  -0.422549  -0.133097  -3.375873   0.000438   0.051901   0.008431
 275   4  -0.013547  -0.302707  -3.389268   0.000217   0.051901   0.004183
 276   1  -2.466759   1.021919  -3.307434  -0.000167   0.099312  -0.001684
 277   3  -2.072380   1.293919  -3.224084   0.000187   0.099312   0.001887
 278   9  -3.067212   1.475229  -3.353623  -0.000423   0.099312  -0.004262
 279   1  -2.431594   1.220754   3.231977  -0.000194   0.099267  -0.001958
 280   3  -2.038240   1.487010   3.127859   0.000130   0.099267   0.001308
 281  11  -3.032337   1.675400   3.257415  -0.000415   0.099267  -0.004180
 282   3  -1.186477   0.938417   3.300350   0.001417   0.258523   0.005481
 283   1  -1.541561   0.271223   3.432452   0.000416   0.271031   0.001534
 284   3  -1.010363   0.456873  -3.390186   0.001839   0.264143   0.006962
 285   1  -1.763807   0.303749  -3.435944   0.000427   0.276921   0.001541
 286   1  -0.989434  -0.648840   3.454233  -0.000045   0.061040  -0.000738
 287   4  -0.203807  -0.525753   3.367814   0.000120   0.061040   0.001974
 288   7  -1.080973  -0.929271   3.525701  -0.000182   0.061040  -0.002976
 289   1  -1.011134  -0.854830  -3.423742  -0.000012   0.060855  -0.000201
 290   4  -0.225043  -0.726922  -3.349486   0.000169   0.060855   0.002774
 291   8  -1.104361  -1.138406  -3.477979  -0.000124   0.060855  -0.002029
 292   4   0.188667  -0.218143   3.518464   0.000067   0.045152   0.001490
 293   1  -0.932875  -0.436015   3.528768   0.000128   0.045152   0.002827
 294   4   0.174704  -0.475735  -3.520088   0.000083   0.036669   0.002265
 295   1  -0.956822  -0.632629  -3.511772   0.000113   0.036669   0.003084
 296   1  -1.374736  -4.323662   0.996835   0.000588   0.080632   0.007292
 297   6  -0.444632  -4.426544   0.953890   0.002136   0.080632   0.026490
 298   7  -1.423773  -4.286482   1.295383   0.000102   0.080632   0.001268
 299   1  -1.389350  -4.376812  -0.761469   0.000476   0.080790   0.005886
 300   6  -0.458590  -4.477986  -0.729620   0.002429   0.080790   0.030061
 301   8  -1.440639  -4.357431  -1.061225   0.000117   0.080790   0.001452
 302   6  -0.032381  -4.772852   0.266235   0.008928   0.429491   0.020788
 303   1  -1.353656  -4.523448  -0.021165   0.003190   0.477627   0.006680
 304   7  -1.804922  -1.012720   3.800034  -0.000356   0.093396  -0.003815
 305   7  -2.962127  -0.985047   3.879605  -0.000313   0.093396  -0.003356
 306   1  -2.385532  -0.636440   3.684575  -0.001004   0.189839  -0.005287
 307   7  -4.518754  -3.344586   2.322505  -0.000291   0.068949  -0.004218
 308   7  -3.824754  -4.042404   1.801795  -0.000742   0.153139  -0.004846
 309   7  -2.564762  -4.398189   1.489046  -0.000530   0.153139  -0.003464
 310   1  -4.507956  -3.559945   1.765409  -0.000747   0.151076  -0.004943
 311   1  -3.338010  -4.317240   1.178578  -0.000471   0.151076  -0.003116
 312   1  -2.125446  -4.445968   1.025954  -0.000029   0.084236  -0.000340
 313   8  -2.995454  -1.209715  -3.815301  -0.000314   0.093843  -0.003349
 314   8  -1.832037  -1.235994  -3.742752  -0.000320   0.093843  -0.003410
 315   1  -2.413754  -0.852701  -3.644809  -0.001022   0.190442  -0.005368
 316   8  -2.151100  -4.490710  -1.204598  -0.000130   0.068785  -0.001892
 317   8  -3.250692  -4.391342  -1.331615  -0.000684   0.152724  -0.004478
 318   8  -4.294617  -3.748870  -1.882057  -0.000831   0.152724  -0.005439
 319   1  -2.600698  -4.474863  -0.812599  -0.000347   0.150765  -0.002299
 320   1  -4.016223  -4.094862  -1.173798  -0.000633   0.150765  -0.004199
 321   1  -4.797684  -3.368147  -1.778587  -0.000321   0.084036  -0.003817
 322   9  -3.809532   1.277790  -3.683011  -0.001073   0.246677  -0.004349
 323   1  -3.141997   0.353166  -3.613081  -0.000268   0.347290  -0.000771
 324  10  -6.465366  -2.841904  -0.949965  -0.000787   0.209851  -0.003749
 325  10  -6.463515  -2.879629   0.566655  -0.002608   0.431299  -0.006047
 326   1  -5.447958  -3.323145  -0.425085  -0.001557   0.573208  -0.002716
 327   1  -5.434773  -3.197064   1.295133  -0.000389   0.295682  -0.001314
 328  11  -3.934631   1.313753   3.665556  -0.000995   0.248430  -0.004004
 329   1  -2.959144   0.733339   3.532090  -0.000334   0.349748  -0.000955
 330   7  -3.741370  -1.236567   3.752075  -0.000626   0.206034  -0.003041
 331   7  -4.472955  -2.346270   3.083621  -0.002264   0.422773  -0.005354
 332   2  -4.894711  -0.962871   3.387591  -0.000346   0.563383  -0.000614
 333   2  -5.623408  -2.207389   2.503309  -0.000021   0.290268  -0.000073
 334   8  -4.710077  -2.917517  -2.559526  -0.000804   0.206076  -0.003901
 335   8  -4.086972  -1.873085  -3.417514  -0.002107   0.422877  -0.004981
 336   2  -5.401914  -1.905035  -2.743619  -0.000556   0.563485  -0.000987
 337   2  -4.588253  -0.691749  -3.597976   0.000113   0.290331   0.000390
 338   2  -3.759960   4.090747  -1.156943  -0.000294   0.070246  -0.004179
 339   9  -3.863616   4.043594  -1.439190  -0.000280   0.070246  -0.003984
 340  12  -2.866937   4.168166  -1.052034  -0.001074   0.070246  -0.015284
 341   9  -4.695151   0.782647  -3.876741  -0.000230   0.070044  -0.003281
 342   9  -5.819808   0.800575  -3.786612  -0.000522   0.155999  -0.003344
 343   9  -6.939111   1.408570  -3.300675  -0.000392   0.155999  -0.002514
 344   9  -7.342278   2.476680  -2.555537  -0.000498   0.155999  -0.003193
 345   9  -6.857566   3.549910  -1.868613  -0.000549   0.155999  -0.003519
 346   9  -5.691454   4.171083  -1.532520  -0.000391   0.155999  -0.002506
 347   9  -4.564937   4.201992  -1.589989  -0.000179   0.070044  -0.002554
 348   2  -5.099103   0.362431  -3.726991  -0.000447   0.153083  -0.002923
 349   2  -6.571383   0.657654  -3.426544  -0.000155   0.153083  -0.001013
 350   2  -7.475965   1.653520  -2.695095  -0.000178   0.153083  -0.001165
 351   2  -7.427515   2.925807  -1.844229  -0.000292   0.153083  -0.001910
 352   2  -6.446670   3.932544  -1.236398  -0.000244   0.153083  -0.001596
 353   2  -4.951253   4.244881  -1.130528  -0.000214   0.153083  -0.001399
 354  10  -6.739502  -2.376323   1.700787  -0.000234   0.067742  -0.003457
 355  10  -7.355193  -1.571384   2.117820  -0.000496   0.149951  -0.003308
 356  10  -8.165396  -0.538378   1.932308  -0.000486   0.149951  -0.003241
 357  10  -8.758048   0.188619   0.995192  -0.000504   0.149951  -0.003362
 358  10  -8.895175   0.317691  -0.317243  -0.000538   0.149951  -0.003588
 359  10  -8.521718  -0.202990  -1.478005  -0.000415   0.149951  -0.002764
 360  10  -7.787632  -1.164351  -2.021005  -0.000525   0.149951  -0.003503
 361  10  -6.987680  -2.180370  -1.728211  -0.000599   0.149951  -0.003994
 362   2  -6.626507  -1.963702   2.110745  -0.000495   0.148912  -0.003326
 363   2  -7.522389  -0.804499   2.380268  -0.000235   0.148912  -0.001576
 364   2  -8.353253   0.237893   1.715372  -0.000271   0.148912  -0.001823
 365   2  -8.785477   0.744913   0.383038  -0.000334   0.148912  -0.002246
 366   2  -8.645507   0.512976  -1.081753  -0.000285   0.148912  -0.001914
 367   2  -7.989545  -0.364788  -2.090835  -0.000191   0.148912  -0.001280
 368   2  -7.080986  -1.535924  -2.239023  -0.000294   0.148912  -0.001973
 369   2  -6.393271  -2.400806  -1.747038  -0.000179   0.082762  -0.002160
 370   2  -3.768672   4.159075   0.924806  -0.000281   0.071297  -0.003945
 371  11  -3.867751   4.129178   1.211161  -0.000282   0.071297  -0.003960
 372  12  -2.874399   4.230960   0.826212  -0.001085   0.071297  -0.015220
 373  11  -4.569395   4.292795   1.350848  -0.000182   0.069900  -0.002604
 374  11  -5.694092   4.251671   1.311203  -0.000490   0.155604  -0.003147
 375  11  -6.849810   3.646519   1.698111  -0.000488   0.155604  -0.003139
 376  11  -7.320115   2.615684   2.451623  -0.000530   0.155604  -0.003408
 377  11  -6.905518   1.596419   3.252121  -0.000389   0.155604  -0.002499
 378  11  -5.781879   1.021068   3.760054  -0.000546   0.155604  -0.003510
 379  11  -4.658618   1.009335   3.839766  -0.000223   0.069900  -0.003196
 380   2  -4.961378   4.306022   0.895142  -0.000208   0.152840  -0.001363
 381   2  -6.450348   3.992423   1.039543  -0.000222   0.152840  -0.001454
 382   2  -7.416229   3.020624   1.716969  -0.000279   0.152840  -0.001824
 383   2  -7.449320   1.802835   2.640074  -0.000207   0.152840  -0.001353
 384   2  -6.535585   0.855611   3.417300  -0.000202   0.152840  -0.001323
 385   2  -5.062607   0.580738   3.718970  -0.000456   0.152840  -0.002981
 386  12  -2.408832   4.527201  -0.616319  -0.003314   0.210030  -0.015777
 387  12  -2.414840   4.560015   0.371388  -0.003391   0.210030  -0.016147
 388   2  -3.714125   4.315110  -0.122796  -0.001503   0.582351  -0.002581
 389   3   0.967874   2.146854  -3.036760  -0.000022   0.050082  -0.000439
 390   4   1.385621   2.023988  -3.117368  -0.000354   0.050082  -0.007071
 391   5   1.774921   2.322696  -3.074344  -0.000430   0.050082  -0.008588
 392   3   0.903275   2.157022   2.982348  -0.000055   0.050082  -0.001095
 393   4   1.319190   2.034445   3.072317  -0.000350   0.050082  -0.006993
 394   5   1.709335   2.333020   3.036649  -0.000467   0.050082  -0.009322
 395   4   0.814435   1.145578   3.285677  -0.000340   0.319195  -0.001065
 396   3   0.072150   0.984994   3.267956   0.001821   0.304621   0.005979
 397   4   0.514383   0.195394  -3.525465   0.000278   0.178382   0.001557
 398   4   1.025901   1.487509  -3.338159  -0.000046   0.178382  -0.000258
 399   3   0.177088   1.059986  -3.319767   0.002184   0.352549   0.006194
 400   3   0.466669   3.312637   2.264773  -0.000615   0.073715  -0.008343
 401   5   1.279220   3.463209   2.256882  -0.000798   0.073715  -0.010828
 402  12   0.367750   3.560318   2.093221  -0.000810   0.073715  -0.010983
 403   3   1.032626   3.207827  -2.445002  -0.000675   0.066026  -0.010219
 404   5   1.818379   3.441697  -2.545514  -0.000506   0.066026  -0.007656
 405  15   1.870536   3.716929  -2.430853  -0.000572   0.066026  -0.008656
 406   5   1.849078   2.859175  -2.989085  -0.000850   0.274836  -0.003094
 407   3   0.666643   2.758254  -2.831026  -0.000071   0.259608  -0.000272
 408   5   1.734838   3.135938   2.769946  -0.001217   0.336593  -0.003614
 409   3   0.626256   2.665196   2.808946  -0.000154   0.317952  -0.000486
 410   3  -1.793239   2.994219  -2.499304  -0.000501   0.094770  -0.005285
 411   9  -2.803334   3.019599  -2.622549  -0.000571   0.094770  -0.006025
 412  12  -1.796864   3.262232  -2.327423  -0.000955   0.094770  -0.010081
 413   9  -3.284210   2.543929  -3.228970  -0.001710   0.437981  -0.003905
 414   3  -1.849553   2.087735  -3.117825   0.000985   0.573965   0.001716
 415   3  -1.760199   3.036736   2.401153  -0.000577   0.094848  -0.006088
 416  11  -2.770171   3.082006   2.524772  -0.000669   0.094848  -0.007055
 417  12  -1.766316   3.303102   2.226757  -0.000955   0.094848  -0.010070
 418  11  -3.263381   2.419049   3.246014  -0.001473   0.397688  -0.003705
 419   3  -1.798188   2.461941   2.901451   0.000411   0.521310   0.000789
 420   3   0.491196   3.400965  -2.285539  -0.000816   0.089356  -0.009127
 421  12   0.393239   3.660256  -2.129317  -0.001257   0.089356  -0.014068
 422  15   1.362284   3.833079  -2.159475  -0.001063   0.089356  -0.011892
 423  12  -0.822584   3.560454   2.188403  -0.001503   0.131287  -0.011448
 424   3  -0.481815   3.223544   2.397300  -0.001028   0.154487  -0.006652
 425  12  -0.547527   3.574996  -2.274483  -0.001325   0.134379  -0.009857
 426   3  -0.747396   3.155444  -2.520553  -0.000986   0.158125  -0.006235
 427  15   1.843185   3.968622  -2.448105  -0.000113   0.049054  -0.002310
 428   3   0.575307   3.318978  -2.548089   0.000053   0.064103   0.000830
 429   4   2.445906   1.379935   3.534725  -0.000383   0.028976  -0.013218
 430   5   2.815729   1.701900   3.577231  -0.000308   0.028976  -0.010646
 431  13   3.096104   1.690553   3.690424  -0.000248   0.028976  -0.008543
 432   4   3.775517  -0.147436  -3.405075  -0.000281   0.029631  -0.009494
 433   5   4.160216   0.157600  -3.440014  -0.000244   0.029631  -0.008237
 434  14   4.458664   0.115969  -3.429292  -0.000266   0.029631  -0.008972
 435   5   2.295253   2.159269   3.336308  -0.000837   0.172632  -0.004848
 436   4   1.875947   1.559115   3.410289  -0.001128   0.172632  -0.006533
 437   5   3.632734   0.626691  -3.563847  -0.001160   0.252945  -0.004585
 438   5   2.490582   1.999695  -3.392321  -0.001214   0.252945  -0.004800
 439   4   2.522539   0.857449  -3.419887  -0.005261   0.523438  -0.010051
 440   4   0.732467  -1.969727   3.153965   0.000817   0.115643   0.007063
 441   6   0.826897  -2.352680   3.060438   0.001693   0.115643   0.014639
 442   7  -0.206513  -2.244093   3.191664   0.000445   0.115643   0.003852
 443   4   0.690614  -2.083131  -3.095410   0.000776   0.115705   0.006710
 444   6   0.786340  -2.462828  -2.990554   0.001663   0.115705   0.014374
 445   8  -0.247106  -2.367388  -3.107937   0.000406   0.115705   0.003509
 446   4   3.897102  -1.177674   3.021614   0.000101   0.056462   0.001791
 447   6   3.900643  -1.559960   2.899788   0.000601   0.056462   0.010646
 448  13   4.392141  -0.643108   3.126388  -0.000331   0.056462  -0.005871
 449   4   4.003605  -1.345946  -2.922482   0.000295   0.074400   0.003959
 450   6   4.012422  -1.729547  -2.800825   0.000960   0.074400   0.012906
 451  14   4.635203  -0.975652  -2.903009  -0.000204   0.074400  -0.002736
 452   6   3.265697  -2.102063   3.087831   0.002231   0.169227   0.013181
 453   6   1.783263  -2.352072   3.217854   0.002464   0.169227   0.014559
 454   4   2.436491  -1.672484   3.216013   0.002638   0.352390   0.007487
 455   6   1.757326  -2.460392  -3.160526   0.002556   0.175219   0.014589
 456   6   3.289545  -2.197748  -3.034714   0.002238   0.175219   0.012773
 457   4   2.435102  -1.776830  -3.174695   0.003029   0.365274   0.008294
 458   7  -0.868694  -1.792951   3.573358  -0.000963   0.356453  -0.002702
 459   4   0.378052  -1.029995   3.492433   0.000356   0.504520   0.000705
 460   8  -0.996558  -1.724058  -3.539461  -0.000824   0.335557  -0.002455
 461   4   0.430831  -1.425960  -3.421227   0.000681   0.475074   0.001434
 462  13   3.391808   1.405519   3.853284  -0.001216   0.180685  -0.006732
 463  13   4.157841   0.312073   3.694873  -0.003221   0.368800  -0.008735
 464   4   2.756451   0.407724   3.654763  -0.003109   0.496624  -0.006261
 465   4   3.667931  -0.784327   3.361540  -0.000527   0.254898  -0.002068
 466  14   4.855313  -0.375357  -3.251614  -0.001132   0.192457  -0.005883
 467   4   3.795841  -0.684563  -3.329226  -0.000423   0.271573  -0.001557
 468   5   5.272708  -0.949177   2.431889  -0.000049   0.040049  -0.001236
 469   6   4.836458  -1.614661   2.302993   0.000398   0.040049   0.009939
 470  13   5.323399  -0.726794   2.630321  -0.000237   0.040049  -0.005915
 471   5   6.205829  -1.425716  -0.309570   0.000214   0.061767   0.003468
 472   6   5.731296  -2.078416  -0.300719   0.001192   0.061767   0.019305
 473  14   6.315211  -1.338266  -0.577961  -0.000129   0.061767  -0.002084
 474   6   5.566186  -2.507451   0.367477   0.006442   0.352996   0.018251
 475   6   5.026724  -2.262328   1.866280   0.005155   0.352996   0.014602
 476   5   5.824233  -1.361385   1.139451   0.002855   0.775055   0.003684
 477   5   1.884207   4.609718   1.282470  -0.000577   0.081525  -0.007079
 478  12   0.974157   4.528758   1.105267  -0.001548   0.081525  -0.018994
 479  15   1.919770   4.797371   1.046118  -0.000738   0.081525  -0.009049
 480  12   0.350612   4.074105   1.761325  -0.004165   0.314437  -0.013246
 481   5   1.728792   4.243637   1.877139  -0.001644   0.443433  -0.003707
 482  13   5.856341  -0.347636   2.773567  -0.000393   0.068213  -0.005756
 483  13   6.709372   0.243185   2.403999  -0.000725   0.151119  -0.004798
 484  13   7.263232   1.430420   2.161066  -0.000825   0.151119  -0.005456
 485  13   7.046230   2.742048   2.249662  -0.000883   0.151119  -0.005844
 486  13   6.146325   3.646402   2.633877  -0.000932   0.151119  -0.006164
 487  13   4.928293   3.776906   3.157969  -0.000747   0.151119  -0.004942
 488  13   3.885860   3.080659   3.609499  -0.000881   0.151119  -0.005827
 489  13   3.413338   2.107449   3.816609  -0.000427   0.068213  -0.006254
 490   5   6.174680  -0.379176   2.272506  -0.000748   0.149836  -0.004989
 491   5   7.154820   0.668965   1.846500  -0.000471   0.149836  -0.003145
 492   5   7.354429   2.149691   1.755047  -0.000619   0.149836  -0.004133
 493   5   6.692595   3.462792   2.035216  -0.000714   0.149836  -0.004767
 494   5   5.437591   4.076008   2.573442  -0.000588   0.149836  -0.003926
 495   5   4.098130   3.740771   3.151556  -0.000563   0.149836  -0.003759
 496   5   3.217159   2.592970   3.535222  -0.000878   0.149836  -0.005863
 497  14   4.839000   0.469575  -3.589865  -0.000340   0.069125  -0.004921
 498  14   5.319582   1.479216  -3.630867  -0.000759   0.153791  -0.004934
 499  14   6.223739   2.351913  -3.131145  -0.000764   0.153791  -0.004966
 500  14   7.166887   2.480148  -2.170495  -0.000807   0.153791  -0.005248
 501  14   7.752857   1.810056  -1.152439  -0.000798   0.153791  -0.005187
 502  14   7.735510   0.623109  -0.504612  -0.000656   0.153791  -0.004265
 503  14   7.122133  -0.582113  -0.499136  -0.000797   0.153791  -0.005184
 504   5   4.614864   1.023201  -3.618735  -0.000794   0.151200  -0.005251
 505   5   5.439821   2.283780  -3.423643  -0.000507   0.151200  -0.003356
 506   5   6.536557   2.878029  -2.556628  -0.000600   0.151200  -0.003970
 507   5   7.444387   2.556331  -1.381880  -0.000646   0.151200  -0.004271
 508   5   7.781975   1.453817  -0.392854  -0.000557   0.151200  -0.003682
 509   5   7.407517   0.033598  -0.004991  -0.000542   0.151200  -0.003582
 510   5   6.719768  -0.975041  -0.191388  -0.000164   0.084451  -0.001941
 511  15   2.553449   5.105032   1.167050  -0.000448   0.067210  -0.006667
 512  15   3.610604   5.374501   1.154338  -0.000707   0.148725  -0.004751
 513  15   4.749610   5.489453   0.496724  -0.000891   0.148725  -0.005994
 514  15   5.310012   5.312153  -0.685443  -0.000905   0.148725  -0.006088
 515  15   5.068244   4.913333  -1.920552  -0.000822   0.148725  -0.005524
 516  15   4.120757   4.452098  -2.715872  -0.000779   0.148725  -0.005236
 517  15   2.845539   4.112450  -2.754121  -0.000943   0.148725  -0.006343
 518   5   3.000310   4.963317   1.525691  -0.000634   0.147770  -0.004294
 519   5   4.422588   5.245316   1.212886  -0.000603   0.147770  -0.004084
 520   5   5.428751   5.208402   0.123613  -0.000710   0.147770  -0.004807
 521   5   5.617403   4.867301  -1.307577  -0.000705   0.147770  -0.004771
 522   5   4.913285   4.358090  -2.509727  -0.000516   0.147770  -0.003495
 523   5   3.597295   3.883914  -3.003255  -0.000573   0.147770  -0.003879
 524   5   2.434599   3.636031  -2.811249  -0.000444   0.082111  -0.005413
 525   7  -1.362962  -4.350551   1.754705   0.000502   0.246009   0.002041
 526   7  -0.972644  -3.737121   2.746542   0.000074   0.494501   0.000149
 527   7  -0.673856  -2.735550   3.394592  -0.000097   0.246009  -0.000393
 528   6   0.213765  -4.454239   1.749039   0.010068   0.609777   0.016511
 529   6   0.685649  -3.348322   2.871996   0.008588   0.609777   0.014085
 530   8  -0.715023  -2.875718  -3.282985  -0.000154   0.251193  -0.000612
 531   8  -1.003799  -3.871618  -2.573845   0.000082   0.505109   0.000163
 532   8  -1.384007  -4.446138  -1.523390   0.000548   0.251193   0.002183
 533   6   0.649903  -3.467389  -2.753446   0.008756   0.622264   0.014071
 534   6   0.191931  -4.542464  -1.548865   0.010832   0.622264   0.017408
 535  13   4.993458  -0.563462   3.159562  -0.000853   0.295257  -0.002887
 536   6   4.461743  -1.938926   2.678729   0.003039   0.369174   0.008231
 537  14   6.415959  -1.426864  -0.992044  -0.000147   0.223054  -0.000659
 538  14   5.937176  -1.387246  -2.070820  -0.001182   0.448583  -0.002635
 539  14   5.205504  -1.015458  -2.919931  -0.000522   0.223054  -0.002341
 540   6   5.469793  -2.569269  -1.080643   0.007958   0.549170   0.014491
 541   6   4.642121  -2.287962  -2.398873   0.006390   0.549170   0.011635
 542  12  -1.928523   3.756112  -2.188387  -0.002326   0.315266  -0.007378
 543  12  -2.337841   4.348227  -1.397605  -0.003026   0.315266  -0.009599
 544   9  -3.554805   3.743900  -2.298022  -0.002123   0.631036  -0.003364
 545  12  -2.337217   4.418756   1.187252  -0.003254   0.338441  -0.009616
 546  12  -1.903967   3.812934   2.060761  -0.002639   0.338441  -0.007796
 547  11  -3.537202   3.832658   2.130224  -0.002632   0.677971  -0.003882
 548  15   1.673717   4.425249  -2.164272  -0.001355   0.254859  -0.005315
 549  15   1.616843   5.164003  -1.185051  -0.003900   0.510007  -0.007646
 550  15   1.753934   5.263910   0.296276  -0.003607   0.510007  -0.007072
 551  12   0.278447   4.435689  -1.663070  -0.006267   0.510007  -0.012289
 552  12   0.289825   5.049048  -0.304111  -0.007317   0.510007  -0.014348
 553  12   0.460659   4.857768   0.896760  -0.003059   0.254859  -0.012002
 =====================================================


   1 warning(s) detected.
     A line exceeding 80 characters begins with "http://cactus.nci.ni".
 There may be a problem in your input file.

              2544621  WORDS OF DYNAMIC MEMORY USED
 EXECUTION OF GAMESS TERMINATED NORMALLY Fri Nov 25 02:53:21 2016
 DDI: 263640 bytes (0.3 MB / 0 MWords) used by master data server.

 ----------------------------------------
 CPU timing information for all processes
 ========================================
 0: 1188.100 + 0.620 = 1188.720
 ----------------------------------------
 ddikick.x: exited gracefully.
