----- GAMESS execution script -----

          ******************************************************
          *         GAMESS VERSION =  5 DEC 2014 (R1)          *
          *             FROM IOWA STATE UNIVERSITY             *
          * M.W.SCHMIDT, K.K.BALDRIDGE, J.A.BOATZ, S.T.ELBERT, *
          *   M.S.GORDON, J.H.JENSEN, S.KOSEKI, N.MATSUNAGA,   *
          *          K.A.NGUYEN, S.J.SU, T.L.WINDUS,           *
          *       TOGETHER WITH M.DUPUIS, J.A.MONTGOMERY       *
          *         J.COMPUT.CHEM.  14, 1347-1363(1993)        *
          **************** 64 BIT LINUX VERSION ****************

 EXECUTION OF GAMESS BEGUN Fri Nov 25 02:43:58 2016

            ECHO OF THE FIRST FEW INPUT CARDS -
 INPUT CARD>! SELECT RESTRICTED HARTREE-FOCK AS DEFAULT                                     
 INPUT CARD>$contrl scftyp=rhf $end                                                         
 INPUT CARD>                                                                                
 INPUT CARD>! THEORY: HF OR DFT                                                             
 INPUT CARD> $contrl mplevl=0 $end                                                          
 INPUT CARD>                                                                                
 INPUT CARD> $system timlim=10000 mwords=20 $end                                            
 INPUT CARD> $SCF DIRSCF=.TRUE. $end                                                        
 INPUT CARD>                                                                                
 INPUT CARD>                                                                                
 INPUT CARD>! BASIS SETS                                                                    
 INPUT CARD>! 6-311G(d,p)                                                                   
 INPUT CARD> $BASIS GBASIS=N311 NGAUSS=6 NDFUNC=1 NPFUNC=1 $END                             
 INPUT CARD>                                                                                
 INPUT CARD>! One of the following                                                          
 INPUT CARD> $guess guess=HUCKEL $end                                                       
 INPUT CARD>                                                                                
 INPUT CARD> $statpt projct=.FALSE. $end                                                    
 INPUT CARD> $STATPT IFREEZ(1)=1,2,3 $END                                                   
 INPUT CARD>                                                                                
 INPUT CARD>! Optimize the geometry with COSMO effects                                      
 INPUT CARD> $statpt opttol=0.0005 nstep=50 $end                                            
 INPUT CARD> $contrl nzvar=1 $end                                                           
 INPUT CARD> $zmat dlc=.t. auto=.t. $end                                                    
 INPUT CARD> $contrl runtyp=OPTIMIZE maxit=200 $end                                         
 INPUT CARD>                                                                                
 INPUT CARD>! Run COSMO on perfect conductor                                                
 INPUT CARD> $COSGMS PRFCND=.TRUE. $end                                                     
 INPUT CARD>                                                                                
 INPUT CARD>! Specifying RSOLV                                                              
 INPUT CARD> $COSGMS COSRAD = 1.4 $end                                                      
 INPUT CARD>                                                                                
 INPUT CARD>! available memory                                                              
 INPUT CARD> $SYSTEM MWORDS=40 $END                                                         
 INPUT CARD>                                                                                
 INPUT CARD> $DATA                                                                          
 INPUT CARD>http://cactus.nci.nih.gov/chemical/structure/N-ETHYLPYRROLIDONE/file?format=sdf&
 INPUT CARD>C1                                                                              
 INPUT CARD>C      6.0     -1.7349000000    0.2207000000   -0.5860000000                    
 INPUT CARD>C      6.0     -2.4876000000    0.3884000000    0.7355000000                    
 INPUT CARD>N      7.0     -0.2922000000    0.2383000000   -0.3319000000                    
 INPUT CARD>C      6.0      0.4446000000   -0.8542000000   -0.0667000000                    
 INPUT CARD>C      6.0      1.8902000000   -0.4662000000    0.1527000000                    
 INPUT CARD>C      6.0      1.8409000000    1.0607000000    0.3918000000                    
 INPUT CARD>C      6.0      0.5353000000    1.4503000000   -0.3402000000                    
 INPUT CARD>O      8.0      0.0131000000   -1.9864000000   -0.0111000000                    
 INPUT CARD>H      1.0     -2.0117000000   -0.7290000000   -1.0437000000                    
 INPUT CARD>H      1.0     -1.9954000000    1.0378000000   -1.2587000000                    
 INPUT CARD>H      1.0     -2.2109000000    1.3381000000    1.1932000000                    
 INPUT CARD>H      1.0     -3.5610000000    0.3753000000    0.5464000000                    
   40000000 WORDS OF MEMORY AVAILABLE

     BASIS OPTIONS
     -------------
     GBASIS=N311         IGAUSS=       6      POLAR=POPN311 
     NDFUNC=       1     NFFUNC=       0     DIFFSP=       F
     NPFUNC=       1      DIFFS=       F     BASNAM=        


     RUN TITLE
     ---------
 http://cactus.nci.nih.gov/chemical/structure/N-ETHYLPYRROLIDONE/file?format=sdf&

 THE POINT GROUP OF THE MOLECULE IS C1      
 THE ORDER OF THE PRINCIPAL AXIS IS     0

 ATOM      ATOMIC                      COORDINATES (BOHR)
           CHARGE         X                   Y                   Z
 C           6.0    -3.2784856161        0.4170625255       -1.1073794288
 C           6.0    -4.7008823671        0.7339695736        1.3898934640
 N           7.0    -0.5521779336        0.4503217029       -0.6272000553
 C           6.0     0.8401721741       -1.6142039387       -0.1260447234
 C           6.0     3.5719600620       -0.8809902555        0.2885611583
 C           6.0     3.4787965708        2.0044323552        0.7403946420
 C           6.0     1.0115703212        2.7406696000       -0.6428847810
 O           8.0     0.0247554104       -3.7537517020       -0.0209759585
 H           1.0    -3.8015617695       -1.3776102450       -1.9723070134
 H           1.0    -3.7707592359        1.9611576301       -2.3785981007
 H           1.0    -4.1779951863        2.5286423442        2.2548210485
 H           1.0    -6.7293142423        0.7092141632        1.0325462797
 H           1.0    -4.2087977199       -0.8101255309        2.6611121359
 H           1.0     4.3342755254       -1.8451284544        1.9415044798
 H           1.0     4.6961580521       -1.3129816163       -1.3825235326
 H           1.0     3.3606886966        2.4322663188        2.7518189833
 H           1.0     5.1039609202        2.9373900753       -0.1147063675
 H           1.0     1.4242864769        3.3225162316       -2.5753185761
 H           1.0     0.0517784921        4.2560408695        0.3696304032

          INTERNUCLEAR DISTANCES (ANGS.)




     $CONTRL OPTIONS
     ---------------
 SCFTYP=RHF          RUNTYP=OPTIMIZE     EXETYP=RUN     
 MPLEVL=       0     CITYP =NONE         CCTYP =NONE         VBTYP =NONE    
 DFTTYP=NONE         TDDFT =NONE    
 MULT  =       1     ICHARG=       0     NZVAR =       1     COORD =UNIQUE  
 PP    =NONE         RELWFN=NONE         LOCAL =NONE         NUMGRD=       F
 ISPHER=      -1     NOSYM =       0     MAXIT =     200     UNITS =ANGS    
 PLTORB=       F     MOLPLT=       F     AIMPAC=       F     FRIEND=        
 NPRINT=       7     IREST =       0     GEOM  =INPUT   
 NORMF =       0     NORMP =       0     ITOL  =      20     ICUT  =       9
 INTTYP=BEST         GRDTYP=BEST         QMTTOL= 1.0E-06

     $SYSTEM OPTIONS
     ---------------
  REPLICATED MEMORY=    40000000 WORDS (ON EVERY NODE).
 DISTRIBUTED MEMDDI=           0 MILLION WORDS IN AGGREGATE,
 MEMDDI DISTRIBUTED OVER   1 PROCESSORS IS           0 WORDS/PROCESSOR.
 TOTAL MEMORY REQUESTED ON EACH PROCESSOR=    40000000 WORDS.
 TIMLIM=       10000.00 MINUTES, OR       6.9 DAYS.
 PARALL= F  BALTYP=  DLB     KDIAG=    0  COREFL= F
 MXSEQ2=     300 MXSEQ3=     150  mem10=         0

     $COSGMS OPTIONS
     ---------------
     EPSI  =   INFTY     NSPA  =      92     COSRAD=    1.40
     DISEX =   10.00     OUTCHG=DBLCAV       COSBUG=       F
     COSWRT=       F     DCOSMO=       F

     SYMMETRY COORDINATES WILL NOT BE USED FOR 
     THE COSMO CALCULATION, EVEN IF SPECIFIED:
         -- SWITCHING TO C1 POINT GROUP --


     DEFINITION OF CAVITY
     ---------------------------
     ATOM         COORDINATES           RADIUS 
     1   -3.2785    0.4171   -1.1074    2.0000
     2   -4.7009    0.7340    1.3899    2.0000
     3   -0.5522    0.4503   -0.6272    1.8300
     4    0.8402   -1.6142   -0.1260    2.0000
     5    3.5720   -0.8810    0.2886    2.0000
     6    3.4788    2.0044    0.7404    2.0000
     7    1.0116    2.7407   -0.6429    2.0000
     8    0.0248   -3.7538   -0.0210    1.7200
     9   -3.8016   -1.3776   -1.9723    1.3000
    10   -3.7708    1.9612   -2.3786    1.3000
    11   -4.1780    2.5286    2.2548    1.3000
    12   -6.7293    0.7092    1.0325    1.3000
    13   -4.2088   -0.8101    2.6611    1.3000
    14    4.3343   -1.8451    1.9415    1.3000
    15    4.6962   -1.3130   -1.3825    1.3000
    16    3.3607    2.4323    2.7518    1.3000
    17    5.1040    2.9374   -0.1147    1.3000
    18    1.4243    3.3225   -2.5753    1.3000
    19    0.0518    4.2560    0.3696    1.3000

          ----------------
          PROPERTIES INPUT
          ----------------

     MOMENTS            FIELD           POTENTIAL          DENSITY
 IEMOM =       1   IEFLD =       0   IEPOT =       0   IEDEN =       0
 WHERE =COMASS     WHERE =NUCLEI     WHERE =NUCLEI     WHERE =NUCLEI  
 OUTPUT=BOTH       OUTPUT=BOTH       OUTPUT=BOTH       OUTPUT=BOTH    
 IEMINT=       0   IEFINT=       0                     IEDINT=       0
                                                       MORB  =       0
          EXTRAPOLATION IN EFFECT
          SOSCF IN EFFECT
 ORBITAL PRINTING OPTION: NPREO=     1   218     2     1

     -------------------------------
     INTEGRAL TRANSFORMATION OPTIONS
     -------------------------------
     NWORD  =            0
     CUTOFF = 1.0E-09     MPTRAN =       0
     DIRTRF =       T     AOINTS =DUP     

          ----------------------
          INTEGRAL INPUT OPTIONS
          ----------------------
 NOPK  =       1 NORDER=       0 SCHWRZ=       T


 -----------------------------------------------
  STATISTICS ON AUTOMATIC COORDINATE GENERATION 
 -----------------------------------------------
  NUMBER OF USER SPECIFIED BONDS                             0
  NUMBER OF BONDS                                           19
  NUMBER OF ANGLES                                          36
  NUMBER OF TORSIONS                                        49
  NUMBER OF EXTRA COORD.                                     0
  NUMBER OF EXTRA COORD. FOR CONSTRAINTS                     0
  NUMBER OF CONSTRAINED COORD.                               0

  TOTAL NUMBER OF PRIMITIVES                               104
 -----------------------------------------------

   --- ENCODED Z MATRIX ---
 COORD  TYPE   I   J   K   L   M   N
    1      1    1  10
    2      1    1   3
    3      1    1   2
    4      1    1   9
    5      1    2  13
    6      1    2  11
    7      1    2  12
    8      1    3   4
    9      1    3   7
   10      1    4   5
   11      1    4   8
   12      1    5  15
   13      1    5  14
   14      1    5   6
   15      1    6   7
   16      1    6  17
   17      1    6  16
   18      1    7  19
   19      1    7  18
   20      2    1   2  13
   21      2    1   2  12
   22      2    1   2  11
   23      2    1   3   7
   24      2    1   3   4
   25      2    2   1   9
   26      2    2   1   3
   27      2    2   1  10
   28      2    3   4   5
   29      2    3   1   9
   30      2    3   7  18
   31      2    3   7   6
   32      2    3   4   8
   33      2    3   1  10
   34      2    3   7  19
   35      2    4   3   7
   36      2    4   5   6
   37      2    4   5  14
   38      2    4   5  15
   39      2    5   6  16
   40      2    5   6  17
   41      2    5   6   7
   42      2    5   4   8
   43      2    6   5  14
   44      2    6   5  15
   45      2    6   7  18
   46      2    6   7  19
   47      2    7   6  17
   48      2    7   6  16
   49      2    9   1  10
   50      2   11   2  12
   51      2   11   2  13
   52      2   12   2  13
   53      2   14   5  15
   54      2   16   6  17
   55      2   18   7  19
   56      3    1   3   7  18
   57      3    1   3   7  19
   58      3    1   3   7   6
   59      3    1   3   4   8
   60      3    1   3   4   5
   61      3    2   1   3   7
   62      3    2   1   3   4
   63      3    3   7   6  16
   64      3    3   1   2  12
   65      3    3   1   2  13
   66      3    3   7   6   5
   67      3    3   7   6  17
   68      3    3   4   5   6
   69      3    3   4   5  14
   70      3    3   4   5  15
   71      3    3   1   2  11
   72      3    4   5   6  16
   73      3    4   5   6  17
   74      3    4   5   6   7
   75      3    4   3   7  19
   76      3    4   3   7   6
   77      3    4   3   7  18
   78      3    4   3   1   9
   79      3    4   3   1  10
   80      3    5   6   7  18
   81      3    5   6   7  19
   82      3    5   4   3   7
   83      3    6   5   4   8
   84      3    7   3   1   9
   85      3    7   3   4   8
   86      3    7   3   1  10
   87      3    7   6   5  14
   88      3    7   6   5  15
   89      3    8   4   5  14
   90      3    8   4   5  15
   91      3    9   1   2  13
   92      3    9   1   2  12
   93      3    9   1   2  11
   94      3   10   1   2  11
   95      3   10   1   2  13
   96      3   10   1   2  12
   97      3   14   5   6  17
   98      3   14   5   6  16
   99      3   15   5   6  17
  100      3   15   5   6  16
  101      3   16   6   7  19
  102      3   16   6   7  18
  103      3   17   6   7  19
  104      3   17   6   7  18

          INDEP./SYM. INTERNAL COORDINATES
          --------------------------------
 CRD  1=   0.2423 (  2)  0.1055 (  3) -0.1139 ( 21) -0.2014 ( 25)  0.7171 ( 26)
          -0.1925 ( 27) -0.2185 ( 29) -0.2129 ( 33) -0.1114 ( 35)  0.1081 ( 49)
           0.1351 ( 58) -0.1370 ( 60)  0.1105 ( 79) -0.1141 ( 84)
 CRD  2=  -0.1776 (  8)  0.1988 (  9) -0.1248 ( 10)  0.5883 ( 23) -0.5911 ( 24)
          -0.1398 ( 32) -0.1614 ( 61) -0.1616 ( 62)  0.1469 ( 64)  0.1084 ( 65)
           0.1047 ( 71)
 CRD  3=   0.2381 ( 20) -0.2369 ( 22)  0.1376 ( 23) -0.1551 ( 24)  0.2657 ( 25)
          -0.2676 ( 27) -0.1741 ( 29)  0.1588 ( 33)  0.4178 ( 61)  0.4145 ( 62)
           0.1123 ( 65)  0.1142 ( 71)  0.1872 ( 78)  0.1925 ( 79)  0.1905 ( 84)
           0.1958 ( 86)
 CRD  4=  -0.5757 (  2) -0.1838 (  3) -0.2408 (  8) -0.2422 (  9) -0.1544 ( 10)
           0.1067 ( 14) -0.1294 ( 15) -0.2298 ( 21) -0.1472 ( 23) -0.1249 ( 24)
           0.1880 ( 26) -0.1328 ( 28) -0.1257 ( 29) -0.1184 ( 31) -0.1500 ( 33)
           0.2719 ( 35)  0.1670 ( 42) -0.1126 ( 60)
 CRD  5=  -0.1081 (  2)  0.4506 (  3)  0.1117 ( 19)  0.1508 ( 20)  0.2279 ( 22)
           0.1358 ( 26) -0.1052 ( 29)  0.1035 ( 30) -0.2303 ( 31)  0.1081 ( 35)
          -0.1844 ( 36)  0.1751 ( 38) -0.1114 ( 40)  0.2252 ( 41)  0.1358 ( 43)
           0.1619 ( 45) -0.1751 ( 48) -0.1185 ( 50) -0.1696 ( 51) -0.1820 ( 58)
           0.1046 ( 59)  0.2106 ( 60)  0.1050 ( 66) -0.1288 ( 68) -0.1071 ( 72)
          -0.1477 ( 76)  0.1765 ( 82)
 CRD  6=   0.3202 (  3) -0.3298 (  8) -0.1307 ( 15) -0.1131 ( 18)  0.2646 ( 20)
          -0.1411 ( 28)  0.2075 ( 31) -0.1271 ( 33)  0.2543 ( 36) -0.1068 ( 37)
           0.1623 ( 39) -0.3217 ( 41)  0.2309 ( 42) -0.1584 ( 44) -0.1339 ( 46)
           0.1112 ( 47) -0.1014 ( 51) -0.1488 ( 52)  0.1072 ( 53) -0.1102 ( 54)
          -0.1160 ( 64) -0.1248 ( 76)  0.1062 ( 85)
 CRD  7=  -0.1320 (  8) -0.2872 (  9)  0.4578 ( 10)  0.1198 ( 13)  0.1612 ( 14)
           0.1268 ( 15)  0.1241 ( 28)  0.1174 ( 31) -0.4802 ( 32) -0.1472 ( 34)
          -0.2567 ( 36)  0.1837 ( 37)  0.3561 ( 42) -0.1193 ( 53)
 CRD  8=  -0.3435 (  3)  0.1990 (  9)  0.1078 ( 10)  0.2997 ( 20) -0.3793 ( 21)
          -0.2435 ( 22) -0.1977 ( 25)  0.2182 ( 29) -0.1201 ( 32)  0.1093 ( 38)
          -0.1148 ( 48)  0.2594 ( 50) -0.1051 ( 58)  0.1343 ( 60) -0.1624 ( 64)
          -0.1507 ( 65) -0.1326 ( 79)  0.1111 ( 82) -0.1064 ( 86)
 CRD  9=   0.1881 (  3)  0.2557 (  9)  0.3023 ( 14)  0.1048 ( 15)  0.1554 ( 18)
           0.1886 ( 20)  0.3138 ( 21) -0.3235 ( 22)  0.1554 ( 27)  0.1073 ( 30)
          -0.1567 ( 31) -0.2002 ( 33)  0.1192 ( 35)  0.1082 ( 41)  0.1620 ( 44)
           0.1175 ( 46) -0.1099 ( 47) -0.2079 ( 52)  0.1090 ( 58) -0.1637 ( 64)
          -0.1107 ( 65) -0.1525 ( 71)  0.1129 ( 76) -0.1071 ( 80) -0.1020 ( 82)
 CRD 10=  -0.1353 ( 10)  0.3305 ( 14)  0.5656 ( 15)  0.1573 ( 16)  0.1342 ( 17)
           0.1005 ( 28) -0.1615 ( 30) -0.1424 ( 37) -0.2327 ( 41) -0.1621 ( 42)
           0.1298 ( 43)  0.1849 ( 45)  0.1066 ( 46)  0.1900 ( 47) -0.1462 ( 54)
           0.1112 ( 56) -0.1288 ( 57)  0.1237 ( 69) -0.1553 ( 75)  0.1064 ( 87)
           0.1042 ( 89)
 CRD 11=  -0.1730 (  8) -0.1329 (  9) -0.2112 ( 11) -0.5597 ( 14)  0.3027 ( 15)
           0.1008 ( 20) -0.1422 ( 22)  0.1114 ( 28) -0.1057 ( 31) -0.1211 ( 33)
          -0.1474 ( 39) -0.1664 ( 40) -0.1469 ( 43)  0.1542 ( 46)  0.1167 ( 47)
           0.1013 ( 63) -0.1117 ( 67) -0.1089 ( 97)  0.1133 (100)  0.1571 (102)
          -0.1446 (103)
 CRD 12=  -0.1483 (  3) -0.1408 (  4) -0.1092 (  6)  0.1404 (  7) -0.1659 (  9)
          -0.1278 ( 15) -0.1526 ( 20)  0.4122 ( 21) -0.4143 ( 22)  0.1598 ( 26)
          -0.1498 ( 29) -0.1715 ( 30)  0.1042 ( 34)  0.1564 ( 39) -0.1053 ( 40)
           0.1488 ( 43)  0.1211 ( 45) -0.1349 ( 46) -0.1685 ( 48)  0.2466 ( 51)
          -0.1134 ( 63) -0.1142 ( 68)  0.1167 ( 80)
 CRD 13=   0.1563 (  1)  0.1215 (  5) -0.2665 (  9) -0.2151 ( 10) -0.2919 ( 11)
          -0.1674 ( 15) -0.1019 ( 19)  0.3941 ( 20) -0.1891 ( 21) -0.1170 ( 22)
           0.1967 ( 28)  0.1442 ( 31)  0.1132 ( 33) -0.1629 ( 35) -0.1349 ( 36)
          -0.2196 ( 42)  0.1959 ( 44) -0.1117 ( 45)  0.1293 ( 50) -0.1232 ( 51)
          -0.1022 ( 62) -0.1226 ( 78) -0.1099 ( 79) -0.1024 ( 84)
 CRD 14=   0.1535 (  1)  0.2744 (  8)  0.2144 ( 10)  0.2896 ( 11)  0.1131 ( 15)
           0.1125 ( 18)  0.2710 ( 20) -0.1131 ( 21)  0.2101 ( 25) -0.1642 ( 28)
          -0.1721 ( 29) -0.1883 ( 30)  0.1676 ( 33)  0.1339 ( 34)  0.1112 ( 36)
           0.1044 ( 37) -0.1019 ( 51)  0.1134 ( 56) -0.1370 ( 63)  0.1085 ( 64)
           0.1225 ( 65) -0.1188 ( 66) -0.1729 ( 67) -0.1067 ( 68) -0.1094 ( 69)
           0.1290 ( 71)  0.1190 ( 72)  0.1166 ( 74) -0.1398 ( 78) -0.1631 ( 84)
 CRD 15=   0.2482 (  4) -0.1976 ( 11)  0.1610 ( 18) -0.1816 ( 19)  0.2384 ( 22)
          -0.1109 ( 26)  0.1442 ( 27)  0.1349 ( 28)  0.1262 ( 29) -0.1912 ( 30)
          -0.1120 ( 33)  0.2380 ( 34) -0.1124 ( 40)  0.1267 ( 43)  0.1030 ( 45)
          -0.1756 ( 46) -0.1276 ( 48)  0.1459 ( 56)  0.1995 ( 57)  0.1189 ( 58)
           0.1438 ( 62) -0.1842 ( 63) -0.1110 ( 64) -0.1091 ( 65) -0.1683 ( 67)
          -0.1095 ( 71)  0.1057 ( 74)  0.1589 ( 75)  0.1053 ( 77)  0.1840 ( 79)
           0.1042 ( 81) -0.1160 ( 83)  0.1379 ( 86)
 CRD 16=  -0.1445 (  1) -0.1045 (  8)  0.2484 ( 16) -0.2012 ( 17) -0.1261 ( 18)
          -0.1486 ( 27) -0.1336 ( 38) -0.1443 ( 39)  0.1755 ( 40) -0.2040 ( 43)
           0.1805 ( 44)  0.1295 ( 45) -0.1477 ( 46)  0.1003 ( 56)  0.1070 ( 57)
           0.1470 ( 60)  0.1273 ( 61) -0.1140 ( 66) -0.1091 ( 68) -0.2910 ( 69)
          -0.2956 ( 70)  0.1290 ( 74)  0.2021 ( 75)  0.1954 ( 77) -0.1024 ( 79)
          -0.1852 ( 80) -0.2064 ( 81)  0.1468 ( 87)  0.1009 ( 88) -0.1405 ( 89)
          -0.1451 ( 90)
 CRD 17=   0.1233 ( 12) -0.1402 ( 13)  0.3112 ( 16) -0.3649 ( 17)  0.1425 ( 18)
          -0.2558 ( 19) -0.1384 ( 34) -0.2342 ( 37)  0.2284 ( 38)  0.1232 ( 43)
          -0.1324 ( 44) -0.1710 ( 45)  0.1507 ( 46)  0.2023 ( 47) -0.2002 ( 48)
           0.1020 ( 58) -0.1020 ( 59) -0.1899 ( 72) -0.1902 ( 73) -0.1085 ( 80)
          -0.1351 ( 81)  0.2436 ( 87)  0.2418 ( 88)
 CRD 18=  -0.4500 ( 12)  0.3651 ( 13)  0.1173 ( 16) -0.2518 ( 17) -0.1525 ( 39)
           0.1240 ( 40)  0.1948 ( 43) -0.1920 ( 44) -0.1410 ( 45)  0.1582 ( 46)
          -0.1355 ( 47)  0.1338 ( 59) -0.1400 ( 68)  0.1077 ( 69)  0.1061 ( 70)
           0.1800 ( 72)  0.2071 ( 73)  0.1278 ( 74) -0.1232 ( 75) -0.1164 ( 77)
          -0.1214 ( 80) -0.1172 ( 81) -0.2154 ( 83)  0.1601 ( 85)
 CRD 19=   0.3247 (  1) -0.2969 (  4) -0.1023 (  6) -0.1058 ( 12) -0.1294 ( 18)
          -0.2942 ( 25)  0.3100 ( 27)  0.1075 ( 29) -0.1244 ( 33)  0.1144 ( 40)
           0.1092 ( 45) -0.1275 ( 46)  0.1214 ( 56)  0.1235 ( 57)  0.1299 ( 64)
           0.1032 ( 65)  0.1031 ( 71)  0.1430 ( 75)  0.1409 ( 77)  0.2214 ( 78)
           0.2392 ( 79)  0.2435 ( 84)  0.2612 ( 86)
 CRD 20=  -0.1721 (  3) -0.5059 (  5) -0.5085 (  6) -0.4840 (  7)  0.1728 ( 20)
           0.1923 ( 21)  0.1714 ( 22) -0.1832 ( 50) -0.1689 ( 51) -0.1844 ( 52)
 CRD 21=  -0.1782 (  4)  0.2590 ( 18) -0.3226 ( 19) -0.1502 ( 25)  0.1619 ( 37)
          -0.1694 ( 38) -0.1077 ( 40) -0.1760 ( 43)  0.1650 ( 44) -0.1574 ( 45)
           0.1409 ( 46) -0.1938 ( 56) -0.1864 ( 57) -0.1169 ( 63) -0.1232 ( 67)
          -0.2038 ( 69) -0.2043 ( 70) -0.1773 ( 75) -0.1846 ( 77)  0.1603 ( 78)
          -0.1033 ( 83)  0.1707 ( 84)  0.1029 ( 86) -0.2218 ( 89) -0.2224 ( 90)
 CRD 22=  -0.4107 (  1) -0.3704 (  4)  0.4526 ( 12)  0.4821 ( 13)  0.1488 ( 19)
          -0.1429 ( 49)  0.1543 ( 53)
 CRD 23=  -0.1045 (  1) -0.1870 (  4) -0.2644 ( 12) -0.3007 ( 13)  0.5447 ( 18)
           0.5266 ( 19) -0.1107 ( 53)  0.2159 ( 55)  0.1097 ( 57)  0.1107 ( 75)
 CRD 24=  -0.3968 (  1) -0.3503 (  4)  0.1791 (  7) -0.2910 ( 12) -0.2876 ( 13)
           0.2434 ( 16)  0.2683 ( 17) -0.2574 ( 18) -0.2634 ( 19) -0.1571 ( 49)
          -0.1103 ( 51) -0.1267 ( 53) -0.1039 ( 94)
 CRD 25=  -0.2319 (  5) -0.2435 (  6)  0.4948 (  7) -0.4294 ( 16) -0.3927 ( 17)
           0.1198 ( 50) -0.2512 ( 51)  0.1261 ( 52) -0.1420 ( 54)  0.1332 ( 65)
          -0.1310 ( 71)  0.1348 ( 91) -0.1294 ( 93) -0.1334 ( 94)  0.1308 ( 95)
 CRD 26=  -0.5425 (  5)  0.5589 (  6)  0.2917 ( 50) -0.2997 ( 52)  0.2193 ( 64)
           0.2157 ( 92) -0.1012 ( 95)  0.2143 ( 96)
 CRD 27=   0.2550 (  1)  0.2313 (  4) -0.2293 (  5) -0.1733 (  6)  0.3784 (  7)
           0.1366 ( 13)  0.4227 ( 16)  0.3859 ( 17)  0.1267 ( 18)  0.1068 ( 19)
           0.1111 ( 49)  0.1113 ( 50) -0.1858 ( 51)  0.1450 ( 54)  0.1050 ( 65)
          -0.1048 ( 71) -0.1574 ( 93)  0.1472 ( 95)
 CRD 28=  -0.2324 ( 12)  0.1921 ( 13) -0.3386 ( 18)  0.2855 ( 19)  0.1203 ( 30)
          -0.1174 ( 34)  0.1653 ( 39) -0.1588 ( 40)  0.1677 ( 47) -0.1607 ( 48)
          -0.1088 ( 63) -0.1197 ( 72) -0.1329 ( 73) -0.1219 ( 80) -0.1003 ( 81)
          -0.1051 ( 87) -0.2306 ( 97) -0.2174 ( 98) -0.1984 ( 99) -0.1852 (100)
          -0.2219 (101) -0.2435 (102) -0.2097 (103) -0.2313 (104)
 CRD 29=   0.3310 (  1)  0.2062 (  2) -0.4097 (  4) -0.1717 ( 10) -0.1218 ( 11)
          -0.1206 ( 23) -0.1506 ( 32)  0.1970 ( 33)  0.1927 ( 42) -0.1855 ( 91)
          -0.1684 ( 92) -0.1721 ( 93) -0.2729 ( 94) -0.2863 ( 95) -0.2693 ( 96)
          -0.1219 (100)
 CRD 30=   0.1812 (  1) -0.3850 (  2)  0.1612 (  9)  0.2942 ( 10)  0.1208 ( 15)
          -0.1237 ( 17)  0.1196 ( 23)  0.1174 ( 28) -0.1609 ( 29)  0.1447 ( 32)
          -0.1530 ( 35)  0.1096 ( 37) -0.2621 ( 42)  0.1057 ( 49) -0.1274 ( 53)
          -0.1039 ( 64)  0.1157 ( 67) -0.1176 ( 71)  0.1152 ( 81) -0.2387 ( 91)
          -0.2496 ( 92) -0.2633 ( 93) -0.1125 ( 97)  0.1236 (101)  0.1615 (103)
 CRD 31=   0.1458 ( 12) -0.1538 ( 13) -0.2874 ( 16)  0.2750 ( 17) -0.1346 ( 18)
           0.1038 ( 19) -0.1207 ( 63) -0.1207 ( 67)  0.1645 ( 72)  0.1622 ( 73)
           0.1118 ( 74) -0.1722 ( 80) -0.1613 ( 81)  0.1756 ( 87)  0.1863 ( 88)
           0.2260 ( 97)  0.2283 ( 98)  0.2367 ( 99)  0.2390 (100) -0.1962 (101)
          -0.2071 (102) -0.1962 (103) -0.2071 (104)
 CRD 32=  -0.1328 (  1)  0.1085 (  4) -0.3294 (  9)  0.5837 ( 11)  0.1086 ( 13)
           0.1613 ( 23) -0.1670 ( 24)  0.1150 ( 32) -0.1129 ( 34) -0.1273 ( 42)
           0.1140 ( 55) -0.1744 ( 64) -0.1831 ( 65) -0.1684 ( 71) -0.1227 ( 91)
          -0.1140 ( 92) -0.1080 ( 93) -0.1694 ( 94) -0.1841 ( 95) -0.1754 ( 96)
           0.1183 (102) -0.1118 (103)
 CRD 33=   0.1399 (  2) -0.1232 (  7)  0.1202 ( 11)  0.2838 ( 12) -0.2568 ( 13)
           0.1975 ( 16) -0.2518 ( 17) -0.2415 ( 18)  0.2878 ( 19)  0.1140 ( 25)
           0.1376 ( 27)  0.1074 ( 46) -0.1195 ( 49)  0.1045 ( 50)  0.1082 ( 59)
          -0.1564 ( 75)  0.1846 ( 79) -0.2285 ( 83) -0.1576 ( 84)  0.2403 ( 85)
          -0.1702 ( 89) -0.2140 ( 90)
 CRD 34=  -0.1181 (  2) -0.2284 (  3)  0.2049 (  5)  0.1979 (  6)  0.2636 (  7)
          -0.1151 ( 11)  0.1918 ( 12) -0.1480 ( 13)  0.1459 ( 16) -0.1659 ( 17)
          -0.1344 ( 18)  0.1661 ( 19)  0.2240 ( 20)  0.2459 ( 21)  0.2206 ( 22)
          -0.1448 ( 25) -0.1367 ( 27)  0.1343 ( 29)  0.1121 ( 32)  0.1379 ( 33)
          -0.2443 ( 50) -0.1964 ( 51) -0.2498 ( 52)  0.1456 ( 78)  0.1074 ( 84)
          -0.1359 ( 86)
 CRD 35=  -0.1638 (  2) -0.1162 (  3) -0.1302 (  4)  0.1096 (  6) -0.1815 ( 10)
           0.3718 ( 11) -0.1504 ( 14)  0.1535 ( 15)  0.2394 ( 24)  0.2002 ( 28)
          -0.3668 ( 32)  0.1121 ( 34) -0.2130 ( 35) -0.1332 ( 37) -0.1416 ( 38)
           0.1666 ( 42)  0.1413 ( 43)  0.1361 ( 44) -0.1316 ( 45) -0.1194 ( 46)
           0.1150 ( 87)  0.1166 ( 95)  0.1274 ( 98) -0.1162 ( 99)  0.1107 (101)
 CRD 36=   0.1844 (  1) -0.1322 (  4) -0.6207 (  8)  0.2088 (  9)  0.2189 ( 10)
           0.2402 ( 11)  0.1159 ( 13) -0.1367 ( 14) -0.1231 ( 15)  0.1463 ( 32)
          -0.1953 ( 42)  0.1249 ( 44) -0.1293 ( 53) -0.1170 ( 70) -0.1352 ( 90)
           0.1246 ( 91)  0.1413 ( 93)
 CRD 37=  -0.1792 (  3) -0.1232 ( 13) -0.1768 ( 14)  0.1903 ( 18) -0.1221 ( 34)
          -0.1318 ( 35)  0.1593 ( 39)  0.2039 ( 40)  0.1327 ( 45)  0.1402 ( 46)
          -0.1979 ( 47) -0.2304 ( 48) -0.1037 ( 51)  0.1795 ( 53) -0.1740 ( 55)
           0.1848 ( 56) -0.1264 ( 57)  0.1787 ( 67) -0.1862 ( 72)  0.1487 ( 73)
          -0.1353 ( 75)  0.1759 ( 77) -0.1027 ( 93)  0.2078 ( 97) -0.1271 ( 98)
          -0.2801 (100) -0.1353 (102)  0.1355 (103)
 CRD 38=   0.1081 (  2) -0.2964 (  3)  0.1331 (  5)  0.1068 (  6)  0.1613 (  8)
           0.2205 (  9) -0.1855 ( 11)  0.1390 ( 13) -0.2100 ( 15) -0.1940 ( 16)
           0.1041 ( 27) -0.1106 ( 28) -0.1161 ( 29) -0.1336 ( 30) -0.1663 ( 34)
          -0.1367 ( 37) -0.1677 ( 39)  0.1226 ( 42)  0.1014 ( 47) -0.1609 ( 51)
           0.1187 ( 54)  0.1966 ( 63) -0.1565 ( 70) -0.1057 ( 73)  0.1158 ( 80)
          -0.1087 ( 81) -0.1409 ( 90) -0.1392 ( 93)  0.1068 ( 95)  0.2970 (102)
          -0.1690 (103)
 CRD 39=  -0.1390 (  1) -0.2141 (  2)  0.3337 (  3) -0.1818 (  6)  0.1501 (  8)
           0.1042 (  9)  0.2531 ( 10) -0.1918 ( 11)  0.1246 ( 12) -0.1477 ( 14)
          -0.1291 ( 25) -0.1016 ( 28)  0.1350 ( 33) -0.1340 ( 37) -0.2037 ( 38)
           0.1758 ( 43)  0.1123 ( 50)  0.1333 ( 51)  0.1571 ( 54)  0.2061 ( 69)
           0.1174 ( 77) -0.1059 ( 79)  0.1551 ( 84) -0.1441 ( 88)  0.1764 ( 89)
          -0.1283 ( 95)  0.1103 ( 97) -0.1996 (100) -0.1116 (103)
 CRD 40=   0.1461 (  1)  0.1673 (  3) -0.2787 (  4) -0.2629 (  5)  0.2452 (  6)
           0.1552 (  8)  0.1110 ( 14)  0.1659 ( 23) -0.1000 ( 24)  0.1544 ( 29)
          -0.1643 ( 30) -0.1285 ( 33)  0.1077 ( 49) -0.1532 ( 50)  0.2469 ( 52)
          -0.2898 ( 64) -0.1607 ( 79)  0.1146 ( 80) -0.1123 ( 86)  0.1200 ( 90)
           0.1539 ( 91) -0.1355 ( 92)  0.1174 ( 93)  0.1794 ( 94)  0.2160 ( 95)
           0.1069 (102) -0.1058 (103)
 CRD 41=  -0.2010 (  1)  0.2714 (  2)  0.1016 (  3) -0.1061 (  4)  0.2032 (  5)
          -0.3178 (  7) -0.1310 (  8)  0.1346 ( 12)  0.1125 ( 16) -0.1311 ( 29)
           0.2539 ( 49)  0.1902 ( 50) -0.2182 ( 51)  0.1672 ( 65) -0.1546 ( 71)
          -0.1188 ( 79)  0.1490 ( 84) -0.1088 ( 87) -0.1006 ( 92) -0.3353 ( 93)
           0.2541 ( 95)  0.1671 ( 96)
 CRD 42=   0.1962 (  2) -0.1140 (  3)  0.1926 (  6) -0.3083 (  9)  0.2876 ( 10)
          -0.1875 ( 11) -0.1984 ( 14)  0.2341 ( 15) -0.1988 ( 24) -0.1977 ( 28)
           0.1503 ( 30)  0.1726 ( 32) -0.1099 ( 33)  0.1016 ( 34)  0.2050 ( 35)
          -0.1157 ( 37) -0.1291 ( 38)  0.1191 ( 43) -0.1098 ( 45) -0.1284 ( 46)
           0.1213 ( 52)  0.1265 ( 57) -0.1642 ( 64)  0.1169 ( 75) -0.1092 ( 84)
           0.1115 ( 91)  0.1219 ( 95) -0.1158 (100)
 CRD 43=   0.1468 (  8) -0.1480 (  9)  0.2301 ( 13) -0.2500 ( 14) -0.2097 ( 15)
           0.1759 ( 16)  0.1056 ( 18)  0.1956 ( 19) -0.1119 ( 28)  0.1245 ( 39)
           0.1321 ( 42)  0.1675 ( 44) -0.1920 ( 53) -0.1158 ( 54) -0.2413 ( 55)
          -0.1997 ( 57) -0.1016 ( 59) -0.1035 ( 63) -0.2234 ( 70) -0.1856 ( 75)
           0.1125 ( 77)  0.1738 ( 81)  0.1406 ( 83) -0.1161 ( 85)  0.1787 ( 89)
          -0.1127 ( 90)  0.1212 ( 99)  0.1974 (100) -0.1787 (102)  0.1330 (103)
 CRD 44=  -0.1230 (  7)  0.1542 ( 10) -0.2642 ( 12)  0.1312 ( 15) -0.2321 ( 18)
           0.2204 ( 19)  0.1573 ( 34) -0.1168 ( 37) -0.1166 ( 43) -0.1397 ( 45)
           0.1422 ( 53) -0.1195 ( 56) -0.1849 ( 59) -0.1018 ( 60) -0.1073 ( 67)
          -0.1672 ( 69) -0.1599 ( 77)  0.1483 ( 78)  0.1437 ( 80)  0.1874 ( 81)
           0.1338 ( 83)  0.1029 ( 84) -0.1443 ( 85)  0.2128 ( 87) -0.1295 ( 94)
           0.2483 ( 97)  0.1345 ( 98)  0.1372 (101)
 CRD 45=  -0.1817 (  2)  0.1894 (  3) -0.1858 (  7) -0.1088 ( 15)  0.2508 ( 17)
          -0.1342 ( 25) -0.1204 ( 27)  0.1252 ( 29)  0.1112 ( 33)  0.1126 ( 40)
           0.1216 ( 47) -0.1100 ( 51)  0.1117 ( 52) -0.1285 ( 54)  0.1542 ( 56)
           0.1613 ( 58) -0.1512 ( 60)  0.1220 ( 65)  0.1600 ( 67) -0.1047 ( 71)
          -0.1948 ( 73) -0.2028 ( 83)  0.1620 ( 85) -0.1670 ( 86)  0.1062 ( 88)
          -0.1892 ( 89) -0.2140 ( 90)  0.1999 ( 91) -0.1738 ( 94) -0.1495 ( 97)
           0.1708 (103)  0.1201 (104)
 CRD 46=  -0.1481 (  9)  0.1581 ( 10) -0.1005 ( 12) -0.1632 ( 13)  0.2584 ( 14)
          -0.2390 ( 15)  0.1537 ( 18)  0.1477 ( 31) -0.1546 ( 36) -0.1371 ( 39)
          -0.1415 ( 40)  0.1629 ( 47)  0.1133 ( 48)  0.2120 ( 53) -0.2030 ( 55)
           0.1179 ( 56)  0.1291 ( 63)  0.1357 ( 70)  0.1079 ( 72)  0.1222 ( 77)
          -0.1436 ( 80)  0.1229 ( 81)  0.1362 ( 87) -0.1264 ( 88) -0.1223 ( 89)
          -0.1235 ( 92)  0.2063 ( 98) -0.2524 ( 99)  0.2324 (101) -0.2366 (104)
 CRD 47=   0.1407 (  1) -0.2421 (  2) -0.1034 (  3)  0.1737 (  4)  0.1180 (  6)
          -0.1800 (  7) -0.1210 ( 17)  0.1022 ( 18)  0.1778 ( 21)  0.1977 ( 26)
          -0.2494 ( 49) -0.1556 ( 51) -0.1352 ( 58)  0.1125 ( 60)  0.1594 ( 65)
          -0.1224 ( 71) -0.1140 ( 76) -0.1138 ( 78)  0.1110 ( 79)  0.1347 ( 86)
           0.1086 ( 89)  0.1242 ( 90)  0.3176 ( 91)  0.1530 ( 92) -0.3187 ( 94)
          -0.2014 ( 96) -0.1214 (103) -0.1603 (104)
 CRD 48=  -0.1545 (  1)  0.1174 (  4) -0.1324 (  5)  0.1140 (  6) -0.1760 ( 10)
           0.1194 ( 14)  0.1956 ( 15) -0.1930 ( 16)  0.1086 ( 20) -0.1070 ( 25)
           0.1079 ( 27)  0.1175 ( 36) -0.1806 ( 41) -0.1143 ( 53)  0.2218 ( 54)
          -0.1384 ( 61) -0.1252 ( 62)  0.1411 ( 63)  0.1503 ( 65)  0.1753 ( 71)
          -0.1933 ( 72) -0.1161 ( 80)  0.1731 ( 88) -0.2035 ( 92) -0.1674 ( 96)
          -0.2844 ( 98)  0.2503 ( 99)  0.2125 (101) -0.1590 (104)
 CRD 49=   0.1775 (  1) -0.1900 (  4)  0.1449 (  5) -0.1504 (  6)  0.1088 (  8)
          -0.2095 (  9)  0.1155 ( 14) -0.1298 ( 16) -0.1280 ( 20)  0.1317 ( 22)
           0.1479 ( 23) -0.1345 ( 24)  0.1400 ( 25) -0.1407 ( 27)  0.1306 ( 29)
           0.1245 ( 31) -0.1311 ( 33) -0.1361 ( 41)  0.1122 ( 50) -0.1147 ( 52)
           0.1452 ( 54) -0.1201 ( 55)  0.1606 ( 61)  0.1652 ( 62)  0.1399 ( 63)
          -0.2340 ( 65) -0.2266 ( 71) -0.1055 ( 72) -0.1404 ( 80)  0.2286 ( 92)
           0.2401 ( 96) -0.1478 ( 98)  0.1172 ( 99)  0.2186 (101) -0.1924 (104)
 CRD 50=   0.1809 ( 12) -0.1316 ( 13) -0.1252 ( 16)  0.1763 ( 17) -0.1091 ( 18)
           0.1547 ( 19)  0.1285 ( 37) -0.1228 ( 38) -0.1344 ( 39)  0.1324 ( 40)
           0.1291 ( 43) -0.1359 ( 44) -0.1249 ( 45)  0.1131 ( 46)  0.1275 ( 47)
          -0.1230 ( 48) -0.1097 ( 56) -0.1429 ( 57) -0.1305 ( 59)  0.1258 ( 60)
          -0.2296 ( 66) -0.2274 ( 68)  0.2674 ( 74)  0.1033 ( 76) -0.1771 ( 85)
           0.1192 ( 86)  0.2690 ( 89)  0.2241 ( 90) -0.2032 ( 97) -0.1483 ( 98)
          -0.1497 ( 99)  0.1387 (101)  0.1885 (103)  0.1361 (104)
 CRD 51=  -0.1196 ( 26)  0.1152 ( 30)  0.2190 ( 56)  0.2562 ( 57)  0.1341 ( 58)
          -0.3822 ( 59) -0.1079 ( 60) -0.1931 ( 61)  0.2242 ( 62)  0.1093 ( 63)
           0.1111 ( 66) -0.1741 ( 68) -0.1282 ( 69) -0.1447 ( 70) -0.1137 ( 75)
          -0.2357 ( 76) -0.1508 ( 77)  0.3028 ( 78)  0.1449 ( 79)  0.2619 ( 82)
           0.1002 ( 83) -0.1146 ( 84) -0.2724 ( 86)  0.1461 ( 89)  0.1296 ( 90)

 THE DETERMINANT OF THE G MATRIX IS 10**(   -18)


                     --------------------
                     INTERNAL COORDINATES
                     --------------------

                 - - ATOMS - -         COORDINATE      COORDINATE
 NO.   TYPE    I  J  K  L  M  N        (BOHR,RAD)       (ANG,DEG)
 ----------------------------------------------------------------
   1 STRETCH   1 10                     2.0597475       1.0899715
   2 STRETCH   1  3                     2.7684711       1.4650119
   3 STRETCH   1  2                     2.8913690       1.5300467
   4 STRETCH   1  9                     2.0597473       1.0899714
   5 STRETCH   2 13                     2.0597024       1.0899476
   6 STRETCH   2 11                     2.0596993       1.0899460
   7 STRETCH   2 12                     2.0598169       1.0900082
   8 STRETCH   3  4                     2.5400909       1.3441583
   9 STRETCH   3  7                     2.7733100       1.4675725
  10 STRETCH   4  5                     2.8587000       1.5127590
  11 STRETCH   4  8                     2.2920752       1.2129140
  12 STRETCH   5 15                     2.0598451       1.0900231
  13 STRETCH   5 14                     2.0598323       1.0900164
  14 STRETCH   5  6                     2.9220706       1.5462933
  15 STRETCH   6  7                     2.9227919       1.5466750
  16 STRETCH   6 17                     2.0597978       1.0899981
  17 STRETCH   6 16                     2.0598105       1.0900048
  18 STRETCH   7 19                     2.0597906       1.0899943
  19 STRETCH   7 18                     2.0598982       1.0900513
  20 BEND      1  2 13                  1.9106663     109.4731172
  21 BEND      1  2 12                  1.9105916     109.4688337
  22 BEND      1  2 11                  1.9106038     109.4695347
  23 BEND      1  3  7                  2.1702716     124.3474047
  24 BEND      1  3  4                  2.1703302     124.3507591
  25 BEND      2  1  9                  1.9105477     109.4663201
  26 BEND      2  1  3                  1.9106317     109.4711328
  27 BEND      2  1 10                  1.9106107     109.4699302
  28 BEND      3  4  5                  1.9219320     110.1185929
  29 BEND      3  1  9                  1.9106877     109.4743402
  30 BEND      3  7 18                  1.9300250     110.5822853
  31 BEND      3  7  6                  1.8392748     105.3826837
  32 BEND      3  4  8                  2.1806248     124.9406005
  33 BEND      3  1 10                  1.9107008     109.4750913
  34 BEND      3  7 19                  1.9199003     110.0021856
  35 BEND      4  3  7                  1.9425741     111.3012998
  36 BEND      4  5  6                  1.8185503     104.1952555
  37 BEND      4  5 14                  1.9283547     110.4865882
  38 BEND      4  5 15                  1.9284616     110.4927091
  39 BEND      5  6 16                  1.9368402     110.9727672
  40 BEND      5  6 17                  1.9368237     110.9718223
  41 BEND      5  6  7                  1.7746738     101.6813179
  42 BEND      5  4  8                  2.1806284     124.9408047
  43 BEND      6  5 14                  1.9282734     110.4819257
  44 BEND      6  5 15                  1.9282982     110.4833461
  45 BEND      6  7 18                  1.9241118     110.2434878
  46 BEND      6  7 19                  1.9241127     110.2435362
  47 BEND      7  6 17                  1.9341899     110.8209163
  48 BEND      7  6 16                  1.9406016     111.1882831
  49 BEND      9  1 10                  1.9106208     109.4705088
  50 BEND     11  2 12                  1.9106200     109.4704642
  51 BEND     11  2 13                  1.9106848     109.4741729
  52 BEND     12  2 13                  1.9106329     109.4712009
  53 BEND     14  5 15                  1.9292955     110.5404895
  54 BEND     16  6 17                  1.9353681     110.8884240
  55 BEND     18  7 19                  1.9248451     110.2854983
  56 TORSION   1  3  7 18              -1.3618048     -78.0256648
  57 TORSION   1  3  7 19               0.7685425      44.0342426
  58 TORSION   1  3  7  6               2.8423338     162.8537293
  59 TORSION   1  3  4  8               0.0068406       0.3919381
  60 TORSION   1  3  4  5              -3.1344871    -179.5928828
  61 TORSION   2  1  3  7              -1.5755306     -90.2712549
  62 TORSION   2  1  3  4               1.5711208      90.0185881
  63 TORSION   3  7  6 16              -1.6128611     -92.4101322
  64 TORSION   3  1  2 12               3.1415925     179.9999918
  65 TORSION   3  1  2 13              -1.0472034     -60.0003326
  66 TORSION   3  7  6  5               0.4496498      25.7630385
  67 TORSION   3  7  6 17               2.5093250     143.7737293
  68 TORSION   3  4  5  6               0.2837874      16.2598188
  69 TORSION   3  4  5 14               2.3550200     134.9327075
  70 TORSION   3  4  5 15              -1.7875270    -102.4177556
  71 TORSION   3  1  2 11               1.0472571      60.0034122
  72 TORSION   4  5  6 16               1.6286400      93.3141958
  73 TORSION   4  5  6 17              -2.4943499    -142.9157195
  74 TORSION   4  5  6  7              -0.4365694     -25.0135849
  75 TORSION   4  3  7 19              -2.3775328    -136.2225978
  76 TORSION   4  3  7  6              -0.3037416     -17.4031111
  77 TORSION   4  3  7 18               1.7753052     101.7174948
  78 TORSION   4  3  1  9              -0.5232020     -29.9772664
  79 TORSION   4  3  1 10              -2.6176566    -149.9806758
  80 TORSION   5  6  7 18              -1.6333291     -93.5828621
  81 TORSION   5  6  7 19               2.5206265     144.4212623
  82 TORSION   5  4  3  7               0.0115884       0.6639678
  83 TORSION   6  5  4  8              -2.8575404    -163.7250021
  84 TORSION   7  3  1  9               2.6133319     149.7328906
  85 TORSION   7  3  4  8              -3.1302692    -179.3512113
  86 TORSION   7  3  1 10               0.5188773      29.7294812
  87 TORSION   7  6  5 14              -2.5078576    -143.6896583
  88 TORSION   7  6  5 15               1.6348566      93.6703847
  89 TORSION   8  4  5 14              -0.7863077     -45.0521134
  90 TORSION   8  4  5 15               1.3543305      77.5974235
  91 TORSION   9  1  2 13               1.0472051      60.0004333
  92 TORSION   9  1  2 12              -1.0471843     -59.9992422
  93 TORSION   9  1  2 11              -3.1415197    -179.9958219
  94 TORSION  10  1  2 11              -1.0472060     -60.0004843
  95 TORSION  10  1  2 13               3.1415188     179.9957709
  96 TORSION  10  1  2 12               1.0471294      59.9960954
  97 TORSION  14  5  6 17               1.7175472      98.4082071
  98 TORSION  14  5  6 16              -0.4426483     -25.3618777
  99 TORSION  15  5  6 17              -0.4229238     -24.2317499
 100 TORSION  15  5  6 16              -2.5831193    -148.0018347
 101 TORSION  16  6  7 19               0.4581156      26.2480916
 102 TORSION  16  6  7 18               2.5873453     148.2439672
 103 TORSION  17  6  7 19              -1.7028837     -97.5680469
 104 TORSION  17  6  7 18               0.4263460      24.4278287

     ------------------------------------------
     THE POINT GROUP IS C1 , NAXIS= 1, ORDER= 1
     ------------------------------------------

     DIMENSIONS OF THE SYMMETRY SUBSPACES ARE
 A   =  218

 ..... DONE SETTING UP THE RUN .....
 STEP CPU TIME =     0.01 TOTAL CPU TIME =        0.0 (    0.0 MIN)
 TOTAL WALL CLOCK TIME=        0.0 SECONDS, CPU UTILIZATION IS  50.00%


          -----------------------------
          STATIONARY POINT LOCATION RUN
          -----------------------------

 OBTAINING INITIAL HESSIAN, HESS=GUESS   
 DIAGONAL GUESS HESSIAN IN INTERNAL COORDS IS
     1  0.3464     2  0.3636     3  0.3671     4  0.3464     5  0.3464
     6  0.3464     7  0.3464     8  0.4599     9  0.3618    10  0.3797
    11  0.5492    12  0.3464    13  0.3464    14  0.3557    15  0.3555
    16  0.3464    17  0.3464    18  0.3464    19  0.3463    20  0.2241
    21  0.2241    22  0.2241    23  0.2415    24  0.2500    25  0.2241
    26  0.2451    27  0.2241    28  0.2548    29  0.2212    30  0.2210
    31  0.2437    32  0.2638    33  0.2212    34  0.2210    35  0.2499
    36  0.2486    37  0.2251    38  0.2251    39  0.2231    40  0.2231
    41  0.2462    42  0.2596    43  0.2231    44  0.2231    45  0.2231
    46  0.2231    47  0.2231    48  0.2231    49  0.2034    50  0.2034
    51  0.2034    52  0.2034    53  0.2034    54  0.2034    55  0.2034
    56  0.2500    57  0.2500    58  0.2500    59  0.2500    60  0.2500
    61  0.2500    62  0.2500    63  0.2500    64  0.2500    65  0.2500
    66  0.2500    67  0.2500    68  0.2500    69  0.2500    70  0.2500
    71  0.2500    72  0.2500    73  0.2500    74  0.2500    75  0.2500
    76  0.2500    77  0.2500    78  0.2500    79  0.2500    80  0.2500
    81  0.2500    82  0.2500    83  0.2500    84  0.2500    85  0.2500
    86  0.2500    87  0.2500    88  0.2500    89  0.2500    90  0.2500
    91  0.2500    92  0.2500    93  0.2500    94  0.2500    95  0.2500
    96  0.2500    97  0.2500    98  0.2500    99  0.2500   100  0.2500
   101  0.2500   102  0.2500   103  0.2500   104  0.2500
 TRANSFORMING HESSIAN TO SYMMETRY COORDINATES

          PARAMETERS CONTROLLING GEOMETRY SEARCH ARE
          METHOD =QA                  UPHESS =BFGS    
          NNEG   =         0          NFRZ   =         3
          NSTEP  =        50          IFOLOW =         1
          HESS   =GUESS               RESTAR =         F
          IHREP  =         0          HSSEND =         F
          NPRT   =         0          NPUN   =         0
          OPTTOL = 5.000E-04          RMIN   = 1.500E-03
          RMAX   = 1.000E-01          RLIM   = 7.000E-02
          DXMAX  = 3.000E-01          PURIFY =         F
          MOVIE  =         F          TRUPD  =         T
          TRMAX  = 5.000E-01          TRMIN  = 5.000E-02
          ITBMAT =         5          STPT   =         F
          STSTEP = 1.000E-02          PROJCT=          F
          FROZEN COORD(S)=   1   2   3


      ***** EQUILIBRIUM GEOMETRY LOCATED *****
            (SUBJECT TO   3 CONSTRAINT(S))
 COORDINATES OF ALL ATOMS ARE (ANGS)
   ATOM   CHARGE       X              Y              Z
 ------------------------------------------------------------
 C           6.0  -1.6990924032   0.2225144861  -0.5643598410
 C           6.0  -2.4847350820   0.3892221725   0.7332200162
 N           7.0  -0.2674926546   0.2386640203  -0.3268270340
 C           6.0   0.4411495637  -0.8604345309  -0.0621821451
 C           6.0   1.8820024843  -0.4632336972   0.1716990000
 C           6.0   1.8197795707   1.0553529028   0.3653877539
 C           6.0   0.5209273768   1.4627217310  -0.3440166000
 O           8.0   0.0039527775  -1.9895997907  -0.0259413029
 H           1.0  -1.9541667874  -0.7157600517  -1.0387833918
 H           1.0  -1.9354199544   1.0179619108  -1.2621001578
 H           1.0  -2.2390098191   1.3299908604   1.2168567445
 H           1.0  -3.5529721178   0.3717124133   0.5411734922
 H           1.0  -2.2448205726  -0.4180415274   1.4182369608
 H           1.0   2.2824090254  -1.0013685151   1.0210435728
 H           1.0   2.4544308808  -0.7474613704  -0.7064938619
 H           1.0   1.7443094544   1.2894626630   1.4215986283
 H           1.0   2.6828782908   1.5731313179  -0.0311696660
 H           1.0   0.6969558443   1.7828367701  -1.3678579501
 H           1.0   0.0010192118   2.2607442258   0.1714525027


                     --------------------
                     INTERNAL COORDINATES
                     --------------------

                 - - ATOMS - -         COORDINATE      COORDINATE
 NO.   TYPE    I  J  K  L  M  N        (BOHR,RAD)       (ANG,DEG)
 ----------------------------------------------------------------
   1 STRETCH   1 10                     2.0487880       1.0841720
   2 STRETCH   1  3                     2.7424869       1.4512617
   3 STRETCH   1  2                     2.8837611       1.5260208
   4 STRETCH   1  9                     2.0444877       1.0818964
   5 STRETCH   2 13                     2.0514469       1.0855790
   6 STRETCH   2 11                     2.0521860       1.0859701
   7 STRETCH   2 12                     2.0513050       1.0855039
   8 STRETCH   3  4                     2.5213706       1.3342520
   9 STRETCH   3  7                     2.7516246       1.4560971
  10 STRETCH   4  5                     2.8587539       1.5127875
  11 STRETCH   4  8                     2.2891974       1.2113912
  12 STRETCH   5 15                     2.0524915       1.0861318
  13 STRETCH   5 14                     2.0451870       1.0822665
  14 STRETCH   5  6                     2.8953490       1.5321528
  15 STRETCH   6  7                     2.9007269       1.5349987
  16 STRETCH   6 17                     2.0443060       1.0818002
  17 STRETCH   6 16                     2.0493593       1.0844743
  18 STRETCH   7 19                     2.0465417       1.0829833
  19 STRETCH   7 18                     2.0542554       1.0870652
  20 BEND      1  2 13                  1.9193509     109.9707036
  21 BEND      1  2 12                  1.9331163     110.7594039
  22 BEND      1  2 11                  1.9356655     110.9054611
  23 BEND      1  3  7                  2.1430734     122.7890632
  24 BEND      1  3  4                  2.1498325     123.1763305
  25 BEND      2  1  9                  1.9243448     110.2568326
  26 BEND      2  1  3                  1.9470818     111.5595694
  27 BEND      2  1 10                  1.9335559     110.7845948
  28 BEND      3  4  5                  1.8967774     108.6773397
  29 BEND      3  1  9                  1.8901943     108.3001573
  30 BEND      3  7 18                  1.9244705     110.2640387
  31 BEND      3  7  6                  1.8024737     103.2741335
  32 BEND      3  4  8                  2.1920976     125.5979407
  33 BEND      3  1 10                  1.8883014     108.1916984
  34 BEND      3  7 19                  1.9325230     110.7254120
  35 BEND      4  3  7                  1.9902351     114.0320705
  36 BEND      4  5  6                  1.8142969     103.9515524
  37 BEND      4  5 14                  1.9210690     110.0691440
  38 BEND      4  5 15                  1.8841591     107.9543651
  39 BEND      5  6 16                  1.9176177     109.8714017
  40 BEND      5  6 17                  1.9775685     113.3063268
  41 BEND      5  6  7                  1.8121089     103.8261925
  42 BEND      5  4  8                  2.1942694     125.7223767
  43 BEND      6  5 14                  1.9917627     114.1195977
  44 BEND      6  5 15                  1.9638255     112.5189122
  45 BEND      6  7 18                  1.9567102     112.1112373
  46 BEND      6  7 19                  1.9625403     112.4452771
  47 BEND      7  6 17                  1.9591463     112.2508151
  48 BEND      7  6 16                  1.9112693     109.5076647
  49 BEND      9  1 10                  1.8783090     107.6191779
  50 BEND     11  2 12                  1.8917146     108.3872603
  51 BEND     11  2 13                  1.8893235     108.2502652
  52 BEND     12  2 13                  1.8934977     108.4894271
  53 BEND     14  5 15                  1.8853912     108.0249564
  54 BEND     16  6 17                  1.8851667     108.0120927
  55 BEND     18  7 19                  1.8849741     108.0010600
  56 TORSION   1  3  7 18              -1.3422121     -76.9030909
  57 TORSION   1  3  7 19               0.7428688      42.5632472
  58 TORSION   1  3  7  6               2.8473248     163.1396924
  59 TORSION   1  3  4  8               0.0402808       2.3079209
  60 TORSION   1  3  4  5              -3.1105959    -178.2240153
  61 TORSION   2  1  3  7              -1.5681905     -89.8506964
  62 TORSION   2  1  3  4               1.5626832      89.5351544
  63 TORSION   3  7  6 16              -1.6314603     -93.4757909
  64 TORSION   3  1  2 12              -3.1380344    -179.7961252
  65 TORSION   3  1  2 13              -1.0452647     -59.8892559
  66 TORSION   3  7  6  5               0.4157094      23.8183938
  67 TORSION   3  7  6 17               2.5580416     146.5649903
  68 TORSION   3  4  5  6               0.2528042      14.4846116
  69 TORSION   3  4  5 14               2.3929035     137.1032685
  70 TORSION   3  4  5 15              -1.8362096    -105.2070602
  71 TORSION   3  1  2 11               1.0439310      59.8128379
  72 TORSION   4  5  6 16               1.6355044      93.7075001
  73 TORSION   4  5  6 17              -2.5373798    -145.3811539
  74 TORSION   4  5  6  7              -0.4072388     -23.3330616
  75 TORSION   4  3  7 19              -2.3889007    -136.8739306
  76 TORSION   4  3  7  6              -0.2844448     -16.2974854
  77 TORSION   4  3  7 18               1.8092036     103.6597313
  78 TORSION   4  3  1  9              -0.5582191     -31.9836013
  79 TORSION   4  3  1 10              -2.5893738    -148.3601876
  80 TORSION   5  6  7 18              -1.6556866     -94.8638568
  81 TORSION   5  6  7 19               2.4995841     143.2156203
  82 TORSION   5  4  3  7               0.0211305       1.2106881
  83 TORSION   6  5  4  8              -2.8980870    -166.0481542
  84 TORSION   7  3  1  9               2.5940924     148.6305479
  85 TORSION   7  3  4  8              -3.1111781    -178.2573757
  86 TORSION   7  3  1 10               0.5629378      32.2539616
  87 TORSION   7  6  5 14              -2.5000614    -143.2429685
  88 TORSION   7  6  5 15               1.6267941      93.2084376
  89 TORSION   8  4  5 14              -0.7579877     -43.4294972
  90 TORSION   8  4  5 15               1.2960845      74.2601740
  91 TORSION   9  1  2 13               1.0557158      60.4880610
  92 TORSION   9  1  2 12              -1.0370538     -59.4188084
  93 TORSION   9  1  2 11              -3.1382738    -179.8098452
  94 TORSION  10  1  2 11              -1.0609077     -60.7855328
  95 TORSION  10  1  2 13               3.1330820     179.5123733
  96 TORSION  10  1  2 12               1.0403123      59.6055040
  97 TORSION  14  5  6 17               1.6529828      94.7089393
  98 TORSION  14  5  6 16              -0.4573183     -26.2024067
  99 TORSION  15  5  6 17              -0.5033469     -28.8396546
 100 TORSION  15  5  6 16              -2.6136480    -149.7510007
 101 TORSION  16  6  7 19               0.4524144      25.9214356
 102 TORSION  16  6  7 18               2.5803289     147.8419584
 103 TORSION  17  6  7 19              -1.6412689     -94.0377832
 104 TORSION  17  6  7 18               0.4866456      27.8827396

          INTERNUCLEAR DISTANCES (ANGS.)


 =====================================================
   GAMESS/COSab RESULTS
 =====================================================

   Dielectric Constant                  = INFTY
   Basic Grid Size                      =                 1082
   Number of Segments                   =                   92
   Number of Segments located on spheres=                  260
   Number of Segments of the cavity     =                  651
   Solvent Radius (rsolv)               = 1.40
   Outlying Charge Error Method         = double cavity

 =====================================================

  Total solvated Energy (a.u.)          =  -363.0529434118
  Total Energy corrected (a.u.)         =  -363.0525526478

  Outlying charge effect (a.u.)         =     0.0003907640
  Outlying charge effect (kcal/mol)     =     0.2452082949

  Dielectric Energy (a.u.)              =    -0.0191457163
  Dielectric energy corr. (a.u.)        =    -0.0187549524

  Sum of polarization charges           =     0.0226347041
  Sum of polarization charges(cor.)     =    -0.0226347041

  Total surface area of cavity (A**2)   =  154.69
  Total volume of cavity (A**3)         =  151.99

 =====================================================
 NPS=                   651
NR.  ATOM  (X, Y, Z)(a.u.)                  CHARGE(e)  AREA(A**2) SIGMA(e/A**2)
   1   1  -6.564873   0.151237  -2.787554  -0.000286   0.232280  -0.001231
   2   1  -3.673461   0.313527  -4.815998   0.000791   0.371649   0.002129
   3   1  -3.877674  -0.594466  -4.645521   0.000492   0.278737   0.001764
   4   1  -6.152935  -0.510999  -3.248354  -0.000130   0.325193  -0.000398
   5   1  -6.511074  -1.005130  -2.232750  -0.000367   0.232280  -0.001581
   6   1  -5.913612   0.548114  -3.705215   0.000097   0.325193   0.000299
   7   1  -4.840693   0.262006  -4.472758   0.000728   0.325193   0.002239
   8   1  -2.618380  -0.096879  -4.763198   0.000398   0.371649   0.001070
   9   1  -1.823008  -0.641768  -4.417595   0.000012   0.185824   0.000064
  10   1  -6.463002   1.091054  -2.871450  -0.000260   0.278737  -0.000934
  11   1  -2.378880   0.939899  -4.716475  -0.000012   0.325193  -0.000036
  12   1  -2.406371  -1.090727  -4.435971  -0.000045   0.232280  -0.000194
  13   1  -5.432770  -0.278176  -4.042907   0.000397   0.278737   0.001425
  14   1  -6.431341   1.827800  -2.456430  -0.000188   0.139368  -0.001351
  15   1  -1.599212   0.230624  -4.479844  -0.000043   0.185824  -0.000233
  16   2  -7.320681  -1.218171   3.276513   0.001798   0.418105   0.004301
  17   2  -5.937737   4.010262  -0.034648   0.000456   0.278737   0.001635
  18   2  -7.450355   2.714474   3.052483   0.001479   0.418105   0.003537
  19   2  -4.757066   0.701727   5.164379   0.001205   0.371649   0.003241
  20   2  -5.686630  -2.886812   0.960599   0.000293   0.185824   0.001575
  21   2  -6.989284  -1.904297  -0.047619   0.000359   0.185824   0.001934
  22   2  -6.520395  -2.521571   0.797961   0.000828   0.325193   0.002547
  23   2  -6.864048  -2.321684   1.870405   0.001451   0.371649   0.003904
  24   2  -4.412708   1.689776   5.031631   0.001126   0.325193   0.003462
  25   2  -6.745295   3.365368   3.164998   0.000926   0.278737   0.003323
  26   2  -5.893980   4.284511   0.883143   0.000588   0.232280   0.002529
  27   2  -7.454703  -1.724270   2.173194   0.000795   0.232280   0.003421
  28   2  -6.731475  -2.075011   2.882202   0.001037   0.278737   0.003720
  29   2  -5.053285   4.313721   0.222543   0.000149   0.185824   0.000801
  30   2  -6.807951   3.758353   0.558469   0.000924   0.278737   0.003316
  31   2  -7.228861   3.455880   2.068059   0.001220   0.278737   0.004376
  32   2  -6.751671   2.314395   4.135747   0.001117   0.464561   0.002404
  33   2  -5.772090   1.391293   4.948598   0.001045   0.464561   0.002249
  34   2  -3.494589   0.891158   4.965793   0.001179   0.278737   0.004230
  35   2  -2.487845   0.949547   4.445785   0.001530   0.371649   0.004117
  36   2  -6.758648   3.376854  -0.361091   0.000681   0.325193   0.002093
  37   2  -7.622538   1.458327   3.664627   0.000832   0.418105   0.001990
  38   2  -7.534105   0.014494   3.774413   0.001054   0.418105   0.002520
  39   2  -6.724664  -0.663601   4.250732   0.001292   0.464561   0.002780
  40   2  -5.797724   0.127921   4.949303   0.000722   0.325193   0.002219
  41   2  -7.119520  -2.059949   0.615118   0.000362   0.185824   0.001948
  42   2  -5.933663  -2.818197   1.735249   0.000547   0.232280   0.002356
  43   2  -5.769019   2.327394   4.640985   0.000566   0.278737   0.002030
  44   2  -6.657470   3.960100   1.577520   0.001092   0.278737   0.003916
  45   2  -3.070066   1.666605   4.668171   0.000766   0.232280   0.003297
  46   2  -6.971203   2.685133  -0.917519   0.000069   0.139368   0.000497
  47   2  -7.388698   3.371457   1.098239   0.000540   0.185824   0.002906
  48   2  -6.838273   0.866695   4.496116   0.000773   0.464561   0.001664
  49   3  -0.088142  -0.093850  -4.007018   0.000242   0.038894   0.006211
  50   3   0.115842   0.213364  -4.011222   0.000535   0.077788   0.006879
  51   4   1.136296  -2.984902   3.396190   0.000193   0.139368   0.001386
  52   4   1.157875  -2.981046  -3.630749  -0.000110   0.139368  -0.000789
  53   4   0.369460  -2.706277   3.474405   0.000100   0.092912   0.001078
  54   4   0.209747  -2.883913  -3.626433   0.000381   0.232280   0.001642
  55   4   0.793222  -2.136204   3.627139  -0.000833   0.232280  -0.003587
  56   4   0.471853  -1.182580   3.618377  -0.001531   0.185824  -0.008241
  57   4   0.974801  -1.381213  -3.886372  -0.000528   0.185824  -0.002843
  58   4   0.897201  -2.303385  -3.835204  -0.000607   0.232280  -0.002614
  59   4   1.968981  -3.038947  -3.433941  -0.000892   0.371649  -0.002401
  60   4   1.658388  -1.528399  -3.804573  -0.002018   0.325193  -0.006206
  61   4   0.082574  -2.078014   3.558890  -0.000362   0.139368  -0.002595
  62   4   0.090837  -2.101770  -3.792565  -0.000227   0.139368  -0.001631
  63   5   4.587749  -4.488180  -0.085848   0.000155   0.232280   0.000668
  64   5   7.033723  -2.338267   0.094466   0.000855   0.418105   0.002045
  65   5   6.628422  -0.527405   2.498465   0.000091   0.139368   0.000651
  66   5   6.798953  -2.712371   0.953747   0.000404   0.278737   0.001448
  67   5   4.829641  -4.405341   0.774605   0.000070   0.232280   0.000303
  68   5   2.747898  -0.871067   4.016410  -0.000203   0.092912  -0.002181
  69   5   2.207182  -1.060295   3.850014   0.000006   0.046456   0.000137
  70   5   5.400229  -4.104841  -0.350328   0.000225   0.232280   0.000970
  71   5   6.326047  -3.422925  -0.027207   0.000911   0.325193   0.002801
  72   5   7.245436  -1.353678   0.993046   0.000519   0.464561   0.001118
  73   5   7.049616  -0.375882   1.678230   0.000518   0.278737   0.001858
  74   5   4.525238  -4.236563  -1.106673  -0.000258   0.278737  -0.000925
  75   5   7.287336  -1.158541  -0.209102   0.000170   0.325193   0.000523
  76   5   7.162415  -0.203347  -0.586456   0.000016   0.232280   0.000070
  77   5   6.985826  -1.219641   1.875351  -0.000070   0.139368  -0.000505
  78   5   5.753075  -3.948610   0.444473   0.000412   0.278737   0.001478
  79   5   2.576196  -1.226232   3.957677  -0.000069   0.046456  -0.001488
  80   5   7.291330  -0.305502   0.425999  -0.000025   0.232280  -0.000109
  81   6   6.592644   1.603495   2.736290   0.000215   0.278737   0.000770
  82   6   5.237879   5.037664   2.026900   0.001116   0.418105   0.002670
  83   6   4.872333   2.071731  -2.805742  -0.000077   0.139368  -0.000555
  84   6   4.932056   4.692305   2.875801   0.000676   0.278737   0.002423
  85   6   6.138720   2.260924   3.321847   0.000583   0.371649   0.001569
  86   6   5.799704   1.347863   3.570215   0.000129   0.185824   0.000694
  87   6   6.612342   2.941385   2.511620   0.000591   0.278737   0.002119
  88   6   6.018972   4.100104   2.477419   0.001132   0.325193   0.003481
  89   6   4.094505   5.362668   2.274372   0.000478   0.325193   0.001470
  90   6   3.245809   5.570393   1.898263  -0.000027   0.232280  -0.000115
  91   6   6.897754   1.353662   2.072534   0.000107   0.185824   0.000575
  92   6   6.990382   2.256988   1.956256   0.000263   0.232280   0.001134
  93   6   4.657931   5.549117   1.092597   0.000278   0.278737   0.000998
  94   6   4.194568   5.665407   0.204251   0.000123   0.185824   0.000661
  95   6   4.990865   2.572649  -2.706760  -0.000003   0.046456  -0.000059
  96   6   3.060567   5.160013   2.720148  -0.000020   0.185824  -0.000109
  97   6   6.021471   3.403990   3.062690   0.000765   0.278737   0.002745
  98   6   7.168375   1.637463   1.188342   0.000059   0.139368   0.000423
  99   6   3.914259   5.697890   1.275226   0.000188   0.185824   0.001013
 100   7   0.821061   6.449406  -1.472500   0.000114   0.418105   0.000273
 101   7   0.928642   6.125805  -2.376459   0.000159   0.278737   0.000572
 102   7  -0.912143   5.035575  -3.001246   0.000083   0.139368   0.000593
 103   7  -1.131641   5.474080  -2.219420   0.000378   0.278737   0.001356
 104   7  -0.349990   6.074047  -1.894326   0.000400   0.278737   0.001436
 105   7   1.983180   6.238173  -1.753627  -0.000306   0.325193  -0.000942
 106   7   3.029442   5.767665  -1.689773  -0.000413   0.232280  -0.001780
 107   7   1.648173   6.483317  -0.543542  -0.000526   0.325193  -0.001618
 108   7   2.038298   6.255993   0.340104  -0.000412   0.185824  -0.002215
 109   7   2.801117   5.644408  -2.289571  -0.000361   0.185824  -0.001943
 110   7  -0.324047   5.716335  -2.613947   0.000294   0.185824   0.001580
 111   7   1.628661   1.094429  -3.978957   0.000022   0.046456   0.000470
 112   7   2.594652   6.182626  -0.722896  -0.000744   0.325193  -0.002287
 113   8  -1.076463  -6.822347   0.053739   0.005943   0.377948   0.015724
 114   8   0.585399  -5.674974   2.512771   0.005036   0.274871   0.018322
 115   8   2.082727  -6.221744  -0.492568   0.004871   0.240512   0.020253
 116   8  -0.058138  -5.451430  -2.823670   0.005733   0.343589   0.016686
 117   8  -0.612810  -6.711765   1.161693   0.006709   0.412307   0.016273
 118   8   0.141346  -6.318945   1.950360   0.006095   0.343589   0.017738
 119   8   0.095322  -7.008936  -0.042729   0.006920   0.412307   0.016783
 120   8   1.221348  -6.772941  -0.159003   0.006554   0.343589   0.019076
 121   8  -0.828299  -6.710236  -1.126545   0.006599   0.412307   0.016006
 122   8  -0.677184  -6.147894  -2.144939   0.006253   0.377948   0.016545
 123   8  -1.962547  -6.297397  -0.543289   0.006296   0.377948   0.016658
 124   8  -2.542565  -5.569569  -0.936000   0.006502   0.309230   0.021026
 125   8  -1.912750  -6.251329   0.769350   0.007785   0.481025   0.016185
 126   8  -2.181581  -5.482476   1.625839   0.005028   0.274871   0.018292
 127   8   1.318803  -6.081359   1.809854   0.005376   0.274871   0.019559
 128   8   1.784186  -6.378735   0.691976   0.005588   0.274871   0.020328
 129   8   1.508194  -6.344767  -1.325877   0.006299   0.343589   0.018332
 130   8   0.771197  -5.966770  -2.309682   0.007085   0.412307   0.017185
 131   8  -1.180957  -5.158332  -2.731625   0.006396   0.343589   0.018614
 132   8  -1.982583  -5.313490  -2.096062   0.005114   0.240512   0.021262
 133   8  -2.693024  -5.266232   0.952331   0.005134   0.240512   0.021348
 134   8  -1.551465  -5.046113   2.496531   0.006712   0.343589   0.019534
 135   8  -0.432370  -5.372923   2.738284   0.007004   0.412307   0.016987
 136   8   1.475073  -5.291639   2.413552   0.004890   0.240512   0.020330
 137   8   2.413691  -5.924968   0.245501   0.004671   0.240512   0.019422
 138   8   2.335931  -5.715962  -1.196311   0.004953   0.240512   0.020593
 139   8   1.403112  -4.955448  -2.729911   0.002438   0.206154   0.011828
 140   8   0.694965  -4.814908  -3.045464   0.003735   0.240512   0.015531
 141   8  -0.431516  -4.403885  -3.204498   0.006424   0.377948   0.016997
 142   8   0.558062  -4.626033   3.034998   0.005774   0.343589   0.016806
 143   8   0.719769  -6.747165   1.015368   0.007663   0.412307   0.018587
 144   8   0.376190  -6.724013  -1.330465   0.008204   0.481025   0.017055
 145   8  -1.681592  -6.012425  -1.673027   0.004647   0.274871   0.016908
 146   8  -2.828827  -5.340291   0.099853   0.007649   0.343589   0.022262
 147   8  -1.178868  -6.009603   1.974760   0.006167   0.377948   0.016316
 148   8   2.052070  -5.807195   1.431658   0.005060   0.206154   0.024546
 149   8   1.908703  -5.445738  -2.075715   0.006576   0.343589   0.019139
 150   8  -0.560216  -4.254173   3.112946   0.006629   0.377948   0.017540
 151   9  -4.350262  -3.413162  -3.127877  -0.003037   0.412182  -0.007369
 152   9  -5.069416  -3.335207  -1.505488  -0.001780   0.294415  -0.006047
 153   9  -3.117759  -2.326443  -4.143835  -0.001627   0.314043  -0.005181
 154   9  -4.389874  -2.039740  -4.216248  -0.001513   0.392554  -0.003855
 155   9  -5.811463  -2.145895  -2.920717  -0.001317   0.314043  -0.004193
 156   9  -4.665346  -3.592954  -2.227698  -0.001784   0.255160  -0.006993
 157   9  -3.683881  -2.973676  -3.808841  -0.002346   0.353299  -0.006640
 158   9  -5.159775  -2.356705  -3.658580  -0.002390   0.431809  -0.005535
 159   9  -5.578491  -2.874963  -2.365227  -0.002161   0.392554  -0.005505
 160  10  -4.572682   3.452233  -4.076438  -0.003104   0.451437  -0.006875
 161  10  -4.328319   4.284576  -2.279776  -0.001681   0.314043  -0.005354
 162  10  -5.660718   3.191562  -3.028671  -0.001951   0.353299  -0.005524
 163  10  -4.854176   1.983776  -4.529612  -0.001387   0.333671  -0.004158
 164  10  -3.104397   2.318074  -4.745907  -0.001597   0.333671  -0.004786
 165  10  -3.864088   4.185781  -3.320565  -0.002882   0.392554  -0.007341
 166  10  -5.037898   3.899487  -2.859867  -0.002035   0.353299  -0.005761
 167  10  -5.535375   2.562949  -3.834046  -0.001963   0.392554  -0.005001
 168  10  -4.076572   2.395851  -4.759151  -0.001969   0.392554  -0.005015
 169  10  -3.367675   3.480955  -4.262800  -0.002804   0.392554  -0.007144
 170  11  -3.896384   4.608884   3.537118  -0.002832   0.431809  -0.006558
 171  11  -2.950476   3.097841   4.312831  -0.001367   0.353299  -0.003869
 172  11  -4.165799   3.289037   4.629570  -0.001079   0.392554  -0.002748
 173  11  -5.574988   4.252480   3.396986  -0.000782   0.294415  -0.002658
 174  11  -4.676833   4.842386   1.657783  -0.001039   0.294415  -0.003527
 175  11  -3.279553   3.970461   4.033410  -0.002027   0.333671  -0.006075
 176  11  -4.936299   3.960383   4.155280  -0.001751   0.471065  -0.003717
 177  11  -5.287147   4.706194   2.632949  -0.001154   0.372926  -0.003094
 178  11  -4.281518   4.950260   2.605853  -0.002064   0.333671  -0.006185
 179  12  -9.135330   0.737661   0.608253  -0.003795   0.588831  -0.006444
 180  12  -8.453175  -0.970393   1.483665  -0.000957   0.372926  -0.002565
 181  12  -8.160532  -0.685201  -0.397721  -0.001177   0.353299  -0.003333
 182  12  -8.180554   1.619805  -0.721804  -0.001327   0.353299  -0.003757
 183  12  -8.483814   2.400848   1.159826  -0.001021   0.372926  -0.002739
 184  12  -8.687444   0.850337   2.478469  -0.001267   0.412182  -0.003073
 185  12  -8.661632  -0.681661   0.451124  -0.002292   0.490692  -0.004672
 186  12  -8.479900   0.475685  -0.670195  -0.002168   0.490692  -0.004417
 187  12  -8.575484   2.026498   0.118566  -0.002011   0.471065  -0.004268
 188  12  -8.872252   1.626209   1.746795  -0.002104   0.471065  -0.004466
 189  12  -8.867856  -0.085524   1.903444  -0.002183   0.490692  -0.004448
 190  13  -3.798036  -2.453604   4.432291  -0.003751   0.549575  -0.006826
 191  13  -5.191516  -3.050082   2.840183  -0.000930   0.274788  -0.003384
 192  13  -5.303216  -1.946522   4.569916  -0.001326   0.392554  -0.003377
 193  13  -3.537319  -0.871015   5.032055  -0.000854   0.333671  -0.002560
 194  13  -4.475368  -3.056297   3.599036  -0.002095   0.353299  -0.005929
 195  13  -5.465209  -2.589859   3.820033  -0.001105   0.372926  -0.002964
 196  13  -4.544613  -1.350376   5.052734  -0.001622   0.451437  -0.003593
 197  13  -2.879558  -1.400681   4.630881  -0.002351   0.431809  -0.005443
 198  14   5.250017  -2.972833   3.926953  -0.004145   0.529948  -0.007821
 199  14   3.648020  -3.289324   3.837669  -0.002370   0.353299  -0.006708
 200  14   4.077399  -1.665270   4.364243  -0.001855   0.333671  -0.005558
 201  14   6.172442  -1.501031   3.486716  -0.001741   0.333671  -0.005219
 202  14   6.340026  -3.241893   2.254190  -0.001548   0.353299  -0.004381
 203  14   4.914444  -4.249242   2.273642  -0.001781   0.353299  -0.005042
 204  14   3.881111  -2.509276   4.267837  -0.002502   0.412182  -0.006071
 205  14   5.302372  -1.633586   4.163227  -0.003117   0.471065  -0.006616
 206  14   6.410185  -2.454673   3.078931  -0.002927   0.510320  -0.005735
 207  14   5.674408  -3.765632   2.749688  -0.002663   0.431809  -0.006166
 208  14   4.436417  -3.908174   3.328153  -0.003189   0.431809  -0.007386
 209  15   5.995900  -2.112188  -3.259176  -0.004167   0.529948  -0.007863
 210  15   5.802753  -0.355294  -3.222202  -0.001857   0.294415  -0.006307
 211  15   4.242008  -1.282658  -3.756084  -0.001697   0.333671  -0.005085
 212  15   4.673159  -3.312160  -2.892358  -0.002236   0.372926  -0.005996
 213  15   6.309449  -3.159672  -1.770233  -0.001604   0.372926  -0.004301
 214  15   7.039080  -1.233992  -1.823946  -0.001538   0.353299  -0.004354
 215  15   5.178218  -0.894495  -3.674982  -0.003283   0.471065  -0.006970
 216  15   4.708526  -2.371946  -3.595517  -0.002982   0.471065  -0.006330
 217  15   5.584194  -3.338705  -2.530850  -0.002699   0.431809  -0.006251
 218  15   6.804296  -2.293757  -2.087721  -0.002831   0.471065  -0.006009
 219  15   6.581596  -0.892623  -2.745053  -0.003354   0.490692  -0.006835
 220  16   3.193080   3.000551   5.075262  -0.003423   0.549575  -0.006228
 221  16   2.947855   1.475457   4.920176  -0.001673   0.333671  -0.005015
 222  16   1.858126   2.551728   4.674787  -0.001811   0.294415  -0.006152
 223  16   2.538456   4.327645   4.059464  -0.001638   0.353299  -0.004635
 224  16   4.428841   4.058775   4.142914  -0.001088   0.372926  -0.002918
 225  16   4.854494   2.078895   4.551633  -0.001270   0.372926  -0.003405
 226  16   2.130042   1.623215   4.689717  -0.001743   0.333671  -0.005223
 227  16   2.033291   3.459609   4.528617  -0.002337   0.392554  -0.005952
 228  16   3.419187   4.269637   4.317508  -0.001836   0.412182  -0.004454
 229  16   4.581272   3.157246   4.652317  -0.002092   0.471065  -0.004441
 230  16   3.883521   1.820402   4.990849  -0.002409   0.431809  -0.005580
 231  17   7.059704   4.141857  -0.900934  -0.004094   0.588831  -0.006952
 232  17   5.757568   4.406269  -1.931678  -0.001755   0.333671  -0.005259
 233  17   6.393984   2.739430  -2.114968  -0.001455   0.333671  -0.004360
 234  17   7.472039   2.469688  -0.167128  -0.001252   0.333671  -0.003751
 235  17   6.927047   4.201908   0.978095  -0.001215   0.372926  -0.003259
 236  17   5.629446   5.364032  -0.121537  -0.001183   0.353299  -0.003348
 237  17   6.187987   3.620281  -2.148324  -0.002261   0.431809  -0.005237
 238  17   7.215427   2.727503  -1.230066  -0.002875   0.510320  -0.005635
 239  17   7.454473   3.400070   0.348935  -0.002529   0.510320  -0.004956
 240  17   6.557754   4.896623   0.287824  -0.002382   0.471065  -0.005056
 241  17   5.889772   5.031440  -1.119472  -0.002637   0.490692  -0.005375
 242  18   1.912545   4.069060  -4.863151  -0.003016   0.471065  -0.006403
 243  18   1.058496   2.253356  -4.758217  -0.001644   0.372926  -0.004409
 244  18   2.802958   2.615877  -4.390391  -0.001886   0.353299  -0.005337
 245  18   2.938486   4.819895  -3.725582  -0.002229   0.412182  -0.005407
 246  18   0.853939   5.441116  -3.820720  -0.001233   0.372926  -0.003307
 247  18   0.003177   4.580114  -4.270770  -0.001647   0.333671  -0.004936
 248  18   1.941051   2.735498  -4.874922  -0.002175   0.451437  -0.004818
 249  18   3.020249   3.793015  -4.303748  -0.002343   0.431809  -0.005426
 250  18   1.992984   5.316279  -3.921535  -0.002287   0.490692  -0.004661
 251  18   0.945780   4.676607  -4.631250  -0.001988   0.353299  -0.005628
 252  18   0.577862   3.458551  -4.925966  -0.002922   0.490692  -0.005954
 253  19  -1.024871   6.244824   1.367757  -0.003833   0.471065  -0.008137
 254  19   0.289013   5.717238   2.289824  -0.001726   0.274788  -0.006282
 255  19  -0.863701   6.430242  -0.468813  -0.001086   0.294415  -0.003688
 256  19   0.600395   6.632252   0.651105  -0.001391   0.314043  -0.004429
 257  19  -0.513048   5.481236   2.399583  -0.003008   0.372926  -0.008067
 258  19  -1.697663   6.018362   0.012037  -0.003390   0.451437  -0.007508
 259  19  -0.409086   6.694195   0.323567  -0.002495   0.431809  -0.005779
 260  19   0.428204   6.347171   1.568100  -0.002407   0.412182  -0.005839
 261   1  -6.317229  -1.693420  -1.537488  -0.000127   0.026485  -0.004806
 262   2  -6.540836  -1.615415  -1.099932  -0.000083   0.026485  -0.003130
 263   9  -6.161740  -1.907706  -1.680175  -0.000155   0.026485  -0.005839
 264   1  -3.997690   4.119830  -0.882357  -0.000157   0.025960  -0.006059
 265   2  -4.251603   4.131333  -0.454668  -0.000097   0.025960  -0.003742
 266  10  -4.041939   4.134955  -1.180542  -0.000242   0.025960  -0.009325
 267   1  -6.269512   2.428882  -2.040630  -0.000145   0.025960  -0.005602
 268   2  -6.493328   2.462786  -1.597596  -0.000093   0.025960  -0.003595
 269  10  -6.109765   2.595844  -2.234809  -0.000160   0.025960  -0.006170
 270   1  -6.750767   1.886722  -1.725462  -0.000095   0.026097  -0.003645
 271   2  -7.038409   1.958827  -1.325978  -0.000072   0.026097  -0.002748
 272  12  -7.278333   1.838723  -1.186336  -0.000081   0.026097  -0.003115
 273   1  -6.768975  -1.120419  -1.350146  -0.000085   0.026097  -0.003254
 274   2  -7.056861  -1.088693  -0.945623  -0.000073   0.026097  -0.002804
 275  12  -7.295128  -0.935101  -0.840140  -0.000109   0.026097  -0.004159
 276   1  -3.550617   4.227549  -0.563436  -0.000555   0.146987  -0.003776
 277   2  -3.802225   4.251180  -0.128654  -0.000467   0.146987  -0.003174
 278  19  -2.735946   4.703007  -0.245242  -0.000837   0.146987  -0.005693
 279   2  -6.837317   2.286884  -1.386890  -0.000046   0.078165  -0.000583
 280   1  -6.510718   2.125363  -2.007179  -0.000153   0.078165  -0.001962
 281   2  -6.908142  -1.330851  -0.964987  -0.000036   0.070340  -0.000510
 282   1  -6.505708  -1.479367  -1.541031  -0.000116   0.070340  -0.001656
 283   1  -0.902250  -0.719399  -3.982086   0.000174   0.050411   0.003453
 284   3  -0.428691  -0.707295  -3.890490   0.000317   0.050411   0.006297
 285   4  -0.195793  -1.077126  -3.819785   0.000192   0.050411   0.003818
 286   1  -0.829290   0.924981  -4.155390   0.000143   0.094162   0.001520
 287   3  -0.352499   0.923925  -4.073220   0.000315   0.094162   0.003340
 288  18   0.036387   1.574958  -4.201213  -0.000108   0.094162  -0.001143
 289   3  -0.527908  -0.086458  -4.038633   0.000935   0.185941   0.005030
 290   1  -1.190469   0.129676  -4.260983   0.000222   0.194944   0.001138
 291   1  -1.803142  -1.864365  -3.787405  -0.000153   0.067451  -0.002273
 292   4  -1.102652  -2.193356  -3.556082   0.000098   0.067451   0.001451
 293   9  -2.005162  -2.085396  -3.743436  -0.000256   0.067451  -0.003794
 294   4  -0.438150  -1.897494  -3.769992   0.000258   0.328817   0.000784
 295   1  -1.327407  -1.178586  -4.054411   0.000234   0.328817   0.000713
 296   9  -6.060884  -1.962845  -2.202937  -0.000309   0.067182  -0.004602
 297   9  -5.763866  -1.554324  -3.170571  -0.000801   0.148706  -0.005385
 298   9  -4.831229  -1.346787  -4.082467  -0.000548   0.148706  -0.003684
 299   9  -3.556057  -1.554937  -4.356419  -0.000616   0.148706  -0.004141
 300   9  -2.585492  -1.963810  -4.069622  -0.000315   0.067182  -0.004682
 301   1  -6.144137  -1.433146  -2.449303  -0.000793   0.147664  -0.005370
 302   1  -5.463173  -0.990342  -3.691173  -0.000513   0.147664  -0.003473
 303   1  -4.155888  -0.990705  -4.393336  -0.000371   0.147664  -0.002509
 304   1  -2.744690  -1.434090  -4.275198  -0.000535   0.147664  -0.003620
 305   1  -1.761400   1.918580  -4.311627  -0.000345   0.097105  -0.003549
 306  10  -1.950652   2.158103  -4.323649  -0.000504   0.097105  -0.005185
 307  18  -0.838562   2.480454  -4.261841  -0.000331   0.097105  -0.003413
 308   1  -3.447985   4.246155  -0.951815  -0.000333   0.081413  -0.004089
 309  10  -3.487584   4.262589  -1.252964  -0.000534   0.081413  -0.006562
 310  19  -2.624839   4.711703  -0.648945  -0.000509   0.081413  -0.006250
 311  10  -2.626902   1.890903  -4.616411  -0.000365   0.066365  -0.005505
 312  10  -3.611417   1.479775  -4.751655  -0.000608   0.146330  -0.004155
 313  10  -4.864863   1.411548  -4.404892  -0.000701   0.146330  -0.004788
 314  10  -5.751829   1.877718  -3.573025  -0.000867   0.146330  -0.005922
 315  10  -6.013559   2.520547  -2.751529  -0.000360   0.066365  -0.005417
 316   1  -2.811893   1.336166  -4.668084  -0.000576   0.146435  -0.003935
 317   1  -4.224114   0.955206  -4.624071  -0.000390   0.146435  -0.002665
 318   1  -5.489313   1.190431  -3.927382  -0.000594   0.146435  -0.004058
 319   1  -6.118716   1.950967  -2.847163  -0.000835   0.146435  -0.005703
 320  12  -7.527911   1.447269  -1.210604  -0.000635   0.203207  -0.003125
 321  12  -7.575983  -0.008281  -1.094773  -0.002046   0.416320  -0.004915
 322   1  -6.845453   0.839360  -2.051246  -0.001319   0.556206  -0.002371
 323   1  -6.819620  -0.800520  -1.786605  -0.000280   0.286209  -0.000979
 324  18   0.050725   2.182449  -4.509900  -0.000717   0.289473  -0.002476
 325   1  -1.376609   1.447913  -4.472504   0.000078   0.414883   0.000188
 326   2  -1.895476  -0.260863   3.857015   0.000005   0.099495   0.000048
 327   4  -0.956493  -0.683842   3.481216   0.000049   0.099495   0.000493
 328  13  -1.992644  -0.543810   3.923418  -0.000150   0.099495  -0.001509
 329   2  -0.901891   0.576894   3.367978   0.001260   0.379635   0.003319
 330   4   0.116566   0.154169   3.273539  -0.001302   0.379635  -0.003429
 331  16   0.758535   0.991109   3.464496  -0.001547   0.379635  -0.004076
 332   4  -0.251479  -0.430726   3.553828  -0.000174   0.184784  -0.000942
 333   2  -1.687019   0.072233   3.953470   0.000494   0.184784   0.002675
 334   2  -4.531833  -3.108211   0.267381   0.000338   0.224833   0.001504
 335   8  -3.573295  -3.855482   0.002872   0.004244   0.224833   0.018877
 336   9  -4.292253  -3.333361  -0.417731   0.000132   0.224833   0.000585
 337   2  -4.475672  -3.152517   1.496540   0.000054   0.112559   0.000476
 338   8  -3.472059  -3.811861   1.199331   0.002079   0.112559   0.018474
 339  13  -4.349247  -3.204002   1.771807  -0.000125   0.112559  -0.001109
 340   8  -3.350164  -4.413663   0.670469   0.004181   0.273371   0.015296
 341   2  -4.738504  -3.305118   0.923320   0.000737   0.310788   0.002372
 342   9  -5.056539  -3.076527  -0.830506  -0.001080   0.239192  -0.004516
 343   9  -5.914626  -2.351794  -1.539356  -0.001174   0.239192  -0.004908
 344   2  -5.960587  -2.373690  -0.261821  -0.000961   0.649428  -0.001479
 345  10  -5.895868   3.006595  -2.235358  -0.000986   0.202273  -0.004872
 346  10  -4.863587   3.868885  -1.679453  -0.002636   0.414311  -0.006363
 347   2  -6.061732   3.304550  -1.042642  -0.000668   0.553754  -0.001206
 348   2  -4.791282   4.164582  -0.421879  -0.000046   0.284901  -0.000161
 349   2  -1.765112   2.118816   3.621974   0.000248   0.182745   0.001358
 350  11  -1.857960   2.414090   3.597833  -0.000330   0.182745  -0.001808
 351  16  -0.107646   2.335808   3.364902  -0.000092   0.182745  -0.000504
 352   2  -3.900007   4.451319   0.560374  -0.000394   0.101459  -0.003883
[...]
 394   2  -5.279583  -2.976044   1.813684  -0.000133   0.084054  -0.001583
 395  16   1.021562   2.039945   4.094142  -0.000801   0.430266  -0.001861
 396   2  -1.479711   1.298898   4.023617   0.001530   0.689218   0.002219
 397  19  -2.437699   5.248557  -0.047117  -0.000436   0.097298  -0.004484
 398   2  -3.989542   4.569178   0.214796   0.000243   0.141150   0.001723
 399   3   0.876838   0.119511  -3.791005   0.000190   0.055078   0.003446
 400   4   1.120697  -0.244395  -3.724852   0.000002   0.055078   0.000030
 401   7   1.146439   0.521298  -3.814205   0.000032   0.055078   0.000581
 402   4   0.534184  -0.989263  -3.834067   0.000056   0.177881   0.000313
 403   3   0.381333  -0.329867  -3.864391   0.000820   0.169733   0.004828
 404   3   0.677632   0.771215  -3.972031   0.000062   0.016132   0.003852
 405   7   0.955222   1.153706  -4.073434  -0.000027   0.016132  -0.001686
 406  18   1.020711   1.419043  -4.204111  -0.000065   0.016132  -0.004056
 407   7   1.074421   0.911674  -4.004998   0.000039   0.050278   0.000775
 408   3   0.631433   0.377267  -3.934511   0.000243   0.047952   0.005063
 409  18   0.823681   1.648605  -4.382898  -0.000389   0.159502  -0.002439
 410   3   0.165076   0.765792  -4.118813   0.000744   0.205390   0.003622
 411   4   2.250355  -0.363556  -3.469888  -0.000940   0.104657  -0.008984
 412   5   2.722779  -0.233323  -3.389662  -0.000961   0.104657  -0.009180
 413   7   2.267909   0.406622  -3.528049  -0.000841   0.104657  -0.008038
 414   4   1.853974  -2.151272   3.594535  -0.000256   0.026635  -0.009600
 415   5   2.317550  -2.030209   3.711457  -0.000228   0.026635  -0.008552
 416  14   2.579017  -2.166180   3.772457  -0.000194   0.026635  -0.007283
 417   4   2.645471  -0.889957  -3.472441  -0.000338   0.029378  -0.011513
 418   5   3.118280  -0.754144  -3.436187  -0.000286   0.029378  -0.009730
 419  15   3.382433  -0.894152  -3.484943  -0.000322   0.029378  -0.010955
 420   4   1.439262  -0.476625   3.591707  -0.000997   0.096757  -0.010302
 421   5   1.900252  -0.346755   3.717769  -0.000760   0.096757  -0.007851
 422  16   1.989645   0.379674   3.897037  -0.000640   0.096757  -0.006618
 423   5   1.963979  -1.206067   3.737910  -0.001271   0.221406  -0.005742
 424   4   1.361910  -1.649176   3.626481  -0.001418   0.221406  -0.006404
 425   5   2.971116  -0.621952  -3.458840  -0.000155   0.026290  -0.005892
 426   4   2.288763  -0.777180  -3.564586  -0.000207   0.026290  -0.007861
 427   7   1.773450   0.674733  -3.837217  -0.000279   0.208611  -0.001336
 428   4   1.576832  -0.415432  -3.740773  -0.000429   0.208611  -0.002056
 429   4  -0.886581  -2.915223  -3.315794   0.000732   0.108020   0.006773
 430   8  -1.008514  -3.284675  -3.205976   0.001668   0.108020   0.015446
 431   9  -1.793556  -2.731936  -3.395073   0.000354   0.108020   0.003275
 432   4  -0.851049  -2.671640   3.210644   0.000877   0.138354   0.006337
 433   8  -0.976421  -3.046019   3.116128   0.001906   0.138354   0.013780
 434  13  -1.914972  -2.353514   3.448886   0.000432   0.138354   0.003126
 435   4   1.682631  -3.446493   3.111404   0.000276   0.067108   0.004118
 436   8   1.505719  -3.786677   2.993356   0.000925   0.067108   0.013785
 437  14   2.409634  -3.331055   3.232603  -0.000192   0.067108  -0.002856
 438   4   2.826563  -3.983594  -2.319377   0.000093   0.041187   0.002265
 439   8   2.594362  -4.288865  -2.206572   0.000404   0.041187   0.009820
 440  15   3.496748  -3.682371  -2.349954  -0.000219   0.041187  -0.005314
 441   8  -0.241832  -3.732215  -3.282152   0.002083   0.151412   0.013760
 442   8   1.350521  -4.333995  -2.822397   0.004574   0.322717   0.014172
 443   4   0.598550  -3.457729  -3.289576   0.002583   0.314925   0.008201
 444   4   2.198687  -4.057112  -2.661236   0.001276   0.161561   0.007899
 445   8   0.450032  -3.795518   3.091915   0.003403   0.239074   0.014232
 446   4   0.323203  -3.141943   3.227821   0.001758   0.255100   0.006893
 447   9  -2.145762  -2.349671  -3.773887  -0.000155   0.088514  -0.001749
 448   4  -0.818557  -2.642473  -3.585302   0.000360   0.124969   0.002878
 449  13  -2.260410  -1.856618   4.028978  -0.000519   0.237433  -0.002187
 450  13  -2.060333  -0.968482   4.126581  -0.000135   0.237433  -0.000568
 451   4  -0.595359  -1.712427   3.598385  -0.000015   0.679298  -0.000023
 452  14   2.769121  -2.618486   3.730792  -0.001221   0.216237  -0.005645
 453   4   1.710890  -2.878727   3.435422  -0.000409   0.304693  -0.001344
 454  15   3.907609  -3.265478  -2.814845  -0.001291   0.206169  -0.006262
 455  15   3.634316  -1.908665  -3.430890  -0.003770   0.424067  -0.008891
 456   4   2.732704  -3.016082  -3.065259  -0.002410   0.563147  -0.004280
 457   4   2.465792  -1.406449  -3.617037  -0.001592   0.290759  -0.005477
 458  16   1.657815   0.984279   4.098896  -0.000743   0.207567  -0.003578
 459   4   0.913448  -0.333419   3.679638  -0.001211   0.296813  -0.004081
 460   5   5.988019  -0.167587   3.137202  -0.000087   0.020542  -0.004238
 461   6   5.935524   0.328094   3.167953  -0.000053   0.020542  -0.002569
 462  14   5.940474  -0.440577   3.254056  -0.000099   0.020542  -0.004812
 463   5   7.087689   0.745543   0.115221  -0.000034   0.021961  -0.001545
 464   6   7.112442   1.240714   0.175440  -0.000041   0.021961  -0.001873
 465  17   7.155735   1.508899   0.046876  -0.000069   0.021961  -0.003139
 466   6   6.381886   0.763411   2.667403  -0.000306   0.277303  -0.001105
 467   6   7.057988   1.019132   0.879588  -0.000236   0.277303  -0.000851
 468   5   6.679741   0.182009   1.656845  -0.002015   0.579899  -0.003475
 469   5   3.315199  -0.082059  -3.381181  -0.000241   0.023993  -0.010064
 470   7   2.855738   0.561098  -3.452646  -0.000345   0.023993  -0.014359
 471  15   3.565285  -0.248698  -3.411267  -0.000235   0.023993  -0.009785
 472   7   2.462459   0.837663  -3.724363  -0.000236   0.077281  -0.003055
 473   5   3.054503  -0.101849  -3.482986  -0.000177   0.077281  -0.002285
 474   5   3.780191  -4.524067   1.401535   0.000035   0.056761   0.000615
 475   8   3.050253  -4.898406   1.276189   0.000954   0.056761   0.016805
 476  14   3.896845  -4.437854   1.666185  -0.000170   0.056761  -0.002995
 477   5   3.723346  -3.977877  -1.867187  -0.000109   0.036563  -0.002985
 478   8   2.995631  -4.372263  -1.818911   0.000304   0.036563   0.008309
 479  15   3.918981  -3.823440  -2.038434  -0.000237   0.036563  -0.006480
 480   8   2.770006  -4.983230  -1.494776   0.003717   0.280821   0.013235
 481   8   2.866791  -5.310963   0.116644   0.009717   0.566984   0.017138
 482   5   3.834632  -4.497311  -0.831550   0.001041   0.616830   0.001687
 483   5   3.842963  -4.727537   0.867357   0.000738   0.310302   0.002378
 484   5   3.366312  -0.516537   4.102597  -0.000132   0.040888  -0.003228
 485  14   3.558066  -0.747309   4.126741  -0.000222   0.040888  -0.005441
 486  16   3.338753   0.220374   4.250153  -0.000163   0.040888  -0.003980
 487  14   3.347074  -1.574535   4.104995  -0.000744   0.122997  -0.006052
 488   5   2.873953  -1.519935   3.939576  -0.000847   0.150268  -0.005638
 489  14   4.581620  -4.327989   1.778411  -0.000329   0.070190  -0.004690
 490  14   5.607383  -3.881566   1.577691  -0.000697   0.156781  -0.004448
 491  14   6.502409  -2.865043   1.799820  -0.000778   0.156781  -0.004962
 492  14   6.637788  -1.683374   2.484702  -0.000785   0.156781  -0.005006
 493  14   6.181569  -0.914772   3.186761  -0.000352   0.070190  -0.005010
 494   5   4.893457  -4.225021   1.273588  -0.000666   0.152941  -0.004352
 495   5   6.178744  -3.376679   1.205177  -0.000446   0.152941  -0.002917
 496   5   6.791645  -2.069158   1.744682  -0.000546   0.152941  -0.003570
 497   5   6.465858  -0.870572   2.657689  -0.000740   0.152941  -0.004837
 498   5   6.683121   0.420718  -1.404838  -0.000096   0.041905  -0.002300
 499  15   6.638741   0.213917  -1.621600  -0.000218   0.041905  -0.005212
 500  17   6.691322   1.183971  -1.317937  -0.000079   0.041905  -0.001873
 501  15   3.776086  -0.774488  -3.566343  -0.000292   0.031591  -0.009229
 502   5   3.448655  -0.503010  -3.453451  -0.000299   0.038595  -0.007756
 503  15   6.855931  -0.416406  -1.674722  -0.000396   0.071449  -0.005548
 504  15   7.032663  -1.457918  -1.222437  -0.000882   0.159804  -0.005520
 505  15   6.599405  -2.767942  -1.080853  -0.000735   0.159804  -0.004602
 506  15   5.574342  -3.615292  -1.474767  -0.000893   0.159804  -0.005587
 507  15   4.598602  -3.755796  -2.065303  -0.000419   0.071449  -0.005869
 508   5   6.985678  -0.609409  -1.113501  -0.000769   0.155531  -0.004947
 509   5   6.936223  -2.099905  -0.663335  -0.000595   0.155531  -0.003827
 510   5   6.067895  -3.384469  -0.813580  -0.000632   0.155531  -0.004066
 511   5   4.764805  -3.894868  -1.497774  -0.000788   0.155531  -0.005067
 512  16   2.586564   0.729314   4.336885  -0.001064   0.228234  -0.004660
 513   5   2.769544  -0.364738   4.075195  -0.000536   0.321407  -0.001666
 514  17   7.104337   1.666616  -0.506897  -0.001076   0.281927  -0.003815
 515   5   6.973098   0.531181  -0.758569  -0.000105   0.396373  -0.000264
 516   6   4.177003   5.395209  -0.800099  -0.000128   0.023698  -0.005397
 517   7   3.737106   5.488266  -1.019750  -0.000122   0.023698  -0.005142
 518  17   4.463790   5.319573  -0.849012  -0.000154   0.023698  -0.006482
 519   6   2.347845   5.602804   1.652445  -0.000115   0.023491  -0.004910
 520   7   1.928903   5.775749   1.440348  -0.000156   0.023491  -0.006629
 521  19   1.639126   5.843472   1.486635  -0.000200   0.023491  -0.008512
 522   7   2.382659   5.881391   0.941958  -0.000803   0.250408  -0.003206
 523   7   3.203382   5.810581  -0.601380  -0.000834   0.250408  -0.003330
 524   6   3.384827   5.597455   0.496405  -0.002163   0.515930  -0.004193
 525   6   4.991070   0.667988   3.900456  -0.000100   0.048899  -0.002049
 526  14   5.014960  -0.102602   3.851007  -0.000170   0.048899  -0.003481
 527  16   4.814432   0.854414   4.060264  -0.000186   0.048899  -0.003794
 528  14   5.665834  -0.592502   3.577680  -0.000887   0.206388  -0.004297
 529   6   5.493960   0.556150   3.655884  -0.000024   0.290412  -0.000083
 530   6   5.718713   1.549897  -2.317148  -0.000084   0.039818  -0.002104
 531  15   5.762031   0.798441  -2.457475  -0.000146   0.039818  -0.003678
 532  17   5.883527   1.779129  -2.213706  -0.000165   0.039818  -0.004139
 533   6   4.137334   1.505785  -3.026539  -0.000807   0.144710  -0.005578
 534  15   4.292527   0.756138  -3.084328  -0.000937   0.144710  -0.006476
 535  18   3.538473   1.841858  -3.368209  -0.000853   0.144710  -0.005898
 536  15   5.169810   0.298652  -3.037381  -0.001569   0.255727  -0.006137
 537   6   5.196272   1.410090  -2.697566  -0.000424   0.359718  -0.001177
 538   6   2.108294   4.890801   2.768171  -0.000129   0.050381  -0.002565
 539  16   2.164488   4.735369   3.021648  -0.000195   0.050381  -0.003861
 540  19   1.436812   5.105012   2.468852  -0.000200   0.050381  -0.003976
 541  16   4.952425   1.490666   4.232880  -0.000276   0.070106  -0.003935
 542  16   5.287285   2.550858   4.021817  -0.000584   0.156316  -0.003737
 543  16   4.951778   3.839377   3.712246  -0.000496   0.156316  -0.003173
 544  16   3.870003   4.635642   3.458459  -0.000588   0.156316  -0.003760
 545  16   2.747278   4.734378   3.356352  -0.000285   0.070106  -0.004068
 546   6   5.372278   1.722343   3.868950  -0.000514   0.153036  -0.003361
 547   6   5.502638   3.217928   3.546771  -0.000254   0.153036  -0.001663
 548   6   4.660181   4.457159   3.211901  -0.000292   0.153036  -0.001910
 549   6   3.206627   4.907958   3.008120  -0.000493   0.153036  -0.003222
 550   6   4.598227   3.106432  -2.754975  -0.000111   0.043545  -0.002546
 551  17   4.834612   3.239816  -2.625098  -0.000181   0.043545  -0.004159
 552  18   3.976640   3.321360  -3.145874  -0.000155   0.043545  -0.003561
 553  17   4.904668   5.375033  -0.536445  -0.000307   0.070427  -0.004357
 554  17   5.424123   5.284000   0.475292  -0.000701   0.157480  -0.004449
 555  17   6.244062   4.555294   1.308423  -0.000549   0.157480  -0.003488
 556  17   6.966558   3.383270   1.350626  -0.000649   0.157480  -0.004120
 557  17   7.274957   2.281598   0.583404  -0.000745   0.157480  -0.004729
 558   6   4.713762   5.436068   0.032467  -0.000626   0.153293  -0.004083
 559   6   5.533803   5.022632   1.277469  -0.000417   0.153293  -0.002718
 560   6   6.451723   3.891486   1.798390  -0.000410   0.153293  -0.002676
 561   6   7.065220   2.538384   1.366923  -0.000457   0.153293  -0.002982
 562   6   7.197407   1.645588   0.488903  -0.000183   0.086042  -0.002130
 563  17   5.735543   2.609723  -2.338710  -0.000604   0.122008  -0.004951
 564   6   5.268339   2.558557  -2.517664  -0.000581   0.149060  -0.003899
 565  18   3.521846   2.983982  -3.645115  -0.001175   0.244935  -0.004796
 566   6   4.302159   2.356349  -3.059976  -0.000447   0.344600  -0.001296
 567  19   1.227998   5.629345   2.008905  -0.001171   0.223636  -0.005238
 568   6   2.348324   5.398911   2.183969  -0.000275   0.314717  -0.000874
 569   7  -1.140608   4.330845  -3.413974  -0.000199   0.067824  -0.002939
 570  10  -1.996389   3.919164  -3.506387  -0.000388   0.067824  -0.005724
 571  18  -0.905285   4.299150  -3.604511  -0.000272   0.067824  -0.004014
 572   7  -2.026661   5.002962  -1.390441  -0.000326   0.070693  -0.004612
 573  10  -2.789822   4.521023  -1.700349  -0.000508   0.070693  -0.007188
 574  19  -2.009704   5.115659  -1.109939  -0.000430   0.070693  -0.006086
 575  10  -3.178584   4.433107  -2.377534  -0.001499   0.253292  -0.005919
 576  10  -2.750377   4.102517  -3.363055  -0.001515   0.253292  -0.005981
 577   7  -1.726377   4.799024  -2.510533  -0.001188   0.703411  -0.001690
 578   7   2.724862   1.120202  -3.627191  -0.000336   0.039779  -0.008448
 579  15   3.396293   0.322867  -3.368704  -0.000430   0.039779  -0.010812
 580  18   2.663499   1.385746  -3.757771  -0.000318   0.039779  -0.007998
 581  15   3.761115  -0.321213  -3.564415  -0.000120   0.043673  -0.002742
 582   7   2.754893   0.892883  -3.759994   0.000029   0.062607   0.000468
 583   7   3.672996   4.765260  -2.444302  -0.000177   0.044284  -0.003997
 584  17   4.342121   4.587484  -2.120804  -0.000145   0.044284  -0.003265
 585  18   3.532191   4.707882  -2.706909  -0.000246   0.044284  -0.005555
 586  17   4.761073   4.921152  -1.527457  -0.001261   0.277092  -0.004550
 587   7   3.677125   5.323255  -1.663009  -0.000662   0.389676  -0.001699
 588  18  -0.336814   4.819026  -3.669349  -0.000295   0.074977  -0.003937
 589  18   0.561236   5.521727  -3.295235  -0.000778   0.169491  -0.004589
 590  18   1.976087   5.624339  -3.019899  -0.000955   0.169491  -0.005633
 591  18   3.037172   5.063723  -3.012758  -0.000407   0.074977  -0.005430
 592   7  -0.252797   5.194931  -3.181057  -0.000510   0.161604  -0.003154
 593   7   1.167033   5.840626  -2.735059  -0.000676   0.161604  -0.004182
 594   7   2.725644   5.410941  -2.601441  -0.000919   0.161604  -0.005689
 595  18   1.937519   1.739370  -4.241247  -0.000694   0.121422  -0.005718
 596   7   1.659635   1.364567  -4.049901  -0.000713   0.148343  -0.004803
 597  19   1.301715   6.155309   1.220145  -0.000417   0.067101  -0.006209
 598  19   0.897904   6.504898   0.271640  -0.000954   0.148388  -0.006429
 599  19  -0.051604   6.475871  -0.641105  -0.000817   0.148388  -0.005509
 600  19  -1.206578   5.920449  -0.946143  -0.000892   0.148388  -0.006009
 601   7   1.544650   6.207831   0.685210  -0.000921   0.147629  -0.006241
 602   7   0.765232   6.491860  -0.540639  -0.000787   0.147629  -0.005329
 603   7  -0.480414   6.145923  -1.261447  -0.000602   0.147629  -0.004081
 604   7  -1.506812   5.525898  -1.336787  -0.000330   0.081979  -0.004028
 605   9  -2.424866  -2.963205  -3.569877  -0.000251   0.249304  -0.001005
 606   9  -3.261291  -3.680178  -2.854564  -0.000572   0.502399  -0.001139
 607   9  -4.055202  -3.809504  -1.482365   0.000039   0.502399   0.000078
 608   8  -1.671609  -4.095027  -2.948172   0.009297   0.612634   0.015175
 609   8  -2.733958  -4.758873  -1.729269   0.011207   0.612634   0.018293
 610   8  -3.305545  -4.601661  -0.426509   0.005609   0.308932   0.018157
 611  13  -4.254178  -3.429386   2.215776   0.000121   0.288699   0.000419
 612  13  -3.476038  -3.228122   3.208427  -0.000945   0.579063  -0.001632
 613  13  -2.596815  -2.555479   3.845517  -0.000416   0.288699  -0.001441
 614   8  -2.791264  -4.459853   1.870614   0.010403   0.729939   0.014252
 615   8  -1.650746  -3.858472   2.992125   0.008617   0.729939   0.011805
 616  14   2.920291  -3.608110   3.348392  -0.000560   0.256398  -0.002186
 617  14   3.603980  -4.280867   2.495542  -0.001215   0.515796  -0.002355
 618   8   1.923149  -4.595313   2.628450   0.007413   0.634726   0.011679
 619   8   2.661715  -5.232290   1.622404   0.004276   0.319756   0.013374
 620  15   4.005916  -3.802953  -2.339055  -0.000058   0.125535  -0.000465
 621   8   2.666689  -4.641084  -2.164533   0.001120   0.157577   0.007107
 622  18  -0.524393   3.122374  -4.537294  -0.000554   0.357572  -0.001550
 623  18  -0.796488   4.122310  -4.077963  -0.000310   0.357572  -0.000866
 624  10  -2.249141   3.140379  -4.199528  -0.002765   0.715579  -0.003864
 625  19  -2.241491   5.289498  -0.819916  -0.000262   0.218836  -0.001199
 626  10  -3.471765   4.513608  -1.588689  -0.000266   0.218836  -0.001213
 627  11  -1.336517   3.338118   3.049055  -0.000620   0.328271  -0.001888
 628  16   0.444187   3.332524   3.169645  -0.000966   0.328271  -0.002944
 629  19  -0.349737   3.803615   2.808401  -0.001823   0.328271  -0.005555
 630  16   0.823119   3.019402   3.991078  -0.000018   0.323602  -0.000056
 631  11  -1.896497   2.937260   3.889483   0.000280   0.323602   0.000864
 632  19  -2.415206   5.465132   0.498887  -0.000767   0.235816  -0.003253
 633  19  -2.018200   5.577148   1.449297  -0.002132   0.471379  -0.004523
 634  19  -1.366688   5.117793   2.436339  -0.001864   0.471379  -0.003955
 635  19  -0.836614   4.352130   2.890456  -0.000503   0.235816  -0.002134
 636  11  -3.625161   4.969248   1.492456  -0.001200   0.471379  -0.002546
 637  11  -3.057530   4.873015   2.623059  -0.001616   0.471379  -0.003428
 638  11  -2.386693   4.096054   3.368737  -0.001510   0.471379  -0.003204
 639  16   3.618630   0.580270   4.550064  -0.000349   0.261985  -0.001331
 640  16   4.527701   0.821925   4.389218  -0.000221   0.261985  -0.000844
 641  14   4.388654  -0.665239   4.199945  -0.001353   0.524256  -0.002581
 642  17   6.566862   1.681447  -1.760562  -0.000602   0.433515  -0.001389
 643  15   6.262220   0.360954  -2.345803  -0.001003   0.433515  -0.002314
 644  18   3.122738   1.779669  -3.941496  -0.000301   0.383848  -0.000784
 645  15   4.080393   0.103593  -3.575052  -0.000571   0.383848  -0.001488
 646  19   0.248096   4.403123   2.948395  -0.000672   0.283020  -0.002374
 647  19   0.889228   5.162735   2.644520  -0.000524   0.283020  -0.001853
 648  16   1.620172   4.182528   3.514142  -0.001608   0.566763  -0.002837
 649  18   3.647216   4.548137  -3.072446  -0.000285   0.245993  -0.001160
 650  18   3.805844   3.746926  -3.433821  -0.000276   0.245993  -0.001121
 651  17   4.900358   4.010290  -2.433594  -0.000848   0.492083  -0.001724
 =====================================================


   1 warning(s) detected.
     A line exceeding 80 characters begins with "http://cactus.nci.ni".
 There may be a problem in your input file.

              4176759  WORDS OF DYNAMIC MEMORY USED
 EXECUTION OF GAMESS TERMINATED NORMALLY Fri Nov 25 03:06:01 2016
 DDI: 263640 bytes (0.3 MB / 0 MWords) used by master data server.

 ----------------------------------------
 CPU timing information for all processes
 ========================================
 0: 1321.704 + 0.468 = 1322.172
 ----------------------------------------
 ddikick.x: exited gracefully.
