----- GAMESS execution script -----

          ******************************************************
          *         GAMESS VERSION =  5 DEC 2014 (R1)          *
          *             FROM IOWA STATE UNIVERSITY             *
          * M.W.SCHMIDT, K.K.BALDRIDGE, J.A.BOATZ, S.T.ELBERT, *
          *   M.S.GORDON, J.H.JENSEN, S.KOSEKI, N.MATSUNAGA,   *
          *          K.A.NGUYEN, S.J.SU, T.L.WINDUS,           *
          *       TOGETHER WITH M.DUPUIS, J.A.MONTGOMERY       *
          *         J.COMPUT.CHEM.  14, 1347-1363(1993)        *
          **************** 64 BIT LINUX VERSION ****************

 EXECUTION OF GAMESS BEGUN Fri Nov 25 02:53:24 2016

            ECHO OF THE FIRST FEW INPUT CARDS -
 INPUT CARD>! SELECT RESTRICTED HARTREE-FOCK AS DEFAULT                                     
 INPUT CARD>$contrl scftyp=rhf $end                                                         
 INPUT CARD>                                                                                
 INPUT CARD>! THEORY: HF OR DFT                                                             
 INPUT CARD> $contrl mplevl=0 $end                                                          
 INPUT CARD>                                                                                
 INPUT CARD> $system timlim=10000 mwords=20 $end                                            
 INPUT CARD> $SCF DIRSCF=.TRUE. $end                                                        
 INPUT CARD>                                                                                
 INPUT CARD>                                                                                
 INPUT CARD>! BASIS SETS                                                                    
 INPUT CARD>! 6-311G(d,p)                                                                   
 INPUT CARD> $BASIS GBASIS=N311 NGAUSS=6 NDFUNC=1 NPFUNC=1 $END                             
 INPUT CARD>                                                                                
 INPUT CARD>! One of the following                                                          
 INPUT CARD> $guess guess=HUCKEL $end                                                       
 INPUT CARD>                                                                                
 INPUT CARD> $statpt projct=.FALSE. $end                                                    
 INPUT CARD> $STATPT IFREEZ(1)=1,2,3 $END                                                   
 INPUT CARD>                                                                                
 INPUT CARD>! Optimize the geometry with COSMO effects                                      
 INPUT CARD> $statpt opttol=0.0005 nstep=50 $end                                            
 INPUT CARD> $contrl nzvar=1 $end                                                           
 INPUT CARD> $zmat dlc=.t. auto=.t. $end                                                    
 INPUT CARD> $contrl runtyp=OPTIMIZE maxit=200 $end                                         
 INPUT CARD>                                                                                
 INPUT CARD>! Run COSMO on perfect conductor                                                
 INPUT CARD> $COSGMS PRFCND=.TRUE. $end                                                     
 INPUT CARD>                                                                                
 INPUT CARD>! Specifying RSOLV                                                              
 INPUT CARD> $COSGMS COSRAD = 1.4 $end                                                      
 INPUT CARD>                                                                                
 INPUT CARD>! available memory                                                              
 INPUT CARD> $SYSTEM MWORDS=40 $END                                                         
 INPUT CARD>                                                                                
 INPUT CARD> $DATA                                                                          
 INPUT CARD>                                                                                
 INPUT CARD>C1                                                                              
 INPUT CARD>C      6.0      1.8329000000    1.9583000000   -0.2140000000                    
 INPUT CARD>C      6.0      0.3606000000    2.1987000000    0.1285000000                    
 INPUT CARD>N      7.0      2.2533000000    0.6074000000    0.1483000000                    
 INPUT CARD>O      8.0     -0.4766000000    1.1680000000   -0.4209000000                    
 INPUT CARD>C      6.0     -0.1103000000   -0.1122000000    0.1150000000                    
 INPUT CARD>C      6.0      1.3382000000   -0.4618000000   -0.2351000000                    
 INPUT CARD>C      6.0      3.6000000000    0.3447000000    0.2988000000                    
 INPUT CARD>O      8.0      4.4932000000    1.1811000000    0.3061000000                    
 INPUT CARD>H      1.0      2.4690000000    2.6979000000    0.2835000000                    
 INPUT CARD>H      1.0      1.9854000000    2.0534000000   -1.2959000000                    
 INPUT CARD>H      1.0      0.0307000000    3.1560000000   -0.2869000000                    
 INPUT CARD>H      1.0      0.2103000000    2.2353000000    1.2141000000                    
   40000000 WORDS OF MEMORY AVAILABLE

     BASIS OPTIONS
     -------------
     GBASIS=N311         IGAUSS=       6      POLAR=POPN311 
     NDFUNC=       1     NFFUNC=       0     DIFFSP=       F
     NPFUNC=       1      DIFFS=       F     BASNAM=        


     RUN TITLE
     ---------
                                                                                 

 THE POINT GROUP OF THE MOLECULE IS C1      
 THE ORDER OF THE PRINCIPAL AXIS IS     0

 ATOM      ATOMIC                      COORDINATES (BOHR)
           CHARGE         X                   Y                   Z
 C           6.0     3.4636787629        3.7006504018       -0.4044013614
 C           6.0     0.6814351912        4.1549405292        0.2428297894
 N           7.0     4.2581195681        1.1478195649        0.2802463640
 O           8.0    -0.9006434057        2.2071999537       -0.7953856682
 C           6.0    -0.2084367764       -0.2120272558        0.2173184886
 C           6.0     2.5288313168       -0.8726754611       -0.4442745797
 C           6.0     6.8030135558        0.6513885480        0.5646501251
 O           8.0     8.4909168080        2.2319553641        0.5784451248
 H           1.0     4.6657334637        5.0982917423        0.5357373175
 H           1.0     3.7518619760        3.8803633432       -2.4488959075
 H           1.0     0.0580145878        5.9639752173       -0.5421623859
 H           1.0     0.3974093752        4.2241045004        2.2943163217
 H           1.0    -1.4900489413       -1.6249753768       -0.5816576590
 H           1.0    -0.4934074554       -0.1874608180        2.2695609113
 H           1.0     3.0982057569       -2.6450494650        0.4588254698
 H           1.0     2.7244179565       -1.1098360726       -2.4936824134
 H           1.0     7.2002339584       -1.3726969575        0.8609591600

          INTERNUCLEAR DISTANCES (ANGS.)




     $CONTRL OPTIONS
     ---------------
 SCFTYP=RHF          RUNTYP=OPTIMIZE     EXETYP=RUN     
 MPLEVL=       0     CITYP =NONE         CCTYP =NONE         VBTYP =NONE    
 DFTTYP=NONE         TDDFT =NONE    
 MULT  =       1     ICHARG=       0     NZVAR =       1     COORD =UNIQUE  
 PP    =NONE         RELWFN=NONE         LOCAL =NONE         NUMGRD=       F
 ISPHER=      -1     NOSYM =       0     MAXIT =     200     UNITS =ANGS    
 PLTORB=       F     MOLPLT=       F     AIMPAC=       F     FRIEND=        
 NPRINT=       7     IREST =       0     GEOM  =INPUT   
 NORMF =       0     NORMP =       0     ITOL  =      20     ICUT  =       9
 INTTYP=BEST         GRDTYP=BEST         QMTTOL= 1.0E-06

     $SYSTEM OPTIONS
     ---------------
  REPLICATED MEMORY=    40000000 WORDS (ON EVERY NODE).
 DISTRIBUTED MEMDDI=           0 MILLION WORDS IN AGGREGATE,
 MEMDDI DISTRIBUTED OVER   1 PROCESSORS IS           0 WORDS/PROCESSOR.
 TOTAL MEMORY REQUESTED ON EACH PROCESSOR=    40000000 WORDS.
 TIMLIM=       10000.00 MINUTES, OR       6.9 DAYS.
 PARALL= F  BALTYP=  DLB     KDIAG=    0  COREFL= F
 MXSEQ2=     300 MXSEQ3=     150  mem10=         0

     $COSGMS OPTIONS
     ---------------
     EPSI  =   INFTY     NSPA  =      92     COSRAD=    1.40
     DISEX =   10.00     OUTCHG=DBLCAV       COSBUG=       F
     COSWRT=       F     DCOSMO=       F

     SYMMETRY COORDINATES WILL NOT BE USED FOR 
     THE COSMO CALCULATION, EVEN IF SPECIFIED:
         -- SWITCHING TO C1 POINT GROUP --


     DEFINITION OF CAVITY
     ---------------------------
     ATOM         COORDINATES           RADIUS 
     1    3.4637    3.7007   -0.4044    2.0000
     2    0.6814    4.1549    0.2428    2.0000
     3    4.2581    1.1478    0.2802    1.8300
     4   -0.9006    2.2072   -0.7954    1.7200
     5   -0.2084   -0.2120    0.2173    2.0000
     6    2.5288   -0.8727   -0.4443    2.0000
     7    6.8030    0.6514    0.5647    2.0000
     8    8.4909    2.2320    0.5784    1.7200
     9    4.6657    5.0983    0.5357    1.3000
    10    3.7519    3.8804   -2.4489    1.3000
    11    0.0580    5.9640   -0.5422    1.3000
    12    0.3974    4.2241    2.2943    1.3000
    13   -1.4900   -1.6250   -0.5817    1.3000
    14   -0.4934   -0.1875    2.2696    1.3000
    15    3.0982   -2.6450    0.4588    1.3000
    16    2.7244   -1.1098   -2.4937    1.3000
    17    7.2002   -1.3727    0.8610    1.3000

          ----------------
          PROPERTIES INPUT
          ----------------

     MOMENTS            FIELD           POTENTIAL          DENSITY
 IEMOM =       1   IEFLD =       0   IEPOT =       0   IEDEN =       0
 WHERE =COMASS     WHERE =NUCLEI     WHERE =NUCLEI     WHERE =NUCLEI  
 OUTPUT=BOTH       OUTPUT=BOTH       OUTPUT=BOTH       OUTPUT=BOTH    
 IEMINT=       0   IEFINT=       0                     IEDINT=       0
                                                       MORB  =       0
          EXTRAPOLATION IN EFFECT
          SOSCF IN EFFECT
 ORBITAL PRINTING OPTION: NPREO=     1   206     2     1

     -------------------------------
     INTEGRAL TRANSFORMATION OPTIONS
     -------------------------------
     NWORD  =            0
     CUTOFF = 1.0E-09     MPTRAN =       0
     DIRTRF =       T     AOINTS =DUP     

          ----------------------
          INTEGRAL INPUT OPTIONS
          ----------------------
 NOPK  =       1 NORDER=       0 SCHWRZ=       T


 -----------------------------------------------
  STATISTICS ON AUTOMATIC COORDINATE GENERATION 
 -----------------------------------------------
  NUMBER OF USER SPECIFIED BONDS                             0
  NUMBER OF BONDS                                           17
  NUMBER OF ANGLES                                          31
  NUMBER OF TORSIONS                                        40
  NUMBER OF EXTRA COORD.                                     0
  NUMBER OF EXTRA COORD. FOR CONSTRAINTS                     0
  NUMBER OF CONSTRAINED COORD.                               0

  TOTAL NUMBER OF PRIMITIVES                                88
 -----------------------------------------------

   --- ENCODED Z MATRIX ---
 COORD  TYPE   I   J   K   L   M   N
    1      1    1   2
    2      1    1   9
    3      1    1   3
    4      1    1  10
    5      1    2  12
    6      1    2   4
    7      1    2  11
    8      1    3   7
    9      1    3   6
   10      1    4   5
   11      1    5  14
   12      1    5  13
   13      1    5   6
   14      1    6  15
   15      1    6  16
   16      1    7  17
   17      1    7   8
   18      2    1   2  12
   19      2    1   2   4
   20      2    1   2  11
   21      2    1   3   7
   22      2    1   3   6
   23      2    2   1  10
   24      2    2   1   9
   25      2    2   1   3
   26      2    2   4   5
   27      2    3   1   9
   28      2    3   6   5
   29      2    3   6  16
   30      2    3   6  15
   31      2    3   7   8
   32      2    3   1  10
   33      2    3   7  17
   34      2    4   2  11
   35      2    4   2  12
   36      2    4   5   6
   37      2    4   5  13
   38      2    4   5  14
   39      2    5   6  16
   40      2    5   6  15
   41      2    6   5  13
   42      2    6   5  14
   43      2    6   3   7
   44      2    8   7  17
   45      2    9   1  10
   46      2   11   2  12
   47      2   13   5  14
   48      2   15   6  16
   49      3    1   2   4   5
   50      3    1   3   7   8
   51      3    1   3   7  17
   52      3    1   3   6  16
   53      3    1   3   6  15
   54      3    1   3   6   5
   55      3    2   1   3   7
   56      3    2   4   5   6
   57      3    2   4   5  13
   58      3    2   4   5  14
   59      3    2   1   3   6
   60      3    3   6   5  13
   61      3    3   6   5  14
   62      3    3   6   5   4
   63      3    3   1   2   4
   64      3    3   1   2  11
   65      3    3   1   2  12
   66      3    4   5   6  16
   67      3    4   5   6  15
   68      3    4   2   1  10
   69      3    4   2   1   9
   70      3    5   6   3   7
   71      3    5   4   2  11
   72      3    5   4   2  12
   73      3    6   3   7  17
   74      3    6   3   7   8
   75      3    6   3   1  10
   76      3    6   3   1   9
   77      3    7   3   1  10
   78      3    7   3   6  15
   79      3    7   3   1   9
   80      3    7   3   6  16
   81      3    9   1   2  12
   82      3    9   1   2  11
   83      3   10   1   2  12
   84      3   10   1   2  11
   85      3   13   5   6  15
   86      3   13   5   6  16
   87      3   14   5   6  15
   88      3   14   5   6  16

          INDEP./SYM. INTERNAL COORDINATES
          --------------------------------
 CRD  1=  -0.1150 (  1) -0.2148 (  3)  0.2097 (  9)  0.1120 ( 13) -0.5343 ( 21)
          -0.2997 ( 31)  0.2707 ( 33)  0.5308 ( 43)  0.1423 ( 55)  0.1503 ( 70)
           0.1187 ( 78)  0.1149 ( 79)
 CRD  2=   0.2190 (  1)  0.1757 (  3)  0.5634 (  8)  0.1847 (  9)  0.2214 ( 13)
           0.1098 ( 17)  0.1035 ( 18)  0.1388 ( 21) -0.2937 ( 22) -0.1185 ( 23)
           0.1908 ( 25)  0.1945 ( 28)  0.1229 ( 31)  0.1448 ( 33) -0.1206 ( 39)
           0.1050 ( 42)  0.1473 ( 43) -0.2653 ( 44)
 CRD  3=   0.2316 (  3) -0.1561 (  6)  0.1568 (  8)  0.2656 (  9) -0.1568 ( 10)
          -0.2235 ( 18)  0.1709 ( 19)  0.1156 ( 20)  0.1254 ( 23) -0.1274 ( 24)
          -0.1260 ( 25)  0.1127 ( 27) -0.1298 ( 28)  0.1136 ( 30) -0.1444 ( 34)
           0.1557 ( 36) -0.1442 ( 37)  0.1216 ( 39) -0.1292 ( 40)  0.1273 ( 41)
          -0.2182 ( 42) -0.1010 ( 49)  0.1121 ( 50) -0.1611 ( 51) -0.1621 ( 54)
           0.2641 ( 55)  0.1001 ( 56)  0.1554 ( 59) -0.2638 ( 70)  0.1819 ( 74)
           0.1444 ( 77) -0.1444 ( 80)
 CRD  4=   0.1509 (  3) -0.1804 (  6)  0.1121 (  7) -0.1552 (  9)  0.1235 ( 10)
          -0.1338 ( 12) -0.2298 ( 19)  0.1409 ( 20) -0.1680 ( 24)  0.2842 ( 25)
          -0.3118 ( 28)  0.1632 ( 29) -0.1215 ( 31) -0.1261 ( 32)  0.1257 ( 33)
           0.2831 ( 36) -0.1164 ( 37)  0.1885 ( 40) -0.1359 ( 41)  0.1008 ( 45)
          -0.1013 ( 46)  0.1108 ( 47) -0.1064 ( 48) -0.1966 ( 49)  0.1042 ( 54)
          -0.2133 ( 56) -0.1425 ( 57) -0.1733 ( 58) -0.1088 ( 71) -0.1681 ( 72)
 CRD  5=  -0.1280 (  3) -0.2302 (  6) -0.1175 (  7) -0.2617 ( 10)  0.2535 ( 19)
           0.1543 ( 24) -0.1453 ( 25) -0.3429 ( 26) -0.1005 ( 27)  0.1527 ( 29)
          -0.1090 ( 30)  0.1813 ( 32) -0.1368 ( 34) -0.2053 ( 35)  0.1982 ( 36)
          -0.1162 ( 37) -0.1944 ( 38)  0.1174 ( 40)  0.1181 ( 49)  0.1135 ( 52)
           0.1307 ( 53)  0.1453 ( 54) -0.1308 ( 57) -0.1634 ( 59)  0.1616 ( 61)
          -0.1065 ( 63) -0.1647 ( 65)  0.1553 ( 71) -0.1253 ( 75) -0.1384 ( 76)
 CRD  6=  -0.1646 (  2) -0.4071 (  3) -0.2419 (  6) -0.4005 (  9) -0.2362 ( 10)
          -0.1630 ( 14)  0.1056 ( 21) -0.2296 ( 22)  0.1708 ( 25) -0.1182 ( 27)
           0.1631 ( 28) -0.1406 ( 29) -0.1218 ( 30) -0.1483 ( 32)  0.1059 ( 35)
          -0.1033 ( 37)  0.1107 ( 38)  0.1067 ( 43) -0.1007 ( 49)  0.1446 ( 66)
          -0.1414 ( 68)
 CRD  7=  -0.2127 (  1) -0.1571 (  3) -0.1070 (  5)  0.1399 (  9)  0.1101 ( 10)
           0.1149 ( 11)  0.2207 ( 13)  0.1503 ( 19) -0.2054 ( 20)  0.1381 ( 29)
          -0.1030 ( 30)  0.2391 ( 31) -0.1305 ( 32) -0.2268 ( 33) -0.1837 ( 35)
          -0.1722 ( 36)  0.1726 ( 38)  0.1764 ( 41) -0.1115 ( 54) -0.1179 ( 55)
          -0.1549 ( 57) -0.1151 ( 58) -0.1243 ( 59)  0.1308 ( 60)  0.1135 ( 61)
           0.1908 ( 62)  0.1960 ( 63)  0.1220 ( 64)  0.1124 ( 65) -0.1161 ( 70)
          -0.1625 ( 71) -0.1177 ( 72)  0.1068 ( 73)
 CRD  8=  -0.4083 (  1) -0.1026 (  2)  0.4022 ( 13)  0.1022 ( 14) -0.1655 ( 18)
          -0.1510 ( 20) -0.1251 ( 23) -0.1737 ( 24) -0.1092 ( 29)  0.1119 ( 32)
           0.1680 ( 35) -0.1679 ( 38)  0.1204 ( 39)  0.1731 ( 40)  0.1451 ( 41)
           0.1659 ( 42)  0.1371 ( 52)  0.1065 ( 54)  0.1680 ( 58)  0.1043 ( 59)
          -0.1032 ( 60) -0.1232 ( 62) -0.1228 ( 63) -0.1055 ( 64) -0.1000 ( 67)
           0.1693 ( 72)  0.1376 ( 75)  0.1158 ( 77)  0.1130 ( 80)
 CRD  9=   0.4483 (  1) -0.1474 (  8)  0.4585 ( 13)  0.2233 ( 20)  0.1057 ( 22)
           0.2027 ( 23) -0.1327 ( 29) -0.1314 ( 32) -0.1147 ( 34) -0.1149 ( 37)
           0.2050 ( 39)  0.2299 ( 41) -0.1050 ( 46) -0.1093 ( 47) -0.1261 ( 53)
          -0.1474 ( 57)  0.1448 ( 71)  0.1241 ( 76) -0.1107 ( 77)  0.1108 ( 80)
 CRD 10=   0.1012 (  1) -0.1082 (  2) -0.2675 (  3)  0.1945 (  9) -0.2719 ( 16)
           0.2377 ( 17) -0.1354 ( 19)  0.1134 ( 25) -0.1714 ( 27)  0.4509 ( 31)
          -0.4274 ( 33)  0.1079 ( 35) -0.1362 ( 38) -0.1534 ( 41)  0.1250 ( 55)
           0.1160 ( 79)
 CRD 11=   0.1002 (  1)  0.1205 (  4)  0.2493 (  6)  0.1092 (  7)  0.1421 (  8)
          -0.1777 (  9)  0.2583 ( 10)  0.1116 ( 12)  0.1085 ( 13) -0.1391 ( 14)
          -0.1114 ( 20)  0.1064 ( 24) -0.1273 ( 26) -0.2044 ( 27) -0.2504 ( 30)
           0.1418 ( 32)  0.1426 ( 33)  0.1758 ( 34)  0.1720 ( 37)  0.1080 ( 50)
          -0.1684 ( 51)  0.1414 ( 55)  0.2081 ( 60)  0.1212 ( 61) -0.1903 ( 64)
          -0.1130 ( 65) -0.1224 ( 67)  0.1141 ( 69) -0.1732 ( 70)  0.2180 ( 74)
           0.1136 ( 77) -0.1675 ( 78)  0.1511 ( 79) -0.1080 ( 80)
 CRD 12=   0.1016 (  6) -0.1059 ( 10) -0.2600 ( 18)  0.1862 ( 20)  0.1481 ( 23)
          -0.1071 ( 24)  0.1715 ( 27)  0.1961 ( 29) -0.1608 ( 30) -0.2024 ( 32)
          -0.1553 ( 34)  0.2078 ( 35)  0.1560 ( 37) -0.2053 ( 38) -0.1410 ( 39)
          -0.1893 ( 41)  0.2607 ( 42)  0.1951 ( 50)  0.2334 ( 51)  0.1143 ( 57)
           0.1594 ( 58)  0.1351 ( 60)  0.1562 ( 61)  0.1377 ( 64)  0.1595 ( 65)
           0.1104 ( 71)  0.1581 ( 72)  0.2364 ( 73)  0.1982 ( 74)
 CRD 13=  -0.1576 (  4) -0.1765 (  5)  0.1977 (  6)  0.1872 (  7)  0.1280 (  8)
           0.1920 ( 10) -0.1918 ( 11)  0.1897 ( 12) -0.1214 ( 15) -0.3668 ( 18)
           0.1697 ( 20) -0.1251 ( 26)  0.1196 ( 35)  0.1035 ( 38)  0.1635 ( 41)
          -0.3548 ( 42) -0.1750 ( 49) -0.1397 ( 50)  0.1664 ( 56) -0.1441 ( 58)
           0.1424 ( 72) -0.1542 ( 74) -0.1162 ( 77) -0.1201 ( 79)
 CRD 14=  -0.1383 ( 15) -0.1288 ( 23)  0.1473 ( 24) -0.1560 ( 29)  0.1087 ( 30)
           0.1258 ( 32)  0.1527 ( 39) -0.1830 ( 40)  0.3406 ( 50)  0.4334 ( 51)
           0.1297 ( 52)  0.1437 ( 53)  0.4409 ( 73)  0.3481 ( 74)  0.1040 ( 77)
           0.1523 ( 78)  0.1079 ( 79)  0.1383 ( 80)
 CRD 15=   0.1713 (  2) -0.1449 (  4) -0.1382 (  5) -0.1204 (  8)  0.1716 ( 14)
          -0.1379 ( 15)  0.1524 ( 20) -0.2944 ( 23)  0.2579 ( 24) -0.1464 ( 27)
           0.1145 ( 29) -0.1236 ( 30)  0.1332 ( 32) -0.1165 ( 34) -0.1059 ( 37)
          -0.2644 ( 39)  0.2320 ( 40)  0.1242 ( 41)  0.1240 ( 44)  0.1108 ( 50)
          -0.1898 ( 52) -0.1826 ( 53)  0.2035 ( 75)  0.1940 ( 76)  0.1847 ( 77)
          -0.1624 ( 78)  0.1752 ( 79) -0.1696 ( 80)
 CRD 16=   0.3628 (  5)  0.1528 (  6) -0.2067 (  7) -0.1618 ( 10) -0.3756 ( 11)
           0.2048 ( 12) -0.1134 ( 15)  0.1954 ( 18) -0.1688 ( 20)  0.1014 ( 23)
           0.1298 ( 27) -0.1491 ( 30) -0.1418 ( 39)  0.1068 ( 40)  0.1861 ( 41)
          -0.1975 ( 42) -0.1759 ( 57) -0.1856 ( 58) -0.1414 ( 66) -0.1646 ( 67)
          -0.1370 ( 68) -0.1631 ( 69) -0.1654 ( 71) -0.1835 ( 72)
 CRD 17=   0.2495 (  2) -0.1138 (  3) -0.3882 (  4) -0.1071 (  7)  0.1180 (  9)
           0.1118 ( 12) -0.2590 ( 14)  0.3994 ( 15) -0.1704 ( 23)  0.1409 ( 24)
           0.1726 ( 39) -0.1471 ( 40)  0.1815 ( 52)  0.1604 ( 53)  0.1321 ( 60)
           0.1266 ( 61)  0.1255 ( 64)  0.1224 ( 65)  0.1772 ( 75)  0.1551 ( 76)
           0.1615 ( 77)  0.1440 ( 78)  0.1394 ( 79)  0.1651 ( 80)
 CRD 18=   0.5066 ( 16)  0.5570 ( 17) -0.2268 ( 31) -0.2753 ( 33)  0.5024 ( 44)
 CRD 19=  -0.2452 (  2) -0.3891 (  5) -0.1492 (  7) -0.4132 ( 11) -0.1809 ( 12)
          -0.1018 ( 13) -0.2486 ( 14)  0.1476 ( 18) -0.1069 ( 19)  0.1662 ( 20)
           0.1537 ( 26) -0.1068 ( 36)  0.1737 ( 41)  0.1542 ( 42) -0.2343 ( 46)
          -0.2473 ( 47) -0.2400 ( 57)  0.2318 ( 71)
 CRD 20=  -0.3678 (  5) -0.5007 (  7)  0.3405 ( 11)  0.4882 ( 12)  0.1042 ( 18)
           0.1196 ( 20) -0.1091 ( 41) -0.2082 ( 46)  0.1924 ( 47)  0.1127 ( 57)
          -0.1262 ( 58)  0.1272 ( 71) -0.1295 ( 72)
 CRD 21=  -0.3857 (  2) -0.3238 (  4)  0.2207 (  5)  0.2553 (  7)  0.2219 ( 11)
           0.2555 ( 12) -0.4150 ( 14) -0.3441 ( 15) -0.1310 ( 45) -0.1414 ( 48)
           0.1199 ( 84) -0.1234 ( 86)
 CRD 22=   0.5015 (  2)  0.3870 (  4) -0.4743 ( 14) -0.3802 ( 15)  0.1834 ( 45)
          -0.1777 ( 48)  0.1036 ( 52)  0.1025 ( 75)  0.1073 ( 77)  0.1083 ( 80)
 CRD 23=  -0.1179 (  1)  0.3598 (  4)  0.1085 (  5) -0.1340 (  6)  0.3405 (  7)
          -0.1347 ( 10)  0.1083 ( 11)  0.3436 ( 12) -0.1172 ( 13)  0.3493 ( 15)
          -0.1182 ( 19)  0.1394 ( 20)  0.1657 ( 26) -0.1174 ( 36)  0.1386 ( 41)
           0.1428 ( 45)  0.1378 ( 48)  0.1130 ( 53) -0.1691 ( 57) -0.1172 ( 58)
          -0.1176 ( 67)  0.1208 ( 69)  0.1687 ( 71)  0.1168 ( 72) -0.1150 ( 76)
           0.1097 ( 78) -0.1120 ( 79)  0.1128 ( 82) -0.1097 ( 85)
 CRD 24=   0.2053 (  2) -0.2086 (  4) -0.2428 (  5)  0.3042 (  7) -0.2378 ( 11)
           0.2997 ( 12)  0.2014 ( 14) -0.1937 ( 15)  0.1098 ( 34) -0.1546 ( 35)
           0.1066 ( 37) -0.1526 ( 38)  0.1215 ( 61) -0.1219 ( 65) -0.2020 ( 81)
          -0.1613 ( 82) -0.2096 ( 83) -0.1689 ( 84)  0.1509 ( 85)  0.1670 ( 86)
           0.1927 ( 87)  0.2088 ( 88)
 CRD 25=   0.1769 (  2) -0.1984 (  4) -0.2548 (  5)  0.1746 (  6)  0.1846 (  7)
          -0.1715 ( 10)  0.2648 ( 11) -0.1938 ( 12) -0.1802 ( 14)  0.2030 ( 15)
           0.1778 ( 34) -0.1818 ( 37) -0.1760 ( 60) -0.1723 ( 64) -0.1008 ( 67)
          -0.1577 ( 81) -0.2477 ( 82) -0.1377 ( 83) -0.2278 ( 84) -0.2537 ( 85)
          -0.2337 ( 86) -0.1646 ( 87) -0.1447 ( 88)
 CRD 26=  -0.1946 (  1)  0.1546 (  2) -0.1452 (  3)  0.3211 (  8) -0.1401 (  9)
          -0.1951 ( 13)  0.1582 ( 14)  0.2989 ( 16)  0.3263 ( 17) -0.1249 ( 21)
           0.2229 ( 22)  0.1418 ( 23)  0.1306 ( 24) -0.1308 ( 25)  0.1072 ( 26)
          -0.1316 ( 28)  0.1416 ( 31)  0.1609 ( 33)  0.1405 ( 39)  0.1271 ( 40)
          -0.1188 ( 43) -0.3020 ( 44) -0.1493 ( 53)  0.1508 ( 76)
 CRD 27=  -0.1155 (  4)  0.1095 (  5) -0.4399 (  6)  0.4473 ( 10) -0.2017 ( 34)
           0.1984 ( 37) -0.1592 ( 61) -0.1161 ( 62) -0.1132 ( 63) -0.1532 ( 65)
          -0.1392 ( 66) -0.1755 ( 67) -0.1428 ( 68) -0.1727 ( 69) -0.2127 ( 81)
          -0.1829 ( 83) -0.2186 ( 87) -0.1824 ( 88)
 CRD 28=  -0.1678 (  2)  0.2406 (  4) -0.2742 (  5) -0.1639 (  6)  0.1022 (  7)
           0.1245 (  9) -0.1264 ( 10) -0.2725 ( 11)  0.1018 ( 12) -0.1567 ( 14)
           0.2353 ( 15) -0.1471 ( 20)  0.1275 ( 24)  0.1223 ( 40) -0.1504 ( 41)
           0.1483 ( 46)  0.1363 ( 47) -0.1078 ( 48) -0.1181 ( 49) -0.1038 ( 50)
           0.2400 ( 51) -0.1628 ( 53)  0.1232 ( 56)  0.2331 ( 57) -0.2286 ( 71)
           0.1116 ( 73) -0.2322 ( 74)  0.1681 ( 76)
 CRD 29=   0.1020 (  2)  0.3403 (  3) -0.3448 (  9) -0.1229 ( 14) -0.4162 ( 16)
           0.3679 ( 17) -0.1901 ( 21)  0.1387 ( 27) -0.1096 ( 29) -0.1478 ( 30)
           0.1018 ( 32)  0.1787 ( 43) -0.1024 ( 45)  0.1053 ( 65)  0.1327 ( 66)
           0.1678 ( 68)  0.1868 ( 83)  0.1595 ( 84)  0.1143 ( 86)  0.1682 ( 88)
 CRD 30=  -0.1059 (  3) -0.1205 (  5) -0.1270 (  6) -0.1277 ( 10) -0.1098 ( 11)
           0.1114 ( 26)  0.1854 ( 50) -0.2852 ( 51)  0.1235 ( 52)  0.1796 ( 53)
           0.1567 ( 57) -0.1624 ( 60) -0.1122 ( 61) -0.1353 ( 62)  0.1259 ( 63)
           0.1569 ( 64) -0.1416 ( 66) -0.1667 ( 67)  0.1084 ( 68)  0.1730 ( 69)
          -0.1632 ( 71) -0.1581 ( 73)  0.3125 ( 74) -0.1168 ( 75) -0.1634 ( 76)
           0.1444 ( 81)  0.2040 ( 82)  0.1393 ( 84) -0.1938 ( 85) -0.1687 ( 86)
          -0.1436 ( 87) -0.1185 ( 88)
 CRD 31=  -0.1441 (  2) -0.1856 (  3)  0.1943 (  6)  0.2261 (  7)  0.1841 (  9)
          -0.1958 ( 10) -0.2274 ( 12)  0.1488 ( 14)  0.1814 ( 18)  0.1644 ( 20)
          -0.1450 ( 23) -0.1353 ( 24)  0.1530 ( 27) -0.1541 ( 30) -0.1759 ( 34)
          -0.1118 ( 35)  0.1771 ( 37)  0.1107 ( 38)  0.1473 ( 39)  0.1348 ( 40)
          -0.1643 ( 41) -0.1808 ( 42) -0.1509 ( 46)  0.1506 ( 47)  0.1298 ( 52)
          -0.1107 ( 53)  0.1820 ( 57) -0.1521 ( 58)  0.1820 ( 71) -0.1514 ( 72)
           0.1278 ( 75) -0.1134 ( 76)  0.1380 ( 77) -0.1027 ( 78) -0.1032 ( 79)
           0.1377 ( 80)
 CRD 32=   0.1072 (  1) -0.5282 (  8)  0.3588 ( 16)  0.2514 ( 17) -0.1073 ( 23)
          -0.1034 ( 24)  0.1047 ( 27)  0.2643 ( 31)  0.1064 ( 32)  0.1589 ( 33)
          -0.1012 ( 39) -0.4212 ( 44) -0.1005 ( 72)
 CRD 33=   0.1536 (  2) -0.1296 ( 14)  0.4379 ( 16) -0.5003 ( 17) -0.2057 ( 21)
          -0.1235 ( 29)  0.2782 ( 31) -0.3362 ( 33)  0.2205 ( 43)  0.1069 ( 66)
           0.1066 ( 68)  0.1249 ( 83)  0.1553 ( 88)
 CRD 34=   0.1039 (  1)  0.2130 (  2) -0.2337 (  4)  0.1118 (  5) -0.2142 (  6)
          -0.2114 ( 10)  0.1001 ( 13)  0.2001 ( 14) -0.2098 ( 15)  0.1089 ( 26)
           0.1125 ( 29)  0.1218 ( 32)  0.1441 ( 34)  0.1338 ( 37) -0.1029 ( 46)
          -0.2823 ( 50)  0.2007 ( 51)  0.1635 ( 55)  0.1280 ( 60) -0.1448 ( 64)
          -0.1444 ( 66) -0.1108 ( 67)  0.1547 ( 68)  0.1279 ( 69) -0.1668 ( 70)
           0.2450 ( 73) -0.2381 ( 74)  0.1411 ( 81)  0.1678 ( 83) -0.1318 ( 87)
          -0.1654 ( 88)
 CRD 35=   0.2561 (  1) -0.2128 (  3)  0.1416 (  4) -0.2600 (  5) -0.1729 (  6)
           0.1422 (  7)  0.1871 (  9)  0.1497 ( 10)  0.2562 ( 11) -0.1210 ( 12)
          -0.2441 ( 13) -0.1377 ( 15) -0.1349 ( 20)  0.1388 ( 27) -0.1275 ( 30)
           0.1987 ( 35) -0.1770 ( 38)  0.1281 ( 41) -0.2267 ( 57)  0.1147 ( 65)
          -0.1999 ( 67) -0.2158 ( 69) -0.2219 ( 71)  0.1459 ( 83)  0.1154 ( 84)
           0.1086 ( 86)  0.1138 ( 88)
 CRD 36=  -0.1157 (  3)  0.1357 (  4) -0.1626 (  6)  0.1362 (  7) -0.1418 (  9)
          -0.1829 ( 10) -0.1069 ( 11)  0.1460 ( 12)  0.1057 ( 13)  0.1385 ( 15)
           0.2292 ( 35)  0.2485 ( 38) -0.1833 ( 45) -0.1862 ( 48)  0.1762 ( 49)
           0.1247 ( 50) -0.1744 ( 56) -0.1673 ( 58) -0.1396 ( 61)  0.1319 ( 65)
           0.1937 ( 67) -0.1789 ( 69)  0.1698 ( 72) -0.1084 ( 73) -0.1241 ( 77)
           0.1239 ( 80) -0.1674 ( 82)  0.2070 ( 83)  0.1723 ( 85) -0.2228 ( 88)
 CRD 37=  -0.2448 (  3)  0.1090 (  6)  0.1807 (  7)  0.3684 (  8) -0.2370 (  9)
           0.1242 ( 10)  0.1861 ( 12) -0.1093 ( 17)  0.1248 ( 18)  0.1569 ( 22)
          -0.1860 ( 26)  0.1466 ( 27)  0.1507 ( 30)  0.1037 ( 32) -0.1545 ( 34)
          -0.1682 ( 37)  0.1293 ( 42)  0.1282 ( 44) -0.1079 ( 46) -0.1165 ( 52)
           0.2614 ( 58)  0.1212 ( 67) -0.1107 ( 69) -0.2577 ( 72)  0.1089 ( 75)
           0.1178 ( 83)  0.1092 ( 84) -0.1155 ( 86) -0.1045 ( 88)
 CRD 38=  -0.2714 (  1)  0.1904 (  3)  0.1488 (  4) -0.1609 (  5)  0.1608 (  6)
           0.1039 (  7) -0.1994 (  9) -0.1628 ( 10)  0.1746 ( 11)  0.2631 ( 13)
          -0.1642 ( 15)  0.1152 ( 18)  0.1224 ( 23)  0.1015 ( 24)  0.1376 ( 29)
           0.1013 ( 31) -0.1271 ( 32) -0.1057 ( 33) -0.1531 ( 34)  0.1517 ( 37)
          -0.1230 ( 39) -0.1088 ( 40) -0.1059 ( 42) -0.1050 ( 45)  0.1094 ( 48)
          -0.1064 ( 50)  0.1883 ( 53)  0.1722 ( 60)  0.1637 ( 64) -0.1095 ( 74)
           0.1895 ( 76)  0.2069 ( 78)  0.2015 ( 79)  0.1092 ( 82)  0.1089 ( 85)
 CRD 39=   0.2227 (  1) -0.1690 (  2)  0.1267 (  3)  0.1810 (  6) -0.1954 (  7)
          -0.1287 (  9) -0.1809 ( 10)  0.1981 ( 12) -0.2268 ( 13)  0.1731 ( 14)
          -0.1587 ( 21)  0.1019 ( 31) -0.1028 ( 33)  0.1583 ( 43)  0.1463 ( 45)
           0.2016 ( 46) -0.2054 ( 47) -0.1463 ( 48)  0.1214 ( 52) -0.1046 ( 57)
           0.1117 ( 58)  0.1277 ( 60)  0.1257 ( 64) -0.1059 ( 71)  0.1037 ( 72)
           0.1226 ( 75)  0.1652 ( 77)  0.1661 ( 80) -0.1191 ( 81) -0.1978 ( 83)
          -0.1217 ( 87) -0.2004 ( 88)
 CRD 40=   0.3149 (  1) -0.1117 (  2) -0.1527 (  3) -0.1575 (  7)  0.1798 (  8)
          -0.1552 (  9) -0.1568 ( 12)  0.3170 ( 13) -0.1138 ( 14) -0.1009 ( 18)
          -0.1050 ( 19)  0.1886 ( 22) -0.1333 ( 23)  0.1150 ( 26)  0.1564 ( 27)
           0.1567 ( 30) -0.1036 ( 36) -0.1344 ( 39) -0.1022 ( 42)  0.1531 ( 46)
           0.1511 ( 47) -0.1964 ( 52) -0.2349 ( 58)  0.2348 ( 72)  0.1959 ( 75)
           0.1591 ( 77) -0.1601 ( 80) -0.1328 ( 81)  0.1312 ( 87)
 CRD 41=   0.1731 (  2) -0.1461 (  5)  0.1820 (  6)  0.1762 ( 10) -0.1347 ( 11)
           0.1666 ( 14) -0.1480 ( 19) -0.1094 ( 22)  0.1287 ( 25)  0.1296 ( 28)
          -0.1042 ( 34) -0.1426 ( 36) -0.1298 ( 45)  0.1593 ( 46)  0.1537 ( 47)
          -0.1313 ( 48) -0.1183 ( 50)  0.1636 ( 52)  0.1642 ( 55) -0.1156 ( 58)
           0.1673 ( 61)  0.1029 ( 64) -0.1739 ( 65) -0.1592 ( 70)  0.1126 ( 72)
           0.1048 ( 73) -0.1680 ( 75) -0.1140 ( 78)  0.1078 ( 79) -0.1566 ( 81)
           0.1202 ( 82)  0.2817 ( 84) -0.1055 ( 85) -0.2701 ( 86)  0.1614 ( 87)
 CRD 42=  -0.1159 (  3)  0.1893 (  5) -0.1588 (  7)  0.1677 ( 11) -0.1358 ( 12)
           0.1538 ( 20)  0.1107 ( 25)  0.1386 ( 26) -0.1491 ( 35) -0.1352 ( 38)
           0.1320 ( 41) -0.1392 ( 45) -0.1140 ( 48) -0.2628 ( 49)  0.1679 ( 50)
          -0.1279 ( 55)  0.2425 ( 56) -0.1129 ( 62)  0.1403 ( 63) -0.1044 ( 65)
          -0.2328 ( 66)  0.2626 ( 68)  0.1190 ( 70) -0.1535 ( 73) -0.1391 ( 77)
           0.1399 ( 80) -0.2223 ( 81) -0.2000 ( 82)  0.1639 ( 85)  0.1820 ( 87)
 CRD 43=  -0.2042 (  3)  0.1358 (  4)  0.1261 (  6) -0.1454 (  7)  0.2186 (  9)
          -0.1193 ( 10)  0.1651 ( 12) -0.1481 ( 15)  0.1366 ( 20)  0.1540 ( 25)
          -0.1664 ( 28)  0.1134 ( 38) -0.1557 ( 41) -0.1731 ( 45)  0.1891 ( 48)
           0.1190 ( 53) -0.1344 ( 56) -0.1251 ( 61)  0.1152 ( 62) -0.1139 ( 65)
           0.2427 ( 66)  0.2094 ( 68)  0.1110 ( 76) -0.2717 ( 81) -0.1360 ( 82)
           0.1353 ( 84) -0.1652 ( 85)  0.1366 ( 86) -0.2994 ( 87)
 CRD 44=  -0.1711 (  2)  0.1695 (  4)  0.1306 (  5) -0.1222 (  6)  0.1318 ( 10)
          -0.1462 ( 11)  0.1759 ( 14) -0.1809 ( 15) -0.1168 ( 18)  0.1147 ( 19)
          -0.1174 ( 23)  0.1426 ( 24)  0.1055 ( 29) -0.1058 ( 32) -0.1228 ( 36)
           0.1277 ( 39) -0.1490 ( 40)  0.1256 ( 42) -0.1013 ( 46)  0.1094 ( 47)
          -0.1042 ( 50)  0.1058 ( 52)  0.1196 ( 53) -0.1261 ( 54) -0.1169 ( 59)
           0.1937 ( 61)  0.1826 ( 62)  0.1688 ( 63)  0.1878 ( 65) -0.1093 ( 70)
          -0.1026 ( 74)  0.1041 ( 75)  0.1153 ( 76)  0.1262 ( 77)  0.1363 ( 78)
           0.1374 ( 79)  0.1225 ( 80) -0.2086 ( 82) -0.2250 ( 84) -0.2283 ( 85)
          -0.2356 ( 86)
 CRD 45=  -0.1341 (  4) -0.1313 ( 15)  0.1281 ( 29)  0.1295 ( 32)  0.3182 ( 50)
          -0.1652 ( 52) -0.2716 ( 54)  0.2730 ( 59)  0.1381 ( 61)  0.1683 ( 62)
          -0.1710 ( 63) -0.1399 ( 65) -0.2859 ( 73)  0.1640 ( 75) -0.1949 ( 77)
           0.2869 ( 78) -0.2850 ( 79)  0.1978 ( 80)  0.1123 ( 82) -0.1104 ( 85)

 THE DETERMINANT OF THE G MATRIX IS 10**(   -18)


                     --------------------
                     INTERNAL COORDINATES
                     --------------------

                 - - ATOMS - -         COORDINATE      COORDINATE
 NO.   TYPE    I  J  K  L  M  N        (BOHR,RAD)       (ANG,DEG)
 ----------------------------------------------------------------
   1 STRETCH   1  2                     2.8924327       1.5306096
   2 STRETCH   1  9                     2.0693471       1.0950514
   3 STRETCH   1  3                     2.7598594       1.4604548
   4 STRETCH   1 10                     2.0725116       1.0967260
   5 STRETCH   2 12                     2.0722093       1.0965660
   6 STRETCH   2  4                     2.7156136       1.4370409
   7 STRETCH   2 11                     2.0682051       1.0944471
   8 STRETCH   3  7                     2.6084123       1.3803124
   9 STRETCH   3  6                     2.7564050       1.4586268
  10 STRETCH   4  5                     2.7124491       1.4353663
  11 STRETCH   5 14                     2.0720788       1.0964970
  12 STRETCH   5 13                     2.0681671       1.0944270
  13 STRETCH   5  6                     2.8925418       1.5306673
  14 STRETCH   6 15                     2.0690787       1.0949094
  15 STRETCH   6 16                     2.0723349       1.0966325
  16 STRETCH   7 17                     2.0838679       1.1027355
  17 STRETCH   7  8                     2.3124444       1.2236930
  18 BEND      1  2 12                  1.9375793     111.0151165
  19 BEND      1  2  4                  1.9414152     111.2348993
  20 BEND      1  2 11                  1.9202624     110.0229283
  21 BEND      1  3  7                  2.0759440     118.9428325
  22 BEND      1  3  6                  2.0177641     115.6093667
  23 BEND      2  1 10                  1.9186447     109.9302463
  24 BEND      2  1  9                  1.9294522     110.5494655
  25 BEND      2  1  3                  1.9462113     111.5096909
  26 BEND      2  4  5                  1.9265433     110.3828018
  27 BEND      3  1  9                  1.9228457     110.1709454
  28 BEND      3  6  5                  1.9456688     111.4786125
  29 BEND      3  6 16                  1.8594046     106.5360345
  30 BEND      3  6 15                  1.9182821     109.9094704
  31 BEND      3  7  8                  2.1928599     125.6416183
  32 BEND      3  1 10                  1.8596999     106.5529568
  33 BEND      3  7 17                  1.9674544     112.7268349
  34 BEND      4  2 11                  1.8824595     107.8569844
  35 BEND      4  2 12                  1.8992477     108.8188794
  36 BEND      4  5  6                  1.9388595     111.0884642
  37 BEND      4  5 13                  1.8827920     107.8760362
  38 BEND      4  5 14                  1.9008659     108.9115931
  39 BEND      5  6 16                  1.9194628     109.9771180
  40 BEND      5  6 15                  1.9350196     110.8684553
  41 BEND      6  5 13                  1.9198629     110.0000413
  42 BEND      6  5 14                  1.9384086     111.0626308
  43 BEND      6  3  7                  2.0958339     120.0824364
  44 BEND      8  7 17                  2.1222344     121.5950714
  45 BEND      9  1 10                  1.8847660     107.9891393
  46 BEND     11  2 12                  1.8809941     107.7730218
  47 BEND     13  5 14                  1.8812575     107.7881165
  48 BEND     15  6 16                  1.8835117     107.9172719
  49 TORSION   1  2  4  5               1.0586699      60.6573197
  50 TORSION   1  3  7  8               0.1551274       8.8881457
  51 TORSION   1  3  7 17              -3.0245008    -173.2911309
  52 TORSION   1  3  6 16               1.2950955      74.2035076
  53 TORSION   1  3  6 15              -2.9518187    -169.1267546
  54 TORSION   1  3  6  5              -0.7990733     -45.7835303
  55 TORSION   2  1  3  7              -2.7978726    -160.3062939
  56 TORSION   2  4  5  6              -1.0628800     -60.8985405
  57 TORSION   2  4  5 13               3.1148525     178.4679030
  58 TORSION   2  4  5 14               1.0775036      61.7364105
  59 TORSION   2  1  3  6               0.7941710      45.5026481
  60 TORSION   3  6  5 13               3.0015505     171.9761781
  61 TORSION   3  6  5 14              -1.2004089     -68.7783644
  62 TORSION   3  6  5  4               0.9181284      52.6048848
  63 TORSION   3  1  2  4              -0.9078648     -52.0168237
  64 TORSION   3  1  2 11              -2.9927582    -171.4724127
  65 TORSION   3  1  2 12               1.2097962      69.3162145
  66 TORSION   4  5  6 16              -1.1402349     -65.3306468
  67 TORSION   4  5  6 15               3.0613197     175.4006969
  68 TORSION   4  2  1 10               1.1506789      65.9290471
  69 TORSION   4  2  1  9              -3.0533329    -174.9430891
  70 TORSION   5  6  3  7               2.7984536     160.3395786
  71 TORSION   5  4  2 11              -3.1172391    -178.6046434
  72 TORSION   5  4  2 12              -1.0812449     -61.9507673
  73 TORSION   6  3  7 17              -0.3538374     -20.2733871
  74 TORSION   6  3  7  8               2.8257908     161.9058895
  75 TORSION   6  3  1 10              -1.2994967     -74.4556752
  76 TORSION   6  3  1  9               2.9434094     168.6449377
  77 TORSION   7  3  1 10               1.3916450      79.7353828
  78 TORSION   7  3  6 15               0.6457082      36.9963543
  79 TORSION   7  3  1  9              -0.6486342     -37.1640044
  80 TORSION   7  3  6 16              -1.3905629     -79.6733834
  81 TORSION   9  1  2 12              -0.9356719     -53.6100510
  82 TORSION   9  1  2 11               1.1449591      65.6013219
  83 TORSION  10  1  2 12              -3.0148454    -172.7379147
  84 TORSION  10  1  2 11              -0.9342144     -53.5265418
  85 TORSION  13  5  6 15              -1.1384435     -65.2280098
  86 TORSION  13  5  6 16               0.9431872      54.0406465
  87 TORSION  14  5  6 15               0.9427823      54.0174478
  88 TORSION  14  5  6 16               3.0244131     173.2861040

     ------------------------------------------
     THE POINT GROUP IS C1 , NAXIS= 1, ORDER= 1
     ------------------------------------------

     DIMENSIONS OF THE SYMMETRY SUBSPACES ARE
 A   =  206

 ..... DONE SETTING UP THE RUN .....
 STEP CPU TIME =     0.01 TOTAL CPU TIME =        0.0 (    0.0 MIN)
 TOTAL WALL CLOCK TIME=        0.0 SECONDS, CPU UTILIZATION IS  50.00%


          -----------------------------
          STATIONARY POINT LOCATION RUN
          -----------------------------

 OBTAINING INITIAL HESSIAN, HESS=GUESS   
 DIAGONAL GUESS HESSIAN IN INTERNAL COORDS IS
     1  0.3667     2  0.3430     3  0.3668     4  0.3419     5  0.3420
     6  0.3552     7  0.3434     8  0.4287     9  0.3682    10  0.3564
    11  0.3420    12  0.3434    13  0.3667    14  0.3431    15  0.3419
    16  0.3379    17  0.5378    18  0.2237    19  0.2424    20  0.2238
    21  0.2478    22  0.2424    23  0.2236    24  0.2237    25  0.2453
    26  0.2367    27  0.2211    28  0.2455    29  0.2212    30  0.2213
    31  0.2602    32  0.2210    33  0.2254    34  0.2187    35  0.2186
    36  0.2425    37  0.2188    38  0.2187    39  0.2236    40  0.2237
    41  0.2238    42  0.2237    43  0.2479    44  0.2310    45  0.2028
    46  0.2028    47  0.2029    48  0.2028    49  0.2500    50  0.2500
    51  0.2500    52  0.2500    53  0.2500    54  0.2500    55  0.2500
    56  0.2500    57  0.2500    58  0.2500    59  0.2500    60  0.2500
    61  0.2500    62  0.2500    63  0.2500    64  0.2500    65  0.2500
    66  0.2500    67  0.2500    68  0.2500    69  0.2500    70  0.2500
    71  0.2500    72  0.2500    73  0.2500    74  0.2500    75  0.2500
    76  0.2500    77  0.2500    78  0.2500    79  0.2500    80  0.2500
    81  0.2500    82  0.2500    83  0.2500    84  0.2500    85  0.2500
    86  0.2500    87  0.2500    88  0.2500
 TRANSFORMING HESSIAN TO SYMMETRY COORDINATES

          PARAMETERS CONTROLLING GEOMETRY SEARCH ARE
          METHOD =QA                  UPHESS =BFGS    
          NNEG   =         0          NFRZ   =         3
          NSTEP  =        50          IFOLOW =         1
          HESS   =GUESS               RESTAR =         F
          IHREP  =         0          HSSEND =         F
          NPRT   =         0          NPUN   =         0
          OPTTOL = 5.000E-04          RMIN   = 1.500E-03
          RMAX   = 1.000E-01          RLIM   = 7.000E-02
          DXMAX  = 3.000E-01          PURIFY =         F
          MOVIE  =         F          TRUPD  =         T
          TRMAX  = 5.000E-01          TRMIN  = 5.000E-02
          ITBMAT =         5          STPT   =         F
          STSTEP = 1.000E-02          PROJCT=          F
          FROZEN COORD(S)=   1   2   3


      ***** EQUILIBRIUM GEOMETRY LOCATED *****
            (SUBJECT TO   3 CONSTRAINT(S))
 COORDINATES OF ALL ATOMS ARE (ANGS)
   ATOM   CHARGE       X              Y              Z
 ------------------------------------------------------------
 C           6.0   1.8286828213   1.9585104568  -0.2269523496
 C           6.0   0.3613554389   2.1839366577   0.1205592553
 N           7.0   2.2639292832   0.6153917638   0.1619982207
 O           8.0  -0.4463504188   1.1596053031  -0.4011846771
 C           6.0  -0.0989066683  -0.0993121888   0.1153759215
 C           6.0   1.3412764215  -0.4504348946  -0.2422918990
 C           6.0   3.5816401121   0.3495730516   0.2901227628
 O           8.0   4.4653386625   1.1680161011   0.3134225494
 H           1.0   2.4432150092   2.6932993506   0.2709490780
 H           1.0   1.9511537806   2.0737565984  -1.3019015858
 H           1.0   0.0221436612   3.1087747443  -0.3280241495
 H           1.0   0.2126176346   2.2516858598   1.1968262759
 H           1.0  -0.7686005642  -0.8188319754  -0.3380653613
 H           1.0  -0.2606981607  -0.1111904915   1.1917298985
 H           1.0   1.6233580241  -1.3786323773   0.2368571143
 H           1.0   1.3955007136  -0.5828591533  -1.3202652054
 H           1.0   3.8204573158  -0.7095812835   0.3925011233


                     --------------------
                     INTERNAL COORDINATES
                     --------------------

                 - - ATOMS - -         COORDINATE      COORDINATE
 NO.   TYPE    I  J  K  L  M  N        (BOHR,RAD)       (ANG,DEG)
 ----------------------------------------------------------------
   1 STRETCH   1  2                     2.8812162       1.5246740
   2 STRETCH   1  9                     2.0400906       1.0795695
   3 STRETCH   1  3                     2.7674583       1.4644760
   4 STRETCH   1 10                     2.0560676       1.0880242
   5 STRETCH   2 12                     2.0571675       1.0886063
   6 STRETCH   2  4                     2.6549542       1.4049414
   7 STRETCH   2 11                     2.0454634       1.0824127
   8 STRETCH   3  7                     2.5517860       1.3503471
   9 STRETCH   3  6                     2.7713495       1.4665351
  10 STRETCH   4  5                     2.6539890       1.4044306
  11 STRETCH   5 14                     2.0569869       1.0885107
  12 STRETCH   5 13                     2.0456296       1.0825006
  13 STRETCH   5  6                     2.8816560       1.5249068
  14 STRETCH   6 15                     2.0446664       1.0819909
  15 STRETCH   6 16                     2.0549438       1.0874295
  16 STRETCH   7 17                     2.0608611       1.0905608
  17 STRETCH   7  8                     2.2765630       1.2047054
  18 BEND      1  2 12                  1.9455417     111.4713284
  19 BEND      1  2  4                  1.9399640     111.1517475
  20 BEND      1  2 11                  1.9107751     109.4793476
  21 BEND      1  3  7                  2.0895052     119.7198295
  22 BEND      1  3  6                  1.9892426     113.9752079
  23 BEND      2  1 10                  1.8942619     108.5332103
  24 BEND      2  1  9                  1.9199206     110.0033495
  25 BEND      2  1  3                  1.9402324     111.1671269
  26 BEND      2  4  5                  1.9549064     112.0078837
  27 BEND      3  1  9                  1.9098119     109.4241590
  28 BEND      3  6  5                  1.9414009     111.2340764
  29 BEND      3  6 16                  1.9075360     109.2937595
  30 BEND      3  6 15                  1.9149099     109.7162537
  31 BEND      3  7  8                  2.1943326     125.7259992
  32 BEND      3  1 10                  1.9029604     109.0315988
  33 BEND      3  7 17                  1.9974024     114.4427270
  34 BEND      4  2 11                  1.8638560     106.7910812
  35 BEND      4  2 12                  1.9113183     109.5104716
  36 BEND      4  5  6                  1.9324036     110.7185680
  37 BEND      4  5 13                  1.8636619     106.7799634
  38 BEND      4  5 14                  1.9142178     109.6766017
  39 BEND      5  6 16                  1.8835138     107.9173894
  40 BEND      5  6 15                  1.9175883     109.8697169
  41 BEND      6  5 13                  1.9102626     109.4499872
  42 BEND      6  5 14                  1.9495857     111.7030299
  43 BEND      6  3  7                  2.0909622     119.8033112
  44 BEND      8  7 17                  2.0913458     119.8252861
  45 BEND      9  1 10                  1.8959899     108.6322181
  46 BEND     11  2 12                  1.8899242     108.2846821
  47 BEND     13  5 14                  1.8912504     108.3606668
  48 BEND     15  6 16                  1.8981319     108.7549480
  49 TORSION   1  2  4  5               1.0609375      60.7872425
  50 TORSION   1  3  7  8               0.2109296      12.0853771
  51 TORSION   1  3  7 17              -2.9463265    -168.8120736
  52 TORSION   1  3  6 16               1.2511002      71.6827584
  53 TORSION   1  3  6 15              -2.9522660    -169.1523834
  54 TORSION   1  3  6  5              -0.8268793     -47.3766929
  55 TORSION   2  1  3  7              -2.8170690    -161.4061626
  56 TORSION   2  4  5  6              -1.0644699     -60.9896329
  57 TORSION   2  4  5 13               3.1405350     179.9393982
  58 TORSION   2  4  5 14               1.0948540      62.7305129
  59 TORSION   2  1  3  6               0.8190204      46.9264142
  60 TORSION   3  6  5 13               2.9778849     170.6202385
  61 TORSION   3  6  5 14              -1.2107890     -69.3730997
  62 TORSION   3  6  5  4               0.9280700      53.1744945
  63 TORSION   3  1  2  4              -0.9162499     -52.4972523
  64 TORSION   3  1  2 11              -2.9711452    -170.2340780
  65 TORSION   3  1  2 12               1.2214157      69.9819633
  66 TORSION   4  5  6 16              -1.1642213     -66.7049681
  67 TORSION   4  5  6 15               3.0518979     174.8608699
  68 TORSION   4  2  1 10               1.1765508      67.4113965
  69 TORSION   4  2  1  9              -3.0344532    -173.8613615
  70 TORSION   5  6  3  7               2.8096596     160.9816360
  71 TORSION   5  4  2 11              -3.1391002    -179.8571950
  72 TORSION   5  4  2 12              -1.0963913     -62.8185966
  73 TORSION   6  3  7 17              -0.3280313     -18.7948070
  74 TORSION   6  3  7  8               2.8292249     162.1026437
  75 TORSION   6  3  1 10              -1.2686066     -72.6858048
  76 TORSION   6  3  1  9               2.9431270     168.6287546
  77 TORSION   7  3  1 10               1.3784893      78.9816184
  78 TORSION   7  3  6 15               0.6842728      39.2059455
  79 TORSION   7  3  1  9              -0.6929624     -39.7038222
  80 TORSION   7  3  6 16              -1.3955463     -79.9589127
  81 TORSION   9  1  2 12              -0.8967876     -51.3821458
  82 TORSION   9  1  2 11               1.1938368      68.4018128
  83 TORSION  10  1  2 12              -2.9689689    -170.1093879
  84 TORSION  10  1  2 11              -0.8783444     -50.3254292
  85 TORSION  13  5  6 15              -1.1814725     -67.6933861
  86 TORSION  13  5  6 16               0.8855936      50.7407759
  87 TORSION  14  5  6 15               0.9130389      52.3132757
  88 TORSION  14  5  6 16               2.9801050     170.7474376

          INTERNUCLEAR DISTANCES (ANGS.)


 =====================================================
   GAMESS/COSab RESULTS
 =====================================================

   Dielectric Constant                  = INFTY
   Basic Grid Size                      =                 1082
   Number of Segments                   =                   92
   Number of Segments located on spheres=                  257
   Number of Segments of the cavity     =                  595
   Solvent Radius (rsolv)               = 1.40
   Outlying Charge Error Method         = double cavity

 =====================================================

  Total solvated Energy (a.u.)          =  -398.8657014783
  Total Energy corrected (a.u.)         =  -398.8653257264

  Outlying charge effect (a.u.)         =     0.0003757519
  Outlying charge effect (kcal/mol)     =     0.2357880755

  Dielectric Energy (a.u.)              =    -0.0225386715
  Dielectric energy corr. (a.u.)        =    -0.0221629196

  Sum of polarization charges           =     0.0187645222
  Sum of polarization charges(cor.)     =    -0.0187645222

  Total surface area of cavity (A**2)   =  144.29
  Total volume of cavity (A**3)         =  139.22

 =====================================================
 NPS=                   595
NR.  ATOM  (X, Y, Z)(a.u.)                  CHARGE(e)  AREA(A**2) SIGMA(e/A**2)
   1   1   4.511983   6.786416  -2.339129   0.000070   0.325193   0.000214
   2   1   5.140682   6.889063  -1.560996  -0.000190   0.278737  -0.000683
   3   1   3.911268   4.799552   3.158592  -0.000265   0.139368  -0.001900
   4   1   4.005645   3.905933   3.304725  -0.000192   0.139368  -0.001375
   5   1   6.157333   5.568759  -2.298955   0.000065   0.139368   0.000466
   6   1   5.442638   6.252657  -2.384815   0.000350   0.278737   0.001256
   7   1   3.898376   7.274842  -1.576173  -0.000566   0.371649  -0.001523
   8   1   3.261452   7.413739  -1.108889  -0.000359   0.139368  -0.002573
   9   1   3.343911   6.780067  -2.617804  -0.000832   0.371649  -0.002239
  10   1   3.674176   7.474153  -0.441852  -0.000763   0.185824  -0.004108
  11   1   6.059349   6.100038  -1.751827   0.000155   0.139368   0.001111
  12   1   4.338411   4.435507   3.171900  -0.000109   0.046456  -0.002356
  13   1   5.922647   5.368293  -2.756715   0.000156   0.092912   0.001678
  14   2  -2.739558   5.350734   1.264079  -0.000151   0.278737  -0.000543
  15   2   0.330257   7.198131   2.402280  -0.000003   0.418105  -0.000008
  16   2  -0.044587   7.574516   1.595273  -0.000218   0.278737  -0.000782
  17   2  -2.401100   6.199660   0.918931  -0.000173   0.418105  -0.000413
  18   2   0.462040   5.507482  -3.283570  -0.000229   0.092912  -0.002469
  19   2   0.188283   4.740375  -3.468592  -0.000048   0.139368  -0.000345
  20   2  -2.905005   5.315077   0.227259   0.000092   0.232280   0.000398
  21   2  -2.017040   5.976713   2.118178   0.000110   0.371649   0.000297
  22   2  -0.923028   6.881262   2.257495   0.000490   0.325193   0.001506
  23   2   1.262324   7.603614   1.592322  -0.000717   0.371649  -0.001929
  24   2   2.056386   7.620178   0.670120  -0.000423   0.092912  -0.004553
  25   2  -2.841543   4.601145   1.507673   0.000153   0.232280   0.000660
  26   2  -2.431911   4.744064   2.277624  -0.000115   0.278737  -0.000412
  27   2   1.536257   6.815335   2.743571  -0.000929   0.325193  -0.002856
  28   2   2.412807   5.901737   3.081235  -0.000195   0.046456  -0.004195
  29   2   1.593015   7.777909   0.584164  -0.000710   0.185824  -0.003822
  30   2  -1.567921   6.825906   1.618611   0.000123   0.278737   0.000441
  31   2  -2.674087   5.731767  -0.435477  -0.000262   0.139368  -0.001876
  32   2  -0.488791   5.056901  -3.243034  -0.000305   0.185824  -0.001640
  33   2  -2.429178   3.811309   2.349085   0.000078   0.139368   0.000558
  34   2   1.979440   7.165256   2.064215  -0.000587   0.232280  -0.002527
  35   3   4.176339   2.248848   3.587829   0.000512   0.038894   0.013161
  36   3   4.049038   1.215988   3.756326   0.000383   0.116683   0.003281
  37   3   3.653325   0.759073   3.683352   0.001528   0.116683   0.013094
  38   3   3.807524   1.731678   3.684614   0.002333   0.155577   0.014996
  39   3   3.828925   0.142735   3.579747   0.001409   0.116683   0.012078
  40   4  -1.287483   2.145547  -3.977655   0.004957   0.274871   0.018035
  41   4  -3.719577   3.083466  -1.981584   0.006115   0.343589   0.017798
  42   4  -3.805529   2.209603   0.580023   0.002857   0.206154   0.013858
  43   4  -2.522735   0.950970  -3.249356   0.002482   0.171795   0.014447
  44   4  -1.845483   1.271122  -3.710042   0.003996   0.274871   0.014537
  45   4  -3.445237   1.109785  -2.378548   0.002936   0.206154   0.014240
  46   4  -3.699438   1.979536  -2.295435   0.005836   0.343589   0.016986
  47   4  -2.247905   2.479952  -3.675131   0.006168   0.343589   0.017951
  48   4  -3.126966   2.823934  -2.983022   0.006768   0.377948   0.017906
  49   4  -4.049440   2.594973  -1.109682   0.006994   0.377948   0.018505
  50   4  -4.031900   1.973807  -0.165367   0.004187   0.240512   0.017407
  51   4  -0.815026   1.397717  -3.909943   0.004458   0.240512   0.018537
  52   4  -1.474875   3.133597  -3.804123   0.003999   0.240512   0.016627
  53   4  -1.455035   3.836994  -3.493529   0.001925   0.137436   0.014010
  54   4  -2.585542   4.064499  -2.763401   0.002401   0.171795   0.013974
  55   4  -3.124611   3.939430  -2.276438   0.004677   0.309230   0.015124
  56   4  -3.581353   3.875309  -1.240799   0.005763   0.343589   0.016774
  57   4  -3.595079   3.838583  -0.228990   0.002423   0.206154   0.011752
  58   4  -3.660682   3.149208   0.549761   0.003651   0.206154   0.017712
  59   4  -3.329701   2.722038   1.267158   0.002752   0.206154   0.013351
  60   4  -0.353303   2.324486  -3.968512   0.004702   0.240512   0.019551
  61   4  -2.932611   1.647591  -3.188047   0.005550   0.343589   0.016152
  62   4  -3.980198   1.507535  -1.266170   0.004244   0.309230   0.013725
  63   4  -2.262293   3.597808  -3.321998   0.004446   0.274871   0.016175
  64   4  -3.944760   3.001931  -0.219883   0.004218   0.240512   0.017536
  65   4  -0.639603   3.195334  -3.842768   0.002825   0.171795   0.016444
  66   5  -0.815359  -0.462770  -3.498637   0.000077   0.139368   0.000552
  67   5  -0.422921  -3.624352   1.772933  -0.000941   0.232280  -0.004050
  68   5  -3.207440  -1.360630   2.163484   0.000338   0.418105   0.000809
  69   5  -3.879042  -0.260666  -0.586376  -0.000146   0.139368  -0.001048
  70   5  -3.306813  -1.956883   1.409799  -0.000076   0.278737  -0.000271
  71   5  -1.229686  -3.635880   1.361128  -0.000710   0.325193  -0.002184
  72   5  -1.154824  -0.958652  -3.353100  -0.000245   0.232280  -0.001055
  73   5  -0.443788  -3.945430   0.530211  -0.000819   0.232280  -0.003527
  74   5  -1.203478  -3.094445   2.409254  -0.000502   0.371649  -0.001350
  75   5  -2.448125  -2.410997   2.274226   0.000345   0.325193   0.001062
  76   5  -3.809581  -0.634210   1.198382  -0.000282   0.464561  -0.000607
  77   5  -3.953513   0.120342   0.263586  -0.000095   0.278737  -0.000340
  78   5   0.061252  -3.052720   2.670401  -0.000620   0.325193  -0.001908
  79   5  -3.367615  -0.049137   2.254736  -0.000144   0.371649  -0.000387
  80   5  -3.032051   1.202367   2.281337   0.000085   0.232280   0.000366
  81   5  -3.924061  -0.747764   0.283054  -0.000201   0.139368  -0.001442
  82   5  -2.076551  -3.069863   1.769298  -0.000064   0.278737  -0.000230
  83   5  -1.989951  -0.568222  -3.081737  -0.000088   0.092912  -0.000944
  84   5  -3.644796   0.557670   1.549100   0.000162   0.278737   0.000580
  85   6   3.014385  -1.354805   3.257027  -0.000093   0.046456  -0.001994
  86   6   1.122320  -4.138067  -1.676908  -0.000828   0.232280  -0.003564
  87   6   4.307151  -3.456589  -2.544604   0.000229   0.278737   0.000822
  88   6   4.232403  -3.980547  -1.726366  -0.000035   0.232280  -0.000150
  89   6   1.784795  -4.491413  -1.144011  -0.000627   0.185824  -0.003373
  90   6   3.175869  -1.863249   3.126654  -0.000438   0.185824  -0.002357
  91   6   1.003276  -4.303693  -0.597159  -0.000696   0.185824  -0.003745
  92   6   1.923540  -4.213644  -2.071795  -0.000377   0.325193  -0.001160
  93   6   3.503169  -3.927320  -2.428584   0.000375   0.278737   0.001345
  94   6   4.888853  -3.290537  -2.128689  -0.000178   0.185824  -0.000958
  95   6   1.138289  -3.514296  -2.747486  -0.000700   0.278737  -0.002513
  96   6   4.934402  -2.634628  -2.769765  -0.000122   0.092912  -0.001309
  97   6   2.795467  -4.359007  -1.840443  -0.000108   0.232280  -0.000465
  98   6   2.605838  -2.091199   3.111661  -0.000085   0.046456  -0.001826
  99   6   2.586847  -3.891650  -2.702239  -0.000069   0.232280  -0.000295
 100   7   7.508122   1.635854  -3.027475  -0.000152   0.185824  -0.000820
 101   7   9.445504  -0.655418  -1.772329  -0.000349   0.278737  -0.001251
 102   7   9.776946  -0.763603   2.338254  -0.000192   0.185824  -0.001032
 103   7   6.711148  -0.699807   4.073915  -0.002042   0.371649  -0.005494
 104   7   6.809227  -1.651010   3.538082  -0.002127   0.371649  -0.005723
 105   7   9.762567  -1.204761   1.904431  -0.000747   0.232280  -0.003215
 106   7   9.320360  -1.517534  -1.191619  -0.001897   0.418105  -0.004537
 107   7   6.606290   2.481219   3.856316  -0.000128   0.278737  -0.000459
 108   7   5.830968   2.409416   3.764960  -0.000163   0.185824  -0.000875
 109   7   7.322110  -1.160866  -2.716698  -0.002452   0.325193  -0.007539
 110   7   8.546477  -1.184346  -2.229995  -0.001720   0.371649  -0.004627
 111   7   9.979757  -0.902985  -0.687139   0.000228   0.232280   0.000983
 112   7  10.113875  -1.061160   0.904781  -0.000104   0.185824  -0.000558
 113   7   9.166210  -0.629745   3.169209  -0.000477   0.418105  -0.001141
 114   7   7.941890  -0.835615   3.814497  -0.002103   0.464561  -0.004528
 115   7   5.639885  -1.095198   3.699139  -0.002123   0.371649  -0.005712
 116   7   7.031779   0.698485  -3.221818  -0.001912   0.278737  -0.006861
 117   7   8.087293   0.880626  -2.986741  -0.000589   0.278737  -0.002114
 118   7   8.764229  -0.033782  -2.585193  -0.000820   0.418105  -0.001961
 119   7   7.344471   1.533703   4.180051  -0.000252   0.371649  -0.000677
 120   7   7.147306   0.362843   4.296846  -0.002424   0.464561  -0.005217
 121   7   5.712257   0.154350   4.141675  -0.001824   0.464561  -0.003925
 122   7   8.468220  -1.390240   3.229426  -0.001224   0.232280  -0.005271
 123   7   9.945008  -1.346246   0.141384  -0.000461   0.139368  -0.003307
 124   7   7.645267  -1.943523  -2.046713  -0.002742   0.418105  -0.006558
 125   7   6.091907   1.396160   4.193199  -0.001971   0.511017  -0.003857
 126   7   7.551747  -0.238241  -3.038198  -0.002854   0.464561  -0.006143
 127   7   8.371573   0.382750   3.959502  -0.000544   0.418105  -0.001301
 128   8  10.759817   4.481804   0.628341   0.005517   0.377948   0.014596
 129   8   8.376274   4.699649   2.677630   0.004623   0.240512   0.019222
 130   8   9.886894   2.956795  -2.219155   0.005093   0.343589   0.014822
 131   8  11.505222   1.214256   0.177121   0.006508   0.343589   0.018941
 132   8  10.276906   2.221175   3.272556   0.004990   0.309230   0.016138
 133   8  10.065983   4.855712   1.541332   0.006194   0.412307   0.015023
 134   8   9.062718   5.018187   2.100004   0.005748   0.343589   0.016728
 135   8   9.946022   5.057928   0.186347   0.005307   0.343589   0.015446
 136   8   9.138711   5.232255  -0.368547   0.007175   0.377948   0.018984
 137   8  10.755139   4.182654  -0.545419   0.006052   0.412307   0.014679
 138   8  10.590478   3.490329  -1.478030   0.005597   0.377948   0.014808
 139   8  11.410848   3.509256   0.410469   0.005806   0.377948   0.015362
 140   8  11.674715   2.402057   0.364214   0.005902   0.343589   0.017177
 141   8  11.057301   3.824213   1.636613   0.007248   0.481025   0.015067
 142   8  10.851232   3.094183   2.581136   0.006500   0.412307   0.015766
 143   8   8.889926   4.729575  -1.407307   0.006112   0.309230   0.019765
 144   8   9.484539   3.896092  -1.980190   0.004142   0.274871   0.015070
 145   8  10.739637   2.210094  -1.702980   0.006411   0.412307   0.015549
 146   8  11.314349   1.654200  -0.817279   0.007121   0.412307   0.017272
 147   8  11.500247   1.347235   1.262565   0.007068   0.377948   0.018702
 148   8  11.061215   1.762381   2.459600   0.007362   0.412307   0.017856
 149   8   9.774420   3.141481   3.404138   0.006701   0.446666   0.015003
 150   8   9.059334   4.139515   3.131026   0.005160   0.343589   0.015017
 151   8   8.855624   2.763476  -2.582771   0.004963   0.343589   0.014445
 152   8   9.808557   1.788715  -2.325200   0.004818   0.377948   0.012748
 153   8  10.936146   0.468256  -0.548393   0.005120   0.343589   0.014902
 154   8  11.049663   0.285790   0.823098   0.006670   0.377948   0.017647
 155   8  10.188758   1.151401   3.119269   0.005318   0.377948   0.014071
 156   8   9.348636   1.989926   3.704948   0.003978   0.274871   0.014470
 157   8   7.896321   3.876053   3.328342   0.004710   0.309230   0.015232
 158   8   9.067549   5.371107   0.990414   0.006808   0.343589   0.019815
 159   8   9.918211   4.528622  -1.135569   0.005243   0.343589   0.015261
 160   8  11.347809   2.891703  -0.684672   0.006481   0.412307   0.015719
 161   8  11.530930   2.534149   1.537349   0.007702   0.446666   0.017244
 162   8  10.046348   4.179620   2.614260   0.006161   0.412307   0.014942
 163   8   8.742157   3.816124  -2.215506   0.004242   0.240512   0.017637
 164   8  10.558804   0.977455  -1.542087   0.005555   0.343589   0.016169
 165   8  10.862620   0.639386   2.085267   0.006970   0.377948   0.018442
 166   8   8.512918   3.066456   3.726107   0.005579   0.412307   0.013530
 167   9   5.879163   6.760272   1.796909  -0.004298   0.471065  -0.009124
 168   9   4.624971   6.021490   2.785042  -0.002013   0.333671  -0.006031
 169   9   4.445746   7.463715   1.119789  -0.002438   0.333671  -0.007308
 170   9   6.060605   6.896009  -0.317459  -0.002197   0.353299  -0.006218
 171   9   5.461579   5.828627   2.697344  -0.002824   0.372926  -0.007574
 172   9   4.693372   6.988041   2.069330  -0.002752   0.431809  -0.006373
 173   9   5.162437   7.480775   0.370876  -0.003102   0.490692  -0.006321
 174   9   6.265170   6.901779   0.698265  -0.002930   0.353299  -0.008292
 175  10   4.086355   4.335764  -4.848113  -0.003184   0.490692  -0.006488
 176  10   2.412789   4.273924  -4.530270  -0.001664   0.314043  -0.005298
 177  10   5.192046   3.293908  -4.298691  -0.001325   0.215905  -0.006136
 178  10   5.239766   5.214839  -3.854829  -0.001352   0.372926  -0.003626
 179  10   3.349145   5.841043  -3.952206  -0.001865   0.353299  -0.005280
 180  10   3.016314   3.375286  -4.760166  -0.003150   0.490692  -0.006419
 181  10   4.344528   3.068882  -4.669444  -0.002884   0.431809  -0.006678
 182  10   5.405801   4.190946  -4.194407  -0.002453   0.431809  -0.005682
 183  10   4.325130   5.499403  -4.229392  -0.002299   0.451437  -0.005093
 184  10   2.982459   5.057154  -4.520033  -0.002255   0.372926  -0.006046
 185  11  -0.792119   7.952747  -1.630528  -0.004650   0.569203  -0.008169
 186  11  -1.444644   6.459553  -2.486267  -0.002168   0.372926  -0.005814
 187  11   0.419395   6.948544  -2.796900  -0.002312   0.353299  -0.006544
 188  11   0.929619   8.149095  -0.892237  -0.002473   0.392554  -0.006300
 189  11  -0.630673   8.051532   0.299006  -0.001870   0.372926  -0.005014
 190  11  -2.125178   7.031398  -0.655012  -0.002085   0.412182  -0.005060
 191  11  -0.538261   6.947494  -2.752414  -0.002878   0.451437  -0.006374
 192  11   0.517360   7.868952  -1.973397  -0.003114   0.471065  -0.006610
 193  11   0.068442   8.322155  -0.408984  -0.002808   0.431809  -0.006503
 194  11  -1.450283   7.800149  -0.301433  -0.002897   0.471065  -0.006151
 195  11  -1.864875   6.979492  -1.705697  -0.003189   0.451437  -0.007065
 196  12   0.393574   4.691736   4.679190  -0.002622   0.412182  -0.006362
 197  12   1.622838   4.072512   4.385541  -0.001881   0.333671  -0.005636
 198  12  -1.438620   3.948534   3.859817  -0.002026   0.372926  -0.005434
 199  12  -0.690764   5.898314   3.724967  -0.001311   0.333671  -0.003928
 200  12   1.279390   5.843284   3.917730  -0.001207   0.274788  -0.004392
 201  12   0.862608   3.462100   4.540697  -0.002485   0.372926  -0.006663
 202  12  -0.424155   3.810652   4.532231  -0.002394   0.353299  -0.006775
 203  12  -0.722152   4.951036   4.332309  -0.002236   0.372926  -0.005996
 204  12   0.277987   5.965806   4.020422  -0.002051   0.412182  -0.004976
 205  12   1.499215   5.076394   4.300350  -0.002124   0.372926  -0.005694
 206  12  -1.521879   5.008494   3.590959  -0.001050   0.294415  -0.003566
 207  13  -3.016362  -3.167753  -1.620483  -0.004853   0.588831  -0.008242
 208  13  -1.496355  -3.387921  -2.265370  -0.002363   0.353299  -0.006689
 209  13  -2.370373  -1.771032  -2.906561  -0.001720   0.333671  -0.005156
 210  13  -3.779881  -1.450563  -1.419067  -0.001865   0.353299  -0.005278
 211  13  -3.354421  -2.852275   0.206576  -0.001802   0.372926  -0.004833
 212  13  -1.695745  -3.967270  -0.292494  -0.001868   0.353299  -0.005289
 213  13  -1.924424  -2.667697  -2.773617  -0.003103   0.471065  -0.006587
 214  13  -3.257608  -1.868359  -2.273918  -0.003669   0.510320  -0.007190
 215  13  -3.796383  -2.281418  -0.685475  -0.003207   0.510320  -0.006284
 216  13  -2.745082  -3.592580  -0.213109  -0.003072   0.471065  -0.006520
 217  13  -1.733670  -3.875279  -1.371550  -0.003087   0.490692  -0.006292
 218  14  -0.984947  -0.652284   4.617898  -0.003267   0.490692  -0.006658
 219  14   0.665562   0.149589   4.388457  -0.001571   0.235532  -0.006670
 220  14   0.271058  -1.565747   4.153139  -0.001917   0.353299  -0.005426
 221  14  -1.798909  -1.587027   3.811837  -0.001633   0.372926  -0.004378
 222  14  -2.439732   0.392428   3.623508  -0.001429   0.372926  -0.003833
 223  14  -0.390025   0.416702   4.625158  -0.002645   0.392554  -0.006737
 224  14   0.455942  -0.680465   4.468815  -0.002038   0.353299  -0.005768
 225  14  -0.738421  -1.872910   4.043655  -0.002124   0.431809  -0.004919
 226  14  -2.277516  -0.719495   3.861366  -0.001972   0.412182  -0.004784
 227  14  -1.661831   0.547817   4.275322  -0.002902   0.451437  -0.006428
 228  15   3.704475  -4.774261   1.409320  -0.004262   0.471065  -0.009047
 229  15   2.338320  -4.199211   2.168741  -0.002265   0.314043  -0.007211
 230  15   3.556819  -3.171902   2.787414  -0.001804   0.255160  -0.007070
 231  15   4.041521  -4.681627  -0.432932  -0.001896   0.333671  -0.005683
 232  15   2.113049  -4.862660   0.281012  -0.002269   0.353299  -0.006424
 233  15   2.892844  -3.748484   2.614968  -0.002453   0.353299  -0.006944
 234  15   4.013889  -4.075853   2.173021  -0.003378   0.372926  -0.009057
 235  15   4.376709  -4.683671   0.488345  -0.002659   0.294415  -0.009032
 236  15   3.174470  -5.037138   0.116666  -0.003275   0.451437  -0.007256
 237  15   2.270029  -4.747623   1.347026  -0.003191   0.490692  -0.006504
 238  16   2.789848  -1.632163  -4.888715  -0.003126   0.471065  -0.006636
 239  16   1.876543  -0.279966  -4.681679  -0.001895   0.274788  -0.006897
 240  16   1.216110  -2.096387  -4.234463  -0.002043   0.372926  -0.005478
 241  16   2.911895  -3.077166  -3.928870  -0.001259   0.353299  -0.003564
 242  16   4.348809  -2.018295  -3.999815  -0.001421   0.294415  -0.004827
 243  16   2.893239  -0.428069  -4.843580  -0.002662   0.392554  -0.006781
 244  16   1.491709  -1.152561  -4.667622  -0.002432   0.392554  -0.006196
 245  16   2.012466  -2.642985  -4.302865  -0.002287   0.412182  -0.005548
 246  16   3.608630  -2.454917  -4.300327  -0.002181   0.431809  -0.005051
 247  16   4.029242  -0.884700  -4.507442  -0.003216   0.510320  -0.006302
 248  17   8.399783  -3.495086   0.698556  -0.004023   0.392554  -0.010249
 249  17   7.289324  -2.885023   2.651175  -0.003472   0.392554  -0.008845
 250  17   9.262379  -2.604244   1.257685  -0.003176   0.353299  -0.008991
 251  17   8.549231  -2.914336  -0.596768  -0.002961   0.372926  -0.007939
 252  17   7.353872  -3.792937   0.673262  -0.004169   0.372926  -0.011179
 253  17   7.219773  -3.531889   1.852924  -0.003805   0.353299  -0.010770
 254  17   8.297029  -3.275000   1.806437  -0.003252   0.333671  -0.009746
 255  17   9.156806  -2.773335   0.261560  -0.002916   0.333671  -0.008741
 256  17   7.568496  -3.354958  -0.621001  -0.004893   0.490692  -0.009972
 257  17   8.613468  -2.546381   2.366267  -0.002590   0.333671  -0.007761
 258   1   3.223434   7.376473   0.453334  -0.000273   0.026622  -0.010271
 259   2   2.739177   7.408265   0.560996  -0.000314   0.026622  -0.011791
 260   9   3.487131   7.369201   0.595478  -0.000241   0.026622  -0.009049
 261   1   2.551185   7.480075  -0.486132  -0.000316   0.027491  -0.011488
 262   2   2.080444   7.594981  -0.375098  -0.000290   0.027491  -0.010537
 263  11   1.831733   7.681673  -0.520899  -0.000248   0.027491  -0.009024
 264   2   2.333468   7.564551   0.210116  -0.000730   0.148693  -0.004911
 265   1   2.980142   7.472442  -0.126046  -0.000782   0.148693  -0.005257
 266   1   4.535596   3.175473   3.269772   0.000129   0.053453   0.002421
 267   3   4.675944   2.723476   3.385031   0.000383   0.053453   0.007173
 268   7   5.113610   2.645779   3.443544   0.000232   0.053453   0.004331
 269   1   3.365965   3.344308   3.365999  -0.000158   0.095929  -0.001648
 270   3   3.507157   2.877403   3.392116   0.000324   0.095929   0.003380
 271  12   2.652739   3.483763   3.588812  -0.000421   0.095929  -0.004393
 272   3   4.255187   2.718567   3.441004   0.000703   0.091438   0.007692
 273   1   3.941417   3.347265   3.349962   0.000125   0.095876   0.001299
 274   1   5.169544   4.137418   2.956645  -0.000288   0.065843  -0.004377
 275   7   5.738670   3.581363   3.059613  -0.000020   0.065843  -0.000310
 276   9   5.311070   4.391733   2.878230  -0.000387   0.065843  -0.005877
 277   7   5.692876   3.034694   3.443347   0.000198   0.247275   0.000803
 278   1   4.739710   3.666475   3.248710  -0.000048   0.247275  -0.000194
 279   1   6.672334   5.747734  -0.994191   0.000177   0.083792   0.002107
 280   8   7.511394   5.336359  -0.742872   0.001759   0.083792   0.020996
 281   9   6.703885   5.877309  -0.722465  -0.000090   0.083792  -0.001080
 282   1   6.453771   4.316964  -2.705385   0.000102   0.049326   0.002075
 283   8   7.270676   3.955870  -2.339481   0.000763   0.049326   0.015479
 284  10   6.255675   4.285487  -2.933199  -0.000118   0.049326  -0.002384
 285   8   7.945716   4.250068  -2.075886   0.004469   0.305063   0.014649
 286   8   8.008966   5.062392  -1.196203   0.005211   0.305063   0.017082
 287   1   6.715835   5.117057  -1.970882   0.002677   0.676628   0.003956
 288   1   3.423504   5.370812   2.980782  -0.000208   0.029494  -0.007048
 289   9   3.657885   5.531310   2.886907  -0.000260   0.029494  -0.008812
 290  12   2.710209   5.326632   3.234476  -0.000220   0.029494  -0.007460
 291   9   6.220344   6.402399  -0.806162  -0.000275   0.068385  -0.004025
 292   9   5.328952   7.055931  -0.670449  -0.001027   0.152161  -0.006752
 293   9   4.275577   7.428121   0.080385  -0.001183   0.152161  -0.007775
 294   1   5.764500   6.540256  -1.162481  -0.000665   0.149533  -0.004444
 295   1   4.521492   7.267490  -0.701562  -0.000986   0.149533  -0.006591
 296   1   3.640610   7.434535   0.139123  -0.000510   0.083548  -0.006102
 297   9   4.290299   5.496250   2.913221  -0.000415   0.066608  -0.006231
 298   9   4.926588   4.942437   2.945199  -0.000475   0.066608  -0.007135
 299   1   4.341353   4.916042   2.990977  -0.000953   0.146424  -0.006511
 300   1   2.223445   6.169749  -3.039515  -0.000275   0.038385  -0.007152
 301  10   2.358129   5.999247  -3.251601  -0.000333   0.038385  -0.008686
 302  11   1.552465   6.403629  -2.809972  -0.000360   0.038385  -0.009385
 303  10   2.941782   6.011437  -3.513477  -0.000431   0.066655  -0.006467
 304  10   4.001593   6.122542  -3.380817  -0.000784   0.146757  -0.005343
 305  10   5.190968   5.602343  -3.301079  -0.000652   0.146757  -0.004445
 306  10   5.837330   4.745007  -3.319354  -0.000290   0.066655  -0.004351
 307   1   3.252853   6.301361  -3.106559  -0.000879   0.147314  -0.005965
 308   1   4.699533   6.157345  -2.957174  -0.000550   0.147314  -0.003732
 309   1   5.794581   5.189682  -2.936157  -0.000471   0.147314  -0.003198
 310  11   1.682812   7.731830  -0.924046  -0.001328   0.180125  -0.007373
 311  11   1.412374   7.203295  -2.105439  -0.003050   0.367122  -0.008308
 312   1   2.665663   7.281112  -1.467375  -0.002454   0.495413  -0.004953
 313   1   2.296396   6.588462  -2.750056  -0.000842   0.253899  -0.003315
 314  12   2.321931   4.083583   3.861359  -0.000943   0.170675  -0.005527
 315  12   2.325523   5.018676   3.672883  -0.000983   0.170675  -0.005759
 316   1   3.342994   4.457414   3.321592  -0.001297   0.470703  -0.002755
 317   2  -2.464762   2.903451   2.132354   0.000341   0.057587   0.005921
 318   4  -2.696372   2.559217   1.913176   0.000673   0.057587   0.011691
 319   5  -2.616375   2.151401   2.130657   0.000376   0.057587   0.006531
 320   2   0.617285   3.988343  -3.578414   0.000022   0.088164   0.000248
 321   4   0.340302   3.610580  -3.616715   0.000599   0.088164   0.006797
 322  10   1.324983   3.927060  -3.802401  -0.000334   0.088164  -0.003790
 323   2  -2.393316   5.323994  -1.619284  -0.000021   0.013250  -0.001576
 324   4  -2.566009   4.905910  -1.739408   0.000109   0.013250   0.008191
 325  11  -2.272286   5.597091  -1.653547  -0.000110   0.013250  -0.008323
 326   2  -1.417312   5.131966  -2.753248   0.000021   0.013250   0.001572
 327   4  -1.631142   4.721975  -2.825577   0.000182   0.013250   0.013698
 328  11  -1.385964   5.422707  -2.683315  -0.000057   0.013250  -0.004269
 329   4  -2.949840   3.040851   1.563813   0.001713   0.168385   0.010173
 330   4  -3.251725   3.990861   0.166012   0.004762   0.349901   0.013609
 331   4  -2.955734   4.567254  -1.423851   0.001709   0.168385   0.010149
 332   2  -2.825111   3.950956   1.366013   0.002017   0.361662   0.005577
 333   2  -2.828932   4.940515  -0.570873   0.001415   0.361662   0.003912
 334   4  -1.468543   4.284121  -3.170331   0.001631   0.156590   0.010414
 335   4  -0.467429   3.717382  -3.607499   0.001911   0.156590   0.012204
 336   2  -0.596583   4.535481  -3.231620   0.001090   0.336562   0.003238
 337   2  -1.960889   3.049613   2.754181  -0.000147   0.060289  -0.002431
 338   5  -2.058678   2.291286   2.704683  -0.000075   0.060289  -0.001237
 339  12  -1.792822   3.139441   2.992734  -0.000356   0.060289  -0.005907
 340   5  -2.470078   1.954342   2.548702   0.000156   0.131103   0.001190
 341   2  -2.319352   3.040095   2.472446   0.000239   0.131103   0.001822
 342   2   2.670765   5.579914   3.115608  -0.000166   0.025613  -0.006464
 343   9   3.375324   5.639203   2.870867  -0.000210   0.025613  -0.008190
 344  12   2.452801   5.473344   3.297728  -0.000223   0.025613  -0.008693
 345   9   3.644690   7.321480   1.030565  -0.001488   0.201247  -0.007394
 346   9   3.756749   6.507468   2.236371  -0.003555   0.412441  -0.008618
 347   2   2.575896   7.103129   1.606778  -0.003118   0.550843  -0.005661
 348   2   2.739302   6.057890   2.884960  -0.000916   0.283565  -0.003229
 349   2   1.115406   5.814106  -3.146838  -0.000246   0.035539  -0.006930
 350  10   1.775752   5.593274  -3.407528  -0.000319   0.035539  -0.008982
 351  11   0.960800   6.048036  -3.037878  -0.000294   0.035539  -0.008284
 352  10   1.912008   4.635644  -3.953619  -0.002187   0.309698  -0.007062
 353   2   0.993605   5.100394  -3.454987  -0.001218   0.435781  -0.002794
 354  11   0.344322   6.208423  -3.035778  -0.000409   0.066752  -0.006122
 355  11  -0.684803   5.889801  -2.914460  -0.000963   0.147513  -0.006529
 356   2   0.084585   5.686319  -3.114416  -0.000865   0.146955  -0.005885
 357   2  -1.050112   5.377564  -2.892921  -0.000246   0.081552  -0.003022
 358  11  -2.280831   6.042896  -1.391902  -0.000414   0.072503  -0.005709
 359  11  -2.233020   6.567714  -0.346032  -0.001028   0.163140  -0.006300
 360  11  -1.460006   7.300711   0.580643  -0.000894   0.163140  -0.005481
 361  11  -0.165099   7.845052   0.723707  -0.001122   0.163140  -0.006877
 362  11   1.052815   7.948983   0.016994  -0.001249   0.163140  -0.007653
 363   2  -2.434339   5.873033  -0.824650  -0.000879   0.156891  -0.005604
 364   2  -2.036361   6.658484   0.493773  -0.000834   0.156891  -0.005316
 365   2  -0.801792   7.421067   1.132418  -0.000755   0.156891  -0.004812
 366   2   0.698386   7.808091   0.795914  -0.001032   0.156891  -0.006581
 367   2   1.680719   7.761676  -0.042624  -0.000543   0.088578  -0.006135
 368  12   1.919686   5.672874   3.572640  -0.000426   0.070037  -0.006089
 369  12   0.990549   6.282874   3.405829  -0.001008   0.155704  -0.006474
 370  12  -0.353971   6.324654   3.217384  -0.000805   0.155704  -0.005171
 371  12  -1.448024   5.525997   3.116466  -0.000829   0.155704  -0.005322
 372  12  -1.831022   4.223133   3.145560  -0.000898   0.155704  -0.005765
 373   2   1.788091   6.115072   3.186013  -0.001089   0.153357  -0.007102
 374   2   0.378800   6.653267   2.957365  -0.000785   0.153357  -0.005116
 375   2  -1.069147   6.203858   2.785550  -0.000630   0.153357  -0.004111
 376   2  -1.946172   4.956043   2.742903  -0.000654   0.153357  -0.004262
 377   2  -2.053490   3.721836   2.805773  -0.000319   0.085566  -0.003726
 378   3   4.033510  -0.469026   3.363904   0.000315   0.053488   0.005888
 379   6   3.728635  -0.830236   3.243320   0.000084   0.053488   0.001565
 380   7   4.467056  -0.567262   3.422207   0.000112   0.053488   0.002097
 381   3   2.908280  -0.167779   3.373796   0.000448   0.096427   0.004641
 382   6   2.597059  -0.543900   3.342170  -0.000156   0.096427  -0.001614
 383  14   1.885346  -0.397307   3.569369  -0.000381   0.096427  -0.003949
 384   6   3.206756  -0.834927   3.309705   0.000073   0.093256   0.000780
 385   3   3.564640  -0.235808   3.434695   0.000629   0.088938   0.007069
 386   7   5.234975   1.855270   3.760431   0.000644   0.231897   0.002777
 387   7   4.884186   0.110799   3.748921   0.000293   0.231897   0.001264
 388   3   4.450214   1.106907   3.551987   0.005324   0.474851   0.011213
 389   3   2.330934   1.544561   3.449926   0.001120   0.294153   0.003809
 390  12   1.531637   2.224565   3.686993  -0.001214   0.294153  -0.004126
 391  14   1.330990   1.223060   3.684751  -0.001305   0.294153  -0.004436
 392  12   1.947434   3.030344   3.947910  -0.000945   0.346142  -0.002731
 393   3   3.285707   2.274192   3.648876   0.002764   0.456355   0.006056
 394  14   1.467360   0.073750   3.923753  -0.001012   0.355629  -0.002846
 395   3   2.877139   0.702774   3.652702   0.003111   0.468868   0.006634
 396   4  -3.481119   0.359882  -1.751644   0.000214   0.013290   0.016110
 397   5  -3.483884  -0.092807  -1.633552   0.000010   0.013290   0.000756
 398  13  -3.477786  -0.391313  -1.669432  -0.000064   0.013290  -0.004834
 399   4  -2.542426   0.172266  -2.840276   0.000150   0.013290   0.011249
 400   5  -2.503897  -0.288676  -2.770074  -0.000017   0.013290  -0.001262
 401  13  -2.587841  -0.569186  -2.701529  -0.000114   0.013290  -0.008546
 402   4  -0.344749   0.431822  -3.626145   0.000832   0.088735   0.009372
 403   5  -0.237463  -0.024075  -3.588177   0.000051   0.088735   0.000572
 404  16   0.436582  -0.228877  -3.819954  -0.000347   0.088735  -0.003911
 405   5  -1.715791  -0.067760  -3.144172   0.000606   0.333156   0.001818
 406   4  -1.467578   0.627243  -3.415928   0.003613   0.304655   0.011860
 407   5  -3.060703   1.628575   1.894630   0.000742   0.184267   0.004024
 408   5  -3.724021   0.847542   0.437317   0.001837   0.361724   0.005079
 409   5  -3.676633   0.182719  -1.214813   0.000456   0.184267   0.002472
 410   4  -3.406511   1.922279   1.044412   0.004585   0.349996   0.013099
 411   4  -3.775628   1.055800  -0.819029   0.004214   0.349996   0.012039
 412   4   1.011778   1.853724  -3.683509   0.002630   0.314294   0.008369
 413  10   1.977010   2.253481  -3.875209  -0.000933   0.314294  -0.002969
 414  16   1.739251   1.119789  -3.884920  -0.001087   0.314294  -0.003457
 415  10   1.861169   3.236823  -4.168050  -0.001018   0.385701  -0.002639
 416   4   0.378249   2.953376  -3.875365   0.004232   0.481365   0.008792
 417  11  -1.753545   5.658675  -2.320003  -0.001369   0.314777  -0.004348
 418   4  -2.349087   4.700521  -2.302921   0.002471   0.383531   0.006444
 419  13  -3.207016  -0.608651  -2.121295  -0.001394   0.315761  -0.004414
 420   4  -3.027191   0.433295  -2.514821   0.002632   0.384723   0.006841
 421  16   1.042112   0.040723  -4.169245  -0.001364   0.408051  -0.003343
 422   4   0.139557   1.241147  -3.894387   0.004865   0.508700   0.009563
 423   5  -0.228825  -3.920277  -0.421803  -0.000293   0.027537  -0.010622
 424   6   0.249545  -3.993608  -0.535786  -0.000289   0.027537  -0.010506
 425  13  -0.492300  -3.903514  -0.566571  -0.000347   0.027537  -0.012599
 426   5   1.078905  -2.183952   3.175602  -0.000234   0.025004  -0.009359
 427   6   1.543085  -2.274730   3.022555  -0.000192   0.025004  -0.007677
 428  14   0.917835  -2.014930   3.370080  -0.000192   0.025004  -0.007681
 429   5   1.447838  -2.420191   2.947364  -0.000218   0.026978  -0.008094
 430   6   1.919974  -2.554420   2.868231  -0.000263   0.026978  -0.009745
 431  15   2.074366  -2.798338   2.783595  -0.000232   0.026978  -0.008591
 432   5   0.438124  -4.016737   0.449029  -0.000297   0.026978  -0.011004
 433   6   0.896938  -4.172031   0.336933  -0.000309   0.026978  -0.011456
 434  15   1.142930  -4.271113   0.478943  -0.000377   0.026978  -0.013983
 435   6   0.681881  -4.162483  -0.043857  -0.000815   0.137670  -0.005923
 436   5  -0.029772  -3.992773  -0.037415  -0.000729   0.137670  -0.005292
 437   5  -2.094696   1.843623   2.860699  -0.000259   0.082378  -0.003147
 438  12  -1.722139   2.674387   3.068740  -0.000349   0.082378  -0.004231
 439  14  -1.981956   1.698902   3.106548  -0.000469   0.082378  -0.005697
 440   5  -0.459876  -1.862966  -3.178905  -0.000312   0.035491  -0.008778
 441  13  -0.691003  -2.022155  -3.070427  -0.000314   0.035491  -0.008845
 442  16   0.229931  -1.907121  -3.443765  -0.000340   0.035491  -0.009582
 443  13  -1.002267  -3.941469  -0.348786  -0.000519   0.072685  -0.007141
 444  13  -1.834943  -3.655665   0.427468  -0.001177   0.163636  -0.007192
 445  13  -2.937373  -2.824485   0.736719  -0.001004   0.163636  -0.006136
 446  13  -3.692338  -1.767866   0.175083  -0.001006   0.163636  -0.006145
 447  13  -3.749104  -0.976682  -0.996520  -0.001154   0.163636  -0.007051
 448   5  -1.000553  -3.821857   0.251883  -0.001268   0.157208  -0.008065
 449   5  -2.218887  -3.194358   1.055511  -0.000901   0.157208  -0.005733
 450   5  -3.328074  -2.067015   0.904794  -0.000789   0.157208  -0.005018
 451   5  -3.812817  -0.963557  -0.130250  -0.000909   0.157208  -0.005780
 452   5  -3.649954  -0.390388  -1.280277  -0.000336   0.088801  -0.003783
 453  13  -2.353483  -1.105613  -2.853099  -0.000566   0.097733  -0.005787
 454  13  -1.415883  -1.854067  -3.050185  -0.000664   0.097733  -0.006792
 455   5  -1.648870  -1.173571  -2.992895  -0.001696   0.195622  -0.008671
 456  14  -2.368399   1.078421   3.174807  -0.000442   0.070735  -0.006246
 457  14  -2.724091   0.003050   3.109464  -0.000842   0.157602  -0.005344
 458  14  -2.418887  -1.332644   3.140588  -0.000758   0.157602  -0.004809
 459  14  -1.361719  -2.191868   3.290006  -0.001017   0.157602  -0.006453
 460  14  -0.006518  -2.205686   3.493561  -0.001152   0.157602  -0.007313
 461   5  -2.718927   0.785680   2.778415  -0.000775   0.154560  -0.005015
 462   5  -2.880970  -0.744551   2.737157  -0.000640   0.154560  -0.004138
 463   5  -2.071150  -2.049251   2.844475  -0.000719   0.154560  -0.004652
 464   5  -0.637193  -2.568204   3.054289  -0.001026   0.154560  -0.006641
 465   5   0.577621  -2.327825   3.239549  -0.000554   0.086419  -0.006413
 466  15   1.982319  -3.229145   2.595062  -0.001473   0.209121  -0.007044
 467  15   1.455038  -4.048518   1.441609  -0.004308   0.429604  -0.010029
 468   5   0.761760  -3.133251   2.384322  -0.003187   0.571369  -0.005578
 469   5   0.246402  -3.961205   0.971460  -0.001438   0.294630  -0.004880
 470  16   0.679364  -1.386225  -3.910665  -0.002160   0.299355  -0.007215
 471   5  -0.280388  -0.901965  -3.539328  -0.001189   0.421401  -0.002821
 472   6   3.952656  -1.983695   2.903045  -0.000470   0.066097  -0.007118
 473   7   4.692976  -1.691362   3.011263  -0.000621   0.066097  -0.009390
 474  15   3.984029  -2.272550   2.818579  -0.000648   0.066097  -0.009806
 475   6   5.237047  -1.885946  -2.928109  -0.000328   0.047649  -0.006882
 476   7   5.935690  -1.577544  -2.682245  -0.000706   0.047649  -0.014819
 477  16   5.041825  -1.829652  -3.153844  -0.000282   0.047649  -0.005909
 478   6   5.819982  -2.721913  -1.713619  -0.000827   0.068336  -0.012095
 479   7   6.582978  -2.508484  -1.580388  -0.000813   0.068336  -0.011896
 480  17   6.667825  -2.699410  -1.355652  -0.000979   0.068336  -0.014326
 481   7   4.784973  -0.995932   3.461176  -0.000400   0.255717  -0.001562
 482   6   3.804497  -1.541531   3.157898  -0.000425   0.255717  -0.001662
 483   7   6.517873  -2.136151  -2.117414  -0.002472   0.340767  -0.007253
 484   6   5.441271  -2.330014  -2.544718  -0.001348   0.340767  -0.003956
 485   6   0.437454  -2.637089  -3.074028  -0.000347   0.039586  -0.008755
 486  13  -0.271226  -2.597533  -2.842064  -0.000394   0.039586  -0.009957
 487  16   0.621711  -2.524561  -3.287205  -0.000340   0.039586  -0.008598
 488  13  -0.736609  -2.985855  -2.550222  -0.001222   0.179656  -0.006801
 489  13  -0.664057  -3.690636  -1.437556  -0.003097   0.366125  -0.008459
 490   6   0.383623  -3.382833  -2.325269  -0.002414   0.494177  -0.004884
 491   6   0.444691  -4.077866  -0.997096  -0.001073   0.253240  -0.004236
 492  14   0.976345  -1.699566   3.629165  -0.000974   0.173469  -0.005612
 493  14   1.345775  -0.829687   3.836081  -0.000951   0.173469  -0.005484
 494   6   2.135319  -1.570281   3.278148  -0.001523   0.478142  -0.003185
 495   6   5.142130  -3.651002  -0.825226  -0.000672   0.080358  -0.008361
 496  15   5.078088  -3.806218  -0.572275  -0.000699   0.080358  -0.008705
 497  17   5.973392  -3.465750  -0.476498  -0.001124   0.080358  -0.013983
 498  15   3.412340  -2.635061   2.879804  -0.000499   0.067880  -0.007354
 499  15   2.599335  -2.902231   2.840864  -0.000480   0.067880  -0.007069
 500   6   2.876699  -2.385681   2.928987  -0.001127   0.148901  -0.007572
 501  15   1.558435  -4.538486   0.283966  -0.000523   0.065869  -0.007935
 502  15   2.305396  -4.699144  -0.466979  -0.001135   0.145215  -0.007814
 503  15   3.520623  -4.551796  -0.896934  -0.000969   0.145215  -0.006669
 504  15   4.516249  -4.179847  -0.762527  -0.000581   0.065869  -0.008827
 505   6   1.549295  -4.453157  -0.294587  -0.001234   0.145345  -0.008489
 506   6   2.741823  -4.522229  -1.130418  -0.000930   0.145345  -0.006401
 507   6   4.145839  -4.138322  -1.213261  -0.000881   0.145345  -0.006062
 508  16   4.577519  -2.262520  -3.444780  -0.000373   0.074598  -0.004994
 509  16   3.684955  -3.053683  -3.392485  -0.000829   0.168380  -0.004924
 510  16   2.263455  -3.266160  -3.437887  -0.001117   0.168380  -0.006631
 511  16   1.183792  -2.769795  -3.553174  -0.000519   0.074598  -0.006958
 512   6   4.429974  -2.723527  -3.056763  -0.000753   0.161017  -0.004676
 513   6   3.012141  -3.495327  -3.033270  -0.000744   0.161017  -0.004618
 514   6   1.435051  -3.171191  -3.152420  -0.001119   0.161017  -0.006948
 515  17   6.604308  -3.240508  -0.818829  -0.002769   0.270850  -0.010222
 516   6   5.430235  -3.282503  -1.531527  -0.001295   0.381831  -0.003392
 517   7   6.401947   3.542514   3.083241   0.000475   0.107797   0.004407
 518   8   6.727760   3.766447   3.010880   0.001313   0.107797   0.012182
 519   9   5.948089   4.303863   2.786473   0.000063   0.107797   0.000587
 520   7   7.195801   2.569444  -2.759587   0.000169   0.117051   0.001441
 521   8   7.485829   2.813056  -2.625704   0.000878   0.117051   0.007502
 522  10   6.393088   3.153247  -3.055371  -0.000230   0.117051  -0.001961
 523   8   7.320580   3.298384   3.438969   0.001672   0.142922   0.011697
 524   8   8.440245   2.080917   3.739020   0.003580   0.302532   0.011833
 525   8   9.750483   0.686761   3.018007   0.003923   0.302532   0.012969
 526   8  10.500345  -0.073224   1.274337   0.004505   0.302532   0.014892
 527   8  10.373753   0.121305  -0.757015   0.004043   0.302532   0.013365
 528   8   9.424069   1.188352  -2.219810   0.003597   0.302532   0.011891
 529   8   8.325534   2.386648  -2.647845   0.001550   0.142922   0.010842
 530   7   7.310612   2.483297   3.704020   0.001794   0.297292   0.006035
 531   7   8.753599   0.927082   3.640641   0.002043   0.297292   0.006871
 532   7   9.884516  -0.255460   2.287623   0.002300   0.297292   0.007737
 533   7  10.226667  -0.565873   0.215279   0.002163   0.297292   0.007276
 534   7   9.635833   0.126684  -1.702874   0.002056   0.297292   0.006915
 535   7   8.361055   1.530291  -2.658313   0.001778   0.297292   0.005980
 536   9   5.452076   4.606920   2.912688  -0.000137   0.055556  -0.002466
 537   7   6.147244   3.476228   3.289976   0.000165   0.078474   0.002098
 538   7   5.494163   0.933597  -3.225967  -0.001683   0.311263  -0.005406
 539  10   4.831062   1.661508  -3.586214  -0.001498   0.311263  -0.004813
 540  16   4.593397   0.527975  -3.593071  -0.001605   0.311263  -0.005156
 541  10   5.841534   3.131160  -3.666176  -0.000808   0.229916  -0.003513
 542  10   5.255308   2.400435  -3.857175  -0.000988   0.229916  -0.004299
 543   7   6.577689   1.796671  -3.213074  -0.001751   0.647673  -0.002703
 544   7   5.753394  -2.375462   2.683544  -0.001029   0.082809  -0.012422
 545  15   4.986598  -2.837215   2.407888  -0.001116   0.082809  -0.013478
 546  17   5.909657  -2.596237   2.536533  -0.000977   0.082809  -0.011804
 547  15   4.316137  -2.844609   2.660536  -0.001790   0.238241  -0.007515
 548   7   5.287163  -1.951999   3.110945  -0.001681   0.336325  -0.004998
 549  16   4.707479  -0.393691  -3.854810  -0.001372   0.290634  -0.004721
 550  16   4.954650  -1.514709  -3.541273  -0.001179   0.290634  -0.004057
 551   7   6.154747  -0.497943  -3.110247  -0.005096   0.815046  -0.006252
 552  17   7.343195  -2.716645  -1.290290  -0.000750   0.069250  -0.010832
 553  17   8.390932  -2.455924  -1.037016  -0.001632   0.153398  -0.010636
 554  17   9.313688  -2.158282  -0.110281  -0.001731   0.153398  -0.011281
 555  17   9.486050  -1.991851   1.209378  -0.001737   0.153398  -0.011321
 556  17   8.837625  -2.024605   2.382997  -0.001630   0.153398  -0.010623
 557  17   7.633236  -2.243166   2.931254  -0.001683   0.153398  -0.010971
 558  17   6.560809  -2.496954   2.807292  -0.000855   0.069250  -0.012353
 559   7   7.718183  -2.305249  -1.511388  -0.001778   0.152173  -0.011681
 560   7   9.033620  -1.946646  -0.869949  -0.001590   0.152173  -0.010450
 561   7   9.682802  -1.671546   0.461704  -0.001523   0.152173  -0.010011
 562   7   9.400594  -1.592303   1.939708  -0.001564   0.152173  -0.010277
 563   7   8.302253  -1.741282   2.960429  -0.001555   0.152173  -0.010220
 564   7   6.836356  -2.057636   3.106991  -0.001661   0.152173  -0.010912
 565   9   5.899803   4.973858   2.781632  -0.000528   0.221184  -0.002386
 566   9   6.494075   5.742973   2.109173  -0.001162   0.444909  -0.002611
 567   9   6.882439   6.221600   0.807956  -0.000821   0.444909  -0.001844
 568   9   6.840411   6.133080  -0.369879   0.000055   0.221184   0.000249
 569   8   7.304878   4.536107   2.772740   0.006950   0.543942   0.012778
 570   8   7.978619   5.397439   1.628564   0.008579   0.543942   0.015773
 571   8   8.115199   5.534761   0.057754   0.009119   0.543942   0.016764
 572  10   6.215647   4.006822  -3.329653  -0.000112   0.324209  -0.000347
 573   8   7.746155   3.373434  -2.666585   0.003122   0.412959   0.007559
 574  12   2.442227   5.448666   3.546357   0.000057   0.033310   0.001719
 575   9   3.772947   5.730920   2.984821  -0.000007   0.033310  -0.000225
 576  11   1.094962   6.485874  -2.989892  -0.000378   0.197785  -0.001911
 577  10   2.178994   5.782947  -3.622179  -0.000461   0.197785  -0.002330
 578  16   2.311838   0.760615  -4.424084  -0.000703   0.307045  -0.002289
 579  16   3.570754   0.496861  -4.360213  -0.002142   0.613970  -0.003489
 580  10   3.134715   2.267290  -4.428161  -0.001876   0.613970  -0.003055
 581  10   4.380836   2.005323  -4.235618  -0.000627   0.307045  -0.002041
 582  14   0.715567   1.130361   4.207277  -0.000620   0.231563  -0.002679
 583  14  -0.356572   1.344834   4.341454  -0.001663   0.463119  -0.003590
 584  14  -1.566946   1.588443   3.805457  -0.001443   0.463119  -0.003116
 585  12   0.593330   2.625609   4.289037  -0.001558   0.463119  -0.003364
 586  12  -0.721918   2.889307   4.178450  -0.001656   0.463119  -0.003577
 587  12  -1.604530   3.067474   3.543836  -0.000413   0.231563  -0.001782
 588  16   0.565339  -2.347749  -3.608901  -0.000386   0.204181  -0.001891
 589  13  -0.763538  -2.380620  -3.071466  -0.000384   0.204181  -0.001882
 590  17   6.047156  -3.004209   2.429903  -0.001385   0.218650  -0.006334
 591  17   6.295160  -3.618016   1.567520  -0.003791   0.437366  -0.008668
 592  17   6.432208  -3.762184   0.252663  -0.003728   0.437366  -0.008524
 593  15   4.835899  -3.657953   2.024601  -0.003195   0.437366  -0.007305
 594  15   5.082690  -4.190833   0.831476  -0.003224   0.437366  -0.007371
 595  15   5.132332  -4.102039  -0.250939  -0.000980   0.218650  -0.004480
 =====================================================

              3683370  WORDS OF DYNAMIC MEMORY USED
 EXECUTION OF GAMESS TERMINATED NORMALLY Fri Nov 25 03:12:43 2016
 DDI: 263640 bytes (0.3 MB / 0 MWords) used by master data server.

 ----------------------------------------
 CPU timing information for all processes
 ========================================
 0: 1157.692 + 0.392 = 1158.84
 ----------------------------------------
 ddikick.x: exited gracefully.
