----- GAMESS execution script -----

          ******************************************************
          *         GAMESS VERSION =  5 DEC 2014 (R1)          *
          *             FROM IOWA STATE UNIVERSITY             *
          * M.W.SCHMIDT, K.K.BALDRIDGE, J.A.BOATZ, S.T.ELBERT, *
          *   M.S.GORDON, J.H.JENSEN, S.KOSEKI, N.MATSUNAGA,   *
          *          K.A.NGUYEN, S.J.SU, T.L.WINDUS,           *
          *       TOGETHER WITH M.DUPUIS, J.A.MONTGOMERY       *
          *         J.COMPUT.CHEM.  14, 1347-1363(1993)        *
          **************** 64 BIT LINUX VERSION ****************

 EXECUTION OF GAMESS BEGUN Fri Nov 25 03:12:46 2016

            ECHO OF THE FIRST FEW INPUT CARDS -
 INPUT CARD>! SELECT RESTRICTED HARTREE-FOCK AS DEFAULT                                     
 INPUT CARD>$contrl scftyp=rhf $end                                                         
 INPUT CARD>                                                                                
 INPUT CARD>! THEORY: HF OR DFT                                                             
 INPUT CARD> $contrl mplevl=0 $end                                                          
 INPUT CARD>                                                                                
 INPUT CARD> $system timlim=10000 mwords=20 $end                                            
 INPUT CARD> $SCF DIRSCF=.TRUE. $end                                                        
 INPUT CARD>                                                                                
 INPUT CARD>                                                                                
 INPUT CARD>! BASIS SETS                                                                    
 INPUT CARD>! 6-311G(d,p)                                                                   
 INPUT CARD> $BASIS GBASIS=N311 NGAUSS=6 NDFUNC=1 NPFUNC=1 $END                             
 INPUT CARD>                                                                                
 INPUT CARD>! One of the following                                                          
 INPUT CARD> $guess guess=HUCKEL $end                                                       
 INPUT CARD>                                                                                
 INPUT CARD> $statpt projct=.FALSE. $end                                                    
 INPUT CARD> $STATPT IFREEZ(1)=1,2,3 $END                                                   
 INPUT CARD>                                                                                
 INPUT CARD>! Optimize the geometry with COSMO effects                                      
 INPUT CARD> $statpt opttol=0.0005 nstep=50 $end                                            
 INPUT CARD> $contrl nzvar=1 $end                                                           
 INPUT CARD> $zmat dlc=.t. auto=.t. $end                                                    
 INPUT CARD> $contrl runtyp=OPTIMIZE maxit=200 $end                                         
 INPUT CARD>                                                                                
 INPUT CARD>! Run COSMO on perfect conductor                                                
 INPUT CARD> $COSGMS PRFCND=.TRUE. $end                                                     
 INPUT CARD>                                                                                
 INPUT CARD>! Specifying RSOLV                                                              
 INPUT CARD> $COSGMS COSRAD = 1.4 $end                                                      
 INPUT CARD>                                                                                
 INPUT CARD>! available memory                                                              
 INPUT CARD> $SYSTEM MWORDS=40 $END                                                         
 INPUT CARD>                                                                                
 INPUT CARD> $DATA                                                                          
 INPUT CARD>Heptanoic acid, ID: C111148                                                     
 INPUT CARD>C1                                                                              
 INPUT CARD>C      6.0      6.3928000000    1.1638000000    1.2908000000                    
 INPUT CARD>C      6.0      5.1877000000    1.2359000000    2.2138000000                    
 INPUT CARD>C      6.0      3.8969000000    1.0407000000    1.4347000000                    
 INPUT CARD>C      6.0      7.6949000000    1.3516000000    2.0208000000                    
 INPUT CARD>C      6.0      2.6863000000    1.1105000000    2.3521000000                    
 INPUT CARD>O      8.0      8.7950000000    1.2872000000    1.2295000000                    
 INPUT CARD>O      8.0      7.9181000000    1.5511000000    3.2011000000                    
 INPUT CARD>C      6.0      1.3782000000    0.8929000000    1.6070000000                    
 INPUT CARD>C      6.0      0.9666000000    2.0957000000    0.7871000000                    
 INPUT CARD>H      1.0      6.3157000000    1.9319000000    0.4940000000                    
 INPUT CARD>H      1.0      6.4158000000    0.1870000000    0.7645000000                    
 INPUT CARD>H      1.0      5.2730000000    0.4697000000    3.0107000000                    
   40000000 WORDS OF MEMORY AVAILABLE

     BASIS OPTIONS
     -------------
     GBASIS=N311         IGAUSS=       6      POLAR=POPN311 
     NDFUNC=       1     NFFUNC=       0     DIFFSP=       F
     NPFUNC=       1      DIFFS=       F     BASNAM=        


     RUN TITLE
     ---------
 Heptanoic acid, ID: C111148                                                     

 THE POINT GROUP OF THE MOLECULE IS C1      
 THE ORDER OF THE PRINCIPAL AXIS IS     0

 ATOM      ATOMIC                      COORDINATES (BOHR)
           CHARGE         X                   Y                   Z
 C           6.0    12.0806402943        2.1992631045        2.4392583050
 C           6.0     9.8033315065        2.3355123482        4.1834753916
 C           6.0     7.3640732016        1.9666378354        2.7111898746
 C           6.0    14.5412525029        2.5541536450        3.8187582760
 C           6.0     5.0763709208        2.0985407094        4.4448244957
 O           8.0    16.6201400620        2.4324552914        2.3234181019
 O           8.0    14.9630393434        2.9311539796        6.0492018593
 C           6.0     2.6044203563        1.6873363344        3.0367896623
 C           6.0     1.8266091397        3.9602987525        1.4874033249
 H           1.0    11.9349424207        3.6507616357        0.9335246379
 H           1.0    12.1241039920        0.3533787597        1.4446955176
 H           1.0     9.9645251333        0.8876042964        5.6893980312
 H           1.0     9.7715841099        4.1770503233        5.1820066035
 H           1.0     7.2085487528        3.4183253392        1.2064010706
 H           1.0     7.4007338857        0.1254778056        1.7113358545
 H           1.0     5.2642096840        0.6572466985        5.9539596695
 H           1.0     5.0368756477        3.9442360816        5.4365526941
 H           1.0    18.0997955104        2.6720725466        3.3185478070
 H           1.0     1.0973638811        1.2417389465        4.4204470305
 H           1.0     2.7580550791        0.0000000000        1.8054442087
 H           1.0     1.6372585958        5.6610521414        2.6614900811
 H           1.0     3.2087547272        4.3917231955        0.0000000000
 H           1.0     0.0000000000        3.6428247865        0.5576581390

          INTERNUCLEAR DISTANCES (ANGS.)




     $CONTRL OPTIONS
     ---------------
 SCFTYP=RHF          RUNTYP=OPTIMIZE     EXETYP=RUN     
 MPLEVL=       0     CITYP =NONE         CCTYP =NONE         VBTYP =NONE    
 DFTTYP=NONE         TDDFT =NONE    
 MULT  =       1     ICHARG=       0     NZVAR =       1     COORD =UNIQUE  
 PP    =NONE         RELWFN=NONE         LOCAL =NONE         NUMGRD=       F
 ISPHER=      -1     NOSYM =       0     MAXIT =     200     UNITS =ANGS    
 PLTORB=       F     MOLPLT=       F     AIMPAC=       F     FRIEND=        
 NPRINT=       7     IREST =       0     GEOM  =INPUT   
 NORMF =       0     NORMP =       0     ITOL  =      20     ICUT  =       9
 INTTYP=BEST         GRDTYP=BEST         QMTTOL= 1.0E-06

     $SYSTEM OPTIONS
     ---------------
  REPLICATED MEMORY=    40000000 WORDS (ON EVERY NODE).
 DISTRIBUTED MEMDDI=           0 MILLION WORDS IN AGGREGATE,
 MEMDDI DISTRIBUTED OVER   1 PROCESSORS IS           0 WORDS/PROCESSOR.
 TOTAL MEMORY REQUESTED ON EACH PROCESSOR=    40000000 WORDS.
 TIMLIM=       10000.00 MINUTES, OR       6.9 DAYS.
 PARALL= F  BALTYP=  DLB     KDIAG=    0  COREFL= F
 MXSEQ2=     300 MXSEQ3=     150  mem10=         0

     $COSGMS OPTIONS
     ---------------
     EPSI  =   INFTY     NSPA  =      92     COSRAD=    1.40
     DISEX =   10.00     OUTCHG=DBLCAV       COSBUG=       F
     COSWRT=       F     DCOSMO=       F

     SYMMETRY COORDINATES WILL NOT BE USED FOR 
     THE COSMO CALCULATION, EVEN IF SPECIFIED:
         -- SWITCHING TO C1 POINT GROUP --


     DEFINITION OF CAVITY
     ---------------------------
     ATOM         COORDINATES           RADIUS 
     1   12.0806    2.1993    2.4393    2.0000
     2    9.8033    2.3355    4.1835    2.0000
     3    7.3641    1.9666    2.7112    2.0000
     4   14.5413    2.5542    3.8188    2.0000
     5    5.0764    2.0985    4.4448    2.0000
     6   16.6201    2.4325    2.3234    1.7200
     7   14.9630    2.9312    6.0492    1.7200
     8    2.6044    1.6873    3.0368    2.0000
     9    1.8266    3.9603    1.4874    2.0000
    10   11.9349    3.6508    0.9335    1.3000
    11   12.1241    0.3534    1.4447    1.3000
    12    9.9645    0.8876    5.6894    1.3000
    13    9.7716    4.1771    5.1820    1.3000
    14    7.2085    3.4183    1.2064    1.3000
    15    7.4007    0.1255    1.7113    1.3000
    16    5.2642    0.6572    5.9540    1.3000
    17    5.0369    3.9442    5.4366    1.3000
    18   18.0998    2.6721    3.3185    1.3000
    19    1.0974    1.2417    4.4204    1.3000
    20    2.7581    0.0000    1.8054    1.3000
    21    1.6373    5.6611    2.6615    1.3000
    22    3.2088    4.3917    0.0000    1.3000
    23    0.0000    3.6428    0.5577    1.3000

          ----------------
          PROPERTIES INPUT
          ----------------

     MOMENTS            FIELD           POTENTIAL          DENSITY
 IEMOM =       1   IEFLD =       0   IEPOT =       0   IEDEN =       0
 WHERE =COMASS     WHERE =NUCLEI     WHERE =NUCLEI     WHERE =NUCLEI  
 OUTPUT=BOTH       OUTPUT=BOTH       OUTPUT=BOTH       OUTPUT=BOTH    
 IEMINT=       0   IEFINT=       0                     IEDINT=       0
                                                       MORB  =       0
          EXTRAPOLATION IN EFFECT
          SOSCF IN EFFECT
 ORBITAL PRINTING OPTION: NPREO=     1   255     2     1

     -------------------------------
     INTEGRAL TRANSFORMATION OPTIONS
     -------------------------------
     NWORD  =            0
     CUTOFF = 1.0E-09     MPTRAN =       0
     DIRTRF =       T     AOINTS =DUP     

          ----------------------
          INTEGRAL INPUT OPTIONS
          ----------------------
 NOPK  =       1 NORDER=       0 SCHWRZ=       T


 -----------------------------------------------
  STATISTICS ON AUTOMATIC COORDINATE GENERATION 
 -----------------------------------------------
  NUMBER OF USER SPECIFIED BONDS                             0
  NUMBER OF BONDS                                           22
  NUMBER OF ANGLES                                          40
  NUMBER OF TORSIONS                                        53
  NUMBER OF EXTRA COORD.                                     0
  NUMBER OF EXTRA COORD. FOR CONSTRAINTS                     0
  NUMBER OF CONSTRAINED COORD.                               0

  TOTAL NUMBER OF PRIMITIVES                               115
 -----------------------------------------------

   --- ENCODED Z MATRIX ---
 COORD  TYPE   I   J   K   L   M   N
    1      1    1   2
    2      1    1  11
    3      1    1   4
    4      1    1  10
    5      1    2  13
    6      1    2   3
    7      1    2  12
    8      1    3  15
    9      1    3  14
   10      1    3   5
   11      1    4   7
   12      1    4   6
   13      1    5  16
   14      1    5   8
   15      1    5  17
   16      1    6  18
   17      1    8  20
   18      1    8  19
   19      1    8   9
   20      1    9  23
   21      1    9  22
   22      1    9  21
   23      2    1   2  13
   24      2    1   4   6
   25      2    1   2  12
   26      2    1   2   3
   27      2    1   4   7
   28      2    2   3  15
   29      2    2   3   5
   30      2    2   1   4
   31      2    2   3  14
   32      2    2   1  11
   33      2    2   1  10
   34      2    3   2  12
   35      2    3   2  13
   36      2    3   5   8
   37      2    3   5  16
   38      2    3   5  17
   39      2    4   1  10
   40      2    4   6  18
   41      2    4   1  11
   42      2    5   8  19
   43      2    5   8  20
   44      2    5   3  14
   45      2    5   3  15
   46      2    5   8   9
   47      2    6   4   7
   48      2    8   5  17
   49      2    8   5  16
   50      2    8   9  21
   51      2    8   9  22
   52      2    8   9  23
   53      2    9   8  19
   54      2    9   8  20
   55      2   10   1  11
   56      2   12   2  13
   57      2   14   3  15
   58      2   16   5  17
   59      2   19   8  20
   60      2   21   9  22
   61      2   21   9  23
   62      2   22   9  23
   63      3    1   2   3  14
   64      3    1   4   6  18
   65      3    1   2   3  15
   66      3    1   2   3   5
   67      3    2   3   5  17
   68      3    2   3   5   8
   69      3    2   3   5  16
   70      3    2   1   4   6
   71      3    2   1   4   7
   72      3    3   5   8   9
   73      3    3   5   8  19
   74      3    3   5   8  20
   75      3    3   2   1  10
   76      3    3   2   1   4
   77      3    3   2   1  11
   78      3    4   1   2  13
   79      3    4   1   2  12
   80      3    5   3   2  12
   81      3    5   3   2  13
   82      3    5   8   9  21
   83      3    5   8   9  22
   84      3    5   8   9  23
   85      3    6   4   1  10
   86      3    6   4   1  11
   87      3    7   4   1  10
   88      3    7   4   1  11
   89      3    7   4   6  18
   90      3    8   5   3  14
   91      3    8   5   3  15
   92      3    9   8   5  17
   93      3    9   8   5  16
   94      3   10   1   2  13
   95      3   10   1   2  12
   96      3   11   1   2  13
   97      3   11   1   2  12
   98      3   12   2   3  15
   99      3   12   2   3  14
  100      3   13   2   3  15
  101      3   13   2   3  14
  102      3   14   3   5  17
  103      3   14   3   5  16
  104      3   15   3   5  17
  105      3   15   3   5  16
  106      3   16   5   8  20
  107      3   16   5   8  19
  108      3   17   5   8  20
  109      3   17   5   8  19
  110      3   19   8   9  23
  111      3   19   8   9  22
  112      3   19   8   9  21
  113      3   20   8   9  23
  114      3   20   8   9  22
  115      3   20   8   9  21

          INDEP./SYM. INTERNAL COORDINATES
          --------------------------------
 CRD  1=   0.1289 ( 23) -0.1454 ( 24)  0.1507 ( 25) -0.4530 ( 26) -0.1257 ( 28)
           0.4247 ( 29)  0.3185 ( 30) -0.1358 ( 31) -0.1063 ( 33)  0.1411 ( 34)
           0.1373 ( 35) -0.3734 ( 36)  0.1402 ( 37)  0.1060 ( 38) -0.1447 ( 44)
          -0.1170 ( 45) -0.1014 ( 46)  0.1041 ( 48)  0.1073 ( 49)
 CRD  2=  -0.1570 (  6) -0.1073 ( 10) -0.1941 ( 14)  0.1324 ( 28) -0.1284 ( 29)
          -0.2442 ( 30) -0.2303 ( 36)  0.1314 ( 41)  0.1515 ( 42)  0.1665 ( 43)
          -0.5190 ( 46)  0.1587 ( 49)  0.1747 ( 53)  0.1386 ( 54)  0.1408 ( 66)
          -0.2401 ( 68) -0.1271 ( 69)  0.1149 ( 73) -0.1615 ( 76) -0.1037 ( 77)
          -0.1144 ( 90) -0.1211 ( 91)
 CRD  3=   0.1192 (  1)  0.1052 (  3)  0.1980 (  6)  0.1246 ( 10)  0.1242 ( 14)
          -0.1421 ( 24)  0.1396 ( 27)  0.3800 ( 30) -0.1169 ( 33)  0.3995 ( 36)
          -0.1355 ( 37) -0.1997 ( 39)  0.1114 ( 43) -0.1318 ( 46) -0.2256 ( 48)
           0.1316 ( 66) -0.1493 ( 67) -0.2326 ( 68) -0.1085 ( 69)  0.1071 ( 70)
          -0.1410 ( 75) -0.2180 ( 76) -0.1041 ( 77) -0.1013 ( 90) -0.1121 ( 91)
 CRD  4=  -0.2686 (  1) -0.1521 (  3) -0.2583 (  6) -0.2665 ( 10) -0.1699 ( 14)
           0.1716 ( 23) -0.2234 ( 24) -0.3275 ( 26)  0.1035 ( 28) -0.4401 ( 29)
           0.1654 ( 30)  0.1226 ( 31) -0.1150 ( 32)  0.1434 ( 36) -0.1083 ( 37)
           0.2049 ( 44)  0.1199 ( 45)  0.1234 ( 47) -0.1176 ( 66)
 CRD  5=   0.1072 (  1)  0.1047 ( 10)  0.1117 ( 23) -0.1793 ( 25)  0.1015 ( 26)
           0.1144 ( 29) -0.1214 ( 32)  0.1261 ( 33) -0.1236 ( 37)  0.1936 ( 38)
           0.1545 ( 42)  0.1319 ( 44) -0.2143 ( 45) -0.2640 ( 46) -0.1508 ( 50)
           0.1798 ( 54) -0.1697 ( 63) -0.1805 ( 65) -0.3519 ( 66) -0.2106 ( 70)
          -0.1354 ( 71) -0.2450 ( 72) -0.1425 ( 73) -0.1787 ( 74) -0.2012 ( 80)
          -0.1909 ( 81) -0.1013 ( 92) -0.1122 ( 93)
 CRD  6=   0.1814 (  1)  0.1584 (  3)  0.1297 (  6) -0.1728 ( 19)  0.2585 ( 26)
           0.1168 ( 27) -0.1066 ( 29)  0.2840 ( 30)  0.1645 ( 31) -0.2353 ( 34)
           0.1351 ( 37) -0.1994 ( 41)  0.1247 ( 43) -0.2935 ( 46) -0.1739 ( 51)
           0.1710 ( 53)  0.1251 ( 67)  0.1308 ( 68)  0.1031 ( 69)  0.1832 ( 72)
           0.1202 ( 73)  0.1370 ( 75)  0.2347 ( 76)  0.1469 ( 77)  0.1085 ( 78)
           0.1041 ( 79)
 CRD  7=  -0.1442 ( 10) -0.1392 ( 14) -0.1472 ( 24)  0.2778 ( 26)  0.1261 ( 27)
           0.1721 ( 28) -0.2433 ( 29)  0.2351 ( 30) -0.2086 ( 35) -0.3982 ( 36)
           0.1611 ( 38) -0.1567 ( 39)  0.1028 ( 40) -0.1989 ( 43)  0.2452 ( 46)
           0.1413 ( 48)  0.1553 ( 49)  0.1050 ( 51) -0.1084 ( 53) -0.1567 ( 76)
          -0.1071 ( 82)
 CRD  8=  -0.1176 (  1) -0.4032 (  3)  0.1397 ( 10) -0.1301 ( 12) -0.1970 ( 16)
          -0.1145 ( 23) -0.5535 ( 24) -0.1058 ( 25)  0.1910 ( 26)  0.1264 ( 27)
           0.1156 ( 29) -0.1469 ( 30)  0.1450 ( 32)  0.1399 ( 33)  0.1312 ( 40)
           0.4272 ( 47)  0.1010 ( 95)
 CRD  9=   0.1039 ( 10) -0.1473 ( 19) -0.1508 ( 23)  0.1797 ( 25) -0.1290 ( 28)
           0.2035 ( 32) -0.2010 ( 33) -0.1172 ( 34)  0.1268 ( 35)  0.1648 ( 42)
          -0.1166 ( 43) -0.2919 ( 50)  0.1901 ( 51) -0.1687 ( 53)  0.2359 ( 54)
           0.1010 ( 61)  0.1722 ( 63)  0.1374 ( 65)  0.1381 ( 66)  0.1184 ( 67)
           0.1121 ( 68)  0.2618 ( 70)  0.2071 ( 71) -0.2531 ( 72) -0.1024 ( 74)
          -0.1656 ( 92) -0.1841 ( 93)
 CRD 10=   0.1213 ( 10) -0.2129 ( 14) -0.5732 ( 19) -0.1346 ( 39)  0.1231 ( 41)
          -0.2068 ( 49) -0.1674 ( 51) -0.2500 ( 52)  0.1313 ( 60)  0.1622 ( 61)
           0.2028 ( 62) -0.1314 ( 64)  0.1209 ( 68) -0.2101 ( 76) -0.1390 ( 78)
          -0.1459 ( 79)  0.1401 ( 90)  0.1229 ( 91)
 CRD 11=  -0.1228 (  1) -0.4785 ( 12) -0.1571 ( 16)  0.4073 ( 27) -0.6143 ( 40)
          -0.3653 ( 47)
 CRD 12=   0.2534 (  6) -0.3964 ( 10) -0.2314 ( 14) -0.1118 ( 18) -0.1046 ( 19)
           0.1499 ( 29) -0.1895 ( 42)  0.1544 ( 43) -0.1614 ( 44) -0.1592 ( 45)
          -0.2013 ( 50)  0.3554 ( 51) -0.2433 ( 52)  0.1868 ( 61)  0.1457 ( 82)
           0.1802 ( 83)  0.2103 ( 84) -0.1019 ( 90)
 CRD 13=   0.3092 (  1) -0.1308 (  3) -0.2788 (  6)  0.2242 ( 10) -0.3603 ( 14)
           0.1010 ( 25) -0.1221 ( 31)  0.1023 ( 38) -0.1295 ( 40) -0.1439 ( 41)
          -0.1858 ( 48)  0.1979 ( 50)  0.1416 ( 51) -0.2760 ( 52) -0.1512 ( 60)
           0.1092 ( 64) -0.1275 ( 68) -0.1189 ( 69) -0.1065 ( 70)  0.1355 ( 78)
          -0.1345 ( 86) -0.1229 ( 91) -0.1143 (105)
 CRD 14=  -0.2562 (  1)  0.1162 (  3)  0.1169 (  6)  0.1117 (  8)  0.1071 ( 14)
          -0.2166 ( 19) -0.1158 ( 23)  0.1234 ( 28) -0.1961 ( 33)  0.2128 ( 39)
           0.1494 ( 42)  0.1436 ( 49)  0.3217 ( 50) -0.1786 ( 51) -0.3349 ( 52)
          -0.1316 ( 53) -0.1024 ( 54)  0.2262 ( 62) -0.1077 ( 67) -0.1747 ( 68)
          -0.1012 ( 74)  0.1140 ( 76)  0.1458 ( 79) -0.1096 ( 85) -0.1083 ( 90)
 CRD 15=   0.1738 (  1) -0.1655 (  6)  0.4085 ( 14) -0.2288 ( 19)  0.1132 ( 33)
          -0.1652 ( 38)  0.1703 ( 42)  0.1637 ( 48) -0.3113 ( 50)  0.2019 ( 51)
          -0.2193 ( 53)  0.1746 ( 61)  0.1212 ( 64) -0.1348 ( 67) -0.1006 ( 68)
          -0.1742 ( 70)  0.1785 ( 73)  0.1283 ( 81) -0.1181 ( 86) -0.1108 (108)
           0.1037 (110)
 CRD 16=  -0.3533 (  1)  0.1867 (  3) -0.1085 (  5)  0.1140 (  8)  0.2965 ( 10)
           0.1120 ( 11) -0.1575 ( 14) -0.1240 ( 25) -0.1038 ( 28) -0.2702 ( 32)
           0.1751 ( 37)  0.1937 ( 41) -0.1642 ( 43)  0.2024 ( 45) -0.1162 ( 49)
           0.1967 ( 51)  0.1750 ( 54) -0.2015 ( 70) -0.1589 ( 71)  0.1201 ( 74)
           0.1935 ( 80) -0.1303 ( 85) -0.1087 ( 93)  0.1034 ( 99)
 CRD 17=   0.1660 (  1) -0.2161 (  3)  0.2910 (  6)  0.1587 (  7) -0.1613 ( 10)
          -0.1356 ( 11) -0.1437 ( 27)  0.2696 ( 31) -0.1164 ( 32)  0.2231 ( 33)
           0.1189 ( 35) -0.1473 ( 37) -0.2217 ( 39)  0.1010 ( 41)  0.1489 ( 42)
          -0.2027 ( 44)  0.1205 ( 45)  0.1308 ( 49)  0.2566 ( 50) -0.2027 ( 52)
           0.1179 ( 62)  0.1062 ( 67)  0.1312 ( 69) -0.1190 ( 71) -0.1224 ( 78)
           0.1022 ( 81) -0.1143 ( 90)
 CRD 18=   0.2188 (  3) -0.1043 (  5) -0.3424 (  6) -0.1064 (  8)  0.1453 ( 11)
           0.1873 ( 14)  0.1595 ( 27) -0.2061 ( 28) -0.1579 ( 32)  0.1068 ( 33)
          -0.2165 ( 34) -0.1431 ( 37)  0.1297 ( 38) -0.1158 ( 39)  0.2219 ( 41)
           0.2126 ( 43) -0.1173 ( 48)  0.1610 ( 49) -0.1730 ( 52) -0.1360 ( 54)
          -0.1124 ( 64)  0.1010 ( 67)  0.1449 ( 69)  0.1408 ( 77) -0.1644 ( 79)
           0.1049 ( 86) -0.1221 ( 91)
 CRD 19=  -0.2933 ( 23)  0.2900 ( 25)  0.2286 ( 28) -0.1934 ( 31) -0.1813 ( 32)
           0.1798 ( 33) -0.2632 ( 34)  0.2950 ( 35) -0.1974 ( 39)  0.1767 ( 41)
           0.2186 ( 44) -0.2142 ( 45)  0.1106 ( 52)  0.1844 ( 63)  0.1840 ( 65)
          -0.1158 ( 67) -0.1400 ( 69) -0.1139 ( 71)  0.1653 ( 75)  0.1552 ( 77)
          -0.1127 ( 78) -0.1218 ( 80) -0.1262 ( 81)
 CRD 20=  -0.1419 (  3) -0.1208 (  4)  0.1010 (  5)  0.1445 (  6)  0.1951 (  9)
           0.2122 ( 10) -0.1064 ( 11)  0.1069 ( 13)  0.1536 ( 14)  0.1891 ( 18)
           0.1647 ( 19) -0.1139 ( 20)  0.1306 ( 21) -0.1160 ( 27)  0.1103 ( 28)
          -0.1215 ( 29)  0.1218 ( 37)  0.1049 ( 43)  0.1852 ( 44) -0.1617 ( 46)
           0.1431 ( 48)  0.3750 ( 51) -0.2813 ( 52)  0.1048 ( 53) -0.1074 ( 59)
          -0.2227 ( 60)  0.1019 ( 61) -0.1199 ( 64) -0.1357 ( 66)  0.1494 ( 70)
          -0.1145 ( 80) -0.1299 ( 81)
 CRD 21=  -0.1660 (  1) -0.1304 (  2) -0.2396 (  3) -0.1221 (  4)  0.1260 (  8)
           0.2630 ( 10) -0.2024 ( 11)  0.1086 ( 13)  0.1283 ( 15) -0.1021 ( 17)
           0.1536 ( 24) -0.2026 ( 27)  0.1634 ( 30)  0.1053 ( 31) -0.1462 ( 36)
           0.2808 ( 38) -0.1893 ( 42)  0.1395 ( 43)  0.1284 ( 45)  0.1199 ( 46)
          -0.1736 ( 48)  0.1637 ( 49) -0.1870 ( 50)  0.1349 ( 52) -0.2230 ( 54)
           0.1078 ( 55)  0.1220 ( 60) -0.1019 ( 74)  0.1022 ( 82) -0.1094 ( 90)
           0.1327 ( 92)
 CRD 22=  -0.2640 (  1) -0.1804 (  2) -0.2359 (  3) -0.1747 (  4) -0.1751 (  5)
          -0.2501 (  6) -0.1739 (  7) -0.1511 (  8) -0.1414 (  9) -0.1813 ( 10)
          -0.2320 ( 11)  0.1720 ( 24)  0.2453 ( 26) -0.2015 ( 27)  0.1959 ( 29)
           0.2487 ( 30) -0.1028 ( 31) -0.1116 ( 32) -0.1186 ( 33) -0.1055 ( 35)
           0.1123 ( 36) -0.1351 ( 38)  0.1061 ( 54)  0.1549 ( 55)  0.1382 ( 56)
           0.1134 ( 57)
 CRD 23=  -0.2896 (  5)  0.2913 (  7) -0.2211 ( 13)  0.3020 ( 15)  0.1537 ( 17)
           0.1082 ( 43) -0.1003 ( 46)  0.1467 ( 53)  0.1694 ( 63)  0.2215 ( 64)
           0.1632 ( 65)  0.1205 ( 66)  0.1431 ( 68) -0.1830 ( 70) -0.1710 ( 73)
          -0.1139 ( 74) -0.1513 ( 75) -0.1257 ( 76) -0.1510 ( 77) -0.2243 ( 85)
          -0.2238 ( 86) -0.1122 ( 87) -0.1116 ( 88)  0.1273 ( 89)  0.1599 ( 90)
           0.1567 ( 91)
 CRD 24=   0.1120 ( 13)  0.2109 ( 15)  0.4704 ( 17) -0.3920 ( 18) -0.1585 ( 21)
           0.1408 ( 22) -0.1088 ( 36)  0.2223 ( 37)  0.1131 ( 43)  0.1312 ( 48)
          -0.1194 ( 49)  0.1490 ( 50) -0.1315 ( 51) -0.1162 ( 61)  0.1030 ( 62)
          -0.1451 ( 72)  0.1801 ( 82)  0.1822 ( 83)  0.2257 ( 84) -0.1818 ( 92)
          -0.2711 ( 93)
 CRD 25=   0.1484 (  2) -0.1477 (  4) -0.2933 (  8)  0.3036 (  9)  0.2904 ( 13)
          -0.2693 ( 15) -0.1317 ( 18) -0.1252 ( 23)  0.1272 ( 25)  0.1075 ( 31)
           0.1375 ( 32) -0.1380 ( 33) -0.1108 ( 34)  0.1102 ( 35) -0.1111 ( 53)
           0.1317 ( 64)  0.1370 ( 73)  0.1043 ( 74) -0.1412 ( 78) -0.1418 ( 79)
          -0.1387 ( 80) -0.1379 ( 81) -0.1984 ( 85) -0.1982 ( 86) -0.1565 ( 87)
          -0.1563 ( 88) -0.1133 ( 90) -0.1095 ( 91) -0.1153 ( 94) -0.1159 ( 95)
          -0.1152 ( 96) -0.1158 ( 97)
 CRD 26=   0.1732 ( 19)  0.4797 ( 20)  0.5022 ( 21)  0.5039 ( 22) -0.1766 ( 50)
          -0.1785 ( 51) -0.1937 ( 52)  0.1898 ( 60)  0.1987 ( 61)  0.2012 ( 62)
 CRD 27=   0.2348 (  2) -0.2355 (  4)  0.2597 (  5) -0.2618 (  7)  0.2442 (  8)
          -0.2533 (  9) -0.1914 ( 13)  0.1388 ( 15)  0.1296 ( 18)  0.1002 ( 32)
          -0.1225 ( 34)  0.1231 ( 35) -0.1242 ( 44)  0.1261 ( 45)  0.1210 ( 48)
          -0.1090 ( 49)  0.1172 ( 53) -0.1153 ( 63) -0.1170 ( 65) -0.1159 ( 67)
          -0.1098 ( 69) -0.1079 ( 73) -0.1357 ( 78) -0.1351 ( 79) -0.1394 ( 85)
          -0.1397 ( 86) -0.1225 ( 87) -0.1228 ( 88) -0.1044 ( 98) -0.1026 ( 99)
          -0.1053 (100) -0.1035 (101) -0.1119 (102) -0.1058 (103) -0.1148 (104)
          -0.1086 (105) -0.1041 (107) -0.1036 (108) -0.1158 (109)
 CRD 28=   0.2668 (  2) -0.2668 (  4)  0.2195 (  5) -0.2181 (  7)  0.1517 (  8)
          -0.1465 (  9)  0.1035 ( 15)  0.1295 ( 17)  0.1209 ( 28) -0.1173 ( 31)
          -0.1238 ( 37)  0.1356 ( 38) -0.1027 ( 43) -0.1314 ( 48)  0.1159 ( 49)
          -0.1284 ( 53)  0.1344 ( 54)  0.1030 ( 64)  0.1012 ( 73)  0.1029 ( 74)
          -0.1191 ( 85) -0.1190 ( 86)  0.1009 ( 91)  0.1000 (100)  0.1686 (102)
           0.1604 (103)  0.1705 (104)  0.1623 (105)  0.1777 (106)  0.1760 (107)
           0.1831 (108)  0.1814 (109)  0.1003 (113)
 CRD 29=   0.5168 (  2)  0.5255 (  4)  0.1508 ( 11) -0.1435 ( 16) -0.1457 ( 20)
          -0.1811 ( 27) -0.1349 ( 32) -0.1352 ( 33) -0.2479 ( 40)  0.1754 ( 47)
           0.2580 ( 55) -0.1344 ( 85)  0.1368 ( 86) -0.1348 ( 87)  0.1363 ( 88)
 CRD 30=   0.1336 (  2)  0.1146 (  4) -0.1517 ( 17) -0.1524 ( 18)  0.6195 ( 20)
          -0.2859 ( 21) -0.2921 ( 22) -0.3201 ( 60)  0.1545 ( 61)  0.1571 ( 62)
           0.1652 ( 82) -0.1706 ( 83) -0.1580 (111)  0.1779 (112) -0.1826 (114)
           0.1533 (115)
 CRD 31=   0.5437 ( 21) -0.5422 ( 22) -0.2896 ( 61)  0.2885 ( 62)  0.2289 ( 84)
           0.2290 (110)  0.2294 (113)
 CRD 32=  -0.1276 (  4) -0.2621 (  5) -0.2647 (  7)  0.3476 (  8)  0.3960 (  9)
           0.1448 ( 11) -0.2753 ( 13) -0.3678 ( 15)  0.2263 ( 17)  0.1513 ( 18)
          -0.1483 ( 40)  0.1273 ( 57) -0.1142 ( 58)  0.1395 (100)  0.1174 (103)
          -0.1073 (106)
 CRD 33=   0.2792 (  2) -0.1292 (  3)  0.2420 (  4)  0.1513 (  8)  0.1683 (  9)
          -0.4619 ( 11) -0.2221 ( 12) -0.1008 ( 13) -0.1343 ( 15)  0.2448 ( 16)
           0.2365 ( 27)  0.4745 ( 40) -0.2639 ( 47)
 CRD 34=  -0.2738 (  2)  0.2742 (  4)  0.1764 (  8)  0.1927 ( 15)  0.2306 ( 17)
           0.2534 ( 18) -0.1167 ( 21)  0.1016 ( 39) -0.1026 ( 41) -0.1251 ( 43)
          -0.1114 ( 53) -0.1213 ( 63) -0.1364 ( 64)  0.1131 ( 73) -0.1085 ( 75)
          -0.1095 ( 77) -0.1627 ( 94) -0.1511 ( 95) -0.1637 ( 96) -0.1522 ( 97)
          -0.1464 ( 98) -0.1726 ( 99) -0.1302 (100) -0.1564 (101)  0.1006 (106)
           0.1785 (107)  0.1677 (109)  0.1068 (112)  0.1189 (113)  0.1461 (114)
           0.1914 (115)
 CRD 35=  -0.4103 (  5) -0.4071 (  7)  0.1928 (  8)  0.1633 (  9)  0.2252 ( 13)
           0.3173 ( 15) -0.3283 ( 17) -0.2656 ( 18) -0.1598 ( 56)  0.1159 ( 58)
          -0.1193 ( 59) -0.1183 ( 99)  0.1238 (106) -0.1016 (109)
 CRD 36=   0.3637 (  5) -0.1087 (  6)  0.3620 (  7)  0.4167 (  8)  0.3826 (  9)
          -0.2044 ( 17) -0.1904 ( 18)  0.1708 ( 56)  0.1877 ( 57) -0.1057 ( 95)
           0.1113 ( 98) -0.1441 (101)
 CRD 37=  -0.1018 (  2)  0.1038 (  4) -0.1608 (  9) -0.5136 ( 13) -0.2840 ( 15)
          -0.2633 ( 17) -0.4171 ( 18) -0.1834 ( 58) -0.1487 ( 59)  0.1164 ( 92)
           0.2118 (108)  0.1106 (110)  0.1332 (111)
 CRD 38=  -0.2393 (  2)  0.2393 (  4)  0.2172 (  5) -0.2167 (  7)  0.2435 ( 13)
          -0.2089 ( 15)  0.1082 ( 17) -0.1235 ( 18) -0.1275 ( 64)  0.1269 ( 67)
           0.1247 ( 69) -0.1070 ( 75) -0.1081 ( 77) -0.1044 ( 78) -0.1027 ( 79)
           0.1015 ( 90) -0.1781 ( 94) -0.1765 ( 95) -0.1792 ( 96) -0.1776 ( 97)
           0.1751 (102)  0.1729 (103)  0.1693 (104)  0.1672 (105) -0.1343 (110)
          -0.1532 (111) -0.1502 (112) -0.1352 (113) -0.1541 (114) -0.1511 (115)
 CRD 39=  -0.1378 (  2)  0.1371 (  4)  0.3121 (  5) -0.3120 (  7) -0.3567 (  8)
           0.3588 (  9) -0.2038 ( 13)  0.2020 ( 15)  0.1251 ( 63)  0.1291 ( 65)
           0.1160 ( 80)  0.1181 ( 81) -0.1030 ( 90)  0.2011 ( 98)  0.1970 ( 99)
           0.2032 (100)  0.1991 (101) -0.1364 (102) -0.1424 (103) -0.1318 (104)
          -0.1378 (105)
 CRD 40=   0.1166 (  8) -0.1120 (  9)  0.1831 ( 13) -0.1849 ( 15) -0.3169 ( 17)
           0.3227 ( 18)  0.1067 ( 37) -0.1354 ( 73) -0.1070 ( 74)  0.1639 ( 82)
           0.1624 ( 83)  0.1952 ( 84) -0.1066 ( 92) -0.1824 ( 93) -0.1992 (106)
          -0.2275 (107) -0.1234 (108) -0.1517 (109)  0.2522 (110)  0.2194 (111)
           0.2210 (112)  0.2271 (113)  0.1942 (114)  0.1958 (115)
 CRD 41=   0.1998 (  3) -0.3457 ( 11) -0.3810 ( 12) -0.6289 ( 16) -0.1632 ( 27)
          -0.1293 ( 32) -0.1271 ( 33)  0.1407 ( 39)  0.2132 ( 40)  0.1410 ( 41)
           0.1433 ( 47) -0.1321 ( 95)  0.1293 ( 96)
 CRD 42=   0.5434 ( 64)  0.1335 ( 70)  0.2132 ( 71) -0.1040 ( 75) -0.1063 ( 77)
           0.2247 ( 85)  0.2239 ( 86)  0.3044 ( 87)  0.3036 ( 88)  0.4765 ( 89)
          -0.1040 ( 94) -0.1034 ( 95) -0.1063 ( 96) -0.1058 ( 97)
 CRD 43=  -0.1559 (  3)  0.1212 ( 11) -0.2500 ( 12)  0.4805 ( 16)  0.1600 ( 23)
           0.1611 ( 25)  0.1516 ( 28)  0.1373 ( 31) -0.1085 ( 32) -0.1082 ( 33)
          -0.1522 ( 34) -0.1455 ( 35)  0.1004 ( 37)  0.1193 ( 39)  0.1154 ( 41)
          -0.1475 ( 44) -0.1570 ( 45)  0.1140 ( 47) -0.1234 ( 48) -0.1249 ( 49)
          -0.1455 ( 95)  0.1399 ( 96) -0.1849 ( 99)  0.1752 (100) -0.1409 (103)
           0.1736 (104)
 CRD 44=  -0.2766 ( 12)  0.1034 ( 13)  0.2722 ( 16)  0.1270 ( 19) -0.2786 ( 20)
          -0.1461 ( 21) -0.1823 ( 22) -0.1107 ( 37) -0.1594 ( 42) -0.1657 ( 43)
           0.1409 ( 47)  0.1108 ( 49) -0.1822 ( 50) -0.1714 ( 51) -0.2124 ( 52)
           0.1827 ( 53)  0.1561 ( 54)  0.1427 ( 60)  0.2475 ( 61)  0.2184 ( 62)
          -0.1115 ( 67) -0.1302 ( 73) -0.1515 (104)  0.1462 (106) -0.1208 (109)
           0.1461 (115)
 CRD 45=   0.1822 (  1)  0.1025 (  3)  0.1076 (  6) -0.3866 ( 12) -0.2062 ( 14)
           0.2814 ( 16) -0.1654 ( 19)  0.1600 ( 20)  0.1618 ( 21)  0.1268 ( 22)
          -0.1607 ( 27) -0.1314 ( 28) -0.1418 ( 31) -0.1182 ( 38)  0.1415 ( 44)
           0.1212 ( 45)  0.2093 ( 47)  0.1162 ( 48)  0.1339 ( 50)  0.1502 ( 51)
           0.1454 ( 52) -0.1447 ( 60) -0.1460 ( 61) -0.1708 ( 62)  0.1191 ( 99)
          -0.1123 (100)  0.1465 (103) -0.1087 (104) -0.1763 (108)
 CRD 46=   0.1002 (  2)  0.2526 (  3) -0.6185 ( 11)  0.2809 ( 12)  0.2122 ( 16)
          -0.3017 ( 24) -0.3731 ( 40)  0.2578 ( 47) -0.1664 ( 55)
 CRD 47=  -0.2587 (  3)  0.1819 (  6)  0.2187 ( 10)  0.2918 ( 12) -0.1774 ( 18)
          -0.2254 ( 19)  0.2011 ( 21)  0.1405 ( 23)  0.1240 ( 25)  0.1848 ( 27)
          -0.1271 ( 34) -0.1493 ( 35) -0.1471 ( 37) -0.1195 ( 38)  0.1075 ( 39)
           0.1170 ( 41) -0.1037 ( 43) -0.1534 ( 47)  0.1307 ( 48) -0.1549 ( 60)
          -0.1129 ( 62)  0.1043 ( 93) -0.1115 ( 95)  0.1217 ( 96)  0.1186 (100)
          -0.1166 (102) -0.1115 (104) -0.1060 (108)  0.1021 (113)  0.1308 (114)
           0.2095 (115)
 CRD 48=   0.2243 (  2) -0.2370 (  4) -0.1099 (  8)  0.2143 ( 15) -0.2317 ( 17)
          -0.1051 ( 21)  0.1749 ( 22) -0.1096 ( 31) -0.1132 ( 32) -0.1014 ( 34)
           0.1103 ( 39) -0.1266 ( 42)  0.1157 ( 49) -0.1055 ( 58)  0.1104 ( 59)
           0.1363 ( 62) -0.1143 ( 64) -0.1474 ( 70)  0.1234 ( 73)  0.1181 ( 84)
           0.1801 ( 87)  0.2318 ( 88) -0.2812 ( 89) -0.1006 ( 93) -0.1461 ( 94)
          -0.1585 ( 95) -0.1179 ( 96) -0.1303 ( 97)  0.1879 (103)  0.1288 (105)
          -0.2259 (111) -0.1569 (112)
 CRD 49=  -0.1810 (  2)  0.1790 (  4)  0.1404 (  5) -0.1153 (  7)  0.1677 ( 14)
          -0.2006 ( 17)  0.1185 ( 18) -0.2640 ( 19)  0.2631 ( 22) -0.1682 ( 42)
           0.1283 ( 54) -0.1294 ( 58) -0.1778 ( 60) -0.1206 ( 61) -0.1378 ( 87)
          -0.1624 ( 88)  0.1890 ( 89)  0.1354 ( 94)  0.1710 ( 95)  0.1121 ( 96)
           0.1477 ( 97) -0.1256 ( 99) -0.1329 (101)  0.1596 (108)  0.1064 (109)
          -0.2755 (111) -0.1426 (112)
 CRD 50=  -0.1267 (  2) -0.1895 (  3)  0.1062 (  4)  0.1033 (  5)  0.1723 (  6)
          -0.1254 (  7) -0.1328 (  8)  0.1224 (  9)  0.1403 ( 12) -0.1447 ( 13)
          -0.2240 ( 14)  0.1378 ( 15)  0.2840 ( 19) -0.1862 ( 21)  0.1146 ( 27)
          -0.1212 ( 31)  0.1484 ( 41)  0.1100 ( 43)  0.1017 ( 49)  0.1670 ( 60)
          -0.1133 ( 65) -0.1542 ( 87)  0.1077 ( 89) -0.1038 ( 92)  0.1776 ( 96)
           0.1256 ( 97) -0.1950 ( 98) -0.1044 ( 99) -0.1437 (100)  0.1558 (102)
           0.1914 (103)  0.1034 (105) -0.1279 (108) -0.1521 (115)
 CRD 51=   0.1654 (  1) -0.1606 (  3)  0.1180 (  6)  0.1057 (  7)  0.1373 (  8)
          -0.1944 (  9) -0.1952 ( 10)  0.1209 ( 12)  0.1997 ( 13)  0.1870 ( 18)
           0.1217 ( 20) -0.1302 ( 21)  0.1186 ( 27) -0.1569 ( 28) -0.1435 ( 33)
           0.1221 ( 39)  0.1227 ( 44) -0.1235 ( 59) -0.1255 ( 61)  0.1007 ( 74)
           0.1272 ( 86) -0.1419 ( 87) -0.1202 ( 91)  0.1197 ( 92)  0.1349 ( 99)
           0.1027 (100)  0.1583 (101) -0.2336 (104) -0.2021 (105)  0.1177 (106)
           0.2365 (108)  0.1431 (109) -0.2054 (115)
 CRD 52=  -0.1244 (  2)  0.1932 (  3) -0.1341 (  4)  0.2024 (  5)  0.1596 (  7)
          -0.1701 (  8) -0.1164 (  9)  0.1436 ( 10)  0.1931 ( 55) -0.2842 ( 56)
           0.2256 ( 57) -0.1241 ( 63)  0.1189 ( 65) -0.1012 ( 77) -0.1336 ( 78)
           0.1535 ( 79) -0.1285 ( 80)  0.1237 ( 81) -0.1077 ( 85)  0.1134 ( 88)
           0.1032 ( 90)  0.2487 ( 95) -0.2331 ( 96) -0.2682 ( 99)  0.2269 (100)
           0.1538 (103) -0.1175 (104)
 CRD 53=  -0.3100 (  1)  0.1446 (  3)  0.1043 (  4) -0.1132 (  5)  0.1182 (  7)
          -0.1602 (  9)  0.2101 ( 10) -0.1100 ( 12) -0.2194 ( 14)  0.1604 ( 19)
          -0.1537 ( 21)  0.1547 ( 23) -0.1292 ( 27)  0.1857 ( 32) -0.1398 ( 38)
          -0.1365 ( 41) -0.1377 ( 45)  0.1394 ( 48) -0.1074 ( 66)  0.1087 ( 69)
           0.1240 ( 70)  0.1280 ( 73)  0.1090 ( 84)  0.1865 ( 85) -0.2322 ( 88)
           0.1673 ( 89) -0.1045 ( 97)  0.1107 ( 98)  0.1847 (100) -0.1229 (102)
          -0.1270 (104)  0.1276 (107)
 CRD 54=  -0.1607 (  1)  0.1056 (  2)  0.1041 (  6) -0.1505 (  7) -0.1164 (  8)
           0.1257 ( 13) -0.1081 ( 14)  0.1138 ( 17)  0.1351 ( 18) -0.2339 ( 19)
           0.2609 ( 20) -0.1009 ( 21)  0.1109 ( 25)  0.1317 ( 33)  0.1101 ( 53)
           0.1029 ( 54) -0.1929 ( 59)  0.1274 ( 60) -0.1430 ( 61) -0.1079 ( 62)
           0.1259 ( 66) -0.1071 ( 67) -0.1379 ( 70) -0.1722 ( 73)  0.1000 ( 78)
          -0.1342 ( 82)  0.1295 ( 83) -0.1607 ( 86)  0.2151 ( 87) -0.1896 ( 89)
          -0.1023 ( 99) -0.1027 (101)  0.1494 (106)  0.1630 (108)  0.1749 (111)
          -0.2000 (115)
 CRD 55=  -0.1036 (  1)  0.1104 (  2) -0.1109 (  3)  0.1147 (  4)  0.2441 (  6)
          -0.1097 (  8) -0.1014 (  9) -0.2022 ( 10)  0.1525 ( 15)  0.2056 ( 21)
          -0.1640 ( 22)  0.1468 ( 37)  0.1073 ( 38) -0.1047 ( 51) -0.1647 ( 55)
           0.1635 ( 57) -0.1792 ( 58)  0.1675 ( 61) -0.1084 ( 62) -0.2111 ( 84)
           0.1071 ( 85) -0.1127 ( 88)  0.1172 ( 90) -0.1250 ( 91) -0.1977 ( 93)
          -0.1196 ( 95)  0.1114 ( 96)  0.1037 (102)  0.1756 (103) -0.1384 (104)
          -0.2054 (106) -0.1478 (107)  0.1372 (109) -0.1626 (110)  0.1052 (112)
          -0.1674 (113)  0.1004 (115)
 CRD 56=   0.2771 (  1) -0.1587 (  3) -0.1112 (  5) -0.2662 (  6)  0.1803 ( 10)
           0.1322 ( 15)  0.1558 ( 20) -0.1294 ( 22) -0.1163 ( 23) -0.1723 ( 25)
           0.1686 ( 28)  0.1163 ( 31)  0.1653 ( 35)  0.1032 ( 39) -0.1193 ( 44)
          -0.1551 ( 45)  0.1068 ( 60) -0.1060 ( 62) -0.1316 ( 63)  0.1027 ( 69)
           0.1089 ( 77)  0.1376 ( 80) -0.1087 ( 81)  0.1214 ( 83) -0.1077 ( 90)
          -0.1362 ( 94)  0.2347 ( 98) -0.1963 (101) -0.1318 (102)  0.1935 (105)
          -0.1043 (110) -0.1311 (112)  0.1716 (114)
 CRD 57=  -0.1560 (  3)  0.1029 (  4) -0.1013 (  6) -0.1220 (  9)  0.1912 ( 10)
           0.1006 ( 13) -0.1640 ( 14) -0.1093 ( 15)  0.1420 ( 19) -0.1594 ( 20)
           0.1465 ( 22) -0.1315 ( 23)  0.1070 ( 31)  0.1566 ( 34)  0.1007 ( 41)
           0.1130 ( 43) -0.1149 ( 50) -0.1422 ( 54) -0.1148 ( 55)  0.1203 ( 57)
           0.1372 ( 62)  0.1764 ( 65)  0.1216 ( 68)  0.1222 ( 71) -0.1042 ( 74)
          -0.1588 ( 75) -0.1078 ( 76) -0.1390 ( 83) -0.1434 ( 86)  0.1545 ( 87)
          -0.1554 ( 89)  0.1064 ( 93) -0.1058 ( 94)  0.1970 ( 97)  0.1369 ( 98)
          -0.1780 (101) -0.1026 (104)  0.1227 (107)  0.1567 (110)  0.1426 (112)
          -0.1928 (114)
 CRD 58=   0.1439 (  2) -0.1512 (  3)  0.1404 (  7) -0.1265 (  8) -0.1635 ( 13)
           0.2081 ( 14) -0.1115 ( 19)  0.1389 ( 30) -0.1194 ( 36) -0.1083 ( 48)
           0.1230 ( 53) -0.1617 ( 55) -0.1235 ( 56)  0.1132 ( 57)  0.1791 ( 58)
           0.1033 ( 67) -0.1581 ( 69) -0.1028 ( 71)  0.1552 ( 77)  0.1112 ( 79)
           0.1579 ( 85) -0.1557 ( 88)  0.1052 ( 89) -0.1248 ( 91)  0.1022 ( 93)
          -0.2462 ( 94)  0.1792 ( 97)  0.2635 (102) -0.1886 (105) -0.1740 (109)
           0.1394 (113)
 CRD 59=  -0.1071 (  8) -0.2223 ( 14)  0.1659 ( 17)  0.1446 ( 18) -0.1080 ( 19)
          -0.1537 ( 20)  0.1854 ( 46)  0.1637 ( 52) -0.2318 ( 59) -0.1308 ( 60)
          -0.1174 ( 67) -0.1285 ( 68) -0.1861 ( 71) -0.1323 ( 73)  0.1413 ( 76)
           0.1221 ( 80)  0.1222 ( 82) -0.1390 ( 83)  0.1163 ( 85)  0.1515 ( 86)
          -0.1344 ( 87)  0.1536 ( 89) -0.1314 (107) -0.1389 (109)  0.1717 (110)
           0.2902 (112) -0.1460 (113) -0.2888 (114)
 CRD 60=  -0.1575 (  1) -0.1079 (  3)  0.1452 (  5) -0.2251 (  6)  0.1402 (  7)
           0.1292 (  8)  0.1095 (  9) -0.1088 ( 14)  0.1131 ( 18)  0.2063 ( 26)
           0.1787 ( 29)  0.1391 ( 30) -0.1231 ( 55) -0.2112 ( 56) -0.1769 ( 57)
           0.1180 ( 63) -0.1096 ( 65) -0.1391 ( 78)  0.1243 ( 79) -0.1385 ( 80)
           0.1204 ( 81)  0.1218 ( 82) -0.1137 ( 90) -0.2269 ( 94)  0.2335 ( 97)
          -0.2405 ( 98)  0.2459 (101) -0.1685 (102)  0.1622 (105) -0.1577 (113)
 CRD 61=   0.1063 (  2)  0.1137 (  9) -0.1599 ( 10)  0.1808 ( 13) -0.1906 ( 18)
          -0.1110 ( 21)  0.1537 ( 36)  0.1377 ( 42) -0.1065 ( 46) -0.1086 ( 49)
           0.1013 ( 51) -0.1220 ( 54) -0.1337 ( 58)  0.1166 ( 66) -0.1449 ( 67)
          -0.2111 ( 71) -0.2320 ( 74)  0.1407 ( 79) -0.2045 ( 82) -0.1517 ( 83)
           0.1315 ( 85)  0.1153 ( 86)  0.1059 ( 89)  0.1667 ( 91)  0.2811 ( 92)
          -0.1146 ( 98) -0.1254 (102)  0.1033 (105) -0.2077 (106)  0.1637 (109)
           0.1212 (110)  0.2038 (113)
 CRD 62=   0.1141 (  2) -0.1230 (  4)  0.1070 ( 10) -0.1765 ( 15) -0.1841 ( 17)
          -0.1111 ( 36)  0.1331 ( 43)  0.1249 ( 48) -0.1139 ( 53)  0.1418 ( 66)
           0.1020 ( 68) -0.1081 ( 69) -0.2612 ( 71) -0.2286 ( 72) -0.1020 ( 77)
           0.1700 ( 78)  0.1501 ( 79)  0.1702 ( 82)  0.2017 ( 83)  0.1420 ( 85)
           0.1485 ( 86)  0.1162 ( 89)  0.1666 ( 90)  0.1107 ( 91) -0.1498 ( 92)
           0.1473 (106)  0.2595 (107)  0.1080 (109) -0.1929 (110) -0.1257 (113)
 CRD 63=  -0.1389 (  5)  0.1384 (  7) -0.1461 (  8)  0.1449 (  9)  0.1014 ( 13)
          -0.1112 ( 15)  0.1057 ( 23) -0.1059 ( 25)  0.1243 ( 28) -0.1236 ( 31)
          -0.1228 ( 34)  0.1234 ( 35) -0.1071 ( 37)  0.1034 ( 38) -0.1127 ( 44)
           0.1131 ( 45) -0.2201 ( 63) -0.2188 ( 65) -0.2171 ( 67) -0.2224 ( 69)
           0.2178 ( 71) -0.1577 ( 72) -0.1653 ( 74)  0.2101 ( 75)  0.2096 ( 77)
          -0.1726 ( 78) -0.1729 ( 79)  0.2261 ( 80)  0.2252 ( 81)  0.1829 ( 90)
           0.1817 ( 91)  0.1132 (107)  0.1023 (109)

 THE DETERMINANT OF THE G MATRIX IS 10**(   -27)


                     --------------------
                     INTERNAL COORDINATES
                     --------------------

                 - - ATOMS - -         COORDINATE      COORDINATE
 NO.   TYPE    I  J  K  L  M  N        (BOHR,RAD)       (ANG,DEG)
 ----------------------------------------------------------------
   1 STRETCH   1  2                     2.8717577       1.5196689
   2 STRETCH   1 11                     2.0972204       1.1098013
   3 STRETCH   1  4                     2.8431637       1.5045376
   4 STRETCH   1 10                     2.0964994       1.1094198
   5 STRETCH   2 13                     2.0950739       1.1086654
   6 STRETCH   2  3                     2.8729208       1.5202843
   7 STRETCH   2 12                     2.0952862       1.1087778
   8 STRETCH   3 15                     2.0954528       1.1088659
   9 STRETCH   3 14                     2.0966578       1.1095036
  10 STRETCH   3  5                     2.8734072       1.5205417
  11 STRETCH   4  7                     2.3010676       1.2176726
  12 STRETCH   4  6                     2.5637134       1.3566588
  13 STRETCH   5 16                     2.0952567       1.1087622
  14 STRETCH   5  8                     2.8744027       1.5210685
  15 STRETCH   5 17                     2.0956326       1.1089611
  16 STRETCH   6 18                     1.7991887       0.9520897
  17 STRETCH   8 20                     2.0944974       1.1083603
  18 STRETCH   8 19                     2.0938682       1.1080274
  19 STRETCH   8  9                     2.8586617       1.5127387
  20 STRETCH   9 23                     2.0740580       1.0975443
  21 STRETCH   9 22                     2.0757702       1.0984504
  22 STRETCH   9 21                     2.0753061       1.0982048
  23 BEND      1  2 13                  1.9211152     110.0717922
  24 BEND      1  4  6                  1.9963830     114.3843188
  25 BEND      1  2 12                  1.9206235     110.0436193
  26 BEND      1  2  3                  1.9347260     110.8516348
  27 BEND      1  4  7                  2.2775849     130.4960027
  28 BEND      2  3 15                  1.9203603     110.0285394
  29 BEND      2  3  5                  1.9400266     111.1553350
  30 BEND      2  1  4                  1.9667468     112.6862884
  31 BEND      2  3 14                  1.9197179     109.9917336
  32 BEND      2  1 11                  1.9243409     110.2566092
  33 BEND      2  1 10                  1.9265131     110.3810705
  34 BEND      3  2 12                  1.9229441     110.1765796
  35 BEND      3  2 13                  1.9222264     110.1354622
  36 BEND      3  5  8                  1.9633803     112.4934034
  37 BEND      3  5 16                  1.9088046     109.3664486
  38 BEND      3  5 17                  1.9187296     109.9351053
  39 BEND      4  1 10                  1.8988502     108.7961028
  40 BEND      4  6 18                  1.9155318     109.7518853
  41 BEND      4  1 11                  1.8986617     108.7853038
  42 BEND      5  8 19                  1.9025656     109.0089794
  43 BEND      5  8 20                  1.9178712     109.8859229
  44 BEND      5  3 14                  1.9200319     110.0097221
  45 BEND      5  3 15                  1.9199984     110.0078058
  46 BEND      5  8  9                  1.9668120     112.6900241
  47 BEND      6  4  7                  2.0092174     115.1196780
  48 BEND      8  5 17                  1.9194190     109.9746105
  49 BEND      8  5 16                  1.9087036     109.3606604
  50 BEND      8  9 21                  1.9495971     111.7036866
  51 BEND      8  9 22                  1.9524503     111.8671619
  52 BEND      8  9 23                  1.9400107     111.1544232
  53 BEND      9  8 19                  1.9087237     109.3618129
  54 BEND      9  8 20                  1.9197003     109.9907271
  55 BEND     10  1 11                  1.8444120     105.6770239
  56 BEND     12  2 13                  1.8400618     105.4277771
  57 BEND     14  3 15                  1.8412807     105.4976151
  58 BEND     16  5 17                  1.8407416     105.4667269
  59 BEND     19  8 20                  1.8440263     105.6549236
  60 BEND     21  9 22                  1.8710988     107.2060634
  61 BEND     21  9 23                  1.8741219     107.3792738
  62 BEND     22  9 23                  1.8723542     107.2779944
  63 TORSION   1  2  3 14              -1.0115346     -57.9566618
  64 TORSION   1  4  6 18              -3.1415788    -179.9992075
  65 TORSION   1  2  3 15               1.0095825      57.8448159
  66 TORSION   1  2  3  5               3.1408155     179.9554748
  67 TORSION   2  3  5 17               1.0148999      58.1494784
  68 TORSION   2  3  5  8              -3.1229123    -178.9296939
  69 TORSION   2  3  5 16              -0.9983685     -57.2023034
  70 TORSION   2  1  4  6               3.1364257     179.7039554
  71 TORSION   2  1  4  7              -0.0053235      -0.3050158
  72 TORSION   3  5  8  9              -1.3079817     -74.9418299
  73 TORSION   3  5  8 19               2.8527398     163.4499506
  74 TORSION   3  5  8 20               0.8395354      48.1018338
  75 TORSION   3  2  1 10               1.0150798      58.1597859
  76 TORSION   3  2  1  4              -3.1412437    -179.9800075
  77 TORSION   3  2  1 11              -1.0161920     -58.2235121
  78 TORSION   4  1  2 13               1.0109370      57.9224243
  79 TORSION   4  1  2 12              -1.0096669     -57.8496500
  80 TORSION   5  3  2 12               1.0105936      57.9027503
  81 TORSION   5  3  2 13              -1.0120141     -57.9841378
  82 TORSION   5  8  9 21              -1.0063547     -57.6598751
  83 TORSION   5  8  9 22               1.0912791      62.5256849
  84 TORSION   5  8  9 23              -3.0992896    -177.5762126
  85 TORSION   6  4  1 10              -1.0043290     -57.5438127
  86 TORSION   6  4  1 11               0.9969003      57.1181806
  87 TORSION   7  4  1 10               2.1371071     122.4472161
  88 TORSION   7  4  1 11              -2.1448489    -122.8907906
  89 TORSION   7  4  6 18               0.0001453       0.0083273
  90 TORSION   8  5  3 14               1.0296201      58.9928874
  91 TORSION   8  5  3 15              -0.9914692     -56.8070008
  92 TORSION   9  8  5 17               0.8370047      47.9568345
  93 TORSION   9  8  5 16               2.8506025     163.3274896
  94 TORSION  10  1  2 13              -1.1159248     -63.9377823
  95 TORSION  10  1  2 12              -3.1365287    -179.7098566
  96 TORSION  11  1  2 13               3.1359887     179.6789197
  97 TORSION  11  1  2 12               1.1153849      63.9068454
  98 TORSION  12  2  3 15              -1.1206394     -64.2079086
  99 TORSION  12  2  3 14               3.1414288     179.9906137
 100 TORSION  13  2  3 15               3.1399381     179.9052032
 101 TORSION  13  2  3 14               1.1188211      64.1037256
 102 TORSION  14  3  5 17              -1.1157530     -63.9279403
 103 TORSION  14  3  5 16              -3.1290214    -179.2797221
 104 TORSION  15  3  5 17              -3.1368424    -179.7278285
 105 TORSION  15  3  5 16               1.1330746      64.9203897
 106 TORSION  16  5  8 20              -1.2850658     -73.6288466
 107 TORSION  16  5  8 19               0.7281386      41.7192701
 108 TORSION  17  5  8 20               2.9845217     171.0004982
 109 TORSION  17  5  8 19              -1.2854592     -73.6513850
 110 TORSION  19  8  9 23              -0.9803213     -56.1682706
 111 TORSION  19  8  9 22              -3.0729379    -176.0663731
 112 TORSION  19  8  9 21               1.1126137      63.7480670
 113 TORSION  20  8  9 23               1.0373999      59.4386339
 114 TORSION  20  8  9 22              -1.0552168     -60.4594686
 115 TORSION  20  8  9 21               3.1303348     179.3549714

     ------------------------------------------
     THE POINT GROUP IS C1 , NAXIS= 1, ORDER= 1
     ------------------------------------------

     DIMENSIONS OF THE SYMMETRY SUBSPACES ARE
 A   =  255

 ..... DONE SETTING UP THE RUN .....
 STEP CPU TIME =     0.02 TOTAL CPU TIME =        0.0 (    0.0 MIN)
 TOTAL WALL CLOCK TIME=        0.0 SECONDS, CPU UTILIZATION IS 100.00%


          -----------------------------
          STATIONARY POINT LOCATION RUN
          -----------------------------

 OBTAINING INITIAL HESSIAN, HESS=GUESS   
 DIAGONAL GUESS HESSIAN IN INTERNAL COORDS IS
     1  0.3746     2  0.3333     3  0.3858     4  0.3335     5  0.3340
     6  0.3742     7  0.3340     8  0.3339     9  0.3335    10  0.3740
    11  0.5441    12  0.4153    13  0.3340    14  0.3736    15  0.3338
    16  0.3657    17  0.3342    18  0.3344    19  0.3797    20  0.3413
    21  0.3407    22  0.3409    23  0.2236    24  0.2498    25  0.2236
    26  0.2499    27  0.2599    28  0.2235    29  0.2498    30  0.2510
    31  0.2235    32  0.2235    33  0.2235    34  0.2235    35  0.2235
    36  0.2498    37  0.2235    38  0.2235    39  0.2244    40  0.2192
    41  0.2244    42  0.2235    43  0.2235    44  0.2235    45  0.2235
    46  0.2503    47  0.2574    48  0.2235    49  0.2235    50  0.2246
    51  0.2246    52  0.2247    53  0.2240    54  0.2240    55  0.2014
    56  0.2015    57  0.2015    58  0.2015    59  0.2016    60  0.2026
    61  0.2026    62  0.2026    63  0.2500    64  0.2500    65  0.2500
    66  0.2500    67  0.2500    68  0.2500    69  0.2500    70  0.2500
    71  0.2500    72  0.2500    73  0.2500    74  0.2500    75  0.2500
    76  0.2500    77  0.2500    78  0.2500    79  0.2500    80  0.2500
    81  0.2500    82  0.2500    83  0.2500    84  0.2500    85  0.2500
    86  0.2500    87  0.2500    88  0.2500    89  0.2500    90  0.2500
    91  0.2500    92  0.2500    93  0.2500    94  0.2500    95  0.2500
    96  0.2500    97  0.2500    98  0.2500    99  0.2500   100  0.2500
   101  0.2500   102  0.2500   103  0.2500   104  0.2500   105  0.2500
   106  0.2500   107  0.2500   108  0.2500   109  0.2500   110  0.2500
   111  0.2500   112  0.2500   113  0.2500   114  0.2500   115  0.2500
 TRANSFORMING HESSIAN TO SYMMETRY COORDINATES

          PARAMETERS CONTROLLING GEOMETRY SEARCH ARE
          METHOD =QA                  UPHESS =BFGS    
          NNEG   =         0          NFRZ   =         3
          NSTEP  =        50          IFOLOW =         1
          HESS   =GUESS               RESTAR =         F
          IHREP  =         0          HSSEND =         F
          NPRT   =         0          NPUN   =         0
          OPTTOL = 5.000E-04          RMIN   = 1.500E-03
          RMAX   = 1.000E-01          RLIM   = 7.000E-02
          DXMAX  = 3.000E-01          PURIFY =         F
          MOVIE  =         F          TRUPD  =         T
          TRMAX  = 5.000E-01          TRMIN  = 5.000E-02
          ITBMAT =         5          STPT   =         F
          STSTEP = 1.000E-02          PROJCT=          F
          FROZEN COORD(S)=   1   2   3


      ***** EQUILIBRIUM GEOMETRY LOCATED *****
            (SUBJECT TO   3 CONSTRAINT(S))
 COORDINATES OF ALL ATOMS ARE (ANGS)
   ATOM   CHARGE       X              Y              Z
 ------------------------------------------------------------
 C           6.0   6.4301392052   1.1952516535   1.2903333290
 C           6.0   5.2167446789   1.2243102659   2.2107246750
 C           6.0   3.9037878193   1.0453668856   1.4528548521
 C           6.0   7.7325994279   1.3532264440   2.0236346829
 C           6.0   2.6874892597   1.1048827738   2.3780390921
 O           8.0   8.7734412361   1.3224710177   1.2090671721
 O           8.0   7.8546072672   1.4936468918   3.1995988986
 C           6.0   1.3452352503   0.9236090425   1.6639557266
 C           6.0   0.9830027328   2.0693909954   0.7173141692
 H           1.0   6.3830027542   1.9885038760   0.5488257703
 H           1.0   6.4853513585   0.2630694716   0.7344769349
 H           1.0   5.3160150359   0.4436457371   2.9595855222
 H           1.0   5.1991413867   2.1704371096   2.7449162187
 H           1.0   3.8289572043   1.8152138754   0.6890391980
 H           1.0   3.9109688996   0.0883022831   0.9323776721
 H           1.0   2.7886038747   0.3320324184   3.1383586227
 H           1.0   2.6859990573   2.0570260616   2.9085741332
 H           1.0   9.5728205229   1.4222709429   1.7103285176
 H           1.0   0.5629320202   0.8265826470   2.4135401663
 H           1.0   1.3576838038  -0.0146903637   1.1112955672
 H           1.0   0.9345211652   3.0134537354   1.2552550604
 H           1.0   1.7107128864   2.1788402010  -0.0806908268
 H           1.0   0.0148451556   1.8982245616   0.2555933871


                     --------------------
                     INTERNAL COORDINATES
                     --------------------

                 - - ATOMS - -         COORDINATE      COORDINATE
 NO.   TYPE    I  J  K  L  M  N        (BOHR,RAD)       (ANG,DEG)
 ----------------------------------------------------------------
   1 STRETCH   1  2                     2.8785253       1.5232501
   2 STRETCH   1 11                     2.0536273       1.0867329
   3 STRETCH   1  4                     2.8403088       1.5030268
   4 STRETCH   1 10                     2.0539021       1.0868783
   5 STRETCH   2 13                     2.0534866       1.0866584
   6 STRETCH   2  3                     2.8846920       1.5265134
   7 STRETCH   2 12                     2.0528412       1.0863168
   8 STRETCH   3 15                     2.0587788       1.0894589
   9 STRETCH   3 14                     2.0542272       1.0870503
  10 STRETCH   3  5                     2.8900393       1.5293431
  11 STRETCH   4  7                     2.2498818       1.1905863
  12 STRETCH   4  6                     2.4983134       1.3220506
  13 STRETCH   5 16                     2.0576397       1.0888561
  14 STRETCH   5  8                     2.8934544       1.5311502
  15 STRETCH   5 17                     2.0597549       1.0899755
  16 STRETCH   6 18                     1.7929807       0.9488046
  17 STRETCH   8 20                     2.0579749       1.0890335
  18 STRETCH   8 19                     2.0556270       1.0877910
  19 STRETCH   8  9                     2.8908231       1.5297578
  20 STRETCH   9 23                     2.0526053       1.0861920
  21 STRETCH   9 22                     2.0513349       1.0855198
  22 STRETCH   9 21                     2.0553629       1.0876513
  23 BEND      1  2 13                  1.9034446     109.0593404
  24 BEND      1  4  6                  1.9597133     112.2833035
  25 BEND      1  2 12                  1.9071282     109.2703991
  26 BEND      1  2  3                  1.9637556     112.5149063
  27 BEND      1  4  7                  2.1933232     125.6681607
  28 BEND      2  3 15                  1.9118631     109.5416883
  29 BEND      2  3  5                  1.9596641     112.2804824
  30 BEND      2  1  4                  1.9752181     113.1716586
  31 BEND      2  3 14                  1.9018458     108.9677367
  32 BEND      2  1 11                  1.9453889     111.4625736
  33 BEND      2  1 10                  1.9430942     111.3310949
  34 BEND      3  2 12                  1.9141040     109.6700782
  35 BEND      3  2 13                  1.9094222     109.4018311
  36 BEND      3  5  8                  1.9937449     114.2331705
  37 BEND      3  5 16                  1.8975263     108.7202480
  38 BEND      3  5 17                  1.9066109     109.2407604
  39 BEND      4  1 10                  1.8689156     107.0809785
  40 BEND      4  6 18                  1.9127685     109.5935595
  41 BEND      4  1 11                  1.8709633     107.1983011
  42 BEND      5  8 19                  1.8961388     108.6407534
  43 BEND      5  8 20                  1.9056765     109.1872216
  44 BEND      5  3 14                  1.9206538     110.0453568
  45 BEND      5  3 15                  1.9054476     109.1741083
  46 BEND      5  8  9                  1.9905140     114.0480485
  47 BEND      6  4  7                  2.1301477     122.0484755
  48 BEND      8  5 17                  1.9062763     109.2215850
  49 BEND      8  5 16                  1.8997252     108.8462369
  50 BEND      8  9 21                  1.9332927     110.7695097
  51 BEND      8  9 22                  1.9516300     111.8201601
  52 BEND      8  9 23                  1.9348636     110.8595197
  53 BEND      9  8 19                  1.8996260     108.8405518
  54 BEND      9  8 20                  1.9113372     109.5115544
  55 BEND     10  1 11                  1.8538545     106.2180368
  56 BEND     12  2 13                  1.8632427     106.7559407
  57 BEND     14  3 15                  1.8617920     106.6728252
  58 BEND     16  5 17                  1.8548778     106.2766699
  59 BEND     19  8 20                  1.8557027     106.3239339
  60 BEND     21  9 22                  1.8817396     107.8157387
  61 BEND     21  9 23                  1.8831409     107.8960249
  62 BEND     22  9 23                  1.8764598     107.5132258
  63 TORSION   1  2  3 14              -0.9881738     -56.6181900
  64 TORSION   1  4  6 18              -3.1383785    -179.8158436
  65 TORSION   1  2  3 15               1.0425841      59.7356699
  66 TORSION   1  2  3  5              -3.1205356    -178.7935177
  67 TORSION   2  3  5 17               1.0057266      57.6238902
  68 TORSION   2  3  5  8              -3.1368179    -179.7264276
  69 TORSION   2  3  5 16              -1.0114672     -57.9528016
  70 TORSION   2  1  4  6               3.1390985     179.8570973
  71 TORSION   2  1  4  7              -0.0040342      -0.2311450
  72 TORSION   3  5  8  9              -1.1709719     -67.0917458
  73 TORSION   3  5  8 19               2.9901878     171.3251384
  74 TORSION   3  5  8 20               0.9732793      55.7647952
  75 TORSION   3  2  1 10               1.0478679      60.0384057
  76 TORSION   3  2  1  4              -3.1291762    -179.2885906
  77 TORSION   3  2  1 11              -1.0186943     -58.3668863
  78 TORSION   4  1  2 13               1.0320633      59.1328733
  79 TORSION   4  1  2 12              -0.9986877     -57.2205888
  80 TORSION   5  3  2 12               1.0361148      59.3650067
  81 TORSION   5  3  2 13              -1.0019951     -57.4100894
  82 TORSION   5  8  9 21              -1.0309982     -59.0718480
  83 TORSION   5  8  9 22               1.0683932      61.2144207
  84 TORSION   5  8  9 23              -3.1210298    -178.8218356
  85 TORSION   6  4  1 10              -0.9963604     -57.0872438
  86 TORSION   6  4  1 11               0.9870061      56.5512858
  87 TORSION   7  4  1 10               2.1436922     122.8245139
  88 TORSION   7  4  1 11              -2.1561266    -123.5369565
  89 TORSION   7  4  6 18               0.0046903       0.2687349
  90 TORSION   8  5  3 14               1.0247231      58.7123112
  91 TORSION   8  5  3 15              -1.0130851     -58.0454995
  92 TORSION   9  8  5 17               0.9698511      55.5683741
  93 TORSION   9  8  5 16               2.9880718     171.2039011
  94 TORSION  10  1  2 13              -1.0740779     -61.5401305
  95 TORSION  10  1  2 12              -3.1048289    -177.8935925
  96 TORSION  11  1  2 13              -3.1406401    -179.9454224
  97 TORSION  11  1  2 12               1.1117942      63.7011155
  98 TORSION  12  2  3 15              -1.0839508     -62.1058057
  99 TORSION  12  2  3 14              -3.1147087    -178.4596656
 100 TORSION  13  2  3 15              -3.1220607    -178.8809018
 101 TORSION  13  2  3 14               1.1303666      64.7652383
 102 TORSION  14  3  5 17              -1.1159176     -63.9373710
 103 TORSION  14  3  5 16              -3.1331114    -179.5140628
 104 TORSION  15  3  5 17               3.1294594     179.3048184
 105 TORSION  15  3  5 16               1.1122656      63.7281266
 106 TORSION  16  5  8 20              -1.1508624     -65.9395579
 107 TORSION  16  5  8 19               0.8660461      49.6207853
 108 TORSION  17  5  8 20               3.1141022     178.4249151
 109 TORSION  17  5  8 19              -1.1521746     -66.0147417
 110 TORSION  19  8  9 23              -1.0009326     -57.3492159
 111 TORSION  19  8  9 22              -3.0946950    -177.3129597
 112 TORSION  19  8  9 21               1.0890989      62.4007716
 113 TORSION  20  8  9 23               1.0209926      58.4985686
 114 TORSION  20  8  9 22              -1.0727697     -61.4651751
 115 TORSION  20  8  9 21               3.1110242     178.2485562

          INTERNUCLEAR DISTANCES (ANGS.)


 =====================================================
   GAMESS/COSab RESULTS
 =====================================================

   Dielectric Constant                  = INFTY
   Basic Grid Size                      =                 1082
   Number of Segments                   =                   92
   Number of Segments located on spheres=                  309
   Number of Segments of the cavity     =                  814
   Solvent Radius (rsolv)               = 1.40
   Outlying Charge Error Method         = double cavity

 =====================================================

  Total solvated Energy (a.u.)          =  -423.1121340229
  Total Energy corrected (a.u.)         =  -423.1120480730

  Outlying charge effect (a.u.)         =     0.0000859498
  Outlying charge effect (kcal/mol)     =     0.0539343837

  Dielectric Energy (a.u.)              =    -0.0158911650
  Dielectric energy corr. (a.u.)        =    -0.0158052152

  Sum of polarization charges           =     0.0251317782
  Sum of polarization charges(cor.)     =    -0.0251317782

  Total surface area of cavity (A**2)   =  186.97
  Total volume of cavity (A**3)         =  183.18

 =====================================================
 NPS=                   814
NR.  ATOM  (X, Y, Z)(a.u.)                  CHARGE(e)  AREA(A**2) SIGMA(e/A**2)
   1   1  11.244209   1.404286  -1.129770   0.000324   0.278737   0.001161
   2   1  12.477635  -1.300411   3.667385  -0.000403   0.139368  -0.002891
   3   1  12.855848  -1.377746   3.189404  -0.000204   0.046456  -0.004398
   4   1  11.612093   2.239985  -1.302390   0.000251   0.185824   0.001348
   5   1  13.544975   2.603222  -1.057769  -0.000108   0.139368  -0.000772
   6   1  11.625303   5.998994   2.571875  -0.000277   0.139368  -0.001988
   7   1  12.318104   5.997060   2.968468  -0.000008   0.046456  -0.000180
   8   1  13.403977   1.691494  -1.082018   0.000203   0.278737   0.000727
   9   1  12.328129   1.545755  -1.269014   0.000270   0.232280   0.001163
  10   1  10.754342   2.293261  -1.073303   0.000024   0.185824   0.000127
  11   1  12.066925  -1.409531   3.344619  -0.000088   0.046456  -0.001905
  12   1  12.675262   2.226333  -1.304436   0.000191   0.185824   0.001027
  13   1  12.185496   6.035582   2.573210  -0.000174   0.046456  -0.003739
  14   2   8.987603   3.044482   7.782115   0.001009   0.278737   0.003620
  15   2   9.570971   5.889379   2.987886   0.000016   0.092912   0.000177
  16   2   9.323930   2.205727   7.917600   0.000911   0.278737   0.003269
  17   2   9.770870  -1.464269   4.111893   0.000131   0.139368   0.000940
  18   2  10.034574   2.973517   7.894872   0.001400   0.278737   0.005022
  19   2   9.276717   5.931170   3.250669   0.000032   0.046456   0.000698
  20   2  10.329968  -1.434768   4.070710   0.000014   0.046456   0.000304
  21   3   6.347046   0.914013  -0.732520   0.000827   0.185824   0.004449
  22   3   7.597815  -1.583345   3.998707   0.000148   0.092912   0.001594
  23   3   6.813435   1.762767  -0.985627   0.000423   0.092912   0.004554
  24   3   6.984549   5.730647   2.914803   0.000112   0.139368   0.000806
  25   3   8.343086   1.226373  -0.830806   0.000970   0.232280   0.004174
  26   3   7.386390   1.288704  -0.971022   0.001771   0.325193   0.005447
  27   3   7.277869  -1.659236   3.776755   0.000072   0.046456   0.001539
  28   3   8.015581   2.022296  -0.979331   0.000550   0.139368   0.003949
  29   3   7.487580   5.753279   2.752308   0.000061   0.046456   0.001318
  30   4  15.158307  -1.060800   2.877442  -0.001003   0.139368  -0.007194
  31   4  17.113411   0.004688   5.054637  -0.000919   0.139368  -0.006594
  32   4  14.670262   6.266108   4.548786  -0.000477   0.185824  -0.002566
  33   4  14.870146   5.954265   2.187662  -0.001790   0.278737  -0.006420
  34   4  14.261524  -0.879177   5.357814  -0.000928   0.278737  -0.003331
  35   4  16.238128  -0.555165   5.222176  -0.000596   0.232280  -0.002566
  36   4  16.763507   5.582242   4.535916  -0.000285   0.092912  -0.003072
  37   4  15.654261   6.108497   4.590578  -0.000257   0.139368  -0.001847
  38   4  14.103429  -1.097698   4.640602  -0.001632   0.232280  -0.007027
  39   4  14.648367  -1.221660   3.878634  -0.002429   0.278737  -0.008716
  40   4  15.609529  -1.085695   3.685308  -0.002852   0.371649  -0.007674
  41   4  16.508368  -0.642147   4.497832  -0.001308   0.278737  -0.004691
  42   4  15.415535   6.180445   3.108816  -0.001847   0.278737  -0.006626
  43   4  15.105523   6.302671   3.937405  -0.001906   0.325193  -0.005862
  44   4  13.721049   6.210980   4.197887  -0.002675   0.371649  -0.007199
  45   4  14.236124   6.243851   3.081548  -0.002914   0.325193  -0.008962
  46   4  15.319291  -0.966457   4.993879  -0.002525   0.418105  -0.006039
  47   4  16.289623   5.940174   3.988875  -0.001753   0.325193  -0.005391
  48   5   4.084316   2.921068   8.043705   0.001760   0.371649   0.004734
  49   5   4.588016   2.037299   8.240977   0.001383   0.278737   0.004963
  50   5   4.900205  -1.686869   4.436593   0.000336   0.185824   0.001810
  51   5   6.472212   2.927092   7.905291   0.001052   0.232280   0.004528
  52   5   5.459842   2.787868   8.188302   0.002116   0.371649   0.005693
  53   5   3.317128   2.373001   7.825533   0.001092   0.325193   0.003358
  54   5   2.974831   3.386947   7.352325   0.000713   0.232280   0.003070
  55   5   3.196031   1.432185   7.704781   0.000728   0.278737   0.002610
  56   5   6.239215   2.106013   8.090641   0.000602   0.139368   0.004317
  57   5   5.513943  -1.665885   4.434014   0.000099   0.046456   0.002140
  58   6  16.552214   0.037030   0.162991   0.004346   0.309230   0.014054
  59   6  16.854371   3.347117  -0.840891   0.003235   0.240512   0.013452
  60   6  19.278459   1.645242   0.687713   0.000209   0.274871   0.000761
  61   6  18.464577   5.033330   1.517649   0.001068   0.343589   0.003108
  62   6  18.056301  -0.256028   3.175098   0.000401   0.240512   0.001666
  63   6  16.087251   2.791872  -0.914689   0.004016   0.274871   0.014610
  64   6  16.627404   0.917668  -0.554459   0.005531   0.377948   0.014635
  65   6  16.811480   2.099445  -0.932508   0.004258   0.309230   0.013769
  66   6  16.293491   4.070656  -0.545951   0.005418   0.343589   0.015769
  67   6  16.168731   4.975198   0.219615   0.002177   0.171795   0.012674
  68   6  16.442152  -0.498612   1.036015   0.002720   0.206154   0.013195
  69   6  19.381858   2.779701   0.662394  -0.000707   0.274871  -0.002571
  70   6  19.070222   4.062190   0.900140   0.000013   0.309230   0.000041
  71   6  17.929434   5.455205   2.224981   0.000581   0.240512   0.002414
  72   6  17.623280   5.485291   3.031588  -0.000238   0.171795  -0.001382
  73   6  18.681634   0.020153   2.292433   0.000534   0.309230   0.001727
  74   6  19.121382   0.679665   1.394499   0.000275   0.309230   0.000890
  75   6  17.600286   0.411751   0.012050   0.004754   0.377948   0.012578
  76   6  18.605484   0.873556   0.331023   0.002836   0.377948   0.007503
  77   6  18.720995   2.200144  -0.141903   0.003218   0.481025   0.006690
  78   6  17.782577   2.709476  -0.727308   0.004450   0.377948   0.011775
  79   6  17.600464   3.938076  -0.444941   0.004967   0.412307   0.012048
  80   6  18.089128   4.683215   0.409942   0.003993   0.446666   0.008939
  81   6  17.429619   5.467240   1.268928   0.003109   0.343589   0.009050
  82   6  16.393945   5.540446   1.153197   0.003865   0.343589   0.011248
  83   6  17.385223  -0.587737   2.906627   0.001131   0.206154   0.005487
  84   6  17.859642  -0.480571   2.067681   0.002290   0.274871   0.008333
  85   6  17.294016  -0.421726   1.050823   0.004166   0.343589   0.012126
  86   6  15.969302   1.635375  -0.788698   0.003039   0.206154   0.014743
  87   6  17.715575   1.482081  -0.585642   0.004562   0.377948   0.012069
  88   6  16.961138   4.948740   0.182836   0.004371   0.343589   0.012721
  89   6  16.822232  -0.730292   2.007969   0.002456   0.240512   0.010212
  90   6  18.686091   3.514171   0.027324   0.002459   0.412307   0.005964
  91   6  17.066652   5.712306   2.233702   0.001103   0.171795   0.006420
  92   6  18.276556   0.011587   1.061459   0.003438   0.377948   0.009096
  93   7  15.081923   3.216994   9.263817   0.005059   0.377948   0.013385
  94   7  13.847204   0.640489   8.239856   0.003690   0.206154   0.017898
  95   7  14.921766   5.855530   7.212388   0.004325   0.343589   0.012587
  96   7  17.651297   3.922423   7.258289   0.005701   0.309230   0.018436
  97   7  16.669446   0.594029   7.550534   0.004246   0.309230   0.013730
  98   7  14.489712   2.167618   9.210349   0.005619   0.412307   0.013629
  99   7  13.743511   1.404557   8.756502   0.005329   0.343589   0.015511
 100   7  14.027508   3.460195   9.127426   0.004856   0.343589   0.014133
 101   7  13.062090   3.620124   8.645728   0.005981   0.343589   0.017407
 102   7  15.063495   4.370855   8.895725   0.005518   0.412307   0.013383
 103   7  15.226025   5.266077   8.155217   0.004980   0.377948   0.013176
 104   7  16.156391   3.594810   8.917502   0.005318   0.377948   0.014069
 105   7  17.063496   3.726569   8.241148   0.005408   0.343589   0.015740
 106   7  15.909574   2.313347   9.074211   0.006592   0.481025   0.013704
 107   7  16.401444   1.367151   8.499486   0.005828   0.412307   0.014135
 108   7  13.273898   4.633171   8.242748   0.004605   0.274871   0.016752
 109   7  13.938632   5.499631   7.652605   0.005202   0.343589   0.015139
 110   7  16.129200   5.552843   7.253056   0.005709   0.412307   0.013848
 111   7  17.016150   4.830085   7.392545   0.005248   0.343589   0.015275
 112   7  17.757378   2.848232   7.485361   0.006061   0.343589   0.017640
 113   7  17.311898   1.549075   7.733865   0.004821   0.309230   0.015589
 114   7  15.723170   0.333461   7.942242   0.005889   0.446666   0.013184
 115   7  14.592575   0.374789   8.170096   0.003607   0.274871   0.013122
 116   7  14.337298   6.021555   6.320888   0.002981   0.274871   0.010846
 117   7  15.605324   5.974783   6.263537   0.004513   0.377948   0.011940
 118   7  17.319587   4.837473   6.655971   0.003149   0.206154   0.015277
 119   7  17.220129   0.721665   6.753720   0.004220   0.309230   0.013647
 120   7  16.212296  -0.018886   6.831177   0.002821   0.274871   0.010264
 121   7  14.251188  -0.085847   7.371282   0.003124   0.240512   0.012988
 122   7  13.233349   2.464578   8.847310   0.007676   0.412307   0.018616
 123   7  14.069901   4.707649   8.578822   0.005342   0.377948   0.014134
 124   7  16.316196   4.668290   8.279708   0.005939   0.412307   0.014404
 125   7  17.081008   2.546442   8.387295   0.007067   0.446666   0.015823
 126   7  15.106973   1.134049   8.811117   0.005495   0.412307   0.013328
 127   7  13.738329   5.796308   6.754257   0.002324   0.171795   0.013530
 128   7  16.750421   5.452753   6.139966   0.003522   0.274871   0.012812
 129   7  17.724892   1.740629   7.089947   0.003439   0.206154   0.016683
 130   7  15.034174  -0.257947   7.065433   0.003687   0.309230   0.011922
 131   8  -0.868952   0.317271   2.363781   0.000706   0.232280   0.003040
 132   8   1.468012  -1.727450   4.178889   0.001728   0.371649   0.004649
 133   8   0.682612  -1.202966   4.605198   0.001389   0.278737   0.004984
 134   8  -1.049158   0.569124   3.085619   0.000818   0.278737   0.002934
 135   8   1.427978   3.872377   6.063124   0.000325   0.185824   0.001749
 136   8  -0.360404  -0.588139   2.500701   0.001457   0.325193   0.004479
 137   8   0.388788  -1.337463   3.523371   0.001823   0.325193   0.005607
 138   8   1.974172  -1.511993   4.975089   0.001103   0.325193   0.003393
 139   8  -0.260202  -0.244676   1.572487   0.000900   0.278737   0.003227
 140   8   2.847315  -1.848813   4.272699   0.000695   0.232280   0.002993
 141   8   1.815378  -0.927908   5.715366   0.000732   0.278737   0.002625
 142   8  -0.341784  -0.688517   3.353213   0.001378   0.278737   0.004945
 143   8   0.985743   4.070040   5.685659   0.000105   0.046456   0.002266
 144   9   1.141767   4.312014  -2.333740   0.002270   0.418105   0.005430
 145   9  -1.090666   4.741085   3.569626   0.000878   0.278737   0.003150
 146   9   3.095344   7.036738  -0.370587   0.001665   0.371649   0.004479
 147   9  -0.740692   6.365569   0.128256   0.001496   0.371649   0.004024
 148   9   0.547617   1.076820  -0.774713   0.000677   0.278737   0.002428
 149   9   2.879263   1.588338  -1.445831   0.000697   0.232280   0.003002
 150   9   1.746640   1.449698  -1.510820   0.001032   0.325193   0.003174
 151   9   1.264720   2.509001  -2.103994   0.001569   0.325193   0.004826
 152   9  -0.449210   6.888406   1.046517   0.001625   0.371649   0.004372
 153   9   2.965176   7.432225   0.545808   0.001210   0.278737   0.004342
 154   9   4.309347   6.632402   2.285561   0.000159   0.046456   0.003421
 155   9  -0.719395   5.566357   3.569521   0.000604   0.185824   0.003249
 156   9   1.752902   3.255162  -2.365186   0.001027   0.232280   0.004422
 157   9   0.832743   3.320093  -2.234072   0.000877   0.185824   0.004720
 158   9   4.349986   6.725546   0.970392   0.000623   0.139368   0.004467
 159   9   3.893462   6.960704   0.440998   0.001469   0.278737   0.005269
 160   9   1.821724   7.305658  -0.304743   0.001523   0.464561   0.003278
 161   9   0.290951   6.949754  -0.254861   0.001431   0.464561   0.003080
 162   9  -1.245481   6.066878   1.429973   0.001972   0.371649   0.005306
 163   9  -1.400138   5.098627   2.858836   0.000931   0.232280   0.004009
 164   9  -1.584428   3.809787   2.913251   0.001340   0.418105   0.003205
 165   9   2.251243   6.571410  -1.299534   0.001265   0.418105   0.003025
 166   9   1.473491   5.577362  -2.014724   0.001499   0.418105   0.003584
 167   9   0.382154   5.217149  -1.869409   0.001669   0.464561   0.003592
 168   9  -0.265605   6.040600  -0.933425   0.000967   0.325193   0.002975
 169   9   2.268857   2.091328  -1.931631   0.000827   0.232280   0.003562
 170   9   0.827491   1.656660  -1.498052   0.000842   0.232280   0.003626
 171   9   0.925018   7.426546   0.329562   0.000821   0.278737   0.002946
 172   9   4.153103   6.904861   1.577552   0.000665   0.139368   0.004772
 173   9  -0.317541   5.071662   4.219949   0.000661   0.232280   0.002847
 174   9  -1.031176   6.052001   2.518956   0.001520   0.325193   0.004675
 175   9   0.967070   6.511189  -1.238331   0.001192   0.464561   0.002567
 176   9  -1.629804   5.114627   2.175610   0.001029   0.232280   0.004432
 177  10  11.940687   5.548729  -0.639976  -0.003269   0.412182  -0.007932
 178  10  13.012200   5.892666   0.279160  -0.002994   0.392554  -0.007628
 179  10  11.339662   6.105717   1.029188  -0.002499   0.372926  -0.006702
 180  10  11.745092   3.742575  -1.398932  -0.001769   0.353299  -0.005006
 181  10  13.055145   4.027058  -1.193685  -0.001778   0.314043  -0.005663
 182  10  12.358235   6.194115   0.930215  -0.002153   0.392554  -0.005484
 183  10  11.171061   5.756625  -0.078891  -0.003348   0.392554  -0.008528
 184  10  11.138233   4.570544  -1.089103  -0.002933   0.353299  -0.008303
 185  10  12.335257   4.633766  -1.241707  -0.002184   0.314043  -0.006953
 186  10  13.115377   5.215215  -0.636649  -0.003009   0.372926  -0.008069
 187  11  12.630332  -1.681705   0.316825  -0.003430   0.431809  -0.007944
 188  11  12.816907  -1.834424   1.920750  -0.002435   0.412182  -0.005907
 189  11  12.602566  -0.003894  -0.991876  -0.001716   0.353299  -0.004858
 190  11  11.433806  -0.342795  -0.769441  -0.002319   0.353299  -0.006563
 191  11  11.799754  -1.909540   1.575978  -0.003545   0.471065  -0.007526
 192  11  13.521418  -1.563085   0.954166  -0.002924   0.412182  -0.007093
 193  11  13.468865  -0.690433  -0.387600  -0.003547   0.471065  -0.007531
 194  11  12.255324  -0.974437  -0.579167  -0.002572   0.353299  -0.007281
 195  11  11.514762  -1.529002   0.212728  -0.003334   0.372926  -0.008941
 196  12  10.103033  -0.873194   7.354159  -0.001939   0.372926  -0.005200
 197  12  11.021884  -1.412903   5.711579  -0.001432   0.333671  -0.004293
 198  12   9.680625  -1.590375   5.538940  -0.001090   0.353299  -0.003084
 199  12   9.787145   0.833587   8.035794  -0.001018   0.333671  -0.003052
 200  12  10.387298  -1.504001   6.249883  -0.001108   0.274788  -0.004032
 201  12   9.459683  -1.289342   6.671870  -0.001725   0.314043  -0.005492
 202  12   9.492327  -0.126190   7.783329  -0.001563   0.314043  -0.004976
 203  12  10.597645   0.115346   7.874870  -0.001533   0.333671  -0.004593
 204  12  11.126754  -0.918392   6.927131  -0.002002   0.353299  -0.005665
 205  13   9.881020   6.372291   6.122870  -0.001522   0.314043  -0.004847
 206  13  10.128768   6.442923   4.508388  -0.001220   0.372926  -0.003272
 207  13   9.851715   4.680625   7.574394  -0.000794   0.314043  -0.002528
 208  13   9.118023   6.444482   4.972837  -0.001999   0.471065  -0.004244
 209  13  10.660501   6.383624   5.546341  -0.002096   0.392554  -0.005338
 210  13  10.299147   5.759505   6.936808  -0.002316   0.431809  -0.005364
 211  13   9.215552   5.178138   7.309543  -0.001255   0.314043  -0.003998
 212  13   9.002141   6.086835   6.377355  -0.002074   0.353299  -0.005869
 213  14   7.351522   5.183085  -0.415235  -0.001393   0.235532  -0.005913
 214  14   7.532998   5.868569   1.338008  -0.000971   0.314043  -0.003093
 215  14   7.608336   3.347843  -1.124715  -0.000737   0.294415  -0.002504
 216  14   7.519592   5.737146   0.506667  -0.001591   0.333671  -0.004768
 217  14   7.728561   4.246778  -0.961843  -0.001549   0.333671  -0.004643
 218  14   8.001021   5.181755  -0.241132  -0.001137   0.196277  -0.005793
 219  15   7.562775  -1.881547   0.416789  -0.001537   0.353299  -0.004350
 220  15   8.007614  -2.119338   2.415918  -0.000928   0.372926  -0.002487
 221  15   7.624796  -0.469880  -0.599163  -0.000495   0.392554  -0.001260
 222  15   6.925122  -2.223606   2.084393  -0.001724   0.490692  -0.003513
 223  15   8.154076  -2.114040   1.262234  -0.001933   0.412182  -0.004690
 224  15   8.064471  -1.263163  -0.118499  -0.001493   0.333671  -0.004476
 225  15   6.620835  -0.920373  -0.302124  -0.001393   0.451437  -0.003086
 226  15   6.654109  -1.952292   0.761078  -0.001919   0.372926  -0.005146
 227  16   5.361075  -1.284438   7.470576  -0.001611   0.372926  -0.004320
 228  16   4.909196  -1.801072   6.016744  -0.000818   0.412182  -0.001985
 229  16   3.779229  -0.549208   7.489170  -0.000974   0.333671  -0.002919
 230  16   5.251723   0.614692   8.387173  -0.000469   0.353299  -0.001326
 231  16   5.963563  -1.707123   6.252244  -0.001633   0.471065  -0.003467
 232  16   4.319114  -1.375327   6.989099  -0.001343   0.412182  -0.003259
 233  16   4.868214  -0.517681   8.066648  -0.001386   0.353299  -0.003923
 234  16   6.112606   0.234565   8.204449  -0.001251   0.412182  -0.003036
[...]
 555   4  14.393034  -1.138578   2.887212  -0.003413   0.421844  -0.008092
 556  12  11.841274  -0.986200   5.699016  -0.000754   0.273242  -0.002761
 557   4  13.285886  -0.787496   5.486352  -0.000672   0.387479  -0.001734
 558  13  11.464021   6.070429   5.084253  -0.000729   0.273124  -0.002668
 559   4  12.835026   6.031986   4.527452  -0.000880   0.387495  -0.002270
 560  18  18.053318   5.083698   4.094030  -0.001462   0.107403  -0.013608
 561   4  17.246434   5.315384   4.454679  -0.000799   0.131217  -0.006091
 562  18  18.324226   0.622732   4.702065  -0.001640   0.111518  -0.014708
 563   4  17.516634   0.258277   4.927176  -0.000828   0.136244  -0.006076
 564   5   4.295719  -1.604459   4.810359   0.000021   0.028802   0.000745
 565   8   3.857451  -1.621819   4.571813   0.000051   0.028802   0.001781
 566  16   4.388327  -1.611691   5.100003  -0.000003   0.028802  -0.000121
 567   5   2.610880   4.117303   6.527890   0.000014   0.028440   0.000490
 568   8   2.193949   4.035784   6.265604   0.000027   0.028440   0.000957
 569  17   2.809984   4.345063   6.564188  -0.000021   0.028440  -0.000728
 570   5   2.128678   3.384344   6.666536   0.000049   0.028960   0.001692
 571   8   1.673060   3.344878   6.466172   0.000018   0.028960   0.000638
 572  19   1.433208   3.162744   6.505064  -0.000006   0.028960  -0.000222
 573   5   4.270391  -1.670413   3.919431   0.000029   0.028411   0.001007
 574   8   3.838135  -1.771340   3.690869   0.000015   0.028411   0.000524
 575  20   3.748737  -1.859960   3.413891  -0.000020   0.028411  -0.000713
 576   8   1.805181   3.654870   6.379782   0.000143   0.096377   0.001485
 577   5   2.449320   3.838710   6.656798   0.000179   0.096377   0.001858
 578   8   3.784046  -1.764319   4.035845   0.000184   0.097505   0.001886
 579   5   4.355813  -1.671316   4.471959   0.000150   0.097505   0.001539
 580   5   6.961145   3.772689   7.397261   0.000144   0.088898   0.001620
 581  13   7.885730   4.084899   7.212410   0.000101   0.088898   0.001137
 582  17   6.837829   4.052996   7.365822  -0.000107   0.088898  -0.001199
 583   5   5.139469  -1.570919   3.280127   0.000095   0.166189   0.000570
 584  15   5.646185  -1.653285   2.727307  -0.000118   0.166189  -0.000708
 585  20   4.568157  -1.696688   2.802833  -0.000030   0.166189  -0.000180
 586  15   6.495408  -1.837357   2.975239  -0.000199   0.150338  -0.001325
 587   5   5.672790  -1.681058   3.726807   0.000362   0.211945   0.001710
 588   5   2.810238   0.598339   7.151911   0.000081   0.039028   0.002072
 589  16   3.032185   0.401799   7.219463  -0.000048   0.039028  -0.001242
 590  19   2.116687   0.623953   6.877436   0.000068   0.039028   0.001743
 591  16   4.889417  -1.712754   5.287107  -0.000070   0.069373  -0.001010
 592  16   5.751213  -1.672379   5.213530  -0.000081   0.069373  -0.001168
 593   5   5.282328  -1.623037   4.843536  -0.000182   0.152219  -0.001194
 594  16   6.307279   1.214913   8.074499   0.000000   0.074250   0.000004
 595  16   5.132933   1.226335   8.242295  -0.000153   0.167233  -0.000914
 596  16   3.863441   0.688569   7.864499  -0.000362   0.167233  -0.002165
 597   5   5.881622   1.663271   8.104353   0.000200   0.160608   0.001248
 598   5   4.294808   1.424216   8.072399   0.000048   0.160608   0.000302
 599   5   3.283440   0.777802   7.549830   0.000025   0.090713   0.000279
 600  17   3.199313   4.397776   6.986314  -0.000088   0.078752  -0.001123
 601  17   4.156619   4.007268   7.689836  -0.000237   0.179876  -0.001316
 602  17   5.652883   3.944905   7.805968  -0.000260   0.179876  -0.001444
 603   5   3.359342   3.851473   7.273294  -0.000177   0.168203  -0.001053
 604   5   4.870633   3.489923   7.926407   0.000141   0.168203   0.000841
 605   5   6.237229   3.584062   7.761305   0.000176   0.096213   0.001830
 606  19   1.552739   0.989034   6.940810  -0.000229   0.181208  -0.001263
 607  19   1.378803   2.303929   6.839720  -0.000792   0.369448  -0.002143
 608   5   2.528900   1.617589   7.284205   0.000766   0.498254   0.001538
 609   5   2.330951   3.097847   7.042423   0.000581   0.255430   0.002275
 610  20   3.921778  -1.941966   3.012126  -0.000148   0.119859  -0.001238
 611   5   4.661135  -1.732271   3.830983   0.000311   0.169012   0.001842
 612  10  13.953188   5.417267   0.370343  -0.001463   0.268567  -0.005449
 613  10  13.916331   4.371312  -0.551338  -0.002824   0.541879  -0.005212
 614   6  15.344407   4.831356   0.211038   0.004084   0.660127   0.006187
 615   6  15.251509   3.608276  -0.686420   0.002416   0.333084   0.007252
 616  11  14.086648   0.158134  -0.429029  -0.000874   0.271036  -0.003225
 617  11  14.293871  -0.758520   0.618130  -0.003404   0.547003  -0.006222
 618   6  15.527513   0.236734   0.043680   0.004797   0.666055   0.007202
 619   6  15.688951  -0.663327   1.274545   0.001653   0.336115   0.004918
 620  18  18.592746   0.418254   4.019696  -0.001056   0.083234  -0.012693
 621  18  19.221366   0.600622   2.980918  -0.002865   0.180297  -0.015888
 622  18  19.748158   1.540920   1.953619  -0.003087   0.180297  -0.017121
 623  18  19.796548   2.983781   1.589172  -0.003170   0.180297  -0.017580
 624  18  19.346436   4.329929   2.038948  -0.003064   0.180297  -0.016995
 625  18  18.584774   5.020255   3.116135  -0.002933   0.180297  -0.016270
 626   6  18.508852   0.222423   3.400666  -0.002077   0.178490  -0.011635
 627   6  19.259260   0.786711   2.091629  -0.002101   0.178490  -0.011771
 628   6  19.587941   2.148541   1.296332  -0.002553   0.178490  -0.014301
 629   6  19.358382   3.742289   1.345092  -0.002363   0.178490  -0.013238
 630   6  18.665927   4.906009   2.217658  -0.002062   0.178490  -0.011552
 631   6  17.963699   5.270993   3.264841  -0.000974   0.095300  -0.010218
 632  12  11.954925  -0.609823   6.693172  -0.000162   0.252465  -0.000640
 633  12  11.549069   0.171340   7.568501  -0.000031   0.507377  -0.000061
 634  12  11.068986   1.235631   7.990331   0.000640   0.252465   0.002534
 635   7  13.265986   0.077548   7.323541   0.006856   0.627152   0.010931
 636   7  12.659012   1.341903   8.212250   0.009155   0.627152   0.014598
 637  13  10.872530   4.422008   7.590291   0.000593   0.247228   0.002398
 638  13  11.227786   5.375865   6.935327   0.000076   0.496612   0.000154
 639  13  11.549676   5.960413   5.925515  -0.000135   0.247228  -0.000545
 640   7  12.469876   4.537134   7.817687   0.008419   0.614933   0.013691
 641   7  12.934035   5.591653   6.676546   0.006618   0.614933   0.010762
 642  18  18.278523   4.744503   4.762486  -0.003339   0.216273  -0.015437
 643  18  18.778443   3.751597   5.386838  -0.007407   0.436753  -0.016959
 644  18  18.865737   2.216009   5.561137  -0.007572   0.436753  -0.017336
 645  18  18.488025   1.059174   5.180794  -0.003295   0.216273  -0.015235
 646   7  17.667134   4.584443   5.942522   0.003596   0.525533   0.006842
 647   7  18.126664   3.065889   6.545463   0.004906   0.525533   0.009335
 648   7  17.847628   1.409382   6.302912   0.003275   0.525533   0.006232
 649   8  -1.239697   1.932527   3.242428   0.000029   0.028712   0.001004
 650   9  -1.316570   2.312786   2.928867   0.000061   0.028712   0.002126
 651  19  -1.245964   1.891874   3.543288   0.000006   0.028712   0.000206
 652   8   0.380711   4.070682   5.210339   0.000046   0.028712   0.001615
 653   9   0.282927   4.423349   4.871383   0.000094   0.028712   0.003276
 654  19   0.229535   3.838819   5.335213   0.000009   0.028712   0.000315
 655   8   0.500971   0.127023   0.395115   0.000048   0.028003   0.001707
 656   9   0.406505   0.526013   0.111062   0.000095   0.028003   0.003392
 657  20   0.683516  -0.116217   0.387071   0.000015   0.028003   0.000523
 658   8   0.869324   4.693874   5.049104   0.000045   0.026278   0.001710
 659   9   0.733385   5.087455   4.774571   0.000020   0.026278   0.000777
 660  21   0.819200   5.372508   4.715492  -0.000020   0.026278  -0.000759
 661   8   0.035471   0.592969   0.404235   0.000088   0.026044   0.003373
 662   9  -0.106186   0.937892   0.073009   0.000025   0.026044   0.000944
 663  23  -0.343457   1.112611   0.003295  -0.000007   0.026044  -0.000262
 664   8  -1.306460   2.047888   2.678699   0.000049   0.026044   0.001895
 665   9  -1.466253   2.412475   2.378214   0.000026   0.026044   0.001015
 666  23  -1.581287   2.454665   2.101318  -0.000001   0.026044  -0.000030
 667   9   0.120058   0.776951  -0.014388   0.000117   0.048892   0.002387
 668   8   0.242329   0.253702   0.460895   0.000159   0.048892   0.003257
 669   9  -1.460498   2.419128   2.578034   0.000075   0.029123   0.002582
 670   8  -1.291109   1.905886   3.047400   0.000070   0.029123   0.002400
 671   9   0.422225   4.837534   4.784779   0.000195   0.081055   0.002402
 672   8   0.675239   4.346388   5.248891   0.000179   0.081055   0.002208
 673   8   2.133256  -0.179814   6.393751   0.000082   0.039389   0.002072
 674  16   2.812813  -0.223824   6.702519   0.000069   0.039389   0.001742
 675  19   1.864983  -0.042910   6.431663  -0.000047   0.039389  -0.001191
 676  16   3.312422  -0.669010   6.781362  -0.000227   0.180434  -0.001260
 677  16   3.943096  -1.394487   5.872868  -0.000766   0.367739  -0.002082
 678   8   2.605894  -0.949365   5.838095   0.000777   0.496251   0.001566
 679   8   3.392045  -1.672058   4.778512   0.000590   0.254316   0.002319
 680   8   1.966683   4.765058   5.470687   0.000099   0.168169   0.000591
 681  17   2.624863   4.998146   5.759252  -0.000025   0.168169  -0.000150
 682  21   1.885274   5.401846   5.059909  -0.000102   0.168169  -0.000608
 683  17   2.893294   4.757511   6.397228  -0.000159   0.122806  -0.001293
 684   8   1.939567   4.274727   6.050135   0.000313   0.173157   0.001807
 685  19  -1.267458   1.398835   3.817611  -0.000075   0.075082  -0.000999
 686  19  -0.893616   0.284919   4.063578  -0.000203   0.169696  -0.001194
 687  19  -0.022534  -0.544410   4.865329  -0.000157   0.169696  -0.000928
 688  19   0.963902  -0.405816   5.912760  -0.000320   0.169696  -0.001885
 689   8  -1.071101   0.919446   3.472710  -0.000099   0.161869  -0.000613
 690   8  -0.349384  -0.412907   4.053462   0.000222   0.161869   0.001371
 691   8   0.762682  -0.826439   5.160537   0.000069   0.161869   0.000429
 692   8   1.608422  -0.420483   6.095741   0.000033   0.091729   0.000362
 693  19   0.922841   3.247813   6.342853  -0.000073   0.068618  -0.001070
 694  19   0.351693   3.567935   5.788214  -0.000065   0.068618  -0.000941
 695   8   0.927209   3.661144   5.913142  -0.000165   0.150781  -0.001093
 696  20   3.270604  -2.071180   3.267940  -0.000072   0.069058  -0.001043
 697  20   2.162189  -2.087895   3.271352  -0.000157   0.153033  -0.001029
 698  20   1.002576  -1.757934   2.685030  -0.000079   0.153033  -0.000514
 699  20   0.487539  -1.134829   1.615532  -0.000203   0.153033  -0.001328
 700  20   0.643951  -0.576317   0.670824  -0.000066   0.069058  -0.000960
 701   8   2.869439  -1.933717   3.689693  -0.000119   0.151683  -0.000783
 702   8   1.393482  -1.796258   3.423072   0.000178   0.151683   0.001174
 703   8   0.400698  -1.231251   2.441452   0.000200   0.151683   0.001316
 704   8   0.297000  -0.469708   1.146180  -0.000027   0.151683  -0.000177
 705  21   1.076363   5.618881   4.788315  -0.000178   0.140799  -0.001263
 706   8   1.296305   4.679873   5.386486   0.000360   0.198411   0.001815
 707  23  -0.744981   1.235251   0.198182  -0.000216   0.202644  -0.001068
 708  23  -1.440306   1.879066   1.300542  -0.001087   0.414976  -0.002621
 709   8  -0.591888   0.676950   1.298364   0.000869   0.554820   0.001566
 710   8  -1.282164   1.525606   2.537708   0.000680   0.285384   0.002382
 711   9   4.909603   6.040297   0.273931   0.000077   0.083778   0.000923
 712  14   5.872691   5.668942   0.366006  -0.000158   0.083778  -0.001888
 713  22   5.015965   5.906657   0.020784  -0.000207   0.083778  -0.002475
 714  14   6.408088   5.801790   1.026653  -0.001143   0.412835  -0.002769
 715   9   4.973593   6.319139   1.308816   0.001683   0.587712   0.002863
 716   9   4.296912   6.412930   2.961809   0.000066   0.088768   0.000739
 717  17   4.768222   6.111616   3.793260   0.000146   0.088768   0.001645
 718  21   4.080956   6.587403   3.092007  -0.000024   0.088768  -0.000268
 719  17   5.339046   6.064908   4.083497  -0.000008   0.048776  -0.000161
 720   9   4.572726   6.436204   2.873878   0.000235   0.069311   0.003393
 721  19  -0.195284   3.581537   5.258137  -0.000177   0.220235  -0.000802
 722  19  -1.042946   2.610712   4.336895  -0.001321   0.454254  -0.002908
 723   9  -0.622272   4.057144   4.180401   0.000911   0.600141   0.001519
 724   9  -1.427960   2.859524   3.103382   0.000673   0.310281   0.002169
 725  20   1.070845  -0.273615   0.131323  -0.000168   0.214821  -0.000783
 726  20   2.547233  -0.084829  -0.274072  -0.001099   0.441968  -0.002487
 727   9   1.319376   0.721174  -0.584441   0.000945   0.586281   0.001613
 728   9   3.030198   0.973473  -0.876815   0.000750   0.302597   0.002477
 729  21   3.807503   7.050079   2.561484  -0.000053   0.067455  -0.000786
 730  21   3.243210   7.487735   1.742561  -0.000130   0.148900  -0.000875
 731  21   2.089584   7.754733   1.170026  -0.000220   0.148900  -0.001478
 732  21   0.788178   7.614477   1.298893  -0.000248   0.148900  -0.001662
 733  21  -0.149711   7.122071   2.078531  -0.000153   0.148900  -0.001029
 734  21  -0.355605   6.470970   3.202637  -0.000172   0.148900  -0.001157
 735  21   0.251388   5.916981   4.229570  -0.000334   0.148900  -0.002242
 736   9   3.865373   7.000236   1.974779   0.000149   0.148708   0.001003
 737   9   2.855961   7.495024   1.015476   0.000104   0.148708   0.000697
 738   9   1.403557   7.570006   0.753001  -0.000013   0.148708  -0.000091
 739   9   0.078784   7.195721   1.290475   0.000041   0.148708   0.000277
 740   9  -0.597881   6.519219   2.416735   0.000120   0.148708   0.000806
 741   9  -0.360589   5.806285   3.689294  -0.000085   0.148708  -0.000571
 742   9   0.387425   5.371459   4.519808   0.000016   0.082411   0.000198
 743  22   3.749038   2.169700  -1.559688  -0.000145   0.067175  -0.002163
 744  22   3.036131   2.758061  -2.129109  -0.000227   0.148350  -0.001527
 745  22   2.517159   3.924021  -2.442465  -0.000178   0.148350  -0.001201
 746  22   2.591851   5.212989  -2.197582  -0.000245   0.148350  -0.001655
 747  22   3.230831   6.118033  -1.490768  -0.000291   0.148350  -0.001961
 748  22   4.182797   6.283211  -0.600003  -0.000246   0.148350  -0.001656
 749   9   3.167923   2.107594  -1.643210  -0.000164   0.148005  -0.001111
 750   9   2.323364   3.143163  -2.271356   0.000085   0.148005   0.000573
 751   9   2.060513   4.595581  -2.311866   0.000012   0.148005   0.000083
 752   9   2.482745   5.893632  -1.748810  -0.000034   0.148005  -0.000226
 753   9   3.424002   6.526811  -0.803629  -0.000034   0.148005  -0.000227
 754   9   4.312913   6.446404  -0.004045   0.000137   0.082068   0.001675
 755  23  -1.849191   2.878182   1.899991  -0.000082   0.069018  -0.001185
 756  23  -1.973779   3.974109   1.754958  -0.000254   0.153202  -0.001661
 757  23  -1.799769   5.063934   0.986073  -0.000133   0.153202  -0.000868
 758  23  -1.305909   5.466206  -0.198605  -0.000264   0.153202  -0.001722
 759  23  -0.696360   5.014625  -1.309328  -0.000288   0.153202  -0.001881
 760  23  -0.223111   3.895875  -1.886924  -0.000175   0.153202  -0.001142
 761  23  -0.081803   2.572449  -1.692612  -0.000182   0.153202  -0.001189
 762  23  -0.330853   1.591452  -0.806722  -0.000323   0.153202  -0.002106
 763   9  -1.722676   3.346680   2.248963  -0.000109   0.151324  -0.000718
 764   9  -1.748638   4.780201   1.771975   0.000020   0.151324   0.000132
 765   9  -1.352471   5.665284   0.613160   0.000111   0.151324   0.000730
 766   9  -0.697950   5.636034  -0.748428  -0.000076   0.151324  -0.000504
 767   9  -0.055655   4.704545  -1.749906  -0.000079   0.151324  -0.000521
 768   9   0.308888   3.255893  -1.977262   0.000118   0.151324   0.000782
 769   9   0.244977   1.888954  -1.336508  -0.000024   0.151324  -0.000158
 770   9  -0.078458   1.172991  -0.392895   0.000013   0.084320   0.000150
 771  14   8.727274   5.644820   1.018347  -0.000130   0.248729  -0.000524
 772  14   8.702636   5.185276   0.001651  -0.000899   0.497316  -0.001807
 773  14   8.736874   4.060378  -0.764927  -0.000577   0.497316  -0.001160
 774  10  10.252088   5.600016   0.534175  -0.001778   0.497316  -0.003576
 775  10  10.246713   4.792235  -0.562032  -0.001908   0.497316  -0.003836
 776  10  10.293632   3.759863  -0.983298  -0.000366   0.248729  -0.001470
 777  15   8.933902  -0.326644  -0.384067   0.000165   0.251136   0.000658
 778  15   9.044956  -1.231485   0.261559  -0.000696   0.502105  -0.001386
 779  15   9.176667  -1.754456   1.513101  -0.000673   0.502105  -0.001340
 780  11  10.525928  -0.583659  -0.280465  -0.001597   0.502105  -0.003181
 781  11  10.664945  -1.495549   0.722698  -0.001926   0.502105  -0.003837
 782  11  10.762801  -1.697934   1.816942  -0.000552   0.251136  -0.002196
 783  16   7.006564  -1.410546   6.029771   0.000038   0.251839   0.000152
 784  16   7.057921  -0.925056   7.059004  -0.000525   0.503588  -0.001042
 785  16   7.059421   0.243050   7.809557  -0.000145   0.503588  -0.000288
 786  12   8.547350  -1.185252   6.328181  -0.000599   0.503588  -0.001190
 787  12   8.587792  -0.339109   7.428277  -0.000653   0.503588  -0.001297
 788  12   8.568770   0.728264   7.825781   0.000208   0.251839   0.000826
 789  17   6.804009   4.514672   7.440655   0.000320   0.256373   0.001248
 790  17   6.717941   5.469211   6.780522  -0.000380   0.512704  -0.000741
 791  17   6.608592   6.008146   5.474903  -0.000381   0.512704  -0.000743
 792  13   8.281654   4.965701   7.115785  -0.000403   0.512704  -0.000787
 793  13   8.170830   5.923361   6.077683  -0.000761   0.512704  -0.001485
 794  13   8.087429   6.120767   4.933829  -0.000057   0.256373  -0.000222
 795  22   5.205611   5.857090  -0.381181  -0.000093   0.220745  -0.000424
 796  22   5.375289   5.127032  -1.193008  -0.001446   0.441597  -0.003274
 797  22   5.324443   3.858140  -1.652520  -0.001564   0.441597  -0.003543
 798  14   6.542917   5.382129  -0.247951  -0.001429   0.441597  -0.003236
 799  14   6.653964   4.309120  -1.060443  -0.001346   0.441597  -0.003047
 800  14   6.530925   3.224887  -1.234048  -0.000060   0.220745  -0.000272
 801  20   4.091801  -0.553015  -0.044119   0.000223   0.253762   0.000879
 802  20   4.175150  -1.477780   0.612975  -0.000230   0.507404  -0.000453
 803  20   4.285911  -2.002994   1.891236  -0.000243   0.507404  -0.000478
 804  15   5.658691  -0.861754   0.074721  -0.000013   0.507404  -0.000026
 805  15   5.767881  -1.790357   1.098364  -0.000461   0.507404  -0.000908
 806  15   5.854068  -1.986184   2.215562   0.000082   0.253762   0.000325
 807  19   1.708983   0.173404   6.731686   0.000349   0.237452   0.001468
 808  16   3.043966   0.001393   7.238611   0.000359   0.237452   0.001510
 809  21   1.911887   6.044838   5.034948   0.000086   0.250329   0.000342
 810  21   2.681334   6.730878   4.616694  -0.000370   0.500483  -0.000739
 811  21   3.662397   6.950795   3.704615   0.000009   0.500483   0.000018
 812  17   3.253038   5.750604   5.890513  -0.000158   0.500483  -0.000316
 813  17   4.243556   6.371076   5.200133  -0.000168   0.500483  -0.000335
 814  17   4.995926   6.333712   4.381489   0.000241   0.250329   0.000962
 =====================================================

              5732356  WORDS OF DYNAMIC MEMORY USED
 EXECUTION OF GAMESS TERMINATED NORMALLY Fri Nov 25 03:55:25 2016
 DDI: 263640 bytes (0.3 MB / 0 MWords) used by master data server.

 ----------------------------------------
 CPU timing information for all processes
 ========================================
 0: 2556.604 + 0.760 = 2557.364
 ----------------------------------------
 ddikick.x: exited gracefully.
