----- GAMESS execution script -----

          ******************************************************
          *         GAMESS VERSION =  5 DEC 2014 (R1)          *
          *             FROM IOWA STATE UNIVERSITY             *
          * M.W.SCHMIDT, K.K.BALDRIDGE, J.A.BOATZ, S.T.ELBERT, *
          *   M.S.GORDON, J.H.JENSEN, S.KOSEKI, N.MATSUNAGA,   *
          *          K.A.NGUYEN, S.J.SU, T.L.WINDUS,           *
          *       TOGETHER WITH M.DUPUIS, J.A.MONTGOMERY       *
          *         J.COMPUT.CHEM.  14, 1347-1363(1993)        *
          **************** 64 BIT LINUX VERSION ****************

 EXECUTION OF GAMESS BEGUN Fri Nov 25 03:20:30 2016

            ECHO OF THE FIRST FEW INPUT CARDS -
 INPUT CARD>! SELECT RESTRICTED HARTREE-FOCK AS DEFAULT                                     
 INPUT CARD>$contrl scftyp=rhf $end                                                         
 INPUT CARD>                                                                                
 INPUT CARD>! THEORY: HF OR DFT                                                             
 INPUT CARD> $contrl mplevl=0 $end                                                          
 INPUT CARD>                                                                                
 INPUT CARD> $system timlim=10000 mwords=20 $end                                            
 INPUT CARD> $SCF DIRSCF=.TRUE. $end                                                        
 INPUT CARD>                                                                                
 INPUT CARD>                                                                                
 INPUT CARD>! BASIS SETS                                                                    
 INPUT CARD>! 6-311G(d,p)                                                                   
 INPUT CARD> $BASIS GBASIS=N311 NGAUSS=6 NDFUNC=1 NPFUNC=1 $END                             
 INPUT CARD>                                                                                
 INPUT CARD>! One of the following                                                          
 INPUT CARD> $guess guess=HUCKEL $end                                                       
 INPUT CARD>                                                                                
 INPUT CARD> $statpt projct=.FALSE. $end                                                    
 INPUT CARD> $STATPT IFREEZ(1)=1,2,3 $END                                                   
 INPUT CARD>                                                                                
 INPUT CARD>! Optimize the geometry with COSMO effects                                      
 INPUT CARD> $statpt opttol=0.0005 nstep=50 $end                                            
 INPUT CARD> $contrl nzvar=1 $end                                                           
 INPUT CARD> $zmat dlc=.t. auto=.t. $end                                                    
 INPUT CARD> $contrl runtyp=OPTIMIZE maxit=200 $end                                         
 INPUT CARD>                                                                                
 INPUT CARD>! Run COSMO on perfect conductor                                                
 INPUT CARD> $COSGMS PRFCND=.TRUE. $end                                                     
 INPUT CARD>                                                                                
 INPUT CARD>! Specifying RSOLV                                                              
 INPUT CARD> $COSGMS COSRAD = 1.4 $end                                                      
 INPUT CARD>                                                                                
 INPUT CARD>! available memory                                                              
 INPUT CARD> $SYSTEM MWORDS=40 $END                                                         
 INPUT CARD>                                                                                
 INPUT CARD> $DATA                                                                          
 INPUT CARD>Hexanoic acid, ID: C142621                                                      
 INPUT CARD>C1                                                                              
 INPUT CARD>C      6.0      0.5791000000    0.8474000000    1.7018000000                    
 INPUT CARD>C      6.0      1.9575000000    0.9594000000    1.0923000000                    
 INPUT CARD>C      6.0      2.7605000000    2.0837000000    1.7286000000                    
 INPUT CARD>C      6.0      4.1461000000    2.2167000000    1.1148000000                    
 INPUT CARD>C      6.0      5.0545000000    1.0724000000    1.5361000000                    
 INPUT CARD>C      6.0      6.4345000000    1.1783000000    0.9473000000                    
 INPUT CARD>O      8.0      7.2763000000    0.1754000000    1.3014000000                    
 INPUT CARD>O      8.0      6.9126000000    2.0186000000    0.2064000000                    
 INPUT CARD>H      1.0      0.6271000000    0.6513000000    2.7812000000                    
 INPUT CARD>H      1.0      0.0000000000    1.7703000000    1.5642000000                    
 INPUT CARD>H      1.0      0.0069000000    0.0299000000    1.2450000000                    
 INPUT CARD>H      1.0      1.8736000000    1.1288000000    0.0000000000                    
   40000000 WORDS OF MEMORY AVAILABLE

     BASIS OPTIONS
     -------------
     GBASIS=N311         IGAUSS=       6      POLAR=POPN311 
     NDFUNC=       1     NFFUNC=       0     DIFFSP=       F
     NPFUNC=       1      DIFFS=       F     BASNAM=        


     RUN TITLE
     ---------
 Hexanoic acid, ID: C142621                                                      

 THE POINT GROUP OF THE MOLECULE IS C1      
 THE ORDER OF THE PRINCIPAL AXIS IS     0

 ATOM      ATOMIC                      COORDINATES (BOHR)
           CHARGE         X                   Y                   Z
 C           6.0     1.0943403195        1.6013538020        3.2159356859
 C           6.0     3.6991386210        1.8130031126        2.0641476964
 C           6.0     5.2165885891        3.9376220406        3.2665803424
 C           6.0     7.8349929177        4.1889555970        2.1066665311
 C           6.0     9.5516200049        2.0265421492        2.9028080897
 C           6.0    12.1594418680        2.2266641313        1.7901374282
 O           8.0    13.7502132045        0.3314579382        2.4592894004
 O           8.0    13.0629198627        3.8146008788        0.3900394439
 H           1.0     1.1850471669        1.2307785358        5.2557059171
 H           1.0     0.0000000000        3.3453819161        2.9559093900
 H           1.0     0.0130391093        0.0565028070        2.3527088547
 H           1.0     3.5405906106        2.1331226949        0.0000000000
 H           1.0     4.7348974348        0.0000000000        2.2695609113
 H           1.0     5.3689005037        3.6275180060        5.3333736551
 H           1.0     4.1846092272        5.7459008383        3.0435926758
 H           1.0     7.6960980576        4.2626549105        0.0175744517
 H           1.0     8.6832909136        6.0166985723        2.6769858342
 H           1.0     9.7065775359        1.9460398222        4.9919001692
 H           1.0     8.7010543379        0.1927520507        2.3292762525
 H           1.0    15.3559133762        0.5839253302        1.6879032522

          INTERNUCLEAR DISTANCES (ANGS.)




     $CONTRL OPTIONS
     ---------------
 SCFTYP=RHF          RUNTYP=OPTIMIZE     EXETYP=RUN     
 MPLEVL=       0     CITYP =NONE         CCTYP =NONE         VBTYP =NONE    
 DFTTYP=NONE         TDDFT =NONE    
 MULT  =       1     ICHARG=       0     NZVAR =       1     COORD =UNIQUE  
 PP    =NONE         RELWFN=NONE         LOCAL =NONE         NUMGRD=       F
 ISPHER=      -1     NOSYM =       0     MAXIT =     200     UNITS =ANGS    
 PLTORB=       F     MOLPLT=       F     AIMPAC=       F     FRIEND=        
 NPRINT=       7     IREST =       0     GEOM  =INPUT   
 NORMF =       0     NORMP =       0     ITOL  =      20     ICUT  =       9
 INTTYP=BEST         GRDTYP=BEST         QMTTOL= 1.0E-06

     $SYSTEM OPTIONS
     ---------------
  REPLICATED MEMORY=    40000000 WORDS (ON EVERY NODE).
 DISTRIBUTED MEMDDI=           0 MILLION WORDS IN AGGREGATE,
 MEMDDI DISTRIBUTED OVER   1 PROCESSORS IS           0 WORDS/PROCESSOR.
 TOTAL MEMORY REQUESTED ON EACH PROCESSOR=    40000000 WORDS.
 TIMLIM=       10000.00 MINUTES, OR       6.9 DAYS.
 PARALL= F  BALTYP=  DLB     KDIAG=    0  COREFL= F
 MXSEQ2=     300 MXSEQ3=     150  mem10=         0

     $COSGMS OPTIONS
     ---------------
     EPSI  =   INFTY     NSPA  =      92     COSRAD=    1.40
     DISEX =   10.00     OUTCHG=DBLCAV       COSBUG=       F
     COSWRT=       F     DCOSMO=       F

     SYMMETRY COORDINATES WILL NOT BE USED FOR 
     THE COSMO CALCULATION, EVEN IF SPECIFIED:
         -- SWITCHING TO C1 POINT GROUP --


     DEFINITION OF CAVITY
     ---------------------------
     ATOM         COORDINATES           RADIUS 
     1    1.0943    1.6014    3.2159    2.0000
     2    3.6991    1.8130    2.0641    2.0000
     3    5.2166    3.9376    3.2666    2.0000
     4    7.8350    4.1890    2.1067    2.0000
     5    9.5516    2.0265    2.9028    2.0000
     6   12.1594    2.2267    1.7901    2.0000
     7   13.7502    0.3315    2.4593    1.7200
     8   13.0629    3.8146    0.3900    1.7200
     9    1.1850    1.2308    5.2557    1.3000
    10    0.0000    3.3454    2.9559    1.3000
    11    0.0130    0.0565    2.3527    1.3000
    12    3.5406    2.1331    0.0000    1.3000
    13    4.7349    0.0000    2.2696    1.3000
    14    5.3689    3.6275    5.3334    1.3000
    15    4.1846    5.7459    3.0436    1.3000
    16    7.6961    4.2627    0.0176    1.3000
    17    8.6833    6.0167    2.6770    1.3000
    18    9.7066    1.9460    4.9919    1.3000
    19    8.7011    0.1928    2.3293    1.3000
    20   15.3559    0.5839    1.6879    1.3000

          ----------------
          PROPERTIES INPUT
          ----------------

     MOMENTS            FIELD           POTENTIAL          DENSITY
 IEMOM =       1   IEFLD =       0   IEPOT =       0   IEDEN =       0
 WHERE =COMASS     WHERE =NUCLEI     WHERE =NUCLEI     WHERE =NUCLEI  
 OUTPUT=BOTH       OUTPUT=BOTH       OUTPUT=BOTH       OUTPUT=BOTH    
 IEMINT=       0   IEFINT=       0                     IEDINT=       0
                                                       MORB  =       0
          EXTRAPOLATION IN EFFECT
          SOSCF IN EFFECT
 ORBITAL PRINTING OPTION: NPREO=     1   224     2     1

     -------------------------------
     INTEGRAL TRANSFORMATION OPTIONS
     -------------------------------
     NWORD  =            0
     CUTOFF = 1.0E-09     MPTRAN =       0
     DIRTRF =       T     AOINTS =DUP     

          ----------------------
          INTEGRAL INPUT OPTIONS
          ----------------------
 NOPK  =       1 NORDER=       0 SCHWRZ=       T


 -----------------------------------------------
  STATISTICS ON AUTOMATIC COORDINATE GENERATION 
 -----------------------------------------------
  NUMBER OF USER SPECIFIED BONDS                             0
  NUMBER OF BONDS                                           19
  NUMBER OF ANGLES                                          34
  NUMBER OF TORSIONS                                        44
  NUMBER OF EXTRA COORD.                                     0
  NUMBER OF EXTRA COORD. FOR CONSTRAINTS                     0
  NUMBER OF CONSTRAINED COORD.                               0

  TOTAL NUMBER OF PRIMITIVES                                97
 -----------------------------------------------

   --- ENCODED Z MATRIX ---
 COORD  TYPE   I   J   K   L   M   N
    1      1    1  11
    2      1    1  10
    3      1    1   9
    4      1    1   2
    5      1    2  13
    6      1    2  12
    7      1    2   3
    8      1    3  15
    9      1    3   4
   10      1    3  14
   11      1    4  16
   12      1    4   5
   13      1    4  17
   14      1    5   6
   15      1    5  19
   16      1    5  18
   17      1    6   8
   18      1    6   7
   19      1    7  20
   20      2    1   2   3
   21      2    1   2  13
   22      2    1   2  12
   23      2    2   3  15
   24      2    2   1  11
   25      2    2   1  10
   26      2    2   1   9
   27      2    2   3  14
   28      2    2   3   4
   29      2    3   4  17
   30      2    3   2  12
   31      2    3   2  13
   32      2    3   4   5
   33      2    3   4  16
   34      2    4   5  19
   35      2    4   5   6
   36      2    4   3  15
   37      2    4   3  14
   38      2    4   5  18
   39      2    5   6   8
   40      2    5   4  17
   41      2    5   4  16
   42      2    5   6   7
   43      2    6   5  18
   44      2    6   5  19
   45      2    6   7  20
   46      2    7   6   8
   47      2    9   1  10
   48      2    9   1  11
   49      2   10   1  11
   50      2   12   2  13
   51      2   14   3  15
   52      2   16   4  17
   53      2   18   5  19
   54      3    1   2   3  14
   55      3    1   2   3   4
   56      3    1   2   3  15
   57      3    2   3   4  16
   58      3    2   3   4  17
   59      3    2   3   4   5
   60      3    3   2   1   9
   61      3    3   4   5  18
   62      3    3   4   5  19
   63      3    3   4   5   6
   64      3    3   2   1  11
   65      3    3   2   1  10
   66      3    4   3   2  12
   67      3    4   5   6   7
   68      3    4   5   6   8
   69      3    4   3   2  13
   70      3    5   4   3  14
   71      3    5   4   3  15
   72      3    5   6   7  20
   73      3    6   5   4  17
   74      3    6   5   4  16
   75      3    7   6   5  18
   76      3    7   6   5  19
   77      3    8   6   7  20
   78      3    8   6   5  18
   79      3    8   6   5  19
   80      3    9   1   2  12
   81      3    9   1   2  13
   82      3   10   1   2  12
   83      3   10   1   2  13
   84      3   11   1   2  13
   85      3   11   1   2  12
   86      3   12   2   3  15
   87      3   12   2   3  14
   88      3   13   2   3  15
   89      3   13   2   3  14
   90      3   14   3   4  16
   91      3   14   3   4  17
   92      3   15   3   4  16
   93      3   15   3   4  17
   94      3   16   4   5  19
   95      3   16   4   5  18
   96      3   17   4   5  19
   97      3   17   4   5  18

          INDEP./SYM. INTERNAL COORDINATES
          --------------------------------
 CRD  1=  -0.1762 ( 20) -0.1419 ( 23) -0.1052 ( 27)  0.3906 ( 28) -0.1850 ( 29)
           0.5288 ( 32) -0.1260 ( 33)  0.1244 ( 34) -0.3368 ( 35) -0.1645 ( 36)
          -0.1029 ( 39) -0.1899 ( 40) -0.1489 ( 41)  0.1719 ( 42)  0.1153 ( 44)
           0.1181 ( 55)
 CRD  2=   0.3304 ( 20) -0.1260 ( 22)  0.1734 ( 23)  0.1454 ( 27) -0.4952 ( 28)
          -0.1026 ( 30) -0.1379 ( 31)  0.2544 ( 32) -0.1608 ( 33) -0.3177 ( 35)
           0.2169 ( 37)  0.1044 ( 38) -0.1087 ( 39)  0.1443 ( 42)  0.1569 ( 43)
           0.1235 ( 55) -0.1364 ( 61) -0.1917 ( 63)  0.1149 ( 66)  0.1012 ( 71)
 CRD  3=  -0.2109 (  4) -0.2111 (  7) -0.3481 (  9) -0.2064 ( 12) -0.1962 ( 14)
          -0.1012 ( 18) -0.4321 ( 20)  0.1314 ( 21)  0.1613 ( 22) -0.1112 ( 26)
          -0.1110 ( 28)  0.1267 ( 30)  0.1221 ( 31) -0.2334 ( 32) -0.3839 ( 35)
          -0.1464 ( 39)  0.1057 ( 42)  0.1461 ( 43)  0.1521 ( 44) -0.1108 ( 45)
 CRD  4=   0.1256 (  4)  0.3192 ( 20) -0.2027 ( 21) -0.1031 ( 23)  0.1856 ( 25)
           0.1443 ( 27)  0.1045 ( 29) -0.1869 ( 30) -0.1952 ( 32)  0.1001 ( 33)
           0.1571 ( 34) -0.2700 ( 35) -0.2146 ( 37) -0.1431 ( 39)  0.1360 ( 41)
           0.1783 ( 42)  0.1307 ( 44) -0.2037 ( 55) -0.1267 ( 56) -0.1094 ( 57)
          -0.2190 ( 59)  0.1419 ( 63) -0.1226 ( 66) -0.1906 ( 67) -0.1032 ( 68)
          -0.1558 ( 69) -0.1389 ( 70) -0.1907 ( 71)
 CRD  5=  -0.1501 (  4) -0.1021 (  7)  0.1144 ( 12) -0.2385 ( 20)  0.1025 ( 22)
          -0.1459 ( 23)  0.2027 ( 27) -0.1997 ( 28)  0.1790 ( 31)  0.1301 ( 32)
          -0.2308 ( 33)  0.1186 ( 34)  0.1655 ( 35)  0.1576 ( 36) -0.1712 ( 38)
          -0.1899 ( 40)  0.1738 ( 41) -0.1498 ( 44) -0.1850 ( 57) -0.2297 ( 58)
          -0.3343 ( 59) -0.1029 ( 60) -0.1186 ( 61) -0.1212 ( 62) -0.1149 ( 63)
          -0.1275 ( 64) -0.1362 ( 65) -0.1511 ( 67) -0.1529 ( 68) -0.1877 ( 70)
          -0.1268 ( 71)
 CRD  6=  -0.1590 (  7)  0.3892 ( 12)  0.3610 ( 14)  0.1623 ( 18)  0.1741 ( 19)
          -0.1001 ( 20)  0.1102 ( 22)  0.1199 ( 25) -0.1764 ( 26) -0.1258 ( 28)
           0.1452 ( 36) -0.1304 ( 39)  0.4473 ( 42) -0.3169 ( 46) -0.1234 ( 54)
          -0.1923 ( 55)  0.1043 ( 64)
 CRD  7=  -0.1256 (  4) -0.3978 (  7) -0.1174 (  9) -0.1106 ( 13)  0.1092 ( 15)
          -0.1120 ( 16)  0.1005 ( 20) -0.1552 ( 24) -0.1742 ( 28) -0.2202 ( 29)
          -0.1067 ( 31)  0.1644 ( 32) -0.1719 ( 42) -0.1843 ( 43)  0.1067 ( 46)
           0.1443 ( 61)  0.1787 ( 62)  0.3506 ( 63) -0.2615 ( 67)  0.2266 ( 72)
           0.1917 ( 73)  0.2223 ( 74) -0.1584 ( 75) -0.1003 ( 76)  0.1054 ( 79)
 CRD  8=  -0.1709 ( 12)  0.2232 ( 14)  0.1204 ( 21) -0.1465 ( 22) -0.2890 ( 25)
           0.3115 ( 26) -0.2118 ( 32)  0.1156 ( 35) -0.1995 ( 38)  0.1320 ( 41)
           0.3210 ( 42) -0.1578 ( 45) -0.2981 ( 46)  0.1862 ( 54)  0.2571 ( 55)
           0.1629 ( 56) -0.1230 ( 64) -0.1335 ( 67) -0.1170 ( 76)
 CRD  9=  -0.4743 ( 18) -0.1592 ( 19)  0.4078 ( 39) -0.6086 ( 45) -0.3565 ( 46)
 CRD 10=   0.5980 (  4) -0.1205 ( 20)  0.2181 ( 21)  0.1608 ( 22)  0.4444 ( 24)
          -0.1591 ( 28) -0.1417 ( 31) -0.2271 ( 48) -0.2325 ( 49) -0.1082 ( 67)
           0.1049 ( 80) -0.1026 ( 83)  0.1079 ( 86)
 CRD 11=  -0.1603 (  4)  0.2440 (  7) -0.1494 ( 22)  0.2181 ( 23)  0.1012 ( 25)
          -0.2907 ( 26) -0.1475 ( 27)  0.2671 ( 30) -0.1488 ( 31)  0.1809 ( 34)
          -0.1230 ( 36) -0.2251 ( 38) -0.1526 ( 40)  0.1150 ( 41)  0.1160 ( 43)
           0.1061 ( 48)  0.1529 ( 57)  0.1701 ( 58)  0.1980 ( 60)  0.2255 ( 64)
           0.1911 ( 65) -0.2797 ( 67) -0.2055 ( 68) -0.1294 ( 71)  0.1269 ( 72)
          -0.1055 ( 76)
 CRD 12=  -0.2984 (  7)  0.2478 (  9) -0.4600 ( 12)  0.2150 ( 14)  0.1261 ( 17)
           0.1502 ( 22) -0.1907 ( 24)  0.2542 ( 25) -0.1624 ( 27) -0.1255 ( 30)
           0.1051 ( 33)  0.1688 ( 37) -0.1939 ( 38) -0.1342 ( 41)  0.1879 ( 43)
           0.1446 ( 45) -0.1220 ( 54) -0.1023 ( 74)  0.1021 ( 75) -0.1068 ( 79)
          -0.1384 ( 90)  0.1183 ( 93)
 CRD 13=   0.2980 (  7) -0.1851 (  9) -0.2524 ( 12)  0.1939 ( 14) -0.1602 ( 21)
           0.1194 ( 22)  0.1327 ( 23)  0.2920 ( 24) -0.3012 ( 26)  0.1354 ( 27)
          -0.1169 ( 28) -0.1322 ( 30)  0.1686 ( 31)  0.1118 ( 32) -0.2583 ( 34)
          -0.1060 ( 36) -0.1266 ( 43)  0.2328 ( 44)  0.1414 ( 47) -0.1083 ( 49)
          -0.1216 ( 56)  0.1183 ( 63) -0.1267 ( 65)  0.1166 ( 68)  0.1062 ( 73)
           0.1410 ( 74)
 CRD 14=  -0.1978 (  4)  0.1126 (  7)  0.1459 (  8)  0.5727 (  9)  0.1411 ( 24)
          -0.3444 ( 25) -0.1353 ( 28)  0.1693 ( 29)  0.1311 ( 33)  0.2207 ( 36)
           0.1218 ( 38) -0.1025 ( 40)  0.1272 ( 44)  0.1517 ( 47) -0.1025 ( 66)
           0.1806 ( 73) -0.1089 ( 87)  0.1008 ( 88)  0.1065 ( 96)
 CRD 15=  -0.1151 (  2) -0.2191 ( 21)  0.1569 ( 22)  0.1062 ( 23)  0.1820 ( 24)
          -0.2538 ( 25) -0.1992 ( 29) -0.2267 ( 30)  0.1738 ( 31)  0.1637 ( 33)
           0.2759 ( 34) -0.1188 ( 36) -0.2325 ( 38)  0.1723 ( 40) -0.1425 ( 41)
           0.2219 ( 43) -0.2795 ( 44)  0.1249 ( 47) -0.1076 ( 56)  0.1240 ( 59)
          -0.1211 ( 60)  0.1097 ( 61)  0.1354 ( 62) -0.1238 ( 64) -0.1399 ( 65)
          -0.1273 ( 67) -0.1733 ( 68)  0.1028 ( 70) -0.1399 ( 73) -0.1358 ( 74)
 CRD 16=   0.1164 (  5)  0.1281 (  9)  0.1035 ( 12)  0.1057 ( 13) -0.3230 ( 14)
          -0.1021 ( 16) -0.2428 ( 17) -0.1298 ( 21)  0.1562 ( 22)  0.1247 ( 23)
          -0.1469 ( 24)  0.1897 ( 25) -0.1787 ( 27)  0.1140 ( 29) -0.1076 ( 30)
           0.2077 ( 31) -0.1251 ( 33)  0.1145 ( 35) -0.1724 ( 36)  0.2570 ( 37)
          -0.2471 ( 39)  0.1405 ( 41)  0.1730 ( 42) -0.2121 ( 43) -0.1026 ( 45)
           0.1014 ( 55) -0.1090 ( 60) -0.1318 ( 61)  0.1698 ( 66)  0.1771 ( 69)
 CRD 17=  -0.1657 (  3) -0.1144 (  4) -0.1921 (  6) -0.2412 (  7) -0.1698 (  8)
          -0.2335 ( 14) -0.1259 ( 15) -0.1886 ( 17)  0.1777 ( 20) -0.1472 ( 22)
          -0.1645 ( 23)  0.2533 ( 24) -0.4068 ( 26) -0.1749 ( 31)  0.1326 ( 35)
          -0.1956 ( 39)  0.1441 ( 42)  0.1826 ( 47) -0.1504 ( 49)  0.1074 ( 50)
           0.1010 ( 54)  0.1363 ( 55)  0.1230 ( 56) -0.1065 ( 57) -0.1048 ( 58)
 CRD 18=   0.1049 (  2)  0.1849 (  5)  0.2939 (  7)  0.2193 ( 10) -0.1131 ( 14)
          -0.1357 ( 16) -0.1000 ( 17) -0.1827 ( 20)  0.1151 ( 21) -0.1814 ( 24)
           0.2391 ( 25)  0.2788 ( 27) -0.1619 ( 28) -0.1820 ( 29)  0.1491 ( 30)
           0.2019 ( 33)  0.1570 ( 36) -0.1098 ( 37) -0.1162 ( 38)  0.1408 ( 40)
          -0.2470 ( 41) -0.1064 ( 44) -0.1336 ( 47) -0.1075 ( 50) -0.1073 ( 51)
           0.1016 ( 56) -0.1313 ( 57)  0.1160 ( 62)  0.1700 ( 70)
 CRD 19=   0.1166 (  2) -0.1167 (  3)  0.1503 (  5) -0.1574 (  6)  0.1058 (  9)
           0.1241 ( 10)  0.1696 ( 11)  0.2770 ( 12)  0.1924 ( 13)  0.2118 ( 14)
           0.2040 ( 15)  0.1469 ( 16)  0.2077 ( 17)  0.1978 ( 25) -0.2025 ( 26)
          -0.2214 ( 32)  0.1193 ( 34) -0.2273 ( 35)  0.1050 ( 38)  0.1809 ( 39)
           0.2005 ( 40) -0.1521 ( 42)  0.1207 ( 48) -0.1154 ( 49) -0.1341 ( 52)
          -0.1491 ( 53)  0.2041 ( 55)  0.1248 ( 56) -0.1205 ( 58)  0.1156 ( 66)
           0.1264 ( 69)
 CRD 20=   0.1830 ( 10)  0.3829 ( 11) -0.2911 ( 13)  0.1817 ( 23) -0.1099 ( 28)
           0.1064 ( 34)  0.1174 ( 37) -0.1142 ( 40)  0.1248 ( 41) -0.1282 ( 59)
           0.1878 ( 61)  0.1900 ( 62)  0.1632 ( 63)  0.2034 ( 67) -0.1500 ( 70)
          -0.2251 ( 71) -0.2603 ( 72)  0.2710 ( 75)  0.2782 ( 76) -0.1536 ( 77)
           0.1444 ( 78)  0.1517 ( 79)
 CRD 21=   0.3582 (  5) -0.3649 (  6)  0.3161 (  8) -0.3741 ( 10) -0.1593 ( 11)
          -0.1086 ( 16)  0.1370 ( 29) -0.1308 ( 33)  0.1165 ( 36) -0.1252 ( 37)
          -0.1608 ( 40)  0.1436 ( 54)  0.1386 ( 56)  0.1355 ( 57)  0.1756 ( 58)
          -0.1137 ( 60) -0.1368 ( 64) -0.1138 ( 65) -0.1085 ( 66) -0.1081 ( 69)
           0.1142 ( 91)  0.1207 ( 93)
 CRD 22=   0.4802 (  1)  0.5031 (  2)  0.5029 (  3)  0.1737 (  4) -0.1942 ( 24)
          -0.1764 ( 25) -0.1771 ( 26)  0.1877 ( 47)  0.2006 ( 48)  0.1995 ( 49)
 CRD 23=  -0.2242 (  5)  0.2147 (  6) -0.2388 (  8)  0.1636 ( 10) -0.1688 ( 11)
           0.2464 ( 13)  0.2887 ( 15) -0.2747 ( 16) -0.1147 ( 21)  0.1081 ( 22)
          -0.1499 ( 23)  0.1172 ( 27)  0.1224 ( 29) -0.1381 ( 33)  0.1255 ( 34)
          -0.1287 ( 38)  0.1028 ( 66)  0.1057 ( 69)  0.1141 ( 70)  0.1327 ( 71)
          -0.1093 ( 72)  0.1609 ( 73)  0.1705 ( 74)  0.1836 ( 75)  0.1808 ( 76)
           0.1604 ( 78)  0.1576 ( 79)  0.1030 ( 86)  0.1059 ( 88)  0.1101 ( 90)
           0.1287 ( 92)  0.1110 ( 93)  0.1084 ( 94)  0.1111 ( 95)  0.1015 ( 97)
 CRD 24=  -0.2200 ( 11)  0.1949 ( 13)  0.3113 ( 15) -0.3240 ( 16)  0.1343 ( 21)
          -0.1366 ( 22)  0.1113 ( 23) -0.1202 ( 27)  0.1040 ( 30) -0.1001 ( 31)
          -0.1288 ( 36)  0.1506 ( 37) -0.1019 ( 41) -0.1022 ( 54) -0.1123 ( 57)
          -0.1121 ( 58) -0.1013 ( 66) -0.1002 ( 69) -0.1319 ( 72)  0.1279 ( 75)
           0.1332 ( 76) -0.1014 ( 77) -0.1089 ( 80) -0.1058 ( 81) -0.1095 ( 82)
          -0.1064 ( 83) -0.1069 ( 84) -0.1100 ( 85) -0.1915 ( 86) -0.2039 ( 87)
          -0.1903 ( 88) -0.2027 ( 89) -0.1627 ( 90) -0.1625 ( 91) -0.1598 ( 92)
          -0.1596 ( 93)
 CRD 25=  -0.5525 (  1)  0.2580 (  2)  0.2536 (  3)  0.1532 (  5)  0.1499 (  6)
          -0.2635 ( 15) -0.2563 ( 16)  0.1253 ( 45)  0.2851 ( 47) -0.1387 ( 48)
          -0.1369 ( 49) -0.1276 ( 53) -0.1489 ( 60)  0.1492 ( 65) -0.1343 ( 80)
          -0.1617 ( 81)  0.1639 ( 82)  0.1365 ( 83)
 CRD 26=   0.3123 (  1) -0.1294 (  2) -0.1641 (  3) -0.4702 ( 15) -0.4605 ( 16)
          -0.1350 ( 17)  0.1278 ( 19)  0.1186 ( 34)  0.1184 ( 38)  0.1611 ( 39)
           0.2210 ( 45) -0.1561 ( 46) -0.1620 ( 47) -0.2293 ( 53) -0.1214 ( 75)
           0.1187 ( 76) -0.1208 ( 78)  0.1193 ( 79)
 CRD 27=   0.5536 (  2) -0.5446 (  3) -0.2959 ( 48)  0.2916 ( 49)  0.2289 ( 64)
           0.2198 ( 84)  0.2197 ( 85)
 CRD 28=   0.1764 (  5)  0.1639 (  6) -0.3056 (  8) -0.3345 ( 10)  0.3195 ( 11)
           0.2687 ( 13)  0.1972 ( 15)  0.2258 ( 16) -0.3083 ( 17) -0.1421 ( 18)
           0.1610 ( 19)  0.1516 ( 39)  0.3084 ( 45) -0.1722 ( 46) -0.1188 ( 51)
           0.1178 ( 52)  0.1220 ( 91) -0.1181 ( 92)
 CRD 29=   0.2521 (  5)  0.2499 (  6) -0.2258 (  8) -0.2877 ( 10)  0.2167 ( 11)
           0.1693 ( 13)  0.1037 ( 14) -0.1848 ( 15) -0.1755 ( 16)  0.3753 ( 17)
           0.1858 ( 18) -0.2005 ( 19) -0.1962 ( 39) -0.3919 ( 45)  0.2168 ( 46)
 CRD 30=   0.1169 (  1) -0.1085 (  2) -0.1016 (  3)  0.4769 (  5)  0.4820 (  6)
           0.1069 ( 10) -0.3252 ( 11) -0.3199 ( 13)  0.2023 ( 50) -0.1360 ( 52)
           0.1044 ( 69)  0.1330 ( 80) -0.1170 ( 83)
 CRD 31=  -0.1533 (  5) -0.1545 (  6) -0.4692 (  8) -0.3921 ( 10) -0.2921 ( 11)
          -0.4382 ( 13) -0.1950 ( 51) -0.1599 ( 52)  0.1173 ( 86)  0.1551 ( 90)
          -0.1416 ( 93)
 CRD 32=   0.2541 (  8) -0.1954 ( 10)  0.1947 ( 11) -0.1642 ( 13)  0.3098 ( 15)
          -0.3050 ( 16) -0.1104 ( 43)  0.1185 ( 44)  0.1021 ( 54) -0.1207 ( 61)
          -0.1249 ( 62) -0.1589 ( 72) -0.1083 ( 77)  0.1336 ( 80)  0.1324 ( 81)
           0.1343 ( 82)  0.1331 ( 83)  0.1124 ( 84)  0.1136 ( 85)  0.1424 ( 86)
           0.1521 ( 87)  0.1478 ( 88)  0.1575 ( 89) -0.2160 ( 94) -0.2119 ( 95)
          -0.2243 ( 96) -0.2202 ( 97)
 CRD 33=   0.1650 (  8) -0.1595 ( 10) -0.3009 ( 11)  0.3043 ( 13) -0.2009 ( 15)
           0.1969 ( 16) -0.1499 ( 57) -0.1590 ( 58)  0.1234 ( 60)  0.1060 ( 64)
           0.1214 ( 65) -0.1295 ( 70) -0.1528 ( 71)  0.1795 ( 80)  0.1720 ( 81)
           0.1776 ( 82)  0.1700 ( 83)  0.1546 ( 84)  0.1621 ( 85) -0.2090 ( 90)
          -0.2181 ( 91) -0.2323 ( 92) -0.2413 ( 93)  0.1014 ( 94)  0.1052 ( 95)
           0.1116 ( 96)  0.1154 ( 97)
 CRD 34=  -0.3786 (  5)  0.3788 (  6)  0.2845 (  8) -0.2891 ( 10)  0.1032 ( 54)
           0.1193 ( 56) -0.1279 ( 60) -0.1454 ( 64) -0.1286 ( 65)  0.1205 ( 66)
           0.1206 ( 69) -0.2072 ( 80) -0.2067 ( 81) -0.2079 ( 82) -0.2074 ( 83)
          -0.2242 ( 84) -0.2247 ( 85)  0.1534 ( 86)  0.1373 ( 87)  0.1535 ( 88)
           0.1374 ( 89)
 CRD 35=   0.2095 ( 14) -0.3470 ( 17) -0.3731 ( 18) -0.6435 ( 19) -0.1116 ( 34)
          -0.1352 ( 38) -0.1653 ( 39)  0.1386 ( 43)  0.1281 ( 44)  0.2110 ( 45)
           0.1423 ( 46)  0.1129 ( 95) -0.1305 ( 96)
 CRD 36=   0.1086 ( 11) -0.1106 ( 13) -0.1122 ( 61)  0.1285 ( 67)  0.2104 ( 68)
           0.5431 ( 72)  0.2102 ( 75)  0.2229 ( 76)  0.4741 ( 77)  0.2922 ( 78)
           0.3048 ( 79) -0.1025 ( 95) -0.1086 ( 97)
 CRD 37=   0.2159 (  1)  0.1088 (  2)  0.1185 (  3) -0.2620 ( 18)  0.3898 ( 19)
          -0.1578 ( 21) -0.1759 ( 22) -0.1219 ( 23)  0.1567 ( 24)  0.1243 ( 25)
           0.1212 ( 26) -0.1299 ( 29)  0.1426 ( 30)  0.1270 ( 31) -0.1207 ( 33)
           0.1531 ( 36)  0.1429 ( 37) -0.1028 ( 38)  0.1150 ( 40)  0.1105 ( 43)
           0.1262 ( 46) -0.1757 ( 48) -0.1665 ( 49) -0.1143 ( 54) -0.1295 ( 66)
           0.1113 ( 74)  0.1066 ( 83) -0.2257 ( 87)  0.1679 ( 88) -0.1032 ( 91)
           0.1714 ( 95)
 CRD 38=  -0.2121 (  1) -0.1288 (  2) -0.1161 (  3)  0.1836 (  9) -0.3967 ( 18)
           0.4341 ( 19)  0.1464 ( 21)  0.1387 ( 22) -0.1600 ( 24) -0.1312 ( 25)
          -0.1323 ( 26) -0.1177 ( 30) -0.1312 ( 31) -0.1305 ( 34) -0.1193 ( 38)
          -0.1117 ( 39)  0.1067 ( 44)  0.1957 ( 46)  0.1042 ( 47)  0.1695 ( 48)
           0.1807 ( 49) -0.1075 ( 69)  0.1078 ( 87) -0.1416 ( 88)  0.1157 ( 90)
 CRD 39=  -0.2535 ( 14) -0.1047 ( 16)  0.6166 ( 17) -0.2754 ( 18) -0.2147 ( 19)
           0.3010 ( 42)  0.3728 ( 45) -0.2602 ( 46)  0.1670 ( 53)
 CRD 40=   0.1163 (  1)  0.1721 (  2)  0.1813 (  3) -0.3265 (  4) -0.1195 (  7)
           0.1270 ( 12)  0.1192 ( 13)  0.2089 ( 14) -0.2816 ( 18)  0.1389 ( 19)
           0.1660 ( 23)  0.1535 ( 24)  0.1505 ( 25)  0.1648 ( 26)  0.1115 ( 27)
           0.1224 ( 29)  0.1423 ( 33) -0.1304 ( 36) -0.1434 ( 37) -0.1571 ( 39)
          -0.1513 ( 40)  0.1688 ( 46) -0.1979 ( 47) -0.1548 ( 48) -0.1500 ( 49)
           0.1246 ( 54)  0.1019 ( 58) -0.1060 ( 71) -0.1294 ( 74)  0.1289 ( 87)
           0.1656 ( 89)  0.1284 ( 91) -0.1127 ( 92) -0.1455 ( 94) -0.1798 ( 95)
 CRD 41=   0.1372 (  2)  0.1524 (  3) -0.2772 (  4)  0.1270 (  8)  0.2742 (  9)
          -0.2575 ( 14)  0.3069 ( 18)  0.1086 ( 25)  0.1443 ( 27) -0.1196 ( 29)
          -0.1060 ( 31) -0.1158 ( 33)  0.1974 ( 39)  0.1069 ( 40)  0.1705 ( 41)
           0.1079 ( 43)  0.1394 ( 44) -0.1463 ( 46) -0.1786 ( 47)  0.1185 ( 57)
           0.1157 ( 70)  0.1437 ( 80) -0.1150 ( 83)  0.1128 ( 85)  0.2582 ( 90)
          -0.1226 ( 93) -0.1383 ( 96)
 CRD 42=  -0.1404 (  2)  0.1220 (  4)  0.1471 (  5) -0.1432 (  6)  0.1873 ( 10)
          -0.2292 ( 11)  0.1511 ( 13) -0.2475 ( 15)  0.2686 ( 16) -0.1435 ( 29)
           0.1232 ( 36)  0.1241 ( 44) -0.1107 ( 67) -0.1214 ( 72) -0.2586 ( 77)
           0.2100 ( 78)  0.1966 ( 79) -0.1487 ( 80) -0.1034 ( 81) -0.1099 ( 82)
           0.1646 ( 86)  0.1897 ( 88) -0.1669 ( 94) -0.1346 ( 95) -0.2598 ( 96)
          -0.2275 ( 97)
 CRD 43=   0.1448 (  2) -0.2389 (  3) -0.1952 (  5)  0.2560 (  6)  0.1364 (  8)
          -0.1487 ( 10) -0.1669 ( 15)  0.1430 ( 16)  0.1176 ( 31)  0.1286 ( 48)
          -0.1584 ( 49) -0.1500 ( 64) -0.1186 ( 67)  0.1053 ( 70)  0.1087 ( 71)
          -0.2188 ( 77)  0.1571 ( 78)  0.1691 ( 79)  0.1791 ( 81)  0.1712 ( 82)
           0.2536 ( 83) -0.1880 ( 86) -0.1553 ( 87) -0.1935 ( 88) -0.1607 ( 89)
           0.1351 ( 90)  0.1046 ( 91)  0.1385 ( 92)  0.1080 ( 93) -0.1176 ( 94)
          -0.1602 ( 95)
 CRD 44=   0.2585 (  1) -0.2038 (  2)  0.1673 (  5) -0.3357 (  7)  0.1156 (  9)
           0.1016 ( 12) -0.1068 ( 16)  0.1031 ( 18)  0.1146 ( 27)  0.1630 ( 30)
           0.1105 ( 31) -0.1248 ( 34) -0.1239 ( 37)  0.1043 ( 39)  0.2146 ( 47)
          -0.1317 ( 48) -0.1884 ( 50) -0.1088 ( 52) -0.1461 ( 60)  0.1395 ( 65)
           0.1126 ( 75) -0.1602 ( 79) -0.3130 ( 80)  0.2327 ( 83)  0.1529 ( 84)
          -0.1073 ( 85)  0.1419 ( 87) -0.1056 ( 88)
 CRD 45=  -0.1583 (  3)  0.1858 (  4) -0.2210 (  7)  0.1976 ( 10) -0.2186 ( 11)
          -0.1051 ( 12)  0.1120 ( 13)  0.1359 ( 15)  0.1323 ( 23)  0.1535 ( 38)
           0.1185 ( 41) -0.2218 ( 51)  0.1266 ( 58) -0.1143 ( 64)  0.1965 ( 67)
          -0.2294 ( 71) -0.1354 ( 73)  0.1790 ( 76)  0.2704 ( 77) -0.2614 ( 78)
          -0.1041 ( 79) -0.1447 ( 87)  0.1444 ( 88)  0.1454 ( 90)  0.2051 ( 91)
          -0.1164 ( 92) -0.1182 ( 96)
 CRD 46=   0.1869 (  2) -0.1654 (  3) -0.1981 (  8) -0.1122 ( 11)  0.3530 ( 12)
          -0.1342 ( 13) -0.3047 ( 14)  0.1001 ( 18) -0.1183 ( 27) -0.1161 ( 34)
          -0.1167 ( 38) -0.1185 ( 40) -0.1288 ( 41)  0.1553 ( 43)  0.1478 ( 44)
           0.1137 ( 48) -0.1521 ( 49)  0.1904 ( 52)  0.1919 ( 58)  0.1086 ( 61)
          -0.2020 ( 64) -0.1190 ( 84) -0.1406 ( 85)  0.1093 ( 87) -0.2317 ( 90)
          -0.1399 ( 92)  0.1177 ( 93)  0.1550 ( 95) -0.1346 ( 96)
 CRD 47=  -0.1735 (  1)  0.2306 (  4) -0.1112 (  5) -0.2663 (  9)  0.2812 ( 12)
           0.1175 ( 13) -0.1479 ( 15) -0.1634 ( 16)  0.1049 ( 18) -0.1030 ( 21)
           0.1083 ( 33) -0.1443 ( 34) -0.1155 ( 38)  0.1459 ( 39) -0.1433 ( 42)
           0.1098 ( 48)  0.1564 ( 50) -0.1315 ( 52)  0.2234 ( 53) -0.1220 ( 66)
          -0.1256 ( 74)  0.1932 ( 75) -0.1533 ( 76)  0.1424 ( 78) -0.2041 ( 79)
           0.1306 ( 80) -0.1069 ( 83) -0.1522 ( 87)  0.1548 ( 88) -0.1835 ( 95)
           0.1606 ( 96)
 CRD 48=  -0.1584 (  1)  0.1232 (  3)  0.2566 (  4) -0.2049 (  7)  0.1205 (  9)
          -0.1028 ( 10) -0.2043 ( 14)  0.1332 ( 15)  0.1233 ( 16) -0.1046 ( 21)
          -0.1762 ( 22) -0.1153 ( 26)  0.1482 ( 27)  0.1382 ( 30)  0.1088 ( 31)
           0.1168 ( 35) -0.1553 ( 36) -0.1000 ( 41)  0.1473 ( 49) -0.1894 ( 53)
          -0.1091 ( 57) -0.1713 ( 62) -0.1162 ( 65)  0.1657 ( 69) -0.1390 ( 75)
           0.1515 ( 79) -0.1391 ( 82)  0.1199 ( 84) -0.2542 ( 86)  0.1853 ( 89)
          -0.1285 ( 94)  0.1319 ( 95)  0.1794 ( 97)
 CRD 49=  -0.1843 (  1)  0.2041 (  2)  0.1046 (  5) -0.1297 (  7) -0.1856 (  8)
           0.2605 (  9) -0.1543 ( 12)  0.1468 ( 14) -0.1612 ( 21)  0.1224 ( 24)
          -0.1492 ( 25) -0.1188 ( 29)  0.1029 ( 30)  0.1090 ( 31) -0.1094 ( 33)
          -0.1287 ( 37)  0.1184 ( 40)  0.1110 ( 41) -0.1245 ( 47)  0.1653 ( 48)
           0.1380 ( 51) -0.1416 ( 55) -0.1273 ( 56)  0.1084 ( 57)  0.1926 ( 60)
          -0.1044 ( 64) -0.1033 ( 70)  0.2499 ( 81) -0.2101 ( 82) -0.2481 ( 85)
           0.1480 ( 87)  0.1764 ( 89) -0.1729 ( 91)  0.1550 ( 94) -0.1471 ( 97)
 CRD 50=   0.1277 (  1) -0.1558 (  3) -0.1465 (  6)  0.1259 ( 10)  0.1180 ( 11)
          -0.1542 ( 13) -0.1049 ( 16) -0.1191 ( 20)  0.1093 ( 23) -0.1175 ( 24)
          -0.1481 ( 33) -0.1269 ( 37) -0.1074 ( 44)  0.1118 ( 47)  0.1497 ( 50)
          -0.1408 ( 61) -0.1961 ( 63)  0.1474 ( 65) -0.1104 ( 66) -0.1250 ( 67)
           0.2094 ( 68)  0.1220 ( 70) -0.1505 ( 75) -0.1897 ( 76) -0.2223 ( 77)
           0.1839 ( 78)  0.1448 ( 79) -0.1931 ( 81)  0.2073 ( 82) -0.2031 ( 84)
           0.1283 ( 88)  0.1250 ( 89) -0.1996 ( 92) -0.2092 ( 93)  0.1620 ( 94)
 CRD 51=  -0.1135 (  2)  0.1274 (  3)  0.1141 (  6)  0.1791 (  9) -0.1673 ( 11)
           0.1841 ( 12) -0.1563 ( 13)  0.1418 ( 14) -0.1067 ( 15) -0.1181 ( 16)
          -0.1053 ( 22) -0.1037 ( 26) -0.2020 ( 32) -0.1718 ( 35) -0.1113 ( 36)
           0.2403 ( 52)  0.1622 ( 53)  0.1056 ( 54)  0.1711 ( 55) -0.1336 ( 57)
           0.1337 ( 58) -0.1056 ( 60) -0.1289 ( 61)  0.1212 ( 62) -0.1315 ( 65)
          -0.1650 ( 73)  0.1411 ( 74)  0.1932 ( 84)  0.1566 ( 85)  0.1910 ( 91)
          -0.1323 ( 92)  0.1350 ( 93)  0.2756 ( 94) -0.2805 ( 97)
 CRD 52=  -0.1004 (  1) -0.1280 (  4)  0.1450 (  5)  0.1354 (  6) -0.2248 (  7)
           0.1259 (  8) -0.1499 (  9)  0.1396 ( 10)  0.2080 ( 20)  0.1265 ( 24)
           0.1767 ( 28) -0.2074 ( 50) -0.1961 ( 51) -0.1270 ( 54)  0.1277 ( 56)
          -0.1436 ( 63)  0.1292 ( 66)  0.1975 ( 68) -0.1284 ( 69)  0.1075 ( 70)
          -0.1123 ( 71) -0.1029 ( 74) -0.1354 ( 75) -0.1282 ( 76) -0.1363 ( 77)
           0.1006 ( 78)  0.1079 ( 79)  0.2199 ( 81) -0.2217 ( 82)  0.1251 ( 84)
          -0.1329 ( 85)  0.2612 ( 86) -0.2511 ( 89) -0.1444 ( 92) -0.1252 ( 93)
 CRD 53=   0.1372 (  5) -0.1017 (  6)  0.1538 (  8) -0.1560 ( 13) -0.1440 ( 15)
           0.1142 ( 16)  0.1164 ( 27)  0.1068 ( 29) -0.1014 ( 31)  0.1070 ( 34)
          -0.1038 ( 36) -0.1224 ( 41) -0.2014 ( 54) -0.1391 ( 56) -0.2345 ( 57)
          -0.1064 ( 58)  0.1705 ( 60) -0.1779 ( 61) -0.1454 ( 62)  0.1522 ( 65)
           0.1730 ( 66) -0.2842 ( 68)  0.1379 ( 69)  0.2398 ( 70)  0.1078 ( 71)
           0.1629 ( 73)  0.2212 ( 74)  0.1625 ( 75)  0.1377 ( 76)  0.1106 ( 77)
          -0.1186 ( 84) -0.1506 ( 85)  0.1278 ( 91) -0.1323 ( 92)
 CRD 54=   0.1079 (  5) -0.1300 (  6) -0.1691 ( 10) -0.1612 ( 11) -0.1166 ( 16)
          -0.1260 ( 23)  0.1106 ( 30) -0.1036 ( 31)  0.1286 ( 33)  0.1313 ( 37)
          -0.1184 ( 40) -0.1618 ( 54) -0.2047 ( 56) -0.1387 ( 57) -0.2714 ( 59)
           0.1644 ( 60)  0.1690 ( 61)  0.1908 ( 62)  0.1731 ( 65)  0.1897 ( 66)
           0.2356 ( 68)  0.2124 ( 69) -0.1085 ( 70) -0.1977 ( 73) -0.1480 ( 74)
          -0.1085 ( 75) -0.1246 ( 76) -0.1364 ( 84) -0.1158 ( 85)  0.1368 ( 91)
           0.1193 ( 92)  0.2319 ( 93)

 THE DETERMINANT OF THE G MATRIX IS 10**(   -23)


                     --------------------
                     INTERNAL COORDINATES
                     --------------------

                 - - ATOMS - -         COORDINATE      COORDINATE
 NO.   TYPE    I  J  K  L  M  N        (BOHR,RAD)       (ANG,DEG)
 ----------------------------------------------------------------
   1 STRETCH   1 11                     2.0738702       1.0974449
   2 STRETCH   1 10                     2.0752900       1.0981962
   3 STRETCH   1  9                     2.0751425       1.0981182
   4 STRETCH   1  2                     2.8559386       1.5112977
   5 STRETCH   2 13                     2.0980875       1.1102602
   6 STRETCH   2 12                     2.0948317       1.1085373
   7 STRETCH   2  3                     2.8744572       1.5210974
   8 STRETCH   3 15                     2.0939382       1.1080644
   9 STRETCH   3  4                     2.8748234       1.5212912
  10 STRETCH   3 14                     2.0954708       1.1088755
  11 STRETCH   4 16                     2.0950010       1.1086269
  12 STRETCH   4  5                     2.8734442       1.5205613
  13 STRETCH   4 17                     2.0941628       1.1081833
  14 STRETCH   5  6                     2.8423265       1.5040945
  15 STRETCH   5 19                     2.1012346       1.1119255
  16 STRETCH   5 18                     2.0963774       1.1093552
  17 STRETCH   6  8                     2.3017580       1.2180380
  18 STRETCH   6  7                     2.5632254       1.3564006
  19 STRETCH   7 20                     1.7991802       0.9520852
  20 BEND      1  2  3                  1.9471773     111.5650441
  21 BEND      1  2 13                  1.9248825     110.2876428
  22 BEND      1  2 12                  1.9173767     109.8575919
  23 BEND      2  3 15                  1.9108952     109.4862327
  24 BEND      2  1 11                  1.9421533     111.2771891
  25 BEND      2  1 10                  1.9478021     111.6008382
  26 BEND      2  1  9                  1.9495773     111.7025517
  27 BEND      2  3 14                  1.9193938     109.9731620
  28 BEND      2  3  4                  1.9569865     112.1270679
  29 BEND      3  4 17                  1.9127934     109.5949865
  30 BEND      3  2 12                  1.9168558     109.8277464
  31 BEND      3  2 13                  1.9146716     109.7026010
  32 BEND      3  4  5                  1.9460870     111.5025693
  33 BEND      3  4 16                  1.9230626     110.1833717
  34 BEND      4  5 19                  1.9169825     109.8350074
  35 BEND      4  5  6                  1.9678184     112.7476898
  36 BEND      4  3 15                  1.9075416     109.2940831
  37 BEND      4  3 14                  1.9227009     110.1626450
  38 BEND      4  5 18                  1.9274741     110.4361323
  39 BEND      5  6  8                  2.2742071     130.3024693
  40 BEND      5  4 17                  1.9170300     109.8377297
  41 BEND      5  4 16                  1.9202327     110.0212290
  42 BEND      5  6  7                  1.9989108     114.5291528
  43 BEND      6  5 18                  1.9017972     108.9649518
  44 BEND      6  5 19                  1.9028573     109.0256910
  45 BEND      6  7 20                  1.9157932     109.7668643
  46 BEND      7  6  8                  2.0100674     115.1683778
  47 BEND      9  1 10                  1.8715955     107.2345205
  48 BEND      9  1 11                  1.8743466     107.3921514
  49 BEND     10  1 11                  1.8743507     107.3923844
  50 BEND     12  2 13                  1.8399174     105.4195012
  51 BEND     14  3 15                  1.8427942     105.5843281
  52 BEND     16  4 17                  1.8418245     105.5287685
  53 BEND     18  5 19                  1.8425377     105.5696357
  54 TORSION   1  2  3 14               1.0057805      57.6269773
  55 TORSION   1  2  3  4              -3.1317922    -179.4384779
  56 TORSION   1  2  3 15              -1.0115252     -57.9561230
  57 TORSION   2  3  4 16               0.8768464      50.2395968
  58 TORSION   2  3  4 17               2.8961623     165.9378787
  59 TORSION   2  3  4  5              -1.2606775     -72.2315015
  60 TORSION   3  2  1  9              -1.0389642     -59.5282621
  61 TORSION   3  4  5 18              -1.0067620     -57.6832111
  62 TORSION   3  4  5 19               1.0184184      58.3510751
  63 TORSION   3  4  5  6              -3.1388762    -179.8443601
  64 TORSION   3  2  1 11              -3.1336355    -179.5440877
  65 TORSION   3  2  1 10               1.0560780      60.5088137
  66 TORSION   4  3  2 12              -1.0014828     -57.3807351
  67 TORSION   4  5  6  7               3.1403034     179.9261324
  68 TORSION   4  5  6  8              -0.0012585      -0.0721053
  69 TORSION   4  3  2 13               1.0130723      58.0447662
  70 TORSION   5  4  3 14               0.8830662      50.5959666
  71 TORSION   5  4  3 15               2.9003174     166.1759440
  72 TORSION   5  6  7 20              -3.1415592    -179.9980807
  73 TORSION   6  5  4 17              -1.0149834     -58.1542626
  74 TORSION   6  5  4 16               1.0051605      57.5914547
  75 TORSION   7  6  5 18               0.9937977      56.9404158
  76 TORSION   7  6  5 19              -1.0090272     -57.8130025
  77 TORSION   8  6  7 20               0.0000076       0.0004343
  78 TORSION   8  6  5 18              -2.1477642    -123.0578220
  79 TORSION   8  6  5 19               2.1325962     122.1887597
  80 TORSION   9  1  2 12               3.1142119     178.4311980
  81 TORSION   9  1  2 13               1.0934903      62.6523796
  82 TORSION  10  1  2 12              -1.0739312     -61.5317262
  83 TORSION  10  1  2 13              -3.0946528    -177.3105446
  84 TORSION  11  1  2 13              -1.0011810     -57.3634460
  85 TORSION  11  1  2 12               1.0195406      58.4153725
  86 TORSION  12  2  3 15               1.1187843      64.1016198
  87 TORSION  12  2  3 14               3.1360900     179.6847202
  88 TORSION  13  2  3 15               3.1333394     179.5271212
  89 TORSION  13  2  3 14              -1.1325403     -64.8897785
  90 TORSION  14  3  4 16               3.0205901     173.0670649
  91 TORSION  14  3  4 17              -1.2432792     -71.2346532
  92 TORSION  15  3  4 16              -1.2453440     -71.3529577
  93 TORSION  15  3  4 17               0.7739719      44.3453242
  94 TORSION  16  4  5 19              -1.1207302     -64.2131101
  95 TORSION  16  4  5 18               3.1372748     179.7526037
  96 TORSION  17  4  5 19              -3.1408741    -179.9588274
  97 TORSION  17  4  5 18               1.1171309      64.0068865

     ------------------------------------------
     THE POINT GROUP IS C1 , NAXIS= 1, ORDER= 1
     ------------------------------------------

     DIMENSIONS OF THE SYMMETRY SUBSPACES ARE
 A   =  224

 ..... DONE SETTING UP THE RUN .....
 STEP CPU TIME =     0.02 TOTAL CPU TIME =        0.0 (    0.0 MIN)
 TOTAL WALL CLOCK TIME=        0.0 SECONDS, CPU UTILIZATION IS 100.00%


          -----------------------------
          STATIONARY POINT LOCATION RUN
          -----------------------------

 OBTAINING INITIAL HESSIAN, HESS=GUESS   
 DIAGONAL GUESS HESSIAN IN INTERNAL COORDS IS
     1  0.3414     2  0.3409     3  0.3409     4  0.3808     5  0.3330
     6  0.3341     7  0.3736     8  0.3344     9  0.3734    10  0.3339
    11  0.3341    12  0.3740    13  0.3343    14  0.3861    15  0.3319
    16  0.3336    17  0.5437    18  0.4155    19  0.3657    20  0.2504
    21  0.2240    22  0.2241    23  0.2235    24  0.2247    25  0.2247
    26  0.2247    27  0.2235    28  0.2497    29  0.2235    30  0.2235
    31  0.2234    32  0.2498    33  0.2235    34  0.2233    35  0.2510
    36  0.2235    37  0.2235    38  0.2235    39  0.2599    40  0.2236
    41  0.2235    42  0.2498    43  0.2245    44  0.2243    45  0.2192
    46  0.2574    47  0.2026    48  0.2026    49  0.2026    50  0.2015
    51  0.2016    52  0.2016    53  0.2013    54  0.2500    55  0.2500
    56  0.2500    57  0.2500    58  0.2500    59  0.2500    60  0.2500
    61  0.2500    62  0.2500    63  0.2500    64  0.2500    65  0.2500
    66  0.2500    67  0.2500    68  0.2500    69  0.2500    70  0.2500
    71  0.2500    72  0.2500    73  0.2500    74  0.2500    75  0.2500
    76  0.2500    77  0.2500    78  0.2500    79  0.2500    80  0.2500
    81  0.2500    82  0.2500    83  0.2500    84  0.2500    85  0.2500
    86  0.2500    87  0.2500    88  0.2500    89  0.2500    90  0.2500
    91  0.2500    92  0.2500    93  0.2500    94  0.2500    95  0.2500
    96  0.2500    97  0.2500
 TRANSFORMING HESSIAN TO SYMMETRY COORDINATES

          PARAMETERS CONTROLLING GEOMETRY SEARCH ARE
          METHOD =QA                  UPHESS =BFGS    
          NNEG   =         0          NFRZ   =         3
          NSTEP  =        50          IFOLOW =         1
          HESS   =GUESS               RESTAR =         F
          IHREP  =         0          HSSEND =         F
          NPRT   =         0          NPUN   =         0
          OPTTOL = 5.000E-04          RMIN   = 1.500E-03
          RMAX   = 1.000E-01          RLIM   = 7.000E-02
          DXMAX  = 3.000E-01          PURIFY =         F
          MOVIE  =         F          TRUPD  =         T
          TRMAX  = 5.000E-01          TRMIN  = 5.000E-02
          ITBMAT =         5          STPT   =         F
          STSTEP = 1.000E-02          PROJCT=          F
          FROZEN COORD(S)=   1   2   3


      ***** EQUILIBRIUM GEOMETRY LOCATED *****
            (SUBJECT TO   3 CONSTRAINT(S))
 COORDINATES OF ALL ATOMS ARE (ANGS)
   ATOM   CHARGE       X              Y              Z
 ------------------------------------------------------------
 C           6.0   0.5748613347   0.8393746363   1.7197186494
 C           6.0   1.9707243772   0.9258100084   1.1105572735
 C           6.0   2.7651967050   2.1042798741   1.6738735517
 C           6.0   4.1809504309   2.2339989077   1.1155554229
 C           6.0   5.0842167806   1.0757462547   1.5208870809
 C           6.0   6.4660020491   1.1741873301   0.9435450909
 O           8.0   7.2229172660   0.1453141799   1.2844367681
 O           8.0   6.8702448703   2.0557728132   0.2533323098
 H           1.0   0.6383851327   0.7194046117   2.7984741300
 H           1.0   0.0081707552   1.7446258010   1.5173654668
 H           1.0   0.0187003885  -0.0032962948   1.3203868843
 H           1.0   1.8983136875   1.0279673092   0.0286827117
 H           1.0   2.4958059941  -0.0072743101   1.2964709296
 H           1.0   2.8117909094   2.0211569913   2.7592550445
 H           1.0   2.2237493796   3.0234197451   1.4599238786
 H           1.0   4.1437633467   2.3001629474   0.0314585908
 H           1.0   4.6219355555   3.1616356674   1.4676412758
 H           1.0   5.1893318300   1.0192406906   2.6015548829
 H           1.0   4.6850979738   0.1170617803   1.2077211841
 H           1.0   8.0807895652   0.2379356808   0.8907640626


                     --------------------
                     INTERNAL COORDINATES
                     --------------------

                 - - ATOMS - -         COORDINATE      COORDINATE
 NO.   TYPE    I  J  K  L  M  N        (BOHR,RAD)       (ANG,DEG)
 ----------------------------------------------------------------
   1 STRETCH   1 11                     2.0517892       1.0857602
   2 STRETCH   1 10                     2.0541284       1.0869980
   3 STRETCH   1  9                     2.0546297       1.0872633
   4 STRETCH   1  2                     2.8826730       1.5254449
   5 STRETCH   2 13                     2.0535688       1.0867019
   6 STRETCH   2 12                     2.0580947       1.0890969
   7 STRETCH   2  3                     2.8890584       1.5288240
   8 STRETCH   3 15                     2.0560338       1.0880063
   9 STRETCH   3  4                     2.8863390       1.5273849
  10 STRETCH   3 14                     2.0589633       1.0895565
  11 STRETCH   4 16                     2.0536605       1.0867504
  12 STRETCH   4  5                     2.8794197       1.5237234
  13 STRETCH   4 17                     2.0518476       1.0857911
  14 STRETCH   5  6                     2.8360657       1.5007814
  15 STRETCH   5 19                     2.0496730       1.0846403
  16 STRETCH   5 18                     2.0545806       1.0872373
  17 STRETCH   6  8                     2.2494875       1.1903776
  18 STRETCH   6  7                     2.4982347       1.3220090
  19 STRETCH   7 20                     1.7922552       0.9484207
  20 BEND      1  2  3                  1.9520194     111.8424730
  21 BEND      1  2 13                  1.9019901     108.9760044
  22 BEND      1  2 12                  1.9189484     109.9476416
  23 BEND      2  3 15                  1.8966616     108.6707034
  24 BEND      2  1 11                  1.9453152     111.4583481
  25 BEND      2  1 10                  1.9342689     110.8254460
  26 BEND      2  1  9                  1.9272987     110.4260803
  27 BEND      2  3 14                  1.9075952     109.2971562
  28 BEND      2  3  4                  1.9959496     114.3594883
  29 BEND      3  4 17                  1.9076133     109.2981904
  30 BEND      3  2 12                  1.9052645     109.1636125
  31 BEND      3  2 13                  1.9259520     110.3489215
  32 BEND      3  4  5                  1.9689092     112.8101890
  33 BEND      3  4 16                  1.9156925     109.7610977
  34 BEND      4  5 19                  1.9572779     112.1437633
  35 BEND      4  5  6                  1.9753458     113.1789756
  36 BEND      4  3 15                  1.8940477     108.5209373
  37 BEND      4  3 14                  1.9081364     109.3281640
  38 BEND      4  5 18                  1.9403779     111.1754638
  39 BEND      5  6  8                  2.1948134     125.7535464
  40 BEND      5  4 17                  1.8990639     108.8083486
  41 BEND      5  4 16                  1.9091439     109.3858888
  42 BEND      5  6  7                  1.9572504     112.1421890
  43 BEND      6  5 18                  1.8720982     107.2633252
  44 BEND      6  5 19                  1.8605343     106.6007628
  45 BEND      6  7 20                  1.9122417     109.5633789
  46 BEND      7  6  8                  2.1311170     122.1040099
  47 BEND      9  1 10                  1.8828907     107.8816907
  48 BEND      9  1 11                  1.8851504     108.0111639
  49 BEND     10  1 11                  1.8868661     108.1094666
  50 BEND     12  2 13                  1.8573125     106.4161683
  51 BEND     14  3 15                  1.8562801     106.3570174
  52 BEND     16  4 17                  1.8601763     106.5802521
  53 BEND     18  5 19                  1.8510744     106.0587505
  54 TORSION   1  2  3 14               0.9827995      56.3102658
  55 TORSION   1  2  3  4               3.1281758     179.2312734
  56 TORSION   1  2  3 15              -1.0361224     -59.3654429
  57 TORSION   2  3  4 16               0.9795547      56.1243524
  58 TORSION   2  3  4 17               3.0138296     172.6797145
  59 TORSION   2  3  4  5              -1.1542286     -66.1324271
  60 TORSION   3  2  1  9              -1.0394668     -59.5570634
  61 TORSION   3  4  5 18              -1.0627226     -60.8895191
  62 TORSION   3  4  5 19               1.0063600      57.6601787
  63 TORSION   3  4  5  6               3.1120833     178.3092368
  64 TORSION   3  2  1 11              -3.1349108    -179.6171571
  65 TORSION   3  2  1 10               1.0459602      59.9291050
  66 TORSION   4  3  2 12              -1.0274878     -58.8707140
  67 TORSION   4  5  6  7              -3.1179103    -178.6431035
  68 TORSION   4  5  6  8               0.0205172       1.1755466
  69 TORSION   4  3  2 13               1.0078326      57.7445545
  70 TORSION   5  4  3 14               0.9908547      56.7717916
  71 TORSION   5  4  3 15               3.0086314     172.3818816
  72 TORSION   5  6  7 20               3.1269125     179.1588866
  73 TORSION   6  5  4 17              -1.0511237     -60.2249519
  74 TORSION   6  5  4 16               0.9746255      55.8419277
  75 TORSION   7  6  5 18               1.0186394      58.3637357
  76 TORSION   7  6  5 19              -0.9581361     -54.8971519
  77 TORSION   8  6  7 20              -0.0116479      -0.6673737
  78 TORSION   8  6  5 18              -2.1261185    -121.8176142
  79 TORSION   8  6  5 19               2.1802915     124.9214982
  80 TORSION   9  1  2 12               3.1240755     178.9963403
  81 TORSION   9  1  2 13               1.0946422      62.7183802
  82 TORSION  10  1  2 12              -1.0736828     -61.5174912
  83 TORSION  10  1  2 13              -3.1031160    -177.7954513
  84 TORSION  11  1  2 13              -1.0008017     -57.3417134
  85 TORSION  11  1  2 12               1.0286316      58.9362467
  86 TORSION  12  2  3 15               1.0913992      62.5325697
  87 TORSION  12  2  3 14               3.1103212     178.2082785
  88 TORSION  13  2  3 15               3.1267196     179.1478382
  89 TORSION  13  2  3 14              -1.1375437     -65.1764530
  90 TORSION  14  3  4 16               3.1246380     179.0285711
  91 TORSION  14  3  4 17              -1.1242725     -64.4160668
  92 TORSION  15  3  4 16              -1.1407706     -65.3613389
  93 TORSION  15  3  4 17               0.8935043      51.1940232
  94 TORSION  16  4  5 19              -1.1310978     -64.8071304
  95 TORSION  16  4  5 18               3.0830049     176.6431717
  96 TORSION  17  4  5 19               3.1263383     179.1259900
  97 TORSION  17  4  5 18               1.0572557      60.5762921

          INTERNUCLEAR DISTANCES (ANGS.)


 =====================================================
   GAMESS/COSab RESULTS
 =====================================================

   Dielectric Constant                  = INFTY
   Basic Grid Size                      =                 1082
   Number of Segments                   =                   92
   Number of Segments located on spheres=                  285
   Number of Segments of the cavity     =                  716
   Solvent Radius (rsolv)               = 1.40
   Outlying Charge Error Method         = double cavity

 =====================================================

  Total solvated Energy (a.u.)          =  -384.0675340167
  Total Energy corrected (a.u.)         =  -384.0674589591

  Outlying charge effect (a.u.)         =     0.0000750576
  Outlying charge effect (kcal/mol)     =     0.0470994010

  Dielectric Energy (a.u.)              =    -0.0157455693
  Dielectric energy corr. (a.u.)        =    -0.0156705117

  Sum of polarization charges           =     0.0229636642
  Sum of polarization charges(cor.)     =    -0.0229636642

  Total surface area of cavity (A**2)   =  166.99
  Total volume of cavity (A**3)         =  160.36

 =====================================================
 NPS=                   716
NR.  ATOM  (X, Y, Z)(a.u.)                  CHARGE(e)  AREA(A**2) SIGMA(e/A**2)
   1   1  -2.483606   1.808571   2.029005   0.002183   0.418105   0.005222
   2   1   1.878125  -1.772233   4.791988   0.000993   0.325193   0.003054
   3   1  -1.376224   3.427545   5.447386   0.001906   0.418105   0.004558
   4   1  -1.649513  -0.485644   4.833115   0.001451   0.371649   0.003904
   5   1   0.089086   0.661325  -0.276455   0.000707   0.278737   0.002537
   6   1  -0.142427   3.112518   0.017962   0.000717   0.232280   0.003088
   7   1  -0.417945   2.022925  -0.189783   0.001020   0.325193   0.003136
   8   1  -1.497924   1.763404   0.497617   0.001472   0.325193   0.004527
   9   1  -0.993933  -0.393702   5.706777   0.001553   0.371649   0.004180
  10   1  -0.825392   3.066884   6.154452   0.001214   0.278737   0.004354
  11   1   1.174791   4.049309   6.115000   0.000446   0.139368   0.003200
  12   1   1.700324  -1.344752   5.555629   0.000577   0.185824   0.003105
  13   1  -1.919446   2.344315   1.087668   0.001055   0.232280   0.004540
  14   1  -2.043903   1.281813   1.153787   0.001239   0.278737   0.004445
  15   1   0.551886   4.543911   5.541176   0.001160   0.232280   0.004993
  16   1  -0.341563   4.205000   5.570812   0.001407   0.278737   0.005048
  17   1  -1.795748   2.157354   5.627098   0.001498   0.464561   0.003225
  18   1  -1.977117   0.641298   5.251464   0.001360   0.464561   0.002928
  19   1  -0.509186  -1.307083   5.084885   0.001909   0.371649   0.005136
  20   1   0.745835  -1.886332   4.702359   0.001678   0.371649   0.004515
  21   1   1.620179  -2.123606   3.736352   0.001201   0.371649   0.003232
  22   1  -2.253638   2.769438   4.564599   0.001259   0.418105   0.003012
  23   1  -2.653152   2.129064   3.325714   0.001480   0.418105   0.003541
  24   1  -2.641885   1.015277   3.007533   0.001644   0.464561   0.003539
  25   1  -2.326089   0.211418   4.115600   0.000938   0.325193   0.002884
  26   1  -0.927020   2.669065   0.240134   0.000817   0.232280   0.003519
  27   1  -0.825562   1.105045   0.025287   0.001008   0.278737   0.003616
  28   1  -1.510583   1.142920   5.959730   0.000779   0.278737   0.002796
  29   1   0.204222   3.920584   6.088220   0.000902   0.185824   0.004852
  30   1   2.574498  -1.142560   5.400045   0.000624   0.232280   0.002687
  31   1   0.501941  -1.363567   5.539268   0.001447   0.325193   0.004451
  32   1   1.846387  -2.077290   2.715416   0.000110   0.092912   0.001184
  33   1  -2.488622   1.507308   4.473596   0.001135   0.464561   0.002443
  34   2   3.907098  -1.369298  -0.028271   0.001353   0.325193   0.004160
  35   2   4.740909   0.030185   5.307120   0.000084   0.092912   0.000900
  36   2   4.116086  -0.667744  -0.780153   0.001301   0.278737   0.004667
  37   2   5.838362   0.648553  -0.834300   0.000238   0.092912   0.002556
  38   2   1.934344   4.163047  -0.193908   0.000310   0.185824   0.001666
  39   2   5.000930  -0.947959  -0.220333   0.001380   0.278737   0.004950
  40   2   3.032542  -1.122532  -0.258747   0.001091   0.325193   0.003355
  41   2   2.335107  -0.756854  -0.365695   0.000326   0.139368   0.002340
  42   2   3.098997  -1.751885   0.820504   0.000797   0.278737   0.002860
  43   2   4.567114  -0.295974   5.162889   0.000061   0.046456   0.001308
  44   2   2.218144  -0.298180  -0.698353   0.000404   0.185824   0.002176
  45   2   5.358325  -0.171733  -0.716043   0.000916   0.185824   0.004929
  46   2   2.479589   4.440982  -0.244728   0.000081   0.046456   0.001736
  47   3   6.017347   7.002187   5.285055   0.000905   0.325193   0.002783
  48   3   2.933977   5.994767   5.390270   0.001144   0.278737   0.004103
  49   3   4.267774   5.628490  -0.098434   0.000126   0.092912   0.001358
  50   3   4.519317   6.146481   0.150391   0.000034   0.046456   0.000736
  51   3   3.387906   5.744564   5.952723   0.001080   0.232280   0.004649
  52   3   6.133319   6.347296   5.963058   0.000744   0.278737   0.002670
  53   3   5.003246   7.094356   5.287755   0.001272   0.278737   0.004565
  54   3   3.843366   6.589702   5.518008   0.001543   0.278737   0.005534
  55   3   5.610591   7.550501   4.330419   0.000606   0.278737   0.002175
  56   3   3.897782   5.646700   0.043555   0.000072   0.046456   0.001556
  57   3   4.693733   6.600019   5.831255   0.001302   0.278737   0.004670
  58   4   6.797501   7.417829   0.419519   0.000732   0.325193   0.002250
  59   4   8.679333   5.487547   5.583115   0.000045   0.092912   0.000485
  60   4   8.375068   6.006591   5.405579   0.000004   0.046456   0.000078
  61   4   9.052871   6.952079  -0.237494   0.000697   0.139368   0.004998
  62   4   6.750907   6.856599  -0.345248   0.000478   0.278737   0.001715
  63   4   7.796396   7.613938   0.445061   0.001080   0.278737   0.003876
  64   4   8.990159   7.371854   0.326577   0.000701   0.185824   0.003772
  65   4   7.144337   7.865231   1.447607   0.000456   0.278737   0.001637
  66   4   9.045440   5.563793   5.450677   0.000003   0.046456   0.000072
  67   4   8.156111   7.235873  -0.157627   0.001081   0.278737   0.003879
  68   5  11.231659   4.646718   5.068393  -0.000261   0.046456  -0.005614
  69   5   9.624270  -1.322271   4.613883   0.000298   0.325193   0.000915
  70   5   8.696101   0.701755  -0.543719  -0.000390   0.092912  -0.004199
  71   5   9.678225  -0.830216   5.340233  -0.000027   0.278737  -0.000099
  72   5   7.714488   0.388863   5.701949  -0.000159   0.046456  -0.003414
  73   5  11.148847   4.294007   5.481099  -0.000367   0.185824  -0.001976
  74   5   8.103252  -0.679708   5.033357   0.000040   0.139368   0.000288
  75   5   8.651278  -0.987343   4.935045   0.000388   0.232280   0.001671
  76   5   8.919169   0.385364  -0.456972  -0.000165   0.046456  -0.003546
  77   5   8.141005  -0.231729   5.520646   0.000058   0.139368   0.000418
  78   5  10.573408   4.480289   5.587359  -0.000108   0.046456  -0.002334
  79   6  13.279453   2.775875   5.367643  -0.000998   0.139368  -0.007159
  80   6  15.465733   3.467702   3.260647  -0.000903   0.139368  -0.006482
  81   6  11.642206   1.228749  -1.818523  -0.000480   0.185824  -0.002581
  82   6  11.253319  -0.682847  -0.437698  -0.001874   0.278737  -0.006723
  83   6  13.078056   5.083684   4.093710  -0.000954   0.278737  -0.003424
  84   6  14.817791   4.148626   3.734080  -0.000593   0.232280  -0.002551
  85   6  13.749904   0.784378  -1.360643  -0.000290   0.092912  -0.003123
  86   6  12.609455   0.990232  -1.769738  -0.000259   0.139368  -0.001858
  87   6  12.782886   4.631343   4.637216  -0.001638   0.232280  -0.007051
  88   6  13.112076   3.858130   5.069299  -0.002335   0.278737  -0.008377
  89   6  13.928056   3.306078   4.973856  -0.002849   0.371649  -0.007667
  90   6  14.892005   3.486212   4.135289  -0.001274   0.278737  -0.004571
  91   6  11.964879  -0.197174  -1.112188  -0.001872   0.278737  -0.006717
  92   6  11.874081   0.551218  -1.591009  -0.001916   0.325193  -0.005892
  93   6  10.670531   1.287090  -1.536350  -0.002692   0.371649  -0.007243
  94   6  10.839836   0.161140  -1.071413  -0.002894   0.325193  -0.008898
  95   6  13.987665   4.450381   4.268286  -0.002522   0.418105  -0.006031
  96   6  13.076979   0.338641  -1.381260  -0.001794   0.325193  -0.005515
  97   7  13.630405  -0.414096   5.603704   0.004403   0.309230   0.014238
  98   7  12.857613  -2.784798   3.187443   0.003237   0.240512   0.013459
  99   7  15.936275  -1.630256   3.733408   0.000205   0.274871   0.000745
 100   7  14.601156  -2.119709   0.445820   0.001067   0.343589   0.003105
 101   7  15.920061   1.686658   4.275075   0.000399   0.240512   0.001657
 102   7  12.253090  -2.336848   3.767193   0.004182   0.274871   0.015216
 103   7  13.297795  -1.417088   5.180277   0.005632   0.377948   0.014901
 104   7  13.087660  -2.306542   4.321140   0.004251   0.309230   0.013745
 105   7  12.243267  -2.655697   2.458748   0.005416   0.343589   0.015764
 106   7  12.120709  -2.366981   1.309193   0.002038   0.171795   0.011865
 107   7  13.891129   0.581237   5.654016   0.002739   0.206154   0.013285
 108   7  15.757727  -2.177946   2.750308  -0.000710   0.274871  -0.002584
 109   7  15.228300  -2.425439   1.543298   0.000009   0.309230   0.000028
 110   7  14.193990  -1.526696  -0.222929   0.000579   0.240512   0.002409
 111   7  14.120014  -0.762241  -0.617120  -0.000236   0.171795  -0.001374
 112   7  16.198818   0.614616   4.414483   0.000532   0.309230   0.001721
 113   7  16.209666  -0.570667   4.242413   0.000272   0.309230   0.000880
 114   7  14.478776  -1.069305   5.268111   0.004727   0.377948   0.012507
 115   7  15.394022  -1.356774   4.631624   0.002827   0.377948   0.007480
 116   7  15.059949  -2.363566   3.698026   0.003209   0.481025   0.006671
 117   7  13.905191  -2.740618   3.613683   0.004448   0.377948   0.011769
 118   7  13.521455  -2.973213   2.421625   0.004981   0.412307   0.012081
 119   7  14.033147  -2.756707   1.318836   0.003999   0.446666   0.008954
 120   7  13.465475  -2.150611   0.271028   0.003118   0.343589   0.009076
 121   7  12.450460  -1.914881   0.345518   0.003876   0.343589   0.011282
 122   7  15.299508   1.842572   4.747364   0.001137   0.206154   0.005514
 123   7  15.489265   0.932871   5.024532   0.002283   0.274871   0.008304
 124   7  14.671789   0.261312   5.512527   0.004149   0.343589   0.012074
 125   7  12.450580  -1.690901   4.721668   0.002517   0.206154   0.012209
 126   7  14.171225  -2.068888   4.618203   0.004544   0.377948   0.012023
 127   7  12.856329  -2.664218   1.287425   0.004401   0.343589   0.012810
 128   7  14.564157   1.355327   5.352937   0.002437   0.240512   0.010131
 129   7  14.762683  -2.778734   2.475002   0.002455   0.412307   0.005955
 130   7  13.330578  -1.327760  -0.382661   0.001108   0.171795   0.006449
 131   7  15.488995  -0.262008   5.052560   0.003428   0.377948   0.009071
 132   8  13.997920   6.325821  -1.412279   0.005057   0.377948   0.013381
 133   8  12.834587   7.040107   1.244877   0.002549   0.137436   0.018544
 134   8  12.697431   3.543911  -2.741032   0.004291   0.343589   0.012489
 135   8  15.695704   3.459484  -1.260296   0.005689   0.309230   0.018398
 136   8  15.600955   5.458243   1.589904   0.004243   0.309230   0.013721
 137   8  13.663795   6.931993  -0.424514   0.005618   0.412307   0.013627
 138   8  13.012135   7.134860   0.513163   0.005259   0.343589   0.015308
 139   8  12.919796   6.473197  -1.486228   0.004827   0.343589   0.014050
 140   8  11.921260   6.288978  -1.433790   0.006721   0.377948   0.017783
 141   8  13.622135   5.533906  -2.248270   0.005524   0.412307   0.013397
 142   8  13.371627   4.477794  -2.693314   0.004989   0.377948   0.013201
 143   8  14.824018   5.503809  -1.655217   0.005317   0.377948   0.014067
 144   8  15.458292   4.568217  -1.513729   0.005409   0.343589   0.015742
 145   8  14.922373   6.264918  -0.588135   0.006589   0.481025   0.013697
 146   8  15.436889   6.016142   0.480001   0.005827   0.412307   0.014132
 147   8  11.765175   5.392814  -2.130454   0.003559   0.206154   0.017261
 148   8  11.918657   4.305200  -2.563529   0.006226   0.412307   0.015101
 149   8  13.905837   3.288805  -2.580266   0.005717   0.412307   0.013865
 150   8  14.935321   3.405778  -2.075292   0.005250   0.343589   0.015279
 151   8  16.097130   4.069256  -0.433412   0.006083   0.343589   0.017705
 152   8  16.038677   4.983404   0.619647   0.004821   0.309230   0.015591
 153   8  14.880995   6.224039   1.699367   0.005856   0.446666   0.013111
 154   8  13.727457   6.840849   1.606688   0.005185   0.377948   0.013719
 155   8  11.778324   3.014665  -2.412021   0.004021   0.343589   0.011702
 156   8  13.050850   2.463049  -2.443334   0.004487   0.377948   0.011873
 157   8  15.016157   2.681540  -1.753400   0.003139   0.206154   0.015224
 158   8  15.869758   4.546964   1.817437   0.004259   0.309230   0.013774
 159   8  15.113564   5.275199   2.501534   0.002780   0.274871   0.010115
 160   8  13.210654   6.460642   2.448007   0.003182   0.240512   0.013228
 161   8  12.322748   6.936813  -0.423683   0.007703   0.412307   0.018682
 162   8  12.554200   5.409348  -2.359706   0.004788   0.343589   0.013934
 163   8  14.559203   4.458794  -2.305214   0.005939   0.412307   0.014403
 164   8  15.778407   5.185967  -0.549219   0.007066   0.446666   0.015820
 165   8  14.363136   6.823759   0.628039   0.005481   0.412307   0.013293
 166   8  14.205054   2.185356  -2.007753   0.003515   0.274871   0.012788
 167   8  16.206181   4.220489   0.728238   0.003450   0.206154   0.016733
 168   8  14.065333   6.055256   2.642584   0.004487   0.377948   0.011872
 169   9   0.924798   0.915855   7.688142  -0.002820   0.549575  -0.005131
 170   9   1.786825  -0.491536   6.795627  -0.000907   0.412182  -0.002200
 171   9  -0.188755   0.330886   7.029240  -0.000942   0.412182  -0.002285
 172   9   0.228336   2.450946   7.259964  -0.000869   0.392554  -0.002214
 173   9   2.489649   0.291671   7.090589  -0.002224   0.529948  -0.004197
 174   9   0.727022  -0.353097   6.983158  -0.001216   0.451437  -0.002694
 175   9  -0.291724   1.485523   7.231265  -0.001161   0.431809  -0.002688
 176   9   1.192654   2.611653   7.401875  -0.001725   0.471065  -0.003662
 177   9   1.991984   1.452587   7.614127  -0.002371   0.431809  -0.005490
 178  10  -1.672577   5.032716   2.452094  -0.002450   0.490692  -0.004994
 179  10  -1.872321   3.812686   1.382355  -0.000718   0.372926  -0.001925
 180  10  -0.248324   4.695235   0.864878  -0.001045   0.353299  -0.002959
 181  10  -0.593212   5.294009   4.162013  -0.000961   0.392554  -0.002448
 182  10  -2.287777   3.997899   3.356055  -0.000792   0.372926  -0.002123
 183  10  -1.221962   4.498130   1.117863  -0.001284   0.412182  -0.003116
 184  10  -0.541988   5.450997   1.826210  -0.002437   0.471065  -0.005174
 185  10  -0.749632   5.616019   3.134344  -0.002139   0.431809  -0.004954
 186  10  -1.649691   4.709242   3.993267  -0.001287   0.490692  -0.002622
 187  10  -2.300759   3.914398   2.329879  -0.000964   0.372926  -0.002586
 188  11  -1.293125  -1.868908   1.600328  -0.003448   0.608459  -0.005667
 189  11   0.107107  -1.700477   0.717678  -0.001236   0.353299  -0.003500
 190  11  -1.312364  -0.288754   0.460724  -0.000639   0.333671  -0.001914
 191  11  -2.355340  -0.465387   2.165083  -0.000746   0.353299  -0.002112
 192  11  -1.285472  -1.801494   3.528435  -0.000725   0.372926  -0.001943
 193  11   0.456298  -2.423263   2.621171  -0.000696   0.353299  -0.001970
 194  11  -0.576990  -1.059190   0.361763  -0.001658   0.490692  -0.003379
 195  11  -1.964156  -0.595646   1.195276  -0.001657   0.490692  -0.003377
 196  11  -2.022798  -1.313154   2.797109  -0.001783   0.510320  -0.003494
 197  11  -0.631030  -2.335440   2.902452  -0.001764   0.490692  -0.003594
 198  11   0.179848  -2.282621   1.582876  -0.001822   0.490692  -0.003712
 199  12   2.941869   2.442624  -2.262794  -0.001584   0.372926  -0.004248
 200  12   2.280641   3.364565  -1.464262  -0.000801   0.392554  -0.002041
 201  12   2.197388   1.151324  -1.810515  -0.001173   0.412182  -0.002847
 202  12   4.118608   0.488063  -1.852927  -0.000512   0.353299  -0.001450
 203  12   3.312799   3.611039  -1.727931  -0.001643   0.471065  -0.003487
 204  12   1.944293   2.235320  -1.748562  -0.000811   0.353299  -0.002294
 205  12   3.406021   1.367792  -2.327358  -0.001600   0.392554  -0.004075
 206  12   4.764368   1.268431  -1.993986  -0.001210   0.412182  -0.002936
 207  12   4.094149   2.495439  -2.285139  -0.002112   0.431809  -0.004891
 208  12   2.952112   0.383177  -1.734619  -0.000515   0.333671  -0.001544
 209  13   5.433824  -2.314216   2.927705  -0.001744   0.314043  -0.005552
 210  13   4.550827  -2.017943   3.860949  -0.000853   0.294415  -0.002899
 211  13   5.133522  -1.324274   4.485554  -0.000728   0.274788  -0.002650
 212  13   5.226962  -1.905715   0.968453  -0.000566   0.274788  -0.002061
 213  13   4.152971  -2.311066   1.786666  -0.000576   0.333671  -0.001726
 214  13   5.491979  -1.845977   3.890972  -0.001080   0.235532  -0.004586
 215  13   5.250878  -2.326032   1.815328  -0.001319   0.333671  -0.003954
 216  13   4.412329  -2.418239   2.851275  -0.000957   0.353299  -0.002709
 217  14   5.352681   4.053161   7.659427  -0.001427   0.333671  -0.004277
 218  14   5.536873   2.090331   6.944977  -0.001289   0.294415  -0.004379
 219  14   4.235936   5.046490   7.049518  -0.000571   0.372926  -0.001530
 220  14   6.370743   5.227473   6.927354  -0.000766   0.353299  -0.002169
 221  14   6.027670   3.062672   7.439641  -0.001639   0.333671  -0.004912
 222  14   5.022331   2.951198   7.493824  -0.001400   0.294415  -0.004757
 223  14   4.358640   4.032144   7.467699  -0.001657   0.372926  -0.004444
 224  14   5.298949   5.300279   7.174332  -0.000770   0.392554  -0.001961
 225  14   6.358685   4.296088   7.385762  -0.001659   0.372926  -0.004450
 226  15   3.283213   7.991663   2.746639  -0.001991   0.431809  -0.004610
 227  15   2.803894   6.607369   0.947634  -0.001279   0.353299  -0.003621
 228  15   3.932986   7.112915   0.757844  -0.000818   0.392554  -0.002085
 229  15   4.665897   8.125936   2.753448  -0.001346   0.431809  -0.003118
 230  15   3.284650   7.565077   4.087214  -0.000580   0.333671  -0.001738
 231  15   3.123897   7.510654   1.477359  -0.001483   0.353299  -0.004198
 232  15   4.214066   7.924075   1.687381  -0.001440   0.412182  -0.003493
 233  15   4.132816   7.972265   3.722187  -0.000643   0.333671  -0.001927
 234  15   2.535444   7.210148   3.767156  -0.001231   0.372926  -0.003302
 235  15   2.408935   7.329358   2.302939  -0.002217   0.412182  -0.005380
 236  16   7.513234   4.812474  -2.331674  -0.001676   0.333671  -0.005022
 237  16   7.926180   2.873866  -1.904433  -0.001738   0.353299  -0.004920
 238  16   8.395768   6.109481  -1.555550  -0.000924   0.333671  -0.002768
 239  16   6.479242   5.784791  -1.403705  -0.000838   0.294415  -0.002848
 240  16   7.242501   3.726727  -2.243802  -0.001800   0.333671  -0.005395
 241  16   8.346572   3.933188  -2.306547  -0.001928   0.353299  -0.005456
 242  16   8.478422   5.144040  -2.172068  -0.001654   0.314043  -0.005268
 243  16   7.452823   6.020904  -1.698217  -0.001006   0.372926  -0.002697
 244  16   6.625857   5.022063  -1.972205  -0.001703   0.333671  -0.005103
 245  17   9.392594   8.253472   3.412530  -0.001956   0.372926  -0.005246
 246  17  10.060739   6.736323   4.695728  -0.001594   0.372926  -0.004273
 247  17   8.851654   7.090566   4.958846  -0.001056   0.392554  -0.002690
 248  17   8.020690   8.300124   3.117032  -0.001660   0.431809  -0.003844
 249  17   9.512958   8.015668   1.649736  -0.000977   0.314043  -0.003110
 250  17   9.618146   7.617429   4.371850  -0.001471   0.314043  -0.004685
 251  17   8.467246   7.977804   4.170263  -0.001605   0.392554  -0.004089
 252  17   8.675776   8.366883   2.217788  -0.001199   0.412182  -0.002908
 253  17  10.040003   8.042400   2.540599  -0.001694   0.333671  -0.005078
 254  17  10.449959   7.525458   3.601768  -0.002388   0.412182  -0.005795
 255  18  10.300995   1.658294   7.307619  -0.002785   0.353299  -0.007884
 256  18   9.806720   3.483793   6.815875  -0.002633   0.353299  -0.007451
 257  18  11.020003   3.283282   6.565571  -0.002167   0.372926  -0.005812
 258  18   9.642144   0.086552   6.536160  -0.001854   0.372926  -0.004971
 259  18   8.629435   0.739396   6.716657  -0.002048   0.314043  -0.006523
 260  18  10.366306   2.699790   7.179632  -0.002443   0.333671  -0.007322
 261  18  11.353943   1.961144   6.823847  -0.003005   0.431809  -0.006959
 262  18  10.677975   0.586124   6.781687  -0.003757   0.490692  -0.007656
 263  18   9.367276   1.028192   7.160333  -0.002294   0.314043  -0.007306
 264  18   9.224546   2.161956   7.291281  -0.003329   0.372926  -0.008928
 265  19   8.377262  -2.138362   1.791670  -0.002846   0.314043  -0.009061
 266  19   9.165601  -1.509351   0.566770  -0.002085   0.294415  -0.007083
 267  19   8.526737  -0.818700   0.080694  -0.001658   0.274788  -0.006034
 268  19   8.529706  -1.826103   3.600871  -0.001286   0.215905  -0.005958
 269  19   9.249775  -2.147125   2.801021  -0.001487   0.255160  -0.005826
 270  19   8.237035  -1.548306   0.693604  -0.002327   0.274788  -0.008470
 271  19   8.435801  -2.130661   2.856097  -0.001784   0.235532  -0.007576
 272  19   9.212039  -2.091527   1.535363  -0.002519   0.294415  -0.008555
 273  20  17.583634   0.535538   0.860520  -0.008448   0.392554  -0.021520
 274  20  16.388075  -1.349434   0.438558  -0.008277   0.471065  -0.017570
 275  20  17.250954  -0.672367   2.607369  -0.007528   0.431809  -0.017435
 276  20  17.101388   1.725979   2.709845  -0.009865   0.510320  -0.019331
 277  20  16.134365   0.326035  -0.613102  -0.007181   0.333671  -0.021520
 278  20  17.432258  -0.604571   1.182897  -0.009013   0.431809  -0.020874
 279  20  17.693567   0.501858   2.084509  -0.009682   0.471065  -0.020553
 280  20  17.351426   1.712460   1.351666  -0.010091   0.471065  -0.021422
 281  20  16.991357   1.105710   0.057516  -0.009303   0.431809  -0.021545
 282  20  16.900210  -0.272534  -0.007108  -0.008888   0.431809  -0.020584
 283  20  16.820242  -1.456456   1.672462  -0.006908   0.412182  -0.016759
 284  20  17.239625   0.502586   3.151205  -0.005803   0.372926  -0.015561
 285  20  15.674868  -0.649881  -0.476001  -0.006310   0.392554  -0.016075
 286   1   3.325495  -0.233390   5.702379   0.000007   0.026670   0.000245
 287   2   3.763463  -0.181197   5.472582   0.000027   0.026670   0.001019
 288   9   3.174249  -0.120673   5.939931  -0.000030   0.026670  -0.001131
 289   1   0.743216   4.052136   0.396797   0.000005   0.026118   0.000186
 290   2   1.211575   4.053737   0.229556   0.000023   0.026118   0.000899
 291  10   0.550740   4.224227   0.555725  -0.000033   0.026118  -0.001245
 292   1   1.857264  -1.939481   2.104836   0.000015   0.025143   0.000603
 293   2   2.310890  -1.868385   1.913848   0.000040   0.025143   0.001584
 294  11   1.569171  -1.986116   2.025038  -0.000012   0.025143  -0.000469
 295   1   0.801145  -0.211796  -0.070074   0.000027   0.025143   0.001064
 296   2   1.268914  -0.163837  -0.231935   0.000079   0.025143   0.003153
 297  11   0.608071  -0.413872   0.045806  -0.000009   0.025143  -0.000361
 298   1   1.105125   0.351739  -0.436011   0.000092   0.027423   0.003348
 299   2   1.544047   0.361904  -0.669701   0.000035   0.027423   0.001280
 300  12   1.686001   0.529220  -0.880443   0.000004   0.027423   0.000135
 301   1   1.041831   3.497318  -0.134720   0.000055   0.027423   0.001990
 302   2   1.479913   3.549184  -0.364417   0.000023   0.027423   0.000854
 303  12   1.627619   3.430689  -0.602534  -0.000002   0.027423  -0.000072
 304   1   3.591075  -0.724605   5.117151   0.000074   0.028424   0.002593
 305   2   4.059183  -0.722113   4.949016   0.000024   0.028424   0.000857
 306  13   4.234546  -0.906511   4.784287  -0.000016   0.028424  -0.000547
 307   1   2.439609  -1.932447   2.307238   0.000048   0.028424   0.001698
 308   2   2.892715  -1.945691   2.102494   0.000016   0.028424   0.000562
 309  13   3.172369  -2.020692   2.192265  -0.000013   0.028424  -0.000457
 310   2   1.502008   0.044355  -0.518518   0.000159   0.066679   0.002386
 311   1   0.831827   0.075942  -0.264376   0.000155   0.066679   0.002330
 312   2   1.419869   3.798053  -0.174124   0.000138   0.084460   0.001636
 313   1   0.787037   3.839777   0.167041   0.000164   0.084460   0.001936
 314   2   4.040935  -0.432272   5.231693   0.000135   0.081004   0.001664
 315   1   3.369699  -0.551277   5.462047   0.000167   0.081004   0.002066
 316   2   2.712197  -1.949172   1.971715   0.000080   0.038960   0.002043
 317   1   2.040908  -1.982647   2.214085   0.000082   0.038960   0.002095
 318   1   2.214176   4.199462   6.073029   0.000195   0.068062   0.002871
 319   3   2.909927   4.657398   6.124113   0.000160   0.068062   0.002346
 320  14   3.105297   4.537819   6.327294  -0.000062   0.068062  -0.000915
 321   1   1.519364   5.354405   4.552741   0.000205   0.067180   0.003050
 322   3   2.202649   5.832688   4.578469   0.000132   0.067180   0.001965
 323  15   2.207033   6.041923   4.356081  -0.000047   0.067180  -0.000705
 324   3   2.380512   5.390794   5.297357   0.001131   0.509433   0.002221
 325   1   1.474695   4.587985   5.592234   0.001301   0.509433   0.002553
 326   1   1.867525   3.742812   6.336576   0.000037   0.087423   0.000426
 327   9   1.869481   3.513066   6.539334  -0.000041   0.087423  -0.000474
 328  14   2.808803   4.009086   6.459710   0.000125   0.087423   0.001430
 329   9   1.160634   3.368973   6.703915  -0.000046   0.066469  -0.000689
 330   9   0.158342   2.988510   6.720624  -0.000114   0.146334  -0.000778
 331   9  -0.671512   1.991480   6.658615  -0.000217   0.146334  -0.001482
 332   9  -0.756959   0.703009   6.520364  -0.000264   0.146334  -0.001804
 333   9  -0.065325  -0.384231   6.358734  -0.000148   0.146334  -0.001008
 334   9   1.138929  -0.854512   6.235528  -0.000181   0.146334  -0.001237
 335   9   2.395333  -0.528014   6.197856  -0.000346   0.146334  -0.002367
 336   1   0.678493   3.536655   6.412567   0.000154   0.146911   0.001048
 337   1  -0.554390   2.755982   6.398349   0.000110   0.146911   0.000745
[...]
 457   3   7.239657   5.524221   5.972485  -0.000022   0.028240  -0.000790
 458   4   7.687372   5.547040   5.755559  -0.000015   0.028240  -0.000529
 459  14   7.101889   5.351676   6.182153  -0.000055   0.028240  -0.001933
 460   3   4.913422   6.400153   0.268947  -0.000003   0.029071  -0.000119
 461   4   5.387741   6.417781   0.118061   0.000012   0.029071   0.000419
 462  15   4.729200   6.583617   0.426077  -0.000034   0.029071  -0.001183
 463   3   5.234960   5.786155  -0.276879  -0.000011   0.027499  -0.000395
 464   4   5.679826   5.850445  -0.491283  -0.000030   0.027499  -0.001104
 465  16   5.840292   5.731092  -0.719077  -0.000069   0.027499  -0.002499
 466   3   7.462669   6.167176   5.465456   0.000010   0.027993   0.000348
 467   4   7.934107   6.231224   5.318252  -0.000017   0.027993  -0.000611
 468  17   8.099708   6.451057   5.192294  -0.000054   0.027993  -0.001946
 469   4   5.606701   6.122479  -0.296002   0.000085   0.095320   0.000887
 470   3   4.960934   6.156485   0.027298   0.000106   0.095320   0.001109
 471   4   7.912757   5.968950   5.515924   0.000072   0.088743   0.000812
 472   3   7.277571   5.815770   5.822561   0.000094   0.088743   0.001058
 473   3   4.706331   4.911670  -0.539595  -0.000009   0.166309  -0.000054
 474  12   4.413299   4.326542  -0.914207  -0.000159   0.166309  -0.000954
 475  16   5.361875   4.863747  -0.912847  -0.000194   0.166309  -0.001167
 476  12   3.481888   4.251931  -0.908956  -0.000212   0.161253  -0.001312
 477   3   4.019034   5.078772  -0.365396   0.000314   0.227313   0.001379
 478  14   6.617527   5.474886   6.464300  -0.000136   0.078149  -0.001743
 479  14   5.419709   5.796063   6.540320  -0.000313   0.178192  -0.001757
 480  14   4.014191   5.293125   6.562142  -0.000315   0.178192  -0.001766
 481   3   6.244583   5.899037   6.174052  -0.000214   0.167162  -0.001282
 482   3   4.571230   5.938708   6.248927   0.000147   0.167162   0.000878
 483   3   3.415103   5.202125   6.242150   0.000160   0.095476   0.001674
 484   3   6.010662   7.686223   3.383203   0.000026   0.037728   0.000699
 485  15   5.737918   7.741578   3.261907  -0.000090   0.037728  -0.002398
 486  17   6.744351   7.755535   3.256659  -0.000003   0.037728  -0.000089
 487  15   4.191309   6.565219   0.453553  -0.000111   0.067786  -0.001636
 488  15   3.460927   6.135056   0.453923  -0.000113   0.067786  -0.001668
 489   3   4.017607   6.024857   0.281877  -0.000231   0.149333  -0.001544
 490  15   2.660024   6.593619   4.450804  -0.000024   0.074590  -0.000324
 491  15   3.674906   7.213255   4.544440  -0.000216   0.168285  -0.001284
 492  15   4.829763   7.736154   3.868248  -0.000419   0.168285  -0.002493
 493   3   3.146217   6.571475   4.835436   0.000069   0.161075   0.000431
 494   3   4.544642   7.340945   4.602133   0.000022   0.161075   0.000135
 495   3   5.486805   7.698907   3.755620  -0.000039   0.091128  -0.000426
 496  16   5.813248   5.413415  -1.006286  -0.000245   0.114591  -0.002139
 497   3   4.903288   5.594435  -0.372050   0.000221   0.161579   0.001368
 498  17   7.321117   7.856832   3.601858  -0.000439   0.185583  -0.002363
 499  17   7.827323   7.174300   4.659957  -0.001251   0.378727  -0.003304
 500   3   6.461040   7.384011   4.320859   0.000472   0.509801   0.000925
 501   3   7.079304   6.516092   5.437352   0.000433   0.261557   0.001654
 502   4   9.701323   5.434296   5.211989  -0.000083   0.028533  -0.002899
 503   5   9.982857   5.036794   5.309834  -0.000104   0.028533  -0.003641
 504  17   9.745628   5.709306   5.093510  -0.000086   0.028533  -0.003018
 505   4   9.515713   4.829688   5.592303  -0.000107   0.025644  -0.004174
 506   5   9.820251   4.474851   5.759943  -0.000156   0.025644  -0.006090
 507  18   9.832278   4.249289   5.962318  -0.000167   0.025644  -0.006512
 508   5  10.003245   4.715150   5.583873  -0.000146   0.066512  -0.002194
 509   4   9.520432   5.223342   5.434904  -0.000048   0.066512  -0.000726
 510   4   9.569023   6.252421  -0.696810   0.000652   0.086152   0.007570
 511   8  10.507856   6.050837  -0.873056   0.001953   0.086152   0.022674
 512  16   9.448894   6.092707  -0.928657   0.000173   0.086152   0.002008
 513   4  10.059104   7.065635   0.690876   0.000505   0.085195   0.005922
 514   8  10.976116   6.826562   0.456813   0.002123   0.085195   0.024918
 515  17  10.101642   7.204390   0.959707   0.000164   0.085195   0.001926
 516   8  11.165823   6.518015  -0.574595   0.007362   0.420610   0.017503
 517   4   9.909760   6.864029   0.008582   0.003133   0.468994   0.006680
 518   4   8.354794   4.645166   5.913034  -0.000376   0.167896  -0.002238
 519  14   7.715118   4.466388   6.271210  -0.000389   0.167896  -0.002317
 520  18   8.719245   4.042526   6.203731  -0.000881   0.167896  -0.005246
 521  14   7.191198   4.965345   6.432260  -0.000285   0.128917  -0.002211
 522   4   8.055180   5.359576   5.832535   0.000143   0.181777   0.000789
 523   4   6.702327   7.804388   2.493553   0.000014   0.035587   0.000405
 524  15   5.968933   7.767355   2.615370   0.000009   0.035587   0.000249
 525  17   6.970259   7.869492   2.617819  -0.000102   0.035587  -0.002874
 526  15   5.380501   7.854536   2.274519  -0.000373   0.191442  -0.001951
 527  15   4.934585   7.269641   1.080971  -0.001203   0.391472  -0.003073
 528   4   6.274442   7.594970   1.487054   0.000354   0.525067   0.000674
 529   4   5.734119   6.813985   0.206468   0.000403   0.269860   0.001493
 530  16   6.304181   5.959335  -0.973984  -0.000168   0.078838  -0.002136
 531  16   7.460395   6.453490  -0.983475  -0.000476   0.180598  -0.002635
 532  16   8.712883   6.353595  -1.032522  -0.000049   0.078838  -0.000617
 533   4   6.621597   6.386928  -0.622593  -0.000355   0.167894  -0.002117
 534   4   8.292764   6.660467  -0.663208  -0.000016   0.167894  -0.000097
 535  17   9.476016   7.632614   1.126029  -0.000046   0.074813  -0.000611
 536  17   8.404042   7.988604   1.530756  -0.000417   0.169194  -0.002462
 537  17   7.545824   8.080234   2.364259  -0.000188   0.074813  -0.002512
 538   4   8.895508   7.599971   0.907152   0.000005   0.161172   0.000031
 539   4   7.555671   7.910685   1.766665  -0.000291   0.161172  -0.001806
 540  17   8.638499   6.494866   5.172627  -0.000151   0.068536  -0.002200
 541  17   9.420460   6.140597   5.126605  -0.000180   0.068536  -0.002632
 542   4   8.872367   5.955440   5.268955  -0.000400   0.150438  -0.002656
 543  18   9.619866   4.067759   6.214145  -0.000827   0.149416  -0.005538
 544   4   8.989577   4.908671   5.784313  -0.000114   0.210543  -0.000541
 545   5   9.127845   1.538046  -0.885527  -0.000728   0.102392  -0.007112
 546   6   9.592136   1.583903  -1.041689  -0.000964   0.102392  -0.009419
 547  16   8.786922   2.144147  -1.164903  -0.000513   0.102392  -0.005013
 548   5  11.184082   5.019646   4.659610  -0.000668   0.100957  -0.006612
 549   6  11.625257   5.026410   4.442259  -0.000945   0.100957  -0.009362
 550  17  10.836713   5.638689   4.429947  -0.000492   0.100957  -0.004869
 551   5  11.652909   3.747934   5.562437  -0.000338   0.030015  -0.011248
 552   6  12.090096   3.759721   5.342948  -0.000464   0.030015  -0.015443
 553  18  11.538252   3.572697   5.782082  -0.000376   0.030015  -0.012518
 554   5   9.473655  -0.026092  -0.303444  -0.000393   0.030484  -0.012884
 555   6   9.934378   0.026263  -0.459840  -0.000537   0.030484  -0.017607
 556  19   9.334405  -0.256603  -0.166193  -0.000326   0.030484  -0.010682
 557   6  12.173760   4.470231   4.833178  -0.001717   0.196846  -0.008721
 558   5  11.596168   4.235396   5.233965  -0.001248   0.196846  -0.006341
 559   6  10.072597   0.565808  -0.861324  -0.001988   0.208486  -0.009535
 560   5   9.373162   0.751292  -0.680482  -0.001464   0.208486  -0.007024
 561   5  10.990288  -0.474328   5.390416  -0.000199   0.059550  -0.003342
 562   7  11.730926  -0.686586   5.174664   0.000349   0.059550   0.005857
 563  18  10.946322  -0.279713   5.620413  -0.000312   0.059550  -0.005241
 564   5  10.293988  -1.644759   3.615168  -0.000162   0.061611  -0.002630
 565   7  11.064917  -1.808877   3.477014   0.000413   0.061611   0.006709
 566  19  10.095577  -1.736522   3.404735  -0.000357   0.061611  -0.005798
 567   7  11.847516  -1.426466   4.520339   0.004645   0.502003   0.009254
 568   5  10.647794  -1.283992   4.407528  -0.000252   0.553598  -0.000455
 569   5   7.692903  -1.075696   4.175197  -0.000429   0.078852  -0.005438
 570  13   6.722116  -1.234984   3.909809  -0.000506   0.078852  -0.006418
 571  19   7.636831  -1.250235   3.931926  -0.000546   0.078852  -0.006927
 572  13   6.076609  -1.062427   4.328213  -0.001194   0.351330  -0.003400
 573   5   7.385838  -0.536796   4.894159  -0.000101   0.499401  -0.000203
 574   5   7.482764   0.965708   5.894680  -0.000351   0.087609  -0.004005
 575  14   6.705949   1.545319   6.115021  -0.000182   0.087609  -0.002073
 576  18   7.681467   1.063394   6.106411  -0.000469   0.087609  -0.005350
 577  14   6.073059   1.545796   6.237272  -0.000052   0.054649  -0.000949
 578   5   7.261224   0.770537   5.861852   0.000119   0.077593   0.001537
 579  16   8.138321   2.264156  -1.309236  -0.000503   0.138892  -0.003623
 580   5   8.487319   1.333585  -0.789390  -0.000434   0.195851  -0.002214
 581  17  10.075300   5.951616   4.869411  -0.000620   0.198170  -0.003129
 582   5  10.664811   5.022427   5.100244  -0.000510   0.279331  -0.001825
 583  18  11.085106   3.675848   6.070692  -0.000480   0.070681  -0.006793
 584  18  10.264128   3.989038   6.166924  -0.000426   0.070681  -0.006024
 585   5  10.727821   4.073407   5.788478  -0.001068   0.154328  -0.006921
 586  18   8.233050   0.531956   6.183722  -0.000431   0.071755  -0.006011
 587  18   9.193795  -0.090917   6.057702  -0.000899   0.160520  -0.005600
 588  18  10.329444  -0.243109   5.939281  -0.000455   0.071755  -0.006335
 589   5   8.390632   0.080428   5.807031  -0.000687   0.156179  -0.004398
 590   5   9.846417  -0.457795   5.637285  -0.000746   0.156179  -0.004777
 591  19   8.531646  -0.209009  -0.099050  -0.000714   0.087719  -0.008142
 592   5   8.859692   0.086196  -0.264783  -0.000743   0.107168  -0.006934
 593  19   9.362170  -1.764955   3.605661  -0.000559   0.088709  -0.006301
 594  19   8.362738  -1.468806   3.972782  -0.000543   0.088709  -0.006126
 595   5   9.032003  -1.404695   4.079626  -0.001162   0.182852  -0.006353
 596   6  12.971785   1.995488   5.512574  -0.000679   0.084035  -0.008079
 597   7  13.205004   1.621380   5.499564   0.000008   0.084035   0.000094
 598  18  12.332148   1.924686   5.856732  -0.000854   0.084035  -0.010156
 599   6  11.055955  -1.129906   0.379826  -0.000560   0.084848  -0.006606
 600   7  11.364365  -1.382914   0.568189   0.000089   0.084848   0.001055
 601  19  10.400397  -1.264838   0.660264  -0.000855   0.084848  -0.010079
 602   6  14.104524   0.208609  -0.913579  -0.000556   0.036325  -0.015312
 603   7  14.339526  -0.119362  -0.738996  -0.000572   0.036325  -0.015753
 604  20  14.654311  -0.044861  -0.716675  -0.000691   0.036325  -0.019030
 605   6  15.737672   2.790503   3.252833  -0.000514   0.036325  -0.014146
 606   7  15.940321   2.411384   3.344878  -0.000582   0.036325  -0.016015
 607  20  16.157280   2.331228   3.117629  -0.000793   0.036325  -0.021835
 608   7  15.643398   2.430972   3.830737  -0.000718   0.158519  -0.004531
 609   7  14.484954   1.954705   4.965450   0.001106   0.332540   0.003325
 610   6  14.930668   2.824933   4.213498  -0.001868   0.331241  -0.005639
 611   6  13.672593   2.252357   5.278752  -0.000434   0.169144  -0.002567
 612   7  12.052139  -1.428695   0.155512   0.000696   0.153689   0.004527
 613   7  13.345181  -0.715644  -0.563406  -0.000472   0.321296  -0.001468
 614   6  12.146720  -0.756475  -0.414424  -0.001182   0.321254  -0.003678
 615   6  13.509098   0.040167  -1.034999  -0.000891   0.163991  -0.005433
 616   6  10.499900   2.607731  -1.646423   0.000202   0.114584   0.001765
 617   8  10.687920   2.927430  -1.788645   0.001083   0.114584   0.009448
 618  16   9.647953   3.107137  -1.668989   0.000109   0.114584   0.000947
 619   6  12.307010   5.718604   3.399531   0.000166   0.115965   0.001434
 620   8  12.436139   5.936802   3.093671   0.001018   0.115965   0.008774
 621  17  11.452702   6.233186   3.421269   0.000057   0.115965   0.000490
 622   6  15.772246   3.333247   2.562988  -0.000396   0.065168  -0.006079
 623   8  15.799395   3.604539   2.278209   0.000250   0.065168   0.003842
 624  20  16.134864   2.823457   2.445116  -0.001156   0.065168  -0.017737
 625   6  14.340940   1.074501  -1.160342  -0.000395   0.065168  -0.006055
 626   8  14.423763   1.433652  -1.300294   0.000189   0.065168   0.002905
 627  20  14.849503   0.795027  -0.898561  -0.001232   0.065168  -0.018898
 628   8  13.847291   1.721824  -1.770807   0.001096   0.153444   0.007145
 629   8  12.143078   2.275202  -2.062098   0.002647   0.329538   0.008033
 630   6  13.008985   1.421047  -1.699877   0.000733   0.318842   0.002297
 631   6  11.266750   2.092721  -1.862341   0.000502   0.163730   0.003065
 632   8  13.379381   5.745283   3.094240   0.001224   0.159656   0.007669
 633   8  14.936829   4.751283   2.736776   0.003029   0.345376   0.008771
 634   6  13.859368   5.036583   3.416225   0.001032   0.331865   0.003110
 635   6  15.377182   3.938058   2.902041   0.000321   0.170357   0.001883
 636  16   8.886654   2.828627  -1.708069  -0.000753   0.280642  -0.002683
 637   6  10.002606   1.900369  -1.482659  -0.000921   0.397805  -0.002315
 638  17  10.865874   6.260250   4.174725  -0.000796   0.265290  -0.003000
 639   6  12.131110   5.509380   4.000182  -0.000664   0.376452  -0.001763
 640  18  11.784061   2.644688   6.096737  -0.003076   0.318207  -0.009666
 641   6  12.567642   3.144122   5.460197  -0.003690   0.448169  -0.008234
 642  19   9.495696  -0.774964   0.157156  -0.002589   0.283694  -0.009126
 643   6  10.564759  -0.652137  -0.128323  -0.003140   0.399981  -0.007850
 644  20  14.912069   0.154690  -0.818581  -0.001601   0.115034  -0.013919
 645   6  14.208116   0.646394  -1.132429  -0.000888   0.140540  -0.006317
 646  20  16.373928   2.473951   2.766033  -0.001510   0.104812  -0.014404
 647   6  15.768875   3.103507   3.032772  -0.000759   0.128051  -0.005925
 648  18  11.129931  -0.045103   5.990254  -0.000830   0.261923  -0.003170
 649  18  11.793636   1.114102   6.245835  -0.003142   0.528096  -0.005950
 650   7  12.582547  -0.206391   5.580962   0.004579   0.644240   0.007107
 651   7  13.251601   1.106460   5.742854   0.001590   0.324954   0.004894
 652  19  10.050760  -1.683011   0.988827  -0.001571   0.280570  -0.005598
 653  19  10.010929  -1.990162   2.419568  -0.003119   0.567085  -0.005499
 654   7  11.428643  -2.038799   1.498340   0.004426   0.688274   0.006430
 655   7  11.382704  -2.214353   3.082670   0.002755   0.347549   0.007927
 656  20  16.490504   1.907703   3.235428  -0.001049   0.083166  -0.012615
 657  20  16.751958   0.745602   3.531744  -0.002854   0.180156  -0.015844
 658  20  16.742458  -0.698612   3.171225  -0.003078   0.180156  -0.017087
 659  20  16.347788  -1.641704   2.089268  -0.003164   0.180156  -0.017563
 660  20  15.731805  -1.692125   0.735074  -0.003062   0.180156  -0.016997
 661  20  15.150251  -0.828941  -0.329129  -0.002935   0.180156  -0.016294
 662   7  16.290769   1.507644   3.713237  -0.002070   0.178339  -0.011608
 663   7  16.502262  -0.086606   3.798997  -0.002096   0.178339  -0.011755
 664   7  16.271308  -1.450775   2.974728  -0.002550   0.178339  -0.014301
 665   7  15.693795  -2.018495   1.582647  -0.002363   0.178339  -0.013251
 666   7  15.009491  -1.554061   0.200712  -0.002065   0.178339  -0.011577
 667   7  14.552097  -0.596030  -0.570609  -0.000977   0.095223  -0.010256
 668  16   9.390592   5.916531  -1.370077   0.000592   0.254215   0.002328
 669  16   9.340048   4.813623  -1.963780  -0.000026   0.511009  -0.000051
 670  16   9.233602   3.566314  -2.029619  -0.000174   0.254215  -0.000684
 671   8  10.907060   5.503649  -1.688771   0.009094   0.631078   0.014411
 672   8  10.799529   3.893857  -2.140527   0.007011   0.631078   0.011110
 673  17  11.142625   6.874506   3.383168  -0.000207   0.245804  -0.000841
 674  17  10.841623   7.401405   2.346016   0.000044   0.493686   0.000089
 675  17  10.303160   7.482844   1.274878   0.000574   0.245804   0.002337
 676   8  12.415075   6.659863   2.402972   0.006304   0.611638   0.010307
 677   8  11.839566   7.076919   0.957599   0.008597   0.611638   0.014056
 678  20  15.395151   0.797298  -0.860746  -0.003384   0.216073  -0.015659
 679  20  16.261190   1.562078  -0.324431  -0.007440   0.436337  -0.017051
 680  20  16.744073   2.324116   0.931717  -0.007516   0.436337  -0.017226
 681  20  16.554242   2.626462   2.154458  -0.003246   0.216073  -0.015025
 682   8  15.185624   2.065812  -1.233242   0.003540   0.525059   0.006741
 683   8  16.129181   3.048303  -0.223267   0.004907   0.525059   0.009345
 684   8  16.184183   3.641640   1.364362   0.003350   0.525059   0.006380
 685  14   3.270673   4.103869   6.924309   0.000184   0.250994   0.000731
 686  14   3.829868   3.180983   7.281207  -0.000446   0.501897  -0.000888
 687  14   4.517112   2.023653   6.952662  -0.000429   0.501897  -0.000854
 688   9   2.173590   2.977386   7.112642  -0.000168   0.501897  -0.000335
 689   9   2.883530   1.796424   7.257455  -0.000642   0.501897  -0.001279
 690   9   3.401708   0.916248   6.758881  -0.000009   0.250994  -0.000035
 691  15   2.047539   6.078925   1.201240   0.000024   0.250988   0.000095
 692  15   1.786980   6.574293   2.179600  -0.000596   0.501850  -0.001187
 693  15   1.838759   6.546262   3.552875  -0.000162   0.501850  -0.000323
 694  10   0.602207   5.520841   1.594654  -0.000445   0.501850  -0.000887
 695  10   0.420871   5.893869   2.905120  -0.000535   0.501850  -0.001066
 696  10   0.581491   5.664627   3.996961   0.000264   0.250988   0.001052
 697  16   7.033588   2.386173  -1.597289   0.000044   0.251319   0.000175
 698  16   6.512943   3.305937  -1.969166  -0.000555   0.502481  -0.001105
 699  16   5.854560   4.467369  -1.677027  -0.000506   0.502481  -0.001006
 700  12   5.487813   1.962897  -1.768469  -0.000066   0.502481  -0.000132
 701  12   4.819601   3.142688  -1.939713  -0.000450   0.502481  -0.000896
 702  12   4.316712   4.029290  -1.474560   0.000061   0.251319   0.000244
 703  19   7.589837  -1.617224   3.662616  -0.000859   0.225557  -0.003807
 704  19   7.565368  -1.978335   2.553095  -0.003087   0.451417  -0.006838
 705  19   7.490424  -1.644369   1.172184  -0.003129   0.451417  -0.006931
 706  13   6.279735  -1.858379   3.300894  -0.002134   0.451417  -0.004728
 707  13   6.230658  -2.003796   1.886501  -0.002106   0.451417  -0.004665
 708  13   6.159363  -1.497094   0.837592  -0.000354   0.225557  -0.001567
 709  18   8.857334   3.683772   6.716710  -0.000570   0.246757  -0.002309
 710  18   8.468901   2.709636   7.049478  -0.001877   0.493338  -0.003805
 711  18   7.943975   1.513193   6.736796  -0.001527   0.493338  -0.003096
 712  14   7.282413   3.922766   6.965355  -0.000688   0.493338  -0.001395
 713  14   6.770767   2.687710   7.098195  -0.000702   0.493338  -0.001423
 714  14   6.358355   1.783298   6.626483   0.000003   0.246757   0.000011
 715  17   7.060635   8.048341   2.902110   0.000225   0.183613   0.001223
 716  15   5.625858   7.955965   3.008146   0.000272   0.183613   0.001481
 =====================================================

              4436105  WORDS OF DYNAMIC MEMORY USED
 EXECUTION OF GAMESS TERMINATED NORMALLY Fri Nov 25 03:50:01 2016
 DDI: 263640 bytes (0.3 MB / 0 MWords) used by master data server.

 ----------------------------------------
 CPU timing information for all processes
 ========================================
 0: 1769.340 + 0.672 = 1770.12
 ----------------------------------------
 ddikick.x: exited gracefully.
