----- GAMESS execution script -----

          ******************************************************
          *         GAMESS VERSION =  5 DEC 2014 (R1)          *
          *             FROM IOWA STATE UNIVERSITY             *
          * M.W.SCHMIDT, K.K.BALDRIDGE, J.A.BOATZ, S.T.ELBERT, *
          *   M.S.GORDON, J.H.JENSEN, S.KOSEKI, N.MATSUNAGA,   *
          *          K.A.NGUYEN, S.J.SU, T.L.WINDUS,           *
          *       TOGETHER WITH M.DUPUIS, J.A.MONTGOMERY       *
          *         J.COMPUT.CHEM.  14, 1347-1363(1993)        *
          **************** 64 BIT LINUX VERSION ****************

 EXECUTION OF GAMESS BEGUN Fri Nov 25 03:20:11 2016

            ECHO OF THE FIRST FEW INPUT CARDS -
 INPUT CARD>! SELECT RESTRICTED HARTREE-FOCK AS DEFAULT                                     
 INPUT CARD>$contrl scftyp=rhf $end                                                         
 INPUT CARD>                                                                                
 INPUT CARD>! THEORY: HF OR DFT                                                             
 INPUT CARD> $contrl mplevl=0 $end                                                          
 INPUT CARD>                                                                                
 INPUT CARD> $system timlim=10000 mwords=20 $end                                            
 INPUT CARD> $SCF DIRSCF=.TRUE. $end                                                        
 INPUT CARD>                                                                                
 INPUT CARD>                                                                                
 INPUT CARD>! BASIS SETS                                                                    
 INPUT CARD>! 6-311G(d,p)                                                                   
 INPUT CARD> $BASIS GBASIS=N311 NGAUSS=6 NDFUNC=1 NPFUNC=1 $END                             
 INPUT CARD>                                                                                
 INPUT CARD>! One of the following                                                          
 INPUT CARD> $guess guess=HUCKEL $end                                                       
 INPUT CARD>                                                                                
 INPUT CARD> $statpt projct=.FALSE. $end                                                    
 INPUT CARD> $STATPT IFREEZ(1)=1,2,3 $END                                                   
 INPUT CARD>                                                                                
 INPUT CARD>! Optimize the geometry with COSMO effects                                      
 INPUT CARD> $statpt opttol=0.0005 nstep=50 $end                                            
 INPUT CARD> $contrl nzvar=1 $end                                                           
 INPUT CARD> $zmat dlc=.t. auto=.t. $end                                                    
 INPUT CARD> $contrl runtyp=OPTIMIZE maxit=200 $end                                         
 INPUT CARD>                                                                                
 INPUT CARD>! Run COSMO on perfect conductor                                                
 INPUT CARD> $COSGMS PRFCND=.TRUE. $end                                                     
 INPUT CARD>                                                                                
 INPUT CARD>! Specifying RSOLV                                                              
 INPUT CARD> $COSGMS COSRAD = 1.4 $end                                                      
 INPUT CARD>                                                                                
 INPUT CARD>! available memory                                                              
 INPUT CARD> $SYSTEM MWORDS=40 $END                                                         
 INPUT CARD>                                                                                
 INPUT CARD> $DATA                                                                          
 INPUT CARD>                                                                                
 INPUT CARD>C1                                                                              
 INPUT CARD>C      6.0      3.1014000000    1.0822000000    1.9479000000                    
 INPUT CARD>C      6.0      2.9735000000    1.4922000000    3.4160000000                    
 INPUT CARD>C      6.0      3.9288000000    0.6926000000    4.3019000000                    
 INPUT CARD>C      6.0      2.1222000000    1.8572000000    1.0670000000                    
 INPUT CARD>C      6.0      3.8017000000    1.0926000000    5.7629000000                    
 INPUT CARD>C      6.0      2.2445000000    1.4512000000   -0.3934000000                    
 INPUT CARD>H      1.0      2.9105000000    0.0069000000    1.8489000000                    
 INPUT CARD>H      1.0      4.1275000000    1.2612000000    1.6044000000                    
 INPUT CARD>H      1.0      3.1851000000    2.5630000000    3.5189000000                    
 INPUT CARD>H      1.0      1.9418000000    1.3327000000    3.7532000000                    
 INPUT CARD>H      1.0      3.7161000000   -0.3792000000    4.2041000000                    
 INPUT CARD>H      1.0      4.9625000000    0.8490000000    3.9736000000                    
   40000000 WORDS OF MEMORY AVAILABLE

     BASIS OPTIONS
     -------------
     GBASIS=N311         IGAUSS=       6      POLAR=POPN311 
     NDFUNC=       1     NFFUNC=       0     DIFFSP=       F
     NPFUNC=       1      DIFFS=       F     BASNAM=        


     RUN TITLE
     ---------
                                                                                 

 THE POINT GROUP OF THE MOLECULE IS C1      
 THE ORDER OF THE PRINCIPAL AXIS IS     0

 ATOM      ATOMIC                      COORDINATES (BOHR)
           CHARGE         X                   Y                   Z
 C           6.0     5.8607961783        2.0450614639        3.6809972515
 C           6.0     5.6191002245        2.8198491189        6.4553039741
 C           6.0     7.4243554606        1.3088242191        8.1294122266
 C           6.0     4.0103764911        3.5095991044        2.0163376289
 C           6.0     7.1841712875        2.0647146142       10.8903018946
 C           6.0     4.2414899794        2.7423703534       -0.7434182036
 H           1.0     5.5000474873        0.0130391093        3.4939143787
 H           1.0     7.7998440143        2.3833224157        3.0318763747
 H           1.0     6.0189662435        4.8433677065        6.6497567782
 H           1.0     3.6694699230        2.5184378238        7.0925195771
 H           1.0     7.0224107430       -0.7165840945        7.9445970250
 H           1.0     9.3777652141        1.6043773636        7.5090151848
 H           1.0     2.0692499566        3.1675587006        2.6552539853
 H           1.0     4.3624324427        5.5446450206        2.1884916664
 H           1.0     8.4438626309        0.9168950492       12.0602312536
 H           1.0     7.6930744960        4.0534622437       11.1584540123
 H           1.0     5.2496587939        1.7929720172       11.5702253050
 H           1.0     3.8994495757        0.7162061493       -0.9813347054
 H           1.0     2.8568877482        3.7660349209       -1.8893480425
 H           1.0     6.1261137070        3.1743617142       -1.4754980512

          INTERNUCLEAR DISTANCES (ANGS.)




     $CONTRL OPTIONS
     ---------------
 SCFTYP=RHF          RUNTYP=OPTIMIZE     EXETYP=RUN     
 MPLEVL=       0     CITYP =NONE         CCTYP =NONE         VBTYP =NONE    
 DFTTYP=NONE         TDDFT =NONE    
 MULT  =       1     ICHARG=       0     NZVAR =       1     COORD =UNIQUE  
 PP    =NONE         RELWFN=NONE         LOCAL =NONE         NUMGRD=       F
 ISPHER=      -1     NOSYM =       0     MAXIT =     200     UNITS =ANGS    
 PLTORB=       F     MOLPLT=       F     AIMPAC=       F     FRIEND=        
 NPRINT=       7     IREST =       0     GEOM  =INPUT   
 NORMF =       0     NORMP =       0     ITOL  =      20     ICUT  =       9
 INTTYP=BEST         GRDTYP=BEST         QMTTOL= 1.0E-06

     $SYSTEM OPTIONS
     ---------------
  REPLICATED MEMORY=    40000000 WORDS (ON EVERY NODE).
 DISTRIBUTED MEMDDI=           0 MILLION WORDS IN AGGREGATE,
 MEMDDI DISTRIBUTED OVER   1 PROCESSORS IS           0 WORDS/PROCESSOR.
 TOTAL MEMORY REQUESTED ON EACH PROCESSOR=    40000000 WORDS.
 TIMLIM=       10000.00 MINUTES, OR       6.9 DAYS.
 PARALL= F  BALTYP=  DLB     KDIAG=    0  COREFL= F
 MXSEQ2=     300 MXSEQ3=     150  mem10=         0

     $COSGMS OPTIONS
     ---------------
     EPSI  =   INFTY     NSPA  =      92     COSRAD=    1.40
     DISEX =   10.00     OUTCHG=DBLCAV       COSBUG=       F
     COSWRT=       F     DCOSMO=       F

     SYMMETRY COORDINATES WILL NOT BE USED FOR 
     THE COSMO CALCULATION, EVEN IF SPECIFIED:
         -- SWITCHING TO C1 POINT GROUP --


     DEFINITION OF CAVITY
     ---------------------------
     ATOM         COORDINATES           RADIUS 
     1    5.8608    2.0451    3.6810    2.0000
     2    5.6191    2.8198    6.4553    2.0000
     3    7.4244    1.3088    8.1294    2.0000
     4    4.0104    3.5096    2.0163    2.0000
     5    7.1842    2.0647   10.8903    2.0000
     6    4.2415    2.7424   -0.7434    2.0000
     7    5.5000    0.0130    3.4939    1.3000
     8    7.7998    2.3833    3.0319    1.3000
     9    6.0190    4.8434    6.6498    1.3000
    10    3.6695    2.5184    7.0925    1.3000
    11    7.0224   -0.7166    7.9446    1.3000
    12    9.3778    1.6044    7.5090    1.3000
    13    2.0692    3.1676    2.6553    1.3000
    14    4.3624    5.5446    2.1885    1.3000
    15    8.4439    0.9169   12.0602    1.3000
    16    7.6931    4.0535   11.1585    1.3000
    17    5.2497    1.7930   11.5702    1.3000
    18    3.8994    0.7162   -0.9813    1.3000
    19    2.8569    3.7660   -1.8893    1.3000
    20    6.1261    3.1744   -1.4755    1.3000

          ----------------
          PROPERTIES INPUT
          ----------------

     MOMENTS            FIELD           POTENTIAL          DENSITY
 IEMOM =       1   IEFLD =       0   IEPOT =       0   IEDEN =       0
 WHERE =COMASS     WHERE =NUCLEI     WHERE =NUCLEI     WHERE =NUCLEI  
 OUTPUT=BOTH       OUTPUT=BOTH       OUTPUT=BOTH       OUTPUT=BOTH    
 IEMINT=       0   IEFINT=       0                     IEDINT=       0
                                                       MORB  =       0
          EXTRAPOLATION IN EFFECT
          SOSCF IN EFFECT
 ORBITAL PRINTING OPTION: NPREO=     1   198     2     1

     -------------------------------
     INTEGRAL TRANSFORMATION OPTIONS
     -------------------------------
     NWORD  =            0
     CUTOFF = 1.0E-09     MPTRAN =       0
     DIRTRF =       T     AOINTS =DUP     

          ----------------------
          INTEGRAL INPUT OPTIONS
          ----------------------
 NOPK  =       1 NORDER=       0 SCHWRZ=       T


 -----------------------------------------------
  STATISTICS ON AUTOMATIC COORDINATE GENERATION 
 -----------------------------------------------
  NUMBER OF USER SPECIFIED BONDS                             0
  NUMBER OF BONDS                                           19
  NUMBER OF ANGLES                                          36
  NUMBER OF TORSIONS                                        45
  NUMBER OF EXTRA COORD.                                     0
  NUMBER OF EXTRA COORD. FOR CONSTRAINTS                     0
  NUMBER OF CONSTRAINED COORD.                               0

  TOTAL NUMBER OF PRIMITIVES                               100
 -----------------------------------------------

   --- ENCODED Z MATRIX ---
 COORD  TYPE   I   J   K   L   M   N
    1      1    1   4
    2      1    1   7
    3      1    1   8
    4      1    1   2
    5      1    2   9
    6      1    2   3
    7      1    2  10
    8      1    3  11
    9      1    3   5
   10      1    3  12
   11      1    4  14
   12      1    4  13
   13      1    4   6
   14      1    5  16
   15      1    5  15
   16      1    5  17
   17      1    6  20
   18      1    6  19
   19      1    6  18
   20      2    1   2   3
   21      2    1   2  10
   22      2    1   4  13
   23      2    1   4   6
   24      2    1   2   9
   25      2    1   4  14
   26      2    2   1   4
   27      2    2   3  11
   28      2    2   3  12
   29      2    2   1   8
   30      2    2   3   5
   31      2    2   1   7
   32      2    3   2   9
   33      2    3   5  17
   34      2    3   5  15
   35      2    3   5  16
   36      2    3   2  10
   37      2    4   6  18
   38      2    4   6  20
   39      2    4   6  19
   40      2    4   1   7
   41      2    4   1   8
   42      2    5   3  12
   43      2    5   3  11
   44      2    6   4  13
   45      2    6   4  14
   46      2    7   1   8
   47      2    9   2  10
   48      2   11   3  12
   49      2   13   4  14
   50      2   15   5  16
   51      2   15   5  17
   52      2   16   5  17
   53      2   18   6  19
   54      2   18   6  20
   55      2   19   6  20
   56      3    1   2   3  12
   57      3    1   2   3   5
   58      3    1   4   6  18
   59      3    1   2   3  11
   60      3    1   4   6  19
   61      3    1   4   6  20
   62      3    2   1   4   6
   63      3    2   1   4  14
   64      3    2   1   4  13
   65      3    2   3   5  17
   66      3    2   3   5  15
   67      3    2   3   5  16
   68      3    3   2   1   8
   69      3    3   2   1   7
   70      3    3   2   1   4
   71      3    4   1   2  10
   72      3    4   1   2   9
   73      3    5   3   2  10
   74      3    5   3   2   9
   75      3    6   4   1   8
   76      3    6   4   1   7
   77      3    7   1   4  14
   78      3    7   1   4  13
   79      3    7   1   2   9
   80      3    7   1   2  10
   81      3    8   1   4  14
   82      3    8   1   4  13
   83      3    8   1   2   9
   84      3    8   1   2  10
   85      3    9   2   3  12
   86      3    9   2   3  11
   87      3   10   2   3  12
   88      3   10   2   3  11
   89      3   11   3   5  16
   90      3   11   3   5  15
   91      3   11   3   5  17
   92      3   12   3   5  16
   93      3   12   3   5  15
   94      3   12   3   5  17
   95      3   13   4   6  19
   96      3   13   4   6  20
   97      3   13   4   6  18
   98      3   14   4   6  19
   99      3   14   4   6  20
  100      3   14   4   6  18

          INDEP./SYM. INTERNAL COORDINATES
          --------------------------------
 CRD  1=  -0.4806 ( 20)  0.1489 ( 21)  0.1083 ( 22) -0.3228 ( 23)  0.1477 ( 24)
           0.1083 ( 25)  0.4806 ( 26) -0.1082 ( 27) -0.1085 ( 28) -0.1477 ( 29)
           0.3227 ( 30) -0.1491 ( 31)  0.1436 ( 32)  0.1430 ( 36) -0.1429 ( 40)
          -0.1435 ( 41)
 CRD  2=  -0.2619 (  1) -0.3482 (  4) -0.2619 (  6) -0.2142 (  9) -0.2141 ( 13)
          -0.1213 ( 20)  0.1090 ( 22) -0.4267 ( 23)  0.1103 ( 25) -0.1213 ( 26)
           0.1089 ( 27)  0.1107 ( 28) -0.4269 ( 30)  0.1519 ( 42)  0.1489 ( 43)
           0.1492 ( 44)  0.1517 ( 45)
 CRD  3=  -0.1365 ( 21)  0.1716 ( 24)  0.1714 ( 29) -0.1368 ( 31) -0.1366 ( 33)
           0.1541 ( 35) -0.1365 ( 37)  0.1541 ( 38)  0.1057 ( 42) -0.1266 ( 43)
          -0.1270 ( 44)  0.1054 ( 45)  0.2068 ( 56)  0.3669 ( 57)  0.2188 ( 59)
          -0.1159 ( 60)  0.3670 ( 62)  0.2068 ( 63)  0.2189 ( 64) -0.1160 ( 66)
          -0.1057 ( 68) -0.1034 ( 69) -0.2583 ( 70) -0.1034 ( 71) -0.1058 ( 72)
           0.1389 ( 73)  0.1542 ( 74)  0.1542 ( 75)  0.1390 ( 76)
 CRD  4=  -0.2168 (  1) -0.2008 (  4) -0.2168 (  6) -0.4129 ( 20)  0.1190 ( 21)
          -0.1228 ( 22)  0.2796 ( 23) -0.1267 ( 25) -0.4131 ( 26) -0.1229 ( 27)
          -0.1268 ( 28)  0.2799 ( 30)  0.1192 ( 31)  0.1565 ( 32) -0.1244 ( 34)
           0.1683 ( 36) -0.1245 ( 39)  0.1683 ( 40)  0.1564 ( 41)
 CRD  5=  -0.1612 (  1)  0.1610 (  6)  0.2222 (  9) -0.2226 ( 13)  0.2776 ( 20)
          -0.1650 ( 21)  0.1247 ( 22) -0.3902 ( 23) -0.1381 ( 24) -0.2780 ( 26)
          -0.1262 ( 28)  0.1644 ( 29)  0.3899 ( 30)  0.1389 ( 31)  0.1135 ( 33)
           0.1172 ( 35) -0.1231 ( 37) -0.1072 ( 38) -0.1235 ( 42) -0.1409 ( 43)
           0.1241 ( 44)  0.1407 ( 45)  0.1028 ( 79)
 CRD  6=   0.1127 ( 21) -0.1538 ( 22) -0.1440 ( 24)  0.1756 ( 25) -0.1756 ( 27)
           0.1534 ( 28) -0.1135 ( 29)  0.1434 ( 31)  0.2083 ( 32) -0.2144 ( 36)
          -0.2096 ( 40)  0.2131 ( 41) -0.1669 ( 58) -0.1492 ( 60) -0.1609 ( 61)
          -0.1615 ( 65) -0.1489 ( 66) -0.1664 ( 67) -0.2277 ( 68) -0.2178 ( 69)
          -0.4019 ( 70) -0.2276 ( 71) -0.2177 ( 72)
 CRD  7=  -0.3424 ( 33)  0.3572 ( 35)  0.3427 ( 37) -0.3562 ( 38)  0.1503 ( 42)
          -0.1502 ( 43)  0.1505 ( 44) -0.1500 ( 45)  0.1043 ( 51) -0.1041 ( 53)
           0.2362 ( 57)  0.1063 ( 60) -0.2364 ( 62) -0.1064 ( 66)  0.1826 ( 73)
           0.1825 ( 74) -0.1825 ( 75) -0.1826 ( 76)
 CRD  8=   0.1015 (  6)  0.4109 (  9) -0.4300 ( 13)  0.1013 ( 26)  0.3796 ( 34)
          -0.3917 ( 39)  0.1131 ( 42)  0.1116 ( 43) -0.1177 ( 44) -0.1195 ( 45)
          -0.1757 ( 50) -0.1691 ( 51)  0.1758 ( 53)  0.1826 ( 55)
 CRD  9=  -0.2561 (  1)  0.1510 (  4) -0.2524 (  6)  0.4254 (  9)  0.4067 ( 13)
           0.1976 ( 34)  0.1813 ( 39)  0.1449 ( 42)  0.1441 ( 43)  0.1377 ( 44)
           0.1407 ( 45) -0.1370 ( 50) -0.1364 ( 51) -0.1157 ( 52) -0.1287 ( 53)
          -0.1139 ( 54) -0.1292 ( 55)
 CRD 10=  -0.3099 (  1)  0.3450 (  4) -0.3106 (  6) -0.1493 (  9) -0.1450 ( 13)
           0.1302 ( 20)  0.1293 ( 26) -0.1493 ( 32)  0.1115 ( 33) -0.3511 ( 34)
           0.1044 ( 35) -0.1512 ( 36)  0.1115 ( 37)  0.1047 ( 38) -0.3484 ( 39)
          -0.1505 ( 40) -0.1492 ( 41)  0.1117 ( 50)  0.1088 ( 51)  0.1072 ( 53)
           0.1104 ( 55)  0.1170 ( 80) -0.1166 ( 83)
 CRD 11=   0.2753 ( 22) -0.2679 ( 25) -0.2747 ( 27)  0.2682 ( 28)  0.1321 ( 32)
           0.1229 ( 35) -0.1399 ( 36) -0.1204 ( 38)  0.1399 ( 40) -0.1314 ( 41)
          -0.1747 ( 42)  0.1820 ( 43) -0.1831 ( 44)  0.1742 ( 45)  0.2273 ( 58)
           0.2324 ( 60)  0.2290 ( 61) -0.2272 ( 65) -0.2328 ( 66) -0.2292 ( 67)
          -0.1306 ( 68) -0.1368 ( 69)  0.1369 ( 71)  0.1311 ( 72)
 CRD 12=   0.4153 (  1) -0.4155 (  6)  0.2017 (  9) -0.2026 ( 13)  0.2119 ( 33)
          -0.2123 ( 34)  0.1831 ( 35) -0.2159 ( 37) -0.1785 ( 38)  0.2115 ( 39)
          -0.1889 ( 52)  0.1888 ( 54) -0.1232 ( 79)  0.1232 ( 84)
 CRD 13=  -0.1021 ( 14) -0.1034 ( 17) -0.1362 ( 21)  0.1438 ( 24)  0.1436 ( 29)
          -0.1372 ( 31)  0.3815 ( 33) -0.3954 ( 35)  0.3808 ( 37) -0.3984 ( 38)
           0.1542 ( 50) -0.1583 ( 51) -0.1582 ( 53)  0.1546 ( 55)  0.1481 ( 56)
           0.1478 ( 59)  0.1486 ( 63)  0.1470 ( 64)
 CRD 14=  -0.1083 (  2) -0.1054 (  3) -0.5133 (  4) -0.1057 (  5) -0.1080 (  7)
           0.1697 (  9)  0.1706 ( 13)  0.1156 ( 20) -0.1260 ( 21) -0.1225 ( 24)
           0.1155 ( 26) -0.1223 ( 29) -0.1262 ( 31)  0.2268 ( 33) -0.2627 ( 34)
           0.1997 ( 35)  0.2269 ( 37)  0.1993 ( 38) -0.2624 ( 39) -0.1974 ( 52)
          -0.1974 ( 54)
 CRD 15=  -0.1013 (  2)  0.1006 (  3)  0.1006 (  5) -0.1012 (  7)  0.1591 ( 21)
           0.2276 ( 22) -0.1610 ( 24) -0.2286 ( 25)  0.2280 ( 27) -0.2288 ( 28)
          -0.1600 ( 29)  0.1579 ( 31)  0.1332 ( 32)  0.1068 ( 33) -0.1133 ( 35)
          -0.1331 ( 36)  0.1067 ( 37) -0.1138 ( 38) -0.1319 ( 40)  0.1319 ( 41)
           0.2269 ( 42) -0.2280 ( 43) -0.2275 ( 44)  0.2263 ( 45) -0.1047 ( 56)
           0.1398 ( 58) -0.1054 ( 59)  0.1253 ( 60)  0.1394 ( 61) -0.1043 ( 63)
          -0.1049 ( 64)  0.1398 ( 65)  0.1253 ( 66)  0.1396 ( 67) -0.1337 ( 70)
           0.1380 ( 73)  0.1382 ( 74)  0.1379 ( 75)  0.1375 ( 76)
 CRD 16=   0.2659 ( 21) -0.1179 ( 22) -0.2643 ( 24)  0.1076 ( 25)  0.1171 ( 27)
          -0.1067 ( 28)  0.2649 ( 29) -0.2665 ( 31)  0.2763 ( 32) -0.2733 ( 36)
           0.2739 ( 40) -0.2768 ( 41)  0.1332 ( 42) -0.1305 ( 43)  0.1313 ( 44)
          -0.1342 ( 45) -0.1547 ( 56) -0.1554 ( 59)  0.1553 ( 63)  0.1557 ( 64)
          -0.1672 ( 68) -0.1664 ( 69)  0.1668 ( 71)  0.1674 ( 72)
 CRD 17=   0.3210 (  1) -0.3208 (  6) -0.1472 (  8) -0.1022 (  9) -0.1503 ( 10)
           0.1503 ( 11)  0.1474 ( 12)  0.1028 ( 13)  0.1267 ( 22) -0.1972 ( 23)
           0.1345 ( 25) -0.1266 ( 27) -0.1349 ( 28)  0.1972 ( 30) -0.1927 ( 33)
           0.2641 ( 34) -0.1798 ( 35)  0.1921 ( 37)  0.1800 ( 38) -0.2639 ( 39)
           0.1187 ( 48) -0.1189 ( 49)  0.1793 ( 52) -0.1792 ( 54)
 CRD 18=  -0.2583 (  1) -0.1817 (  2) -0.1805 (  3) -0.2975 (  4) -0.1815 (  5)
          -0.2581 (  6) -0.1808 (  7) -0.1309 (  8) -0.1296 ( 10) -0.1284 ( 11)
          -0.1321 ( 12)  0.2438 ( 20) -0.1051 ( 21) -0.1096 ( 22)  0.1911 ( 23)
          -0.1006 ( 24) -0.1062 ( 25)  0.2438 ( 26) -0.1095 ( 27) -0.1065 ( 28)
          -0.1007 ( 29)  0.1911 ( 30) -0.1051 ( 31) -0.1189 ( 33)  0.1670 ( 34)
          -0.1096 ( 35) -0.1168 ( 37) -0.1114 ( 38)  0.1670 ( 39)  0.1408 ( 46)
           0.1408 ( 47)  0.1052 ( 48)  0.1053 ( 49)  0.1155 ( 52)  0.1154 ( 54)
 CRD 19=  -0.1495 (  2)  0.1558 (  3) -0.1544 (  5)  0.1510 (  7)  0.1848 (  8)
          -0.1876 ( 10)  0.1885 ( 11) -0.1841 ( 12)  0.1469 ( 14) -0.1422 ( 16)
          -0.1471 ( 17)  0.1423 ( 19) -0.2330 ( 33)  0.2399 ( 35)  0.2340 ( 37)
          -0.2396 ( 38) -0.1355 ( 50)  0.1405 ( 51) -0.1404 ( 53)  0.1356 ( 55)
          -0.2179 ( 57) -0.1055 ( 60)  0.2178 ( 62)  0.1054 ( 66)  0.1026 ( 68)
           0.1002 ( 69) -0.1003 ( 71) -0.1024 ( 72) -0.1551 ( 73) -0.1559 ( 74)
           0.1557 ( 75)  0.1556 ( 76)
 CRD 20=   0.1916 (  2) -0.1889 (  3) -0.1888 (  5)  0.1913 (  7) -0.3266 (  8)
           0.3268 ( 10)  0.3267 ( 11) -0.3266 ( 12) -0.1165 ( 58) -0.1422 ( 60)
          -0.1174 ( 61) -0.1164 ( 65) -0.1422 ( 66) -0.1175 ( 67)  0.1173 ( 70)
           0.1471 ( 73)  0.1471 ( 74)  0.1470 ( 75)  0.1470 ( 76)
 CRD 21=   0.1750 (  9)  0.5027 ( 14)  0.4782 ( 15)  0.5040 ( 16) -0.1740 ( 33)
          -0.1898 ( 34) -0.1739 ( 35)  0.1903 ( 50)  0.1910 ( 51)  0.1813 ( 52)
 CRD 22=  -0.1749 ( 13) -0.5027 ( 17) -0.4784 ( 18) -0.5041 ( 19)  0.1738 ( 37)
           0.1745 ( 38)  0.1892 ( 39) -0.1903 ( 53) -0.1815 ( 54) -0.1904 ( 55)
 CRD 23=  -0.3600 (  2)  0.3631 (  3) -0.3632 (  5)  0.3599 (  7) -0.2523 (  8)
           0.2516 ( 10) -0.2513 ( 11)  0.2522 ( 12) -0.1145 ( 56) -0.1147 ( 59)
           0.1145 ( 63)  0.1146 ( 64)
 CRD 24=  -0.1052 (  8)  0.1057 ( 10)  0.1052 ( 11) -0.1056 ( 12) -0.1391 ( 21)
           0.1388 ( 24)  0.1386 ( 29) -0.1390 ( 31) -0.1526 ( 32)  0.1530 ( 36)
           0.1528 ( 40) -0.1527 ( 41)  0.1379 ( 42) -0.1381 ( 43) -0.1379 ( 44)
           0.1378 ( 45) -0.1083 ( 56) -0.1088 ( 59) -0.1083 ( 63) -0.1086 ( 64)
          -0.1016 ( 68) -0.1017 ( 69) -0.1017 ( 71) -0.1014 ( 72) -0.1801 ( 77)
          -0.1804 ( 78) -0.2000 ( 79) -0.2003 ( 80) -0.1796 ( 81) -0.1799 ( 82)
          -0.1999 ( 83) -0.2002 ( 84) -0.1797 ( 85) -0.1803 ( 86) -0.1802 ( 87)
          -0.1807 ( 88)
 CRD 25=  -0.1835 (  8) -0.1815 ( 10) -0.2687 ( 14)  0.6310 ( 15) -0.3082 ( 16)
           0.1683 ( 50)  0.1465 ( 51) -0.3260 ( 52) -0.1644 ( 65)  0.1730 ( 67)
           0.1554 ( 89) -0.1820 ( 91)  0.1914 ( 92) -0.1461 ( 94)
 CRD 26=  -0.1841 ( 11) -0.1836 ( 12) -0.2801 ( 17)  0.6312 ( 18) -0.2970 ( 19)
           0.1529 ( 53) -0.3258 ( 54)  0.1616 ( 55) -0.1668 ( 58)  0.1702 ( 61)
           0.1517 ( 96) -0.1853 ( 97)  0.1881 ( 99) -0.1488 (100)
 CRD 27=  -0.3755 ( 14)  0.3604 ( 16)  0.4083 ( 17) -0.3995 ( 19) -0.1947 ( 50)
           0.2022 ( 51) -0.2204 ( 53)  0.2160 ( 55) -0.1742 ( 60)  0.1592 ( 66)
           0.1565 ( 90)  0.1566 ( 93) -0.1715 ( 95) -0.1710 ( 98)
 CRD 28=  -0.4145 ( 14)  0.3957 ( 16) -0.3731 ( 17)  0.3651 ( 19) -0.2145 ( 50)
           0.2240 ( 51)  0.2020 ( 53) -0.1980 ( 55)  0.1531 ( 60)  0.1679 ( 66)
           0.1610 ( 90)  0.1614 ( 93)  0.1477 ( 95)  0.1472 ( 98)
 CRD 29=  -0.3890 (  2) -0.3873 (  3)  0.3881 (  5)  0.3893 (  7) -0.2191 (  8)
          -0.2194 ( 10)  0.2195 ( 11)  0.2194 ( 12) -0.1287 ( 46)  0.1289 ( 47)
          -0.1228 ( 79)  0.1231 ( 84)
 CRD 30=   0.2353 (  2)  0.2351 (  3)  0.2379 (  5)  0.2360 (  7) -0.3540 (  8)
          -0.3551 ( 10) -0.3569 ( 11) -0.3563 ( 12) -0.1017 ( 15) -0.1035 ( 18)
          -0.1295 ( 48) -0.1304 ( 49) -0.1044 ( 77)  0.1060 ( 82)  0.1045 ( 86)
          -0.1058 ( 87)
 CRD 31=  -0.2221 (  2) -0.2192 (  3)  0.2160 (  5)  0.2184 (  7)  0.3537 (  8)
           0.3548 ( 10) -0.3525 ( 11) -0.3527 ( 12)  0.1506 ( 48) -0.1502 ( 49)
           0.1001 ( 89)
 CRD 32=   0.3477 (  2)  0.3485 (  3) -0.1014 (  4)  0.3496 (  5)  0.3476 (  7)
           0.2167 (  8)  0.2175 ( 10)  0.2146 ( 11)  0.2149 ( 12)  0.1683 ( 46)
           0.1686 ( 47)  0.1043 ( 48)  0.1034 ( 49)  0.1265 ( 80)  0.1001 ( 81)
          -0.1260 ( 83) -0.1009 ( 88)
 CRD 33=   0.1576 (  2) -0.1599 (  3)  0.1573 (  5) -0.1608 (  7) -0.1049 ( 22)
           0.1054 ( 25)  0.1049 ( 27) -0.1054 ( 28)  0.1173 ( 42) -0.1178 ( 43)
           0.1177 ( 44) -0.1173 ( 45) -0.1030 ( 56)  0.1133 ( 58) -0.1042 ( 59)
           0.1123 ( 61)  0.1034 ( 63)  0.1041 ( 64) -0.1140 ( 65) -0.1105 ( 67)
          -0.1178 ( 73) -0.1180 ( 74)  0.1178 ( 75)  0.1186 ( 76)  0.1951 ( 77)
           0.1958 ( 78)  0.1943 ( 81)  0.1950 ( 82) -0.1943 ( 85) -0.1955 ( 86)
          -0.1941 ( 87) -0.1953 ( 88) -0.1628 ( 89) -0.1349 ( 90) -0.1662 ( 91)
          -0.1635 ( 92) -0.1356 ( 93) -0.1669 ( 94)  0.1338 ( 95)  0.1647 ( 96)
           0.1657 ( 97)  0.1343 ( 98)  0.1651 ( 99)  0.1661 (100)
 CRD 34=   0.3106 (  2) -0.3106 (  3) -0.3099 (  5)  0.3113 (  7) -0.1552 ( 68)
          -0.1552 ( 69) -0.1552 ( 71) -0.1552 ( 72) -0.2442 ( 79) -0.2442 ( 80)
          -0.2442 ( 83) -0.2442 ( 84)
 CRD 35=   0.1592 (  2) -0.1590 (  3) -0.1586 (  5)  0.1588 (  7)  0.2554 (  8)
          -0.2528 ( 10) -0.2549 ( 11)  0.2554 ( 12) -0.1159 ( 58) -0.1197 ( 60)
          -0.1160 ( 61) -0.1156 ( 65) -0.1195 ( 66) -0.1153 ( 67) -0.1892 ( 89)
          -0.1933 ( 90) -0.1894 ( 91) -0.1892 ( 92) -0.1934 ( 93) -0.1895 ( 94)
          -0.1938 ( 95) -0.1901 ( 96) -0.1900 ( 97) -0.1937 ( 98) -0.1901 ( 99)
          -0.1899 (100)
 CRD 36=  -0.1311 (  2)  0.1310 (  3) -0.1313 (  5)  0.1318 (  7)  0.2666 (  8)
          -0.2641 ( 10)  0.2643 ( 11) -0.2648 ( 12)  0.1087 ( 56)  0.1053 ( 58)
           0.1091 ( 59)  0.1236 ( 60)  0.1059 ( 61) -0.1084 ( 63) -0.1089 ( 64)
          -0.1058 ( 65) -0.1242 ( 66) -0.1061 ( 67) -0.1255 ( 77) -0.1260 ( 78)
          -0.1256 ( 81) -0.1261 ( 82)  0.1259 ( 85)  0.1264 ( 86)  0.1256 ( 87)
           0.1261 ( 88) -0.1592 ( 89) -0.1773 ( 90) -0.1589 ( 91) -0.1597 ( 92)
          -0.1777 ( 93) -0.1593 ( 94)  0.1765 ( 95)  0.1588 ( 96)  0.1582 ( 97)
           0.1768 ( 98)  0.1591 ( 99)  0.1585 (100)
 CRD 37=  -0.1782 ( 15)  0.1781 ( 18) -0.1574 ( 21)  0.1250 ( 22) -0.1580 ( 24)
           0.1257 ( 25) -0.1248 ( 27) -0.1258 ( 28)  0.1579 ( 29)  0.1576 ( 31)
           0.1595 ( 32) -0.1317 ( 34)  0.1579 ( 36)  0.1318 ( 39) -0.1580 ( 40)
          -0.1594 ( 41)  0.1587 ( 42)  0.1577 ( 43) -0.1580 ( 44) -0.1586 ( 45)
           0.1388 ( 50)  0.1367 ( 51) -0.1366 ( 53) -0.1390 ( 55)  0.1905 ( 77)
           0.1823 ( 79) -0.1885 ( 82) -0.1823 ( 84)  0.1884 ( 86) -0.1904 ( 87)
 CRD 38=   0.1521 (  4)  0.1305 (  9)  0.1308 ( 13) -0.1504 ( 14) -0.2307 ( 15)
          -0.1478 ( 16) -0.1507 ( 17) -0.2303 ( 18) -0.1478 ( 19) -0.1224 ( 22)
          -0.1223 ( 25) -0.1223 ( 27) -0.1227 ( 28) -0.1613 ( 33) -0.1888 ( 34)
          -0.1620 ( 35) -0.1613 ( 37) -0.1625 ( 38) -0.1888 ( 39)  0.1438 ( 42)
           0.1437 ( 43)  0.1437 ( 44)  0.1435 ( 45)  0.2015 ( 50)  0.1995 ( 51)
           0.1352 ( 52)  0.1990 ( 53)  0.1357 ( 54)  0.2017 ( 55) -0.1001 ( 56)
           0.1008 ( 59) -0.1000 ( 63)  0.1009 ( 64) -0.1315 ( 77)  0.1323 ( 82)
           0.1324 ( 86) -0.1317 ( 87)
 CRD 39=   0.1531 (  1) -0.1532 (  6) -0.3024 (  9)  0.3025 ( 13)  0.1675 ( 14)
           0.1327 ( 15)  0.1701 ( 16) -0.1677 ( 17) -0.1323 ( 18) -0.1696 ( 19)
          -0.1091 ( 21) -0.1088 ( 24)  0.1088 ( 29)  0.1093 ( 31)  0.1427 ( 32)
           0.1624 ( 33)  0.1583 ( 34)  0.1616 ( 35)  0.1416 ( 36) -0.1623 ( 37)
          -0.1619 ( 38) -0.1580 ( 39) -0.1417 ( 40) -0.1427 ( 41) -0.1577 ( 50)
          -0.1598 ( 51) -0.1870 ( 52)  0.1590 ( 53)  0.1872 ( 54)  0.1578 ( 55)
           0.1625 ( 79) -0.1623 ( 84)
 CRD 40=  -0.2386 (  4)  0.3329 (  9)  0.3327 ( 13) -0.1541 ( 14) -0.1650 ( 16)
          -0.1550 ( 17) -0.1631 ( 19)  0.1030 ( 21)  0.1258 ( 22)  0.1025 ( 24)
           0.1253 ( 25)  0.1263 ( 27)  0.1250 ( 28)  0.1031 ( 29)  0.1028 ( 31)
          -0.1008 ( 42) -0.1005 ( 43) -0.1011 ( 44) -0.1003 ( 45)  0.2081 ( 52)
           0.2079 ( 54)  0.1140 ( 80) -0.1109 ( 83) -0.1698 ( 89)  0.1062 ( 93)
           0.1662 ( 94) -0.1000 ( 95) -0.1685 ( 96)  0.1059 ( 98)  0.1667 (100)
 CRD 41=   0.1021 (  2) -0.1006 (  3)  0.1003 (  5) -0.1021 (  7) -0.2235 (  8)
           0.2251 ( 10) -0.2249 ( 11)  0.2242 ( 12)  0.1901 ( 14) -0.1813 ( 16)
          -0.1898 ( 17)  0.1823 ( 19) -0.1407 ( 50)  0.1434 ( 51) -0.1445 ( 53)
           0.1401 ( 55) -0.1603 ( 60)  0.1602 ( 66) -0.1395 ( 77) -0.1401 ( 78)
          -0.1407 ( 81) -0.1414 ( 82)  0.1403 ( 85)  0.1423 ( 86)  0.1382 ( 87)
           0.1401 ( 88) -0.1633 ( 89) -0.1702 ( 91) -0.1639 ( 92) -0.1708 ( 94)
           0.1639 ( 96)  0.1708 ( 97)  0.1638 ( 99)  0.1706 (100)
 CRD 42=   0.1909 (  2) -0.1922 (  3) -0.1923 (  5)  0.1910 (  7)  0.1717 (  8)
          -0.1747 ( 10) -0.1728 ( 11)  0.1730 ( 12) -0.1141 ( 14)  0.1135 ( 16)
          -0.1157 ( 17)  0.1113 ( 19) -0.1755 ( 77) -0.1755 ( 78)  0.1873 ( 79)
           0.1884 ( 80) -0.1741 ( 81) -0.1741 ( 82)  0.1870 ( 83)  0.1881 ( 84)
          -0.1747 ( 85) -0.1755 ( 86) -0.1745 ( 87) -0.1753 ( 88)  0.1289 ( 89)
           0.1293 ( 91)  0.1260 ( 92)  0.1264 ( 94)  0.1253 ( 96)  0.1291 ( 97)
           0.1257 ( 99)  0.1295 (100)
 CRD 43=   0.2657 (  1) -0.2659 (  6) -0.1202 ( 14)  0.2014 ( 15) -0.1326 ( 16)
           0.1192 ( 17) -0.2004 ( 18)  0.1328 ( 19) -0.1305 ( 22) -0.1302 ( 25)
           0.1301 ( 27)  0.1302 ( 28) -0.1551 ( 48)  0.1548 ( 49)  0.1867 ( 52)
          -0.1865 ( 54) -0.1108 ( 58)  0.1157 ( 61)  0.1121 ( 65) -0.1152 ( 67)
          -0.2307 ( 89) -0.1107 ( 90)  0.1211 ( 93)  0.2284 ( 94)  0.1119 ( 95)
           0.2321 ( 96) -0.1201 ( 98) -0.2264 (100)
 CRD 44=   0.1370 (  1) -0.3058 (  4)  0.1386 (  6) -0.1113 (  8)  0.1565 (  9)
          -0.1092 ( 10) -0.1112 ( 11) -0.1119 ( 12)  0.1588 ( 13) -0.2278 ( 15)
          -0.2281 ( 18)  0.1789 ( 48)  0.1810 ( 49)  0.1094 ( 50)  0.1019 ( 51)
          -0.1270 ( 52)  0.1019 ( 53) -0.1267 ( 54)  0.1105 ( 55) -0.1129 ( 58)
           0.1169 ( 61) -0.1131 ( 65)  0.1166 ( 67)  0.1730 ( 77) -0.1720 ( 82)
          -0.1685 ( 86)  0.1707 ( 87)  0.1841 ( 89) -0.1821 ( 94)  0.1859 ( 96)
          -0.1821 (100)
 CRD 45=   0.2160 (  1) -0.1598 (  2) -0.1539 (  3)  0.1574 (  5) -0.2142 (  6)
           0.1576 (  7)  0.2217 (  9) -0.2197 ( 13)  0.2561 ( 46) -0.2572 ( 47)
           0.1118 ( 48) -0.1094 ( 49) -0.1383 ( 68)  0.1364 ( 69) -0.1356 ( 71)
           0.1389 ( 72)  0.1016 ( 73) -0.1018 ( 74)  0.1017 ( 75) -0.1854 ( 77)
           0.2737 ( 79)  0.1868 ( 82) -0.2756 ( 84) -0.1884 ( 86)  0.1882 ( 87)
 CRD 46=   0.1689 (  2) -0.1754 (  3) -0.1725 (  5)  0.1716 (  7)  0.2222 ( 14)
          -0.2121 ( 16)  0.2229 ( 17) -0.2122 ( 19)  0.1079 ( 32) -0.1104 ( 36)
          -0.1117 ( 40)  0.1065 ( 41) -0.1628 ( 50)  0.1691 ( 51)  0.1688 ( 53)
          -0.1635 ( 55)  0.2425 ( 60)  0.2426 ( 66) -0.1780 ( 70)  0.1369 ( 79)
           0.1390 ( 80)  0.1301 ( 83)  0.1321 ( 84)  0.1604 ( 90) -0.1017 ( 91)
           0.1586 ( 93) -0.1034 ( 94)  0.1596 ( 95) -0.1025 ( 97)  0.1598 ( 98)
          -0.1022 (100)
 CRD 47=  -0.1044 (  1)  0.1063 (  6) -0.2028 (  9)  0.2017 ( 13)  0.2058 ( 15)
          -0.2053 ( 18)  0.1139 ( 22)  0.1142 ( 25) -0.1150 ( 27) -0.1150 ( 28)
           0.1337 ( 42)  0.1317 ( 43) -0.1313 ( 44) -0.1327 ( 45)  0.1223 ( 46)
          -0.1227 ( 47) -0.1009 ( 50)  0.1134 ( 52) -0.1134 ( 54)  0.1012 ( 55)
          -0.1203 ( 58)  0.1258 ( 61)  0.1204 ( 65) -0.1260 ( 67)  0.1051 ( 73)
          -0.1050 ( 74)  0.1044 ( 75) -0.1043 ( 76) -0.1994 ( 78)  0.2010 ( 81)
          -0.2024 ( 85)  0.2000 ( 88)  0.1693 ( 91) -0.1731 ( 92) -0.1681 ( 97)
           0.1728 ( 99)
 CRD 48=  -0.2642 (  1)  0.2601 (  4) -0.2636 (  6)  0.2023 (  9)  0.2031 ( 13)
          -0.1497 ( 21) -0.1470 ( 24) -0.1474 ( 29) -0.1500 ( 31)  0.1619 ( 32)
           0.1603 ( 36)  0.1606 ( 40)  0.1620 ( 41)  0.1010 ( 48)  0.1010 ( 49)
           0.1079 ( 56) -0.1046 ( 59)  0.1082 ( 63) -0.1051 ( 64)  0.1352 ( 68)
          -0.1353 ( 69) -0.1353 ( 71)  0.1356 ( 72) -0.1531 ( 78) -0.2688 ( 80)
           0.1514 ( 81)  0.2726 ( 83)  0.1504 ( 85) -0.1522 ( 88)
 CRD 49=   0.1031 (  1) -0.2208 (  4)  0.1029 (  6)  0.1838 ( 15)  0.1850 ( 18)
          -0.1312 ( 34) -0.1316 ( 39) -0.1411 ( 46) -0.1407 ( 47)  0.1127 ( 48)
           0.1125 ( 49)  0.1340 ( 52)  0.1349 ( 54)  0.1304 ( 58) -0.1340 ( 61)
           0.1262 ( 65) -0.1366 ( 67)  0.1016 ( 77) -0.1374 ( 80) -0.1005 ( 82)
           0.1387 ( 83) -0.1030 ( 86)  0.1214 ( 90)  0.2401 ( 91) -0.2455 ( 92)
          -0.1015 ( 93)  0.1148 ( 95)  0.2417 ( 97) -0.1083 ( 98) -0.2459 ( 99)
 CRD 50=  -0.1242 (  2)  0.1244 (  3) -0.1281 (  5)  0.1214 (  7)  0.1002 ( 11)
           0.1923 ( 14) -0.1814 ( 16) -0.1900 ( 17)  0.1843 ( 19) -0.1019 ( 21)
           0.1023 ( 24) -0.1025 ( 29)  0.1015 ( 31)  0.1181 ( 33) -0.1249 ( 35)
          -0.1203 ( 37)  0.1235 ( 38)  0.1087 ( 42) -0.1111 ( 43)  0.1094 ( 44)
          -0.1110 ( 45) -0.1364 ( 50)  0.1444 ( 51) -0.1426 ( 53)  0.1385 ( 55)
           0.2095 ( 57)  0.1166 ( 58) -0.1414 ( 60)  0.1089 ( 61) -0.2097 ( 62)
          -0.1199 ( 65)  0.1418 ( 66) -0.1046 ( 67) -0.1043 ( 68) -0.1049 ( 69)
           0.1076 ( 71)  0.1012 ( 72)  0.2275 ( 90)  0.2312 ( 93) -0.2307 ( 95)
          -0.2284 ( 98)
 CRD 51=  -0.1600 (  1)  0.1603 (  6) -0.1293 (  8)  0.1157 (  9) -0.1315 ( 10)
           0.1304 ( 11)  0.1302 ( 12) -0.1158 ( 13)  0.1109 ( 15) -0.1111 ( 18)
           0.1751 ( 23) -0.1752 ( 30) -0.1266 ( 34)  0.1265 ( 39)  0.2034 ( 48)
          -0.2032 ( 49)  0.1006 ( 52) -0.1008 ( 54)  0.1144 ( 56) -0.1161 ( 59)
          -0.1149 ( 63)  0.1155 ( 64)  0.1880 ( 78) -0.1892 ( 81)  0.1893 ( 85)
          -0.1879 ( 88)  0.1309 ( 90)  0.2207 ( 91) -0.2241 ( 92) -0.1227 ( 93)
          -0.1299 ( 95) -0.2206 ( 97)  0.1233 ( 98)  0.2241 ( 99)
 CRD 52=   0.1776 (  1) -0.1196 (  2) -0.1197 (  3)  0.1945 (  4) -0.1190 (  5)
           0.1776 (  6) -0.1201 (  7) -0.1908 ( 20) -0.1472 ( 23) -0.1909 ( 26)
          -0.1471 ( 30)  0.1841 ( 46)  0.1840 ( 47)  0.1414 ( 48)  0.1414 ( 49)
          -0.1176 ( 68)  0.1175 ( 69)  0.1167 ( 71) -0.1183 ( 72) -0.1131 ( 73)
           0.1098 ( 74)  0.1102 ( 75) -0.1131 ( 76) -0.2050 ( 78)  0.2343 ( 80)
           0.2069 ( 81) -0.2359 ( 83)  0.2071 ( 85) -0.2042 ( 88)  0.1324 ( 91)
          -0.1346 ( 92)  0.1325 ( 97) -0.1346 ( 99)
 CRD 53=  -0.1605 (  8)  0.1600 ( 10)  0.1607 ( 11) -0.1597 ( 12) -0.1111 ( 14)
           0.1063 ( 16) -0.1104 ( 17)  0.1065 ( 19)  0.1104 ( 22) -0.1108 ( 25)
           0.1101 ( 27) -0.1108 ( 28) -0.1065 ( 33)  0.1109 ( 35) -0.1067 ( 37)
           0.1105 ( 38) -0.1167 ( 42)  0.1171 ( 43)  0.1168 ( 44) -0.1166 ( 45)
           0.1118 ( 56) -0.1110 ( 57)  0.1993 ( 58)  0.1114 ( 59)  0.1930 ( 61)
          -0.1103 ( 62)  0.1115 ( 63)  0.1125 ( 64)  0.2002 ( 65)  0.1925 ( 67)
          -0.1980 ( 70) -0.1918 ( 73) -0.1941 ( 74) -0.1944 ( 75) -0.1915 ( 76)
          -0.1918 ( 90) -0.1929 ( 93) -0.1921 ( 95) -0.1915 ( 98)
 CRD 54=   0.1471 (  2) -0.1485 (  3)  0.1484 (  5) -0.1472 (  7)  0.1025 (  8)
          -0.1015 ( 10)  0.1015 ( 11) -0.1022 ( 12)  0.1264 ( 21)  0.1039 ( 22)
          -0.1276 ( 24) -0.1038 ( 25) -0.1038 ( 27)  0.1039 ( 28)  0.1276 ( 29)
          -0.1263 ( 31) -0.1113 ( 32)  0.1120 ( 36) -0.1120 ( 40)  0.1112 ( 41)
          -0.2191 ( 56)  0.1547 ( 58) -0.2179 ( 59)  0.1514 ( 61)  0.2189 ( 63)
           0.2180 ( 64) -0.1551 ( 65) -0.1514 ( 67)  0.2249 ( 68)  0.2269 ( 69)
          -0.2267 ( 71) -0.2251 ( 72)  0.1722 ( 73)  0.1717 ( 74) -0.1714 ( 75)
          -0.1720 ( 76)

 THE DETERMINANT OF THE G MATRIX IS 10**(   -16)


                     --------------------
                     INTERNAL COORDINATES
                     --------------------

                 - - ATOMS - -         COORDINATE      COORDINATE
 NO.   TYPE    I  J  K  L  M  N        (BOHR,RAD)       (ANG,DEG)
 ----------------------------------------------------------------
   1 STRETCH   1  4                     2.8879084       1.5282154
   2 STRETCH   1  7                     2.0722583       1.0965919
   3 STRETCH   1  8                     2.0726034       1.0967746
   4 STRETCH   1  2                     2.8905866       1.5296326
   5 STRETCH   2  9                     2.0717944       1.0963465
   6 STRETCH   2  3                     2.8887335       1.5286520
   7 STRETCH   2 10                     2.0731500       1.0970638
   8 STRETCH   3 11                     2.0731606       1.0970694
   9 STRETCH   3  5                     2.8725547       1.5200906
  10 STRETCH   3 12                     2.0707617       1.0958000
  11 STRETCH   4 14                     2.0724363       1.0966861
  12 STRETCH   4 13                     2.0719985       1.0964545
  13 STRETCH   4  6                     2.8737268       1.5207108
  14 STRETCH   5 16                     2.0702669       1.0955382
  15 STRETCH   5 15                     2.0671349       1.0938808
  16 STRETCH   5 17                     2.0684483       1.0945758
  17 STRETCH   6 20                     2.0674535       1.0940494
  18 STRETCH   6 19                     2.0683732       1.0945360
  19 STRETCH   6 18                     2.0685592       1.0946345
  20 BEND      1  2  3                  1.9430974     111.3312809
  21 BEND      1  2 10                  1.9120460     109.5521635
  22 BEND      1  4 13                  1.9164548     109.8047740
  23 BEND      1  4  6                  1.9461906     111.5085049
  24 BEND      1  2  9                  1.9131829     109.6173037
  25 BEND      1  4 14                  1.9190407     109.9529350
  26 BEND      2  1  4                  1.9430660     111.3294816
  27 BEND      2  3 11                  1.9158023     109.7673873
  28 BEND      2  3 12                  1.9190227     109.9518994
  29 BEND      2  1  8                  1.9124798     109.5770220
  30 BEND      2  3  5                  1.9466926     111.5372705
  31 BEND      2  1  7                  1.9123228     109.5680260
  32 BEND      3  2  9                  1.9133350     109.6260212
  33 BEND      3  5 17                  1.9385956     111.0733461
  34 BEND      3  5 15                  1.9250574     110.2976627
  35 BEND      3  5 16                  1.9355482     110.8987451
  36 BEND      3  2 10                  1.9108304     109.4825172
  37 BEND      4  6 18                  1.9376333     111.0182105
  38 BEND      4  6 20                  1.9364713     110.9516351
  39 BEND      4  6 19                  1.9241901     110.2479717
  40 BEND      4  1  7                  1.9110190     109.4933260
  41 BEND      4  1  8                  1.9136346     109.6431852
  42 BEND      5  3 12                  1.9063264     109.2244562
  43 BEND      5  3 11                  1.9034489     109.0595867
  44 BEND      6  4 13                  1.9043458     109.1109778
  45 BEND      6  4 14                  1.9052739     109.1641512
  46 BEND      7  1  8                  1.8698638     107.1353028
  47 BEND      9  2 10                  1.8698931     107.1369800
  48 BEND     11  3 12                  1.8709049     107.1949522
  49 BEND     13  4 14                  1.8709114     107.1953284
  50 BEND     15  5 16                  1.8863069     108.0774243
  51 BEND     15  5 17                  1.8869806     108.1160217
  52 BEND     16  5 17                  1.8896980     108.2717192
  53 BEND     18  6 19                  1.8863669     108.0808628
  54 BEND     18  6 20                  1.8909042     108.3408303
  55 BEND     19  6 20                  1.8866500     108.0970814
  56 TORSION   1  2  3 12               1.0279663      58.8981318
  57 TORSION   1  2  3  5              -3.1377373    -179.7791048
  58 TORSION   1  4  6 18               1.0180205      58.3282759
  59 TORSION   1  2  3 11              -1.0260750     -58.7897680
  60 TORSION   1  4  6 19               3.1079335     178.0714711
  61 TORSION   1  4  6 20              -1.0857332     -62.2079314
  62 TORSION   2  1  4  6              -3.1401251    -179.9159133
  63 TORSION   2  1  4 14               1.0272298      58.8559310
  64 TORSION   2  1  4 13              -1.0272211     -58.8554362
  65 TORSION   2  3  5 17               1.0159672      58.2106327
  66 TORSION   2  3  5 15               3.1078376     178.0659807
  67 TORSION   2  3  5 16              -1.0862870     -62.2396585
  68 TORSION   3  2  1  8              -1.0460770     -59.9357991
  69 TORSION   3  2  1  7               1.0007840      57.3406970
  70 TORSION   3  2  1  4               3.1172490     178.6052123
  71 TORSION   4  1  2 10               1.0011866      57.3637683
  72 TORSION   4  1  2  9              -1.0459583     -59.9289989
  73 TORSION   5  3  2 10              -1.0209652     -58.4969970
  74 TORSION   5  3  2  9               1.0255587      58.7601853
  75 TORSION   6  4  1  8               1.0238740      58.6636565
  76 TORSION   6  4  1  7              -1.0228990     -58.6077935
  77 TORSION   7  1  4 14              -3.1387294    -179.8359492
  78 TORSION   7  1  4 13               1.0900050      62.4526836
  79 TORSION   7  1  2  9               3.1207619     178.8064857
  80 TORSION   7  1  2 10              -1.1152784     -63.9007471
  81 TORSION   8  1  4 14              -1.0919565     -62.5644992
  82 TORSION   8  1  4 13               3.1367779     179.7241336
  83 TORSION   8  1  2  9               1.0739009      61.5299896
  84 TORSION   8  1  2 10               3.1210459     178.8227568
  85 TORSION   9  2  3 12              -1.0919230     -62.5625782
  86 TORSION   9  2  3 11               3.1372210     179.7495221
  87 TORSION  10  2  3 12              -3.1384469    -179.8197605
  88 TORSION  10  2  3 11               1.0906971      62.4923398
  89 TORSION  11  3  5 16               3.0780460     176.3590455
  90 TORSION  11  3  5 15               0.9889853      56.6646847
  91 TORSION  11  3  5 17              -1.1028851     -63.1906632
  92 TORSION  12  3  5 16               1.0385577      59.5049756
  93 TORSION  12  3  5 15              -1.0505029     -60.1893853
  94 TORSION  12  3  5 17               3.1408119     179.9552668
  95 TORSION  13  4  6 19               0.9879830      56.6072545
  96 TORSION  13  4  6 20               3.0775016     176.3278520
  97 TORSION  13  4  6 18              -1.1019300     -63.1359406
  98 TORSION  14  4  6 19              -1.0514266     -60.2423062
  99 TORSION  14  4  6 20               1.0380920      59.4782913
 100 TORSION  14  4  6 18              -3.1413396    -179.9855014

     ------------------------------------------
     THE POINT GROUP IS C1 , NAXIS= 1, ORDER= 1
     ------------------------------------------

     DIMENSIONS OF THE SYMMETRY SUBSPACES ARE
 A   =  198

 ..... DONE SETTING UP THE RUN .....
 STEP CPU TIME =     0.01 TOTAL CPU TIME =        0.0 (    0.0 MIN)
 TOTAL WALL CLOCK TIME=        0.0 SECONDS, CPU UTILIZATION IS  50.00%


          -----------------------------
          STATIONARY POINT LOCATION RUN
          -----------------------------

 OBTAINING INITIAL HESSIAN, HESS=GUESS   
 DIAGONAL GUESS HESSIAN IN INTERNAL COORDS IS
     1  0.3684     2  0.3420     3  0.3418     4  0.3674     5  0.3421
     6  0.3681     7  0.3416     8  0.3416     9  0.3743    10  0.3425
    11  0.3419    12  0.3420    13  0.3739    14  0.3427    15  0.3438
    16  0.3433    17  0.3437    18  0.3433    19  0.3433    20  0.2486
    21  0.2237    22  0.2238    23  0.2493    24  0.2237    25  0.2238
    26  0.2486    27  0.2237    28  0.2238    29  0.2237    30  0.2493
    31  0.2237    32  0.2238    33  0.2244    34  0.2244    35  0.2243
    36  0.2237    37  0.2244    38  0.2244    39  0.2244    40  0.2238
    41  0.2238    42  0.2243    43  0.2242    44  0.2242    45  0.2242
    46  0.2027    47  0.2027    48  0.2028    49  0.2027    50  0.2029
    51  0.2030    52  0.2029    53  0.2029    54  0.2030    55  0.2030
    56  0.2500    57  0.2500    58  0.2500    59  0.2500    60  0.2500
    61  0.2500    62  0.2500    63  0.2500    64  0.2500    65  0.2500
    66  0.2500    67  0.2500    68  0.2500    69  0.2500    70  0.2500
    71  0.2500    72  0.2500    73  0.2500    74  0.2500    75  0.2500
    76  0.2500    77  0.2500    78  0.2500    79  0.2500    80  0.2500
    81  0.2500    82  0.2500    83  0.2500    84  0.2500    85  0.2500
    86  0.2500    87  0.2500    88  0.2500    89  0.2500    90  0.2500
    91  0.2500    92  0.2500    93  0.2500    94  0.2500    95  0.2500
    96  0.2500    97  0.2500    98  0.2500    99  0.2500   100  0.2500
 TRANSFORMING HESSIAN TO SYMMETRY COORDINATES

          PARAMETERS CONTROLLING GEOMETRY SEARCH ARE
          METHOD =QA                  UPHESS =BFGS    
          NNEG   =         0          NFRZ   =         3
          NSTEP  =        50          IFOLOW =         1
          HESS   =GUESS               RESTAR =         F
          IHREP  =         0          HSSEND =         F
          NPRT   =         0          NPUN   =         0
          OPTTOL = 5.000E-04          RMIN   = 1.500E-03
          RMAX   = 1.000E-01          RLIM   = 7.000E-02
          DXMAX  = 3.000E-01          PURIFY =         F
          MOVIE  =         F          TRUPD  =         T
          TRMAX  = 5.000E-01          TRMIN  = 5.000E-02
          ITBMAT =         5          STPT   =         F
          STSTEP = 1.000E-02          PROJCT=          F
          FROZEN COORD(S)=   1   2   3


      ***** EQUILIBRIUM GEOMETRY LOCATED *****
            (SUBJECT TO   3 CONSTRAINT(S))
 COORDINATES OF ALL ATOMS ARE (ANGS)
   ATOM   CHARGE       X              Y              Z
 ------------------------------------------------------------
 C           6.0   3.0884455415   1.0970402673   1.9465221894
 C           6.0   2.9885908198   1.4791115938   3.4171339123
 C           6.0   3.9373327474   0.6873759130   4.3126590502
 C           6.0   2.1151991999   1.8639008274   1.0556368612
 C           6.0   3.8019125605   1.0923465597   5.7770184693
 C           6.0   2.2408914780   1.4487542195  -0.4067203066
 H           1.0   2.9009731503   0.0290414068   1.8393460311
 H           1.0   4.1055189288   1.2693378271   1.5952913151
 H           1.0   3.1952280897   2.5430618803   3.5302379247
 H           1.0   1.9658703611   1.3245299990   3.7597744773
 H           1.0   3.7322242603  -0.3764161454   4.2025056052
 H           1.0   4.9622998400   0.8405880367   3.9780305182
 H           1.0   1.0975388660   1.6918824815   1.4029566885
 H           1.0   2.2992319047   2.9326091224   1.1556591070
 H           1.0   4.4532867906   0.5081422147   6.4196240515
 H           1.0   4.0514433627   2.1426511926   5.9067378421
 H           1.0   2.7783052074   0.9513603008   6.1158858528
 H           1.0   2.0680446323   0.3804854791  -0.5134475523
 H           1.0   1.5277747384   1.9703668673  -1.0375229795
 H           1.0   3.2404170776   1.6606560920  -0.7785856323


                     --------------------
                     INTERNAL COORDINATES
                     --------------------

                 - - ATOMS - -         COORDINATE      COORDINATE
 NO.   TYPE    I  J  K  L  M  N        (BOHR,RAD)       (ANG,DEG)
 ----------------------------------------------------------------
   1 STRETCH   1  4                     2.8838978       1.5260931
   2 STRETCH   1  7                     2.0590680       1.0896119
   3 STRETCH   1  8                     2.0592706       1.0897192
   4 STRETCH   1  2                     2.8775062       1.5227108
   5 STRETCH   2  9                     2.0592653       1.0897163
   6 STRETCH   2  3                     2.8838741       1.5260806
   7 STRETCH   2 10                     2.0590689       1.0896124
   8 STRETCH   3 11                     2.0578559       1.0889705
   9 STRETCH   3  5                     2.8824909       1.5253486
  10 STRETCH   3 12                     2.0579869       1.0890398
  11 STRETCH   4 14                     2.0579887       1.0890408
  12 STRETCH   4 13                     2.0578534       1.0889692
  13 STRETCH   4  6                     2.8824571       1.5253307
  14 STRETCH   5 16                     2.0547089       1.0873052
  15 STRETCH   5 15                     2.0514845       1.0855989
  16 STRETCH   5 17                     2.0549241       1.0874191
  17 STRETCH   6 20                     2.0547133       1.0873075
  18 STRETCH   6 19                     2.0514864       1.0855999
  19 STRETCH   6 18                     2.0549107       1.0874120
  20 BEND      1  2  3                  1.9777267     113.3153942
  21 BEND      1  2 10                  1.9067355     109.2478952
  22 BEND      1  4 13                  1.9075343     109.2936638
  23 BEND      1  4  6                  1.9501839     111.7373084
  24 BEND      1  2  9                  1.9100552     109.4381030
  25 BEND      1  4 14                  1.9089363     109.3739910
  26 BEND      2  1  4                  1.9778328     113.3214692
  27 BEND      2  3 11                  1.9074755     109.2902961
  28 BEND      2  3 12                  1.9090190     109.3787342
  29 BEND      2  1  8                  1.9100866     109.4399029
  30 BEND      2  3  5                  1.9502559     111.7414339
  31 BEND      2  1  7                  1.9067310     109.2476381
  32 BEND      3  2  9                  1.9047097     109.1318248
  33 BEND      3  5 17                  1.9265678     110.3842042
  34 BEND      3  5 15                  1.9520955     111.8468306
  35 BEND      3  5 16                  1.9290273     110.5251214
  36 BEND      3  2 10                  1.9022182     108.9890761
  37 BEND      4  6 18                  1.9266328     110.3879291
  38 BEND      4  6 20                  1.9290022     110.5236821
  39 BEND      4  6 19                  1.9521448     111.8496552
  40 BEND      4  1  7                  1.9022161     108.9889563
  41 BEND      4  1  8                  1.9045747     109.1240918
  42 BEND      5  3 12                  1.9189778     109.9493276
  43 BEND      5  3 11                  1.9174397     109.8612011
  44 BEND      6  4 13                  1.9174904     109.8641058
  45 BEND      6  4 14                  1.9190048     109.9508781
  46 BEND      7  1  8                  1.8586102     106.4905193
  47 BEND      9  2 10                  1.8586127     106.4906606
  48 BEND     11  3 12                  1.8583640     106.4764118
  49 BEND     13  4 14                  1.8583867     106.4777120
  50 BEND     15  5 16                  1.8875752     108.1500931
  51 BEND     15  5 17                  1.8865893     108.0936053
  52 BEND     16  5 17                  1.8797791     107.7034075
  53 BEND     18  6 19                  1.8866001     108.0942244
  54 BEND     18  6 20                  1.8796938     107.6985231
  55 BEND     19  6 20                  1.8875545     108.1489059
  56 TORSION   1  2  3 12               1.0185028      58.3559131
  57 TORSION   1  2  3  5              -3.1357024    -179.6625153
  58 TORSION   1  4  6 18               1.0087565      57.7974896
  59 TORSION   1  2  3 11              -1.0097279     -57.8531468
  60 TORSION   1  4  6 19               3.1101021     178.1957269
  61 TORSION   1  4  6 20              -1.0689047     -61.2437289
  62 TORSION   2  1  4  6              -3.1367022    -179.7197982
  63 TORSION   2  1  4 14               1.0175737      58.3026783
  64 TORSION   2  1  4 13              -1.0106708     -57.9071711
  65 TORSION   2  3  5 17               1.0086355      57.7905585
  66 TORSION   2  3  5 15               3.1098903     178.1835868
  67 TORSION   2  3  5 16              -1.0691061     -61.2552701
  68 TORSION   3  2  1  8              -1.0367553     -59.4017029
  69 TORSION   3  2  1  7               0.9919517      56.8346470
  70 TORSION   3  2  1  4               3.1164577     178.5598707
  71 TORSION   4  1  2 10               0.9920176      56.8384202
  72 TORSION   4  1  2  9              -1.0366772     -59.3972310
  73 TORSION   5  3  2 10              -1.0087363     -57.7963301
  74 TORSION   5  3  2  9               1.0144540      58.1239343
  75 TORSION   6  4  1  8               1.0134399      58.0658285
  76 TORSION   6  4  1  7              -1.0096719     -57.8499390
  77 TORSION   7  1  4 14              -3.1385813    -179.8274626
  78 TORSION   7  1  4 13               1.1163595      63.9626880
  79 TORSION   7  1  2  9               3.1220021     178.8775453
  80 TORSION   7  1  2 10              -1.1324884     -64.8868034
  81 TORSION   8  1  4 14              -1.1154695     -63.9116950
  82 TORSION   8  1  4 13               3.1394713     179.8784556
  83 TORSION   8  1  2  9               1.0932951      62.6411954
  84 TORSION   8  1  2 10               3.1219899     178.8768466
  85 TORSION   9  2  3 12              -1.1145260     -63.8576374
  86 TORSION   9  2  3 11               3.1404286     179.9333028
  87 TORSION  10  2  3 12              -3.1377163    -179.7779017
  88 TORSION  10  2  3 11               1.1172383      64.0130384
  89 TORSION  11  3  5 16               3.0938542     177.2647885
  90 TORSION  11  3  5 15               0.9896653      56.7036454
  91 TORSION  11  3  5 17              -1.1115894     -63.6893829
  92 TORSION  12  3  5 16               1.0541381      60.3976670
  93 TORSION  12  3  5 15              -1.0500507     -60.1634761
  94 TORSION  12  3  5 17               3.1318798     179.4434956
  95 TORSION  13  4  6 19               0.9898159      56.7122732
  96 TORSION  13  4  6 20               3.0939943     177.2728175
  97 TORSION  13  4  6 18              -1.1115298     -63.6859640
  98 TORSION  14  4  6 19              -1.0499736     -60.1590560
  99 TORSION  14  4  6 20               1.0542048      60.4014883
 100 TORSION  14  4  6 18               3.1318661     179.4427068

          INTERNUCLEAR DISTANCES (ANGS.)


 =====================================================
   GAMESS/COSab RESULTS
 =====================================================

   Dielectric Constant                  = INFTY
   Basic Grid Size                      =                 1082
   Number of Segments                   =                   92
   Number of Segments located on spheres=                  250
   Number of Segments of the cavity     =                  714
   Solvent Radius (rsolv)               = 1.40
   Outlying Charge Error Method         = double cavity

 =====================================================

  Total solvated Energy (a.u.)          =  -235.4287568692
  Total Energy corrected (a.u.)         =  -235.4286605203

  Outlying charge effect (a.u.)         =     0.0000963489
  Outlying charge effect (kcal/mol)     =     0.0604599040

  Dielectric Energy (a.u.)              =    -0.0011842723
  Dielectric energy corr. (a.u.)        =    -0.0010879234

  Sum of polarization charges           =     0.0300781680
  Sum of polarization charges(cor.)     =    -0.0300781680

  Total surface area of cavity (A**2)   =  155.57
  Total volume of cavity (A**3)         =  145.07

 =====================================================
 NPS=                   714
NR.  ATOM  (X, Y, Z)(a.u.)                  CHARGE(e)  AREA(A**2) SIGMA(e/A**2)
   1   1   8.720592  -0.337809   3.287531   0.001569   0.325193   0.004825
   2   1   7.912921   5.220073   3.416565   0.000200   0.092912   0.002148
   3   1   8.021835   5.036606   2.826667   0.000073   0.046456   0.001561
   4   1   8.078555  -0.933176   3.210458   0.001453   0.278737   0.005213
   5   1   3.018691  -0.214060   4.733902   0.000339   0.185824   0.001824
   6   1   7.925977  -0.011511   1.317877   0.001074   0.232280   0.004625
   7   1   8.279645  -0.369426   2.145904   0.001995   0.325193   0.006136
   8   1   8.197023   5.023851   3.611936   0.000108   0.046456   0.002329
   9   1   7.490082  -0.675919   1.680328   0.000649   0.139368   0.004660
  10   1   2.826616  -0.163152   4.152836   0.000112   0.046456   0.002404
  11   2   3.489764   4.995883   8.644792   0.001289   0.278737   0.004623
  12   2   3.505211  -0.310817   6.675592   0.000197   0.092912   0.002122
  13   2   3.072887   0.029584   6.374386   0.000068   0.046456   0.001455
  14   2   3.879075   5.568173   8.319325   0.001242   0.232280   0.005349
  15   2   8.714310   4.967883   6.059060   0.000306   0.139368   0.002196
  16   2   2.812320   5.283272   6.690614   0.001166   0.232280   0.005021
  17   2   3.105197   5.341975   7.612346   0.001998   0.325193   0.006145
  18   2   3.433865  -0.209791   7.052541   0.000103   0.046456   0.002212
  19   2   3.455909   5.846873   6.866567   0.000695   0.139368   0.004987
  20   2   8.529290   5.060824   5.537249   0.000115   0.046456   0.002481
  21   3  10.303639  -1.155328   7.898565   0.001805   0.371649   0.004857
  22   3   9.578242   4.407339   7.921535   0.000184   0.092912   0.001976
  23   3   9.693271   4.221757   7.333462   0.000067   0.046456   0.001450
  24   3   9.634584  -1.747964   7.717906   0.001361   0.278737   0.004881
  25   3   4.564835  -0.936021   9.159646   0.000336   0.185824   0.001807
  26   3   9.529404  -0.824153   5.823144   0.001117   0.232280   0.004809
  27   3   9.863079  -1.188263   6.656750   0.001861   0.325193   0.005722
  28   3   9.888761  -1.463482   8.961628   0.001323   0.371649   0.003560
  29   3   9.561398  -1.422316   9.692694   0.000322   0.139368   0.002309
  30   3  10.656799  -0.472289   9.045428   0.001094   0.325193   0.003363
  31   3   9.855522   4.206003   8.121452   0.000105   0.046456   0.002253
  32   3   8.947521  -1.883798   9.522052   0.000446   0.185824   0.002399
  33   3   9.075645  -1.480383   6.178501   0.000633   0.139368   0.004541
  34   3   4.383109  -0.881758   8.575563   0.000107   0.046456   0.002296
  35   4   1.552928   6.399996   2.164446   0.001805   0.371649   0.004857
  36   4   7.030184   5.639921   1.220013   0.000183   0.092912   0.001975
  37   4   6.955472   5.866325   1.800239   0.000067   0.046456   0.001447
  38   4   1.024392   5.782277   2.577439   0.001361   0.278737   0.004881
  39   4   1.695464   0.524509   1.989421   0.000336   0.185824   0.001806
  40   4   2.291209   6.032743   4.246886   0.001117   0.232280   0.004809
  41   4   1.767165   6.204347   3.450178   0.001861   0.325193   0.005722
  42   4   1.062087   5.792627   1.277111   0.001323   0.371649   0.003560
  43   4   0.974190   5.331676   0.626637   0.000322   0.139368   0.002310
  44   4   1.997280   6.522841   0.862901   0.001094   0.325193   0.003364
  45   4   6.786916   5.875609   1.013471   0.000105   0.046456   0.002251
  46   4   0.570934   4.765186   0.994608   0.000445   0.185824   0.002396
  47   4   1.593095   5.524756   4.114983   0.000633   0.139368   0.004545
  48   4   1.863972   0.456962   2.576075   0.000107   0.046456   0.002298
  49   5   5.209310   4.654283  12.833832   0.002341   0.418105   0.005598
  50   5   6.062386  -1.479065  11.602481   0.000854   0.278737   0.003063
  51   5  10.917020   2.658427  10.922959   0.000871   0.278737   0.003124
  52   5   8.926719   3.773846  13.802542   0.001916   0.418105   0.004583
  53   5   5.848555   1.332263  14.375816   0.001516   0.371649   0.004080
  54   5   4.762169   4.959687  11.097649   0.001664   0.325193   0.005116
  55   5   6.724760   0.674130  14.401293   0.001597   0.371649   0.004298
  56   5   9.357156   2.913390  13.890717   0.001189   0.278737   0.004264
  57   5  10.842271   2.447865  11.787807   0.001046   0.278737   0.003753
  58   5   6.858638  -1.428067  12.324739   0.001001   0.278737   0.003590
  59   5   5.129763   5.094103  11.856121   0.000836   0.185824   0.004500
  60   5   4.508118   4.531785  11.932907   0.001134   0.232280   0.004882
  61   5  10.944858   1.691453  10.991341   0.000554   0.185824   0.002982
  62   5  10.528030   3.604764  11.772756   0.001439   0.325193   0.004425
  63   5   9.926977   3.646838  12.980687   0.001805   0.325193   0.005550
  64   5   8.053928   2.994681  14.475462   0.001523   0.464561   0.003279
  65   5   6.743138   2.148187  14.669629   0.001404   0.464561   0.003022
  66   5   5.895238   0.017564  13.820942   0.001964   0.371649   0.005284
  67   5   5.942733  -1.125516  12.519331   0.000919   0.232280   0.003955
  68   5   5.200048  -1.096306  11.514341   0.001027   0.325193   0.003157
  69   5  10.598340   3.668371  10.677761   0.000972   0.325193   0.002988
  70   5   7.590052   4.141617  14.048177   0.001319   0.418105   0.003155
  71   5   6.208192   4.420655  13.705939   0.001552   0.418105   0.003713
  72   5   5.270964   3.739885  13.712444   0.001744   0.464561   0.003754
  73   5   5.586028   2.509367  14.312684   0.000986   0.325193   0.003031
  74   5   7.710378   1.960465  14.658242   0.000805   0.278737   0.002887
  75   5  10.440850   3.007691  12.587559   0.001354   0.278737   0.004857
  76   5  10.794424   0.956274  10.756900   0.000135   0.092912   0.001454
  77   5   7.350942  -1.641939  11.638633   0.000651   0.232280   0.002802
  78   5   6.530241  -0.757983  13.344150   0.001493   0.325193   0.004591
  79   5   4.705340  -0.780594  10.705912   0.000144   0.092912   0.001550
  80   5  10.195012   4.170503  10.030877   0.000354   0.139368   0.002537
  81   5   6.613208   3.386348  14.411243   0.001192   0.464561   0.002566
  82   5   5.475246  -0.692565  12.856689   0.001038   0.232280   0.004469
  83   6   4.930959   4.425887  -4.077625   0.002226   0.418105   0.005324
  84   6   0.746261   1.314529  -0.469221   0.000868   0.278737   0.003113
  85   6   2.328846   1.480809  -3.780600   0.001899   0.418105   0.004541
  86   6   6.257649   1.009504  -3.452816   0.001513   0.371649   0.004070
  87   6   6.185193   5.964703  -1.026559   0.000731   0.278737   0.002622
  88   6   3.814513   6.398303  -1.610074   0.000770   0.232280   0.003314
  89   6   5.034577   6.312757  -1.697985   0.001230   0.371649   0.003309
  90   6   5.202089   5.742081  -2.847634   0.001498   0.325193   0.004608
  91   6   5.836918   0.118570  -2.972455   0.001680   0.371649   0.004521
  92   6   2.399203   0.635794  -3.317531   0.001199   0.278737   0.004303
  93   6   1.043712   0.736834  -1.082146   0.001044   0.278737   0.003747
  94   6   4.568053   5.397529  -3.432938   0.001065   0.232280   0.004585
  95   6   5.583485   5.054500  -3.432743   0.001279   0.278737   0.004590
  96   6   1.268437   0.560352   0.094298   0.000589   0.232280   0.002534
  97   6   0.738158   1.687316  -1.745929   0.001429   0.325193   0.004394
  98   6   1.412488   1.352452  -2.866321   0.001786   0.325193   0.005492
  99   6   3.562104   1.010177  -4.062136   0.001539   0.464561   0.003313
 100   6   5.132072   0.968379  -3.985472   0.001435   0.464561   0.003089
 101   6   6.785124   0.392467  -2.278280   0.002001   0.371649   0.005383
 102   6   7.250697   0.489862  -1.135881   0.001096   0.232280   0.004718
 103   6   0.482802   2.292266  -0.864549   0.000967   0.325193   0.002973
 104   6   3.327955   2.251398  -4.405297   0.001279   0.418105   0.003059
 105   6   4.321766   3.303556  -4.504445   0.001511   0.418105   0.003613
 106   6   5.461886   3.294211  -4.299687   0.001705   0.464561   0.003669
 107   6   5.890639   1.974642  -4.079147   0.000984   0.325193   0.003026
 108   6   4.310600   6.165346  -2.359224   0.000833   0.232280   0.003585
 109   6   5.922542   5.841123  -2.111903   0.000954   0.278737   0.003423
 110   6   4.395179   0.373669  -3.713020   0.000835   0.278737   0.002997
 111   6   1.229980   0.879460  -2.111277   0.001355   0.278737   0.004861
 112   6   6.553886  -0.187200  -1.360377   0.001569   0.325193   0.004826
 113   6   0.482977   3.183849  -0.668722   0.000366   0.139368   0.002629
 114   6   4.592149   2.016576  -4.461346   0.001181   0.464561   0.002543
 115   7   5.326269  -2.390938   3.306004  -0.001277   0.333671  -0.003826
 116   7   3.759370  -1.461517   4.352241  -0.000743   0.353299  -0.002103
 117   7   6.984516  -1.842457   3.054156  -0.000249   0.333671  -0.000747
 118   7   3.670503  -1.593240   3.283148  -0.001445   0.471065  -0.003067
 119   7   4.667280  -2.180398   4.088089  -0.001692   0.392554  -0.004311
 120   7   6.210338  -2.288097   3.599126  -0.001282   0.333671  -0.003843
 121   7   6.260419  -1.919758   2.238894  -0.001108   0.451437  -0.002454
 122   7   4.782000  -2.117320   2.566671  -0.001846   0.392554  -0.004703
 123   8  10.002456   2.504845   2.020904  -0.001303   0.333671  -0.003904
 124   8   9.514924   4.061779   3.443063  -0.000893   0.314043  -0.002844
 125   8   9.065594   4.393755   2.426608  -0.000845   0.392554  -0.002153
 126   8   9.400410   0.996554   1.843115  -0.000332   0.372926  -0.000891
 127   8   9.960025   3.471822   2.825215  -0.001242   0.333671  -0.003723
 128   8   9.557356   3.525351   1.778091  -0.001570   0.353299  -0.004443
 129   8   9.611716   1.953875   1.464813  -0.001322   0.333671  -0.003962
 130   8   9.909572   1.232335   2.798557  -0.001041   0.412182  -0.002525
 131   8  10.213560   2.480291   3.003605  -0.001336   0.294415  -0.004539
 132   9   6.266422   7.197386   7.183832  -0.001302   0.333671  -0.003903
 133   9   7.539647   6.434155   5.608825  -0.000893   0.314043  -0.002843
 134   9   8.070411   6.184474   6.609443  -0.000845   0.392554  -0.002152
 135   9   4.836652   6.653052   7.756954  -0.000328   0.372926  -0.000880
 136   9   7.064726   6.994003   6.232460  -0.001242   0.333671  -0.003722
 137   9   7.326651   6.798316   7.306973  -0.001569   0.353299  -0.004441
 138   9   5.841832   6.924688   7.898564  -0.001321   0.333671  -0.003960
 139   9   4.873010   6.968353   6.695365  -0.001038   0.412182  -0.002519
 140   9   6.050558   7.217103   6.202057  -0.001336   0.294415  -0.004538
 141  10   1.350794   2.403068   7.765086  -0.001277   0.333671  -0.003826
 142  10   2.109777   0.657435   6.876088  -0.000742   0.353299  -0.002101
 143  10   1.889691   4.074226   7.589400  -0.000247   0.333671  -0.000741
 144  10   2.185110   0.775514   7.947812  -0.001445   0.471065  -0.003068
 145  10   1.428313   1.605087   7.096157  -0.001693   0.392554  -0.004312
 146  10   1.371227   3.213979   7.295957  -0.001282   0.333671  -0.003843
 147  10   1.988492   3.519853   8.526338  -0.001107   0.451437  -0.002451
 148  10   1.774583   2.007757   8.527871  -0.001846   0.392554  -0.004702
 149  11   6.254403  -3.023203   8.171356  -0.001409   0.353299  -0.003988
 150  11   5.300282  -2.227440   8.757021  -0.000702   0.392554  -0.001787
 151  11   7.427236  -2.822494   9.140735  -0.001091   0.412182  -0.002648
 152  11   8.409820  -2.676948   7.366997  -0.000435   0.353299  -0.001232
 153  11   5.230219  -2.330840   7.641237  -0.001661   0.490692  -0.003385
 154  11   6.324991  -2.676820   9.223050  -0.000754   0.353299  -0.002134
 155  11   7.381939  -3.144065   7.848713  -0.001509   0.392554  -0.003844
 156  11   7.745240  -2.658356   6.613122  -0.001094   0.392554  -0.002788
 157  11   6.433492  -2.916523   7.053564  -0.001914   0.412182  -0.004643
 158  11   8.319036  -2.729869   8.539460  -0.000446   0.333671  -0.001336
 159  12  11.758694   1.923831   7.015403  -0.001853   0.431809  -0.004290
 160  12  11.440752   2.684573   8.276471  -0.000673   0.294415  -0.002286
 161  12  10.636601   3.585767   6.838904  -0.000764   0.333671  -0.002290
 162  12  10.967785   0.174594   6.289952  -0.000560   0.392554  -0.001426
 163  12  11.494028   0.622529   8.305950  -0.000489   0.353299  -0.001385
 164  12  11.217799   3.215055   7.564757  -0.001082   0.412182  -0.002626
 165  12  11.228247   2.662857   6.311106  -0.001819   0.412182  -0.004412
 166  12  11.333347   1.241064   6.072197  -0.001702   0.412182  -0.004128
 167  12  11.542415   0.463566   7.230563  -0.001080   0.451437  -0.002392
 168  12  11.724715   1.638767   8.240298  -0.001137   0.451437  -0.002518
 169  13  -0.215809   2.387723   3.020471  -0.001409   0.353299  -0.003989
 170  13   0.482452   1.333295   2.484558  -0.000702   0.392554  -0.001788
 171  13  -0.235055   3.352796   1.827248  -0.001092   0.412182  -0.002648
 172  13   0.213723   4.654118   3.323230  -0.000435   0.353299  -0.001232
 173  13   0.593136   1.477889   3.592446  -0.001661   0.490692  -0.003385
 174  13  -0.075904   2.253948   1.927971  -0.000754   0.353299  -0.002134
 175  13  -0.306059   3.556986   3.141800  -0.001509   0.392554  -0.003845
 176  13   0.393064   4.145200   4.171274  -0.001095   0.392554  -0.002789
 177  13   0.094329   2.775633   4.043335  -0.001915   0.412182  -0.004645
 178  13  -0.056475   4.342055   2.220814  -0.000446   0.333671  -0.001337
 179  14   4.700341   7.972441   2.154806  -0.001853   0.431809  -0.004290
 180  14   5.218715   7.414109   0.854937  -0.000673   0.294415  -0.002287
 181  14   6.397274   6.891493   2.219957  -0.000765   0.333671  -0.002292
 182  14   3.142505   7.347998   3.335851  -0.000560   0.392554  -0.001426
 183  14   3.187370   7.477002   1.209076  -0.000489   0.353299  -0.001384
 184  14   5.879944   7.326663   1.481662  -0.001083   0.412182  -0.002627
 185  14   5.573720   7.580090   2.792645  -0.001819   0.412182  -0.004412
 186  14   4.219965   7.739953   3.273697  -0.001701   0.412182  -0.004128
 187  14   3.232506   7.730621   2.266293  -0.001080   0.451437  -0.002392
 188  14   4.190736   7.707976   1.035367  -0.001136   0.451437  -0.002517
 189  15   9.832637  -0.356074  13.645947  -0.003393   0.608459  -0.005576
 190  15   9.874057  -1.016488  12.119438  -0.001204   0.353299  -0.003406
 191  15   8.168132  -1.251114  13.172366  -0.000616   0.333671  -0.001847
 192  15   8.304604   0.260739  14.483668  -0.000717   0.353299  -0.002031
 193  15   9.985701   1.546437  13.927418  -0.000688   0.372926  -0.001845
 194  15  10.864721   0.793322  12.223413  -0.000633   0.353299  -0.001793
 195  15   9.063705  -1.362863  12.598256  -0.001618   0.490692  -0.003298
 196  15   8.406799  -0.658719  13.979018  -0.001620   0.490692  -0.003302
 197  15   9.269893   0.802957  14.429234  -0.001739   0.510320  -0.003408
 198  15  10.575140   0.940840  13.302067  -0.001709   0.490692  -0.003483
 199  15  10.551600  -0.241240  12.300206  -0.001793   0.490692  -0.003654
 200  16   8.229997   6.341142  11.834386  -0.002329   0.471065  -0.004945
 201  16   6.317667   6.074298  11.538773  -0.000807   0.392554  -0.002055
 202  16   9.375614   5.553118  10.258691  -0.001211   0.392554  -0.003085
 203  16   9.496454   5.221859  12.290269  -0.000650   0.372926  -0.001743
 204  16   7.649585   5.551793  13.105489  -0.000810   0.412182  -0.001966
 205  16   7.238995   6.466704  11.035958  -0.002084   0.431809  -0.004826
 206  16   8.496178   6.279212  10.565729  -0.002202   0.431809  -0.005100
 207  16   9.536425   5.623685  11.303596  -0.001344   0.431809  -0.003113
 208  16   8.689498   5.622243  12.740783  -0.001329   0.431809  -0.003078
 209  16   6.907923   6.000479  12.453270  -0.001094   0.412182  -0.002654
 210  17   3.126184   1.299667  12.686690  -0.002340   0.471065  -0.004966
 211  17   3.338412   3.317144  11.825053  -0.000826   0.353299  -0.002339
 212  17   3.809690   2.830202  13.258563  -0.000835   0.392554  -0.002128
 213  17   4.175386   0.701786  13.475313  -0.000775   0.372926  -0.002078
 214  17   3.780702  -0.169465  11.631113  -0.000867   0.392554  -0.002208
 215  17   2.803630   1.945071  11.723392  -0.002162   0.412182  -0.005245
 216  17   3.206185   2.727868  12.553331  -0.001310   0.372926  -0.003514
 217  17   4.013350   1.793569  13.679905  -0.001125   0.431809  -0.002604
 218  17   3.857814   0.131306  12.705863  -0.001167   0.431809  -0.002703
 219  17   3.096382   0.623551  11.426306  -0.001950   0.412182  -0.004732
 220  18   3.267348  -1.577282  -1.563233  -0.002339   0.471065  -0.004966
 221  18   5.404005  -1.220665  -1.156797  -0.000824   0.353299  -0.002332
 222  18   4.642682  -1.027295  -2.534172  -0.000829   0.392554  -0.002111
 223  18   2.501916  -0.692865  -2.407113  -0.000771   0.372926  -0.002067
 224  18   2.004976  -0.722127  -0.390153  -0.000865   0.392554  -0.002203
 225  18   4.091480  -1.715480  -0.697071  -0.002162   0.412182  -0.005246
 226  18   4.692237  -1.484573  -1.721470  -0.001310   0.372926  -0.003512
 227  18   3.539875  -0.899489  -2.781347  -0.001122   0.431809  -0.002598
 228  18   2.095776  -0.853541  -1.497394  -0.001173   0.431809  -0.002717
 229  18   2.841647  -1.361111  -0.214664  -0.001951   0.412182  -0.004733
 230  19   1.236616   4.836533  -3.400116  -0.003249   0.588831  -0.005518
 231  19   3.145896   5.508600  -3.628373  -0.000614   0.372926  -0.001646
 232  19   2.124183   6.054999  -2.090798  -0.000845   0.353299  -0.002393
 233  19   0.533947   4.392457  -1.736421  -0.000949   0.353299  -0.002687
 234  19   0.900512   3.006805  -3.215653  -0.000681   0.372926  -0.001827
 235  19   2.439733   3.691469  -4.375997  -0.000857   0.412182  -0.002078
 236  19   2.290532   5.848065  -3.040091  -0.001805   0.490692  -0.003678
 237  19   1.084720   5.389955  -2.057245  -0.001853   0.490692  -0.003776
 238  19   0.511873   3.829191  -2.578938  -0.001579   0.471065  -0.003353
 239  19   1.464297   3.494688  -3.950224  -0.001644   0.471065  -0.003491
 240  19   2.593698   4.772988  -4.162339  -0.001707   0.490692  -0.003479
 241  20   8.171506   3.471726  -2.786403  -0.002219   0.451437  -0.004915
 242  20   7.822294   4.882924  -1.147182  -0.001494   0.412182  -0.003625
 243  20   7.223404   5.209283  -2.203320  -0.000546   0.314043  -0.001738
 244  20   7.124849   3.593361  -3.667937  -0.000824   0.372926  -0.002211
 245  20   7.885594   1.892555  -2.645396  -0.000836   0.392554  -0.002130
 246  20   8.085413   4.461465  -2.130768  -0.001691   0.392554  -0.004308
 247  20   7.131613   4.611091  -3.159303  -0.001073   0.451437  -0.002376
 248  20   7.505531   2.568906  -3.420915  -0.001129   0.431809  -0.002614
 249  20   8.341985   2.136849  -1.804028  -0.001692   0.471065  -0.003592
 250  20   8.550909   3.501645  -1.574431  -0.002259   0.412182  -0.005480
 251   1   3.492380  -0.490325   5.188200   0.000011   0.028290   0.000379
 252   2   3.488117  -0.335662   5.659964   0.000035   0.028290   0.001246
 253   7   3.619382  -0.717378   5.029931  -0.000020   0.028290  -0.000703
 254   1   8.533360   4.683196   4.185671   0.000036   0.028067   0.001282
 255   2   8.470969   4.778230   4.668960   0.000061   0.028067   0.002159
 256   8   8.730771   4.530159   4.011423  -0.000000   0.028067  -0.000014
 257   1   8.040896   5.169234   4.488662   0.000061   0.028070   0.002160
 258   2   8.037205   5.323565   4.960532   0.000037   0.028070   0.001309
 259   9   7.914315   5.551912   5.120264   0.000000   0.028070   0.000009
 260   1   2.975292   0.132050   5.452634   0.000034   0.028289   0.001202
 261   2   2.912540   0.227627   5.935777   0.000018   0.028289   0.000637
 262  10   2.715995   0.384415   6.107583  -0.000016   0.028289  -0.000551
 263   2   8.310950   5.084199   4.922289   0.000166   0.069434   0.002392
 264   1   8.297881   4.961205   4.216476   0.000163   0.069434   0.002348
 265   2   3.120649  -0.027025   5.897769   0.000167   0.088811   0.001876
 266   1   3.243703  -0.276650   5.234098   0.000135   0.088811   0.001523
 267   1   7.754182  -1.173804   4.287163   0.000172   0.068020   0.002522
 268   3   7.992997  -1.239029   5.090206   0.000248   0.068020   0.003644
 269   7   7.510597  -1.348374   4.224399  -0.000031   0.068020  -0.000452
 270   1   9.306893   0.248796   4.543124   0.000249   0.067191   0.003707
 271   3   9.651079   0.069762   5.288481   0.000193   0.067191   0.002874
 272  12   9.880159   0.256944   5.366065  -0.000028   0.067191  -0.000423
 273   3   8.853687  -0.862611   5.323594   0.001444   0.514982   0.002804
 274   1   8.709159  -0.410644   4.162600   0.001403   0.514982   0.002724
 275   1   2.814681  -0.189373   3.367043   0.000032   0.028633   0.001110
 276   4   2.527032   0.090104   3.072479   0.000051   0.028633   0.001781
 277   7   2.988432  -0.437333   3.334403  -0.000006   0.028633  -0.000196
 278   1   7.842799   4.990498   2.333650   0.000018   0.028480   0.000624
 279   4   7.497234   5.210303   2.051015   0.000036   0.028480   0.001258
 280   8   8.088289   4.816155   2.287803  -0.000015   0.028480  -0.000524
 281   1   2.334238   0.388702   3.626570   0.000052   0.028222   0.001830
 282   4   1.988578   0.608474   3.344036   0.000030   0.028222   0.001072
 283  13   1.743068   0.782686   3.387771  -0.000007   0.028222  -0.000257
 284   1   7.298690   5.512961   2.613492   0.000037   0.028132   0.001314
 285   4   7.011151   5.792720   2.319114   0.000016   0.028132   0.000580
 286  14   6.836387   6.040127   2.347507  -0.000017   0.028132  -0.000592
 287   4   7.202708   5.614669   2.153212   0.000150   0.079619   0.001883
 288   1   7.690613   5.209256   2.493037   0.000155   0.079619   0.001942
 289   4   2.170680   0.345623   3.114966   0.000166   0.077663   0.002134
 290   1   2.593556   0.033292   3.605957   0.000170   0.077663   0.002189
 291   1   6.639240  -0.665788   1.140124   0.000175   0.067671   0.002585
 292   6   6.321290  -0.482581   0.392152   0.000251   0.067671   0.003704
 293   7   6.469840  -0.874777   1.286325   0.000027   0.067671   0.000392
 294   1   8.066711   0.809001   0.847360   0.000192   0.067501   0.002851
 295   6   7.724611   0.967595   0.104452   0.000237   0.067501   0.003511
 296   8   8.291558   1.005847   0.914146  -0.000018   0.067501  -0.000274
 297   6   7.133229   0.293655  -0.254430   0.001482   0.510508   0.002902
 298   1   7.279972  -0.132714   0.905331   0.001433   0.510508   0.002806
 299   7   6.806375  -1.213149   1.853256   0.000040   0.080472   0.000502
 300   7   7.292162  -1.415095   3.015920  -0.000218   0.184943  -0.001180
 301   1   7.307760  -0.990854   2.192165   0.000253   0.170930   0.001483
 302   1   7.716569  -1.196228   3.523647   0.000196   0.098314   0.001996
 303   7   3.481432  -0.898614   4.535065  -0.000074   0.070049  -0.001050
 304   7   3.180073  -0.764593   3.726674  -0.000066   0.070049  -0.000949
 305   1   3.166622  -0.470622   4.251902  -0.000164   0.153480  -0.001069
 306   1   9.308824   0.455707   4.041261   0.000139   0.089525   0.001551
 307   8   9.465773   0.677811   3.897305   0.000035   0.089525   0.000386
 308  12   9.764912   0.554638   4.928354   0.000213   0.089525   0.002381
 309   8   9.362269   0.551809   3.109739   0.000035   0.080936   0.000438
 310   8   8.929468   0.654042   1.906587  -0.000221   0.186296  -0.001186
 311   1   8.925635   0.246784   2.743012   0.000179   0.171687   0.001043
 312   1   8.433464   0.495461   1.439776   0.000226   0.098881   0.002282
 313   8   8.496391   4.710572   2.642509  -0.000072   0.071624  -0.001006
 314   8   8.804832   4.572903   3.468155  -0.000069   0.071624  -0.000965
 315   1   8.312455   4.821602   3.211650  -0.000154   0.156227  -0.000985
 316   1   7.145192   5.697321   3.776981   0.000160   0.165762   0.000968
 317   9   7.024274   5.997249   4.457534  -0.000021   0.165762  -0.000124
 318  14   6.645859   6.161671   3.454857   0.000016   0.165762   0.000095
 319   9   7.672554   5.859334   5.090066  -0.000123   0.154844  -0.000791
 320   1   7.751904   5.438534   4.050398   0.000426   0.218301   0.001953
 321   1   2.366403   0.776620   4.750846   0.000144   0.165394   0.000873
[...]
 455  12  11.059343  -0.026851   8.102513  -0.000155   0.152581  -0.001016
 456  12  10.692012  -0.309936   6.847756  -0.000053   0.152581  -0.000348
 457  12  10.319681   0.033648   5.864629  -0.000051   0.068889  -0.000746
 458   3  10.927726   0.192880   8.896934  -0.000070   0.151386  -0.000460
 459   3  10.631024  -0.572136   7.637845   0.000213   0.151386   0.001410
 460   3  10.145473  -0.409967   6.224860   0.000198   0.151386   0.001306
 461  12  10.165438   3.885199   7.155746  -0.000073   0.071858  -0.001015
 462  12  10.459237   3.740996   7.989622  -0.000064   0.071858  -0.000888
 463   3   9.975656   3.998834   7.723426  -0.000168   0.156556  -0.001075
 464  15   9.090487  -1.314713  11.353149  -0.000173   0.192780  -0.000897
 465  15  10.137830  -0.428177  11.172086  -0.000904   0.393555  -0.002296
 466   3   9.449889  -1.218830  10.174067   0.000889   0.529094   0.001680
 467   3  10.551779  -0.108398   9.998692   0.000700   0.271473   0.002579
 468  16   9.339077   5.052669   9.596247  -0.000230   0.155418  -0.001478
 469   3   9.426137   4.622440   8.552424   0.000380   0.219025   0.001733
 470  17   3.873816  -0.010716  10.472142  -0.000195   0.118713  -0.001645
 471   3   4.264667  -0.496368   9.532208   0.000300   0.167357   0.001794
 472   4   1.312673   0.897304   1.499347   0.000030   0.027516   0.001090
 473   6   1.383843   0.791696   1.018599   0.000060   0.027516   0.002194
 474  13   1.114507   1.051526   1.671004   0.000007   0.027516   0.000264
 475   4   0.498841   3.867946   0.586068   0.000045   0.027516   0.001635
 476   6   0.580642   3.723531   0.117250   0.000102   0.027516   0.003704
 477  13   0.373635   3.755851   0.839600   0.000014   0.027516   0.000518
 478   4   3.207570   6.659876   0.026646   0.000044   0.027413   0.001619
 479   6   3.261035   6.486193  -0.436290   0.000070   0.027413   0.002554
 480  14   3.360091   6.834885   0.223243   0.000022   0.027413   0.000798
 481   4   6.327158   6.082223   0.458788   0.000049   0.027413   0.001782
 482   6   6.339811   5.916097  -0.009801   0.000095   0.027413   0.003465
 483  14   6.199942   6.309031   0.616634   0.000014   0.027413   0.000494
 484   4   1.949181   0.302791   1.251119   0.000025   0.026730   0.000938
 485   6   1.962341   0.135910   0.782831   0.000007   0.026730   0.000276
 486  18   2.089390  -0.086800   0.620620  -0.000033   0.026730  -0.001243
 487   4   0.697287   4.167694   0.040889   0.000089   0.024563   0.003618
 488   6   0.696000   4.043136  -0.440507   0.000037   0.024563   0.001493
 489  19   0.703552   4.158330  -0.720067  -0.000002   0.024563  -0.000088
 490   4   2.611582   6.264103  -0.389702   0.000056   0.024563   0.002275
 491   6   2.636440   6.168176  -0.876980   0.000032   0.024563   0.001303
 492  19   2.469241   6.091994  -1.117231   0.000002   0.024563   0.000076
 493   4   6.769190   5.551294   0.174949   0.000052   0.026543   0.001950
 494   6   6.839728   5.446868  -0.306124   0.000012   0.026543   0.000462
 495  20   7.036912   5.302070  -0.485478  -0.000020   0.026543  -0.000767
 496   6   6.601933   5.712387  -0.278070   0.000142   0.068319   0.002080
 497   4   6.603327   5.854115   0.425416   0.000164   0.068319   0.002407
 498   6   1.691749   0.359251   0.819539   0.000169   0.100402   0.001685
 499   4   1.545132   0.630585   1.473510   0.000163   0.100402   0.001620
 500   6   0.596391   3.842952  -0.263590   0.000146   0.047847   0.003047
 501   4   0.552503   4.090804   0.405877   0.000141   0.047847   0.002956
 502   6   2.888986   6.323672  -0.770764   0.000212   0.085682   0.002480
 503   4   2.927166   6.552594  -0.088869   0.000216   0.085682   0.002522
 504   4   2.694096  -0.108259   1.894235   0.000082   0.166432   0.000492
 505   7   3.189170  -0.576231   2.213873  -0.000089   0.166432  -0.000533
 506  18   2.838485  -0.427380   1.221272  -0.000104   0.166432  -0.000624
 507   7   3.117264  -0.688865   3.086775  -0.000124   0.143869  -0.000859
 508   4   2.430632  -0.001647   2.526108   0.000378   0.202865   0.001863
 509   4   7.463538   4.833128   0.928483   0.000098   0.166887   0.000585
 510   8   8.007245   4.413691   1.237868  -0.000031   0.166887  -0.000185
 511  20   7.641439   4.578221   0.235780  -0.000138   0.166887  -0.000828
 512   8   8.307962   4.583854   1.906560  -0.000156   0.139308  -0.001122
 513   4   7.461206   5.260982   1.617104   0.000388   0.196432   0.001976
 514   4   1.725297   4.613348   4.903136   0.000124   0.089025   0.001391
 515  10   1.913719   4.214458   5.796843   0.000214   0.089025   0.002407
 516  13   1.490870   4.424956   4.839743   0.000015   0.089025   0.000165
 517  10   1.958616   4.295853   6.393313   0.000025   0.016166   0.001536
 518   4   1.737612   4.820534   5.037184   0.000126   0.022959   0.005497
 519  13   1.034075   1.016642   2.211635  -0.000065   0.071025  -0.000918
 520  13   1.336710   0.886474   3.033914  -0.000071   0.071025  -0.000995
 521   4   1.524223   0.770870   2.469467  -0.000179   0.155111  -0.001152
 522  13   1.109370   4.758349   4.285484   0.000011   0.068391   0.000160
 523  13   0.722021   5.075264   3.307479  -0.000065   0.151261  -0.000428
 524  13   0.350555   4.770543   2.068123  -0.000194   0.151261  -0.001279
 525  13   0.208340   4.019216   1.279295  -0.000054   0.068391  -0.000794
 526   4   1.270402   5.199205   3.919054   0.000237   0.150497   0.001572
 527   4   0.770288   5.328811   2.517865   0.000180   0.150497   0.001196
 528   4   0.478690   4.549748   1.277593  -0.000028   0.150497  -0.000188
 529  14   6.645022   6.366308   1.946182  -0.000073   0.071834  -0.001016
 530  14   6.337974   6.496960   1.115147  -0.000064   0.071834  -0.000889
 531   4   6.655112   6.070955   1.413508  -0.000168   0.156516  -0.001076
 532  14   3.178189   7.083020   0.667132  -0.000042   0.068888  -0.000608
 533  14   2.600794   7.094174   1.610359  -0.000155   0.152578  -0.001016
 534  14   2.569603   6.974883   2.942363  -0.000053   0.152578  -0.000348
 535  14   3.102617   6.793995   3.894393  -0.000051   0.068888  -0.000744
 536   4   2.670730   6.811885   0.827981  -0.000069   0.151383  -0.000459
 537   4   2.165228   6.766548   2.242527   0.000214   0.151383   0.001411
 538   4   2.604307   6.557848   3.664561   0.000198   0.151383   0.001307
 539  18   2.376449  -0.411159   0.678969  -0.000195   0.118616  -0.001644
 540   4   2.065542   0.155375   1.603355   0.000300   0.167220   0.001794
 541  19   0.781022   4.552578  -0.905263  -0.000193   0.192750  -0.001001
 542  19   1.655353   5.607982  -1.096951  -0.000908   0.393491  -0.002309
 543   4   1.086840   5.129216   0.144745   0.000887   0.529017   0.001678
 544   4   2.178291   6.235309  -0.105296   0.000700   0.271431   0.002579
 545  20   7.355400   5.080721  -0.471029  -0.000220   0.155374  -0.001414
 546   4   7.127072   5.368528   0.600059   0.000379   0.218963   0.001731
 547   5   5.591020   5.491638  10.212462   0.000072   0.087429   0.000823
 548   9   5.525340   5.758836   9.262712   0.000194   0.087429   0.002217
 549  16   5.837660   5.657357  10.287256  -0.000021   0.087429  -0.000242
 550   9   5.138840   5.981012   8.815159   0.000052   0.047597   0.001095
 551   5   5.306611   5.522399  10.190917   0.000263   0.067546   0.003894
 552   5   3.756145   3.759395  10.503112   0.000186   0.087755   0.002117
 553  10   3.307939   3.643935   9.631406   0.000216   0.087755   0.002466
 554  17   3.591541   3.544504  10.646984  -0.000110   0.087755  -0.001253
 555  11   7.544098  -2.221922   9.852764  -0.000133   0.212771  -0.000624
 556  11   6.044453  -1.972980   9.686917  -0.001035   0.437445  -0.002366
 557   5   6.968737  -1.703054  10.831681   0.001035   0.580962   0.001781
 558   5   5.305283  -1.298625  10.528040   0.000714   0.299714   0.002381
 559  12  10.725229   3.376436   8.596682  -0.000124   0.212085  -0.000587
 560  12  11.143652   1.986595   9.061076  -0.000963   0.435905  -0.002208
 561   5  10.626800   3.163727   9.822585   0.000975   0.579200   0.001684
 562   5  10.964078   1.524022  10.269606   0.000745   0.298741   0.002492
 563  15  10.735999   0.572824  11.427200  -0.000088   0.069982  -0.001259
 564  15  10.770688   1.424333  12.166161  -0.000296   0.155863  -0.001902
 565  15  10.239494   2.036930  13.261523  -0.000134   0.155863  -0.000859
 566  15   9.234119   1.919742  14.174073  -0.000265   0.155863  -0.001698
 567  15   8.182669   1.122670  14.515233  -0.000299   0.155863  -0.001917
 568  15   7.532870  -0.014879  14.139729  -0.000186   0.155863  -0.001190
 569  15   7.561418  -1.008518  13.207458  -0.000231   0.155863  -0.001480
 570  15   8.256156  -1.435136  12.115397  -0.000329   0.155863  -0.002108
 571   5  10.779157   1.169103  11.360463  -0.000143   0.152942  -0.000936
 572   5  10.564068   2.175653  12.493558   0.000082   0.152942   0.000535
 573   5   9.651128   2.469996  13.686543   0.000093   0.152942   0.000609
 574   5   8.429083   1.926796  14.431424  -0.000051   0.152942  -0.000333
 575   5   7.418300   0.777356  14.411019  -0.000022   0.152942  -0.000142
 576   5   7.049188  -0.488871  13.634015   0.000100   0.152942   0.000655
 577   5   7.478922  -1.332705  12.431275  -0.000142   0.152942  -0.000930
 578   5   8.254876  -1.518637  11.475704   0.000055   0.085498   0.000642
 579  16   5.853341   5.715149  11.030858  -0.000051   0.066688  -0.000766
 580  16   6.010338   5.548080  12.081602  -0.000108   0.146905  -0.000735
 581  16   6.797388   5.238750  13.072182  -0.000189   0.146905  -0.001289
 582  16   8.019060   4.910236  13.381986  -0.000226   0.146905  -0.001537
 583  16   9.205289   4.688941  12.891811  -0.000111   0.146905  -0.000755
 584  16   9.899648   4.660014  11.790262  -0.000172   0.146905  -0.001171
 585  16   9.834969   4.834584  10.501184  -0.000288   0.146905  -0.001959
 586   5   5.555215   5.390237  11.420756   0.000061   0.147305   0.000411
 587   5   6.049658   5.106296  12.768661   0.000052   0.147305   0.000352
 588   5   7.236777   4.729341  13.537165   0.000012   0.147305   0.000079
 589   5   8.659804   4.404414  13.430569   0.000041   0.147305   0.000281
 590   5   9.771199   4.256537  12.489888   0.000075   0.147305   0.000509
 591   5  10.143329   4.342609  11.077069   0.000056   0.147305   0.000382
 592   5   9.865302   4.548900   9.941573   0.000013   0.081474   0.000160
 593  17   4.118966  -0.323346  11.043387  -0.000100   0.066729  -0.001502
 594  17   4.468177  -0.424996  12.055939  -0.000206   0.147002  -0.001400
 595  17   4.775417   0.106562  13.205169  -0.000085   0.147002  -0.000578
 596  17   4.837897   1.230398  13.861497  -0.000199   0.147002  -0.001353
 597  17   4.631562   2.513806  13.772221  -0.000224   0.147002  -0.001522
 598  17   4.235855   3.462638  12.971713  -0.000150   0.147002  -0.001024
 599  17   3.803135   3.711570  11.768190  -0.000143   0.147002  -0.000975
 600   5   4.587783  -0.601325  11.266116  -0.000100   0.147390  -0.000678
 601   5   5.025681  -0.444016  12.654307   0.000017   0.147390   0.000117
 602   5   5.244187   0.534325  13.721396   0.000176   0.147390   0.001194
 603   5   5.159168   1.957012  14.056525  -0.000008   0.147390  -0.000052
 604   5   4.803360   3.276270  13.530660  -0.000024   0.147390  -0.000166
 605   5   4.313758   3.984150  12.346274   0.000199   0.147390   0.001350
 606   5   3.940258   3.986334  11.218968   0.000189   0.081524   0.002316
 607   6   6.074731  -0.562235  -0.045223   0.000179   0.087766   0.002040
 608   7   6.138227  -0.835134   0.901277   0.000214   0.087766   0.002440
 609  18   5.841420  -0.749516  -0.111998  -0.000111   0.087766  -0.001265
 610   6   7.777390   1.279746  -0.442842   0.000072   0.087406   0.000819
 611   8   8.220525   1.393938   0.433402   0.000193   0.087406   0.002204
 612  20   7.918987   1.506327  -0.592832  -0.000014   0.087406  -0.000161
 613   8   8.533150   1.096897   0.895484   0.000051   0.048219   0.001051
 614   6   7.819143   1.003533  -0.373990   0.000263   0.068427   0.003848
 615  13   0.217066   3.326857   1.004799  -0.000133   0.212742  -0.000624
 616  13   0.535750   1.884582   1.399910  -0.001031   0.437382  -0.002357
 617   6   0.558605   2.571518   0.071367   0.000971   0.580889   0.001672
 618   6   1.060543   0.993492   0.600497   0.000703   0.299674   0.002346
 619  14   5.858187   6.645244   0.549622  -0.000125   0.212069  -0.000591
 620  14   4.394448   6.978426   0.287840  -0.000962   0.435870  -0.002207
 621   6   5.421390   6.316705  -0.572433   0.001018   0.579160   0.001758
 622   6   3.717978   6.575523  -0.754642   0.000813   0.298719   0.002721
 623  18   1.955116  -0.277017   0.142005  -0.000099   0.066735  -0.001487
 624  18   1.654530  -0.126266  -0.880118  -0.000228   0.147021  -0.001549
 625  18   1.951164  -0.047741  -2.146568  -0.000080   0.147021  -0.000544
 626  18   2.929219  -0.120277  -3.004590  -0.000190   0.147021  -0.001292
 627  18   4.212019  -0.315940  -3.123736  -0.000220   0.147021  -0.001498
 628  18   5.305522  -0.559373  -2.458120  -0.000138   0.147021  -0.000937
 629  18   5.788592  -0.756825  -1.264088  -0.000146   0.147021  -0.000993
 630   6   1.626798   0.142951  -0.108063  -0.000128   0.147400  -0.000869
 631   6   1.507182   0.307175  -1.558155   0.000103   0.147400   0.000698
 632   6   2.260535   0.310715  -2.813738   0.000151   0.147400   0.001027
 633   6   3.596722   0.152207  -3.391254  -0.000002   0.147400  -0.000014
 634   6   5.001140  -0.107303  -3.068285  -0.000049   0.147400  -0.000329
 635   6   5.932910  -0.367871  -1.969215   0.000095   0.147400   0.000647
 636   6   6.157655  -0.519756  -0.812896   0.000080   0.081532   0.000979
 637  19   2.572778   6.138578  -1.645948  -0.000076   0.069985  -0.001089
 638  19   3.268670   6.025131  -2.526460  -0.000230   0.155871  -0.001477
 639  19   3.679111   5.290124  -3.598238  -0.000219   0.155871  -0.001406
 640  19   3.421042   4.130209  -4.265623  -0.000214   0.155871  -0.001375
 641  19   2.604365   3.039342  -4.244406  -0.000293   0.155871  -0.001878
 642  19   1.576864   2.482073  -3.543623  -0.000165   0.155871  -0.001059
 643  19   0.776105   2.695718  -2.461705  -0.000231   0.155871  -0.001480
 644  19   0.543096   3.589295  -1.459393  -0.000346   0.155871  -0.002219
 645   6   3.169487   6.188954  -1.703218  -0.000145   0.152947  -0.000946
 646   6   3.950551   5.753980  -2.945887   0.000058   0.152947   0.000380
 647   6   4.041082   4.628122  -3.979201   0.000058   0.152947   0.000379
 648   6   3.402527   3.290832  -4.363119  -0.000028   0.152947  -0.000184
 649   6   2.306818   2.311600  -3.934146   0.000009   0.152947   0.000057
 650   6   1.220567   2.107438  -2.874964   0.000051   0.152947   0.000336
 651   6   0.606360   2.765288  -1.636630   0.000024   0.152947   0.000156
 652   6   0.581627   3.710655  -0.826947   0.000033   0.085502   0.000391
 653  20   7.835093   1.379859  -1.323052  -0.000028   0.066677  -0.000421
 654  20   7.468709   1.335647  -2.333054  -0.000102   0.146877  -0.000697
 655  20   6.956099   1.922387  -3.376552  -0.000199   0.146877  -0.001355
 656  20   6.540487   3.065260  -3.842416  -0.000233   0.146877  -0.001584
 657  20   6.381743   4.324648  -3.551447  -0.000143   0.146877  -0.000972
 658  20   6.540929   5.216114  -2.615568  -0.000201   0.146877  -0.001365
 659  20   6.956812   5.396747  -1.394776  -0.000295   0.146877  -0.002011
 660   6   7.451179   1.015691  -1.580754   0.000130   0.147285   0.000884
 661   6   6.904506   1.247147  -2.918269   0.000109   0.147285   0.000740
 662   6   6.355951   2.269304  -3.810263  -0.000013   0.147285  -0.000088
 663   6   6.016522   3.688977  -3.913621   0.000008   0.147285   0.000052
 664   6   6.016783   4.960076  -3.188586   0.000090   0.147285   0.000608
 665   6   6.356633   5.593659  -1.914049  -0.000096   0.147285  -0.000654
 666   6   6.780829   5.535418  -0.807038  -0.000003   0.081461  -0.000036
 667  11   4.981890  -1.885669   6.712708   0.000155   0.254903   0.000610
 668  11   5.919374  -2.406117   6.293651  -0.000336   0.509728  -0.000659
 669  11   7.243469  -2.279766   5.849577   0.000123   0.509728   0.000241
 670   7   4.825741  -1.867887   5.132689  -0.000174   0.509728  -0.000341
 671   7   6.085902  -2.220815   4.628872  -0.000188   0.509728  -0.000369
 672   7   7.138957  -1.874889   4.317810   0.000348   0.254903   0.001364
 673  18   5.613101  -1.157082  -0.113857   0.000279   0.255916   0.001089
 674  18   4.558552  -1.527485   0.204142  -0.000526   0.511787  -0.001029
 675  18   3.280257  -1.189149   0.707221  -0.000489   0.511787  -0.000956
 676   7   5.718421  -1.539222   1.413764   0.000081   0.511787   0.000157
 677   7   4.385428  -1.690312   1.863098  -0.000371   0.511787  -0.000725
 678   7   3.429780  -1.175765   2.278276   0.000102   0.255916   0.000397
 679  12  10.367710   0.640928   5.208253   0.000330   0.251877   0.001310
 680  12  10.735040   1.705091   5.267652  -0.000188   0.503616  -0.000373
 681  12  10.473001   3.013687   5.597342  -0.000128   0.503616  -0.000254
 682   8  10.018543   1.296788   3.786195   0.000245   0.503616   0.000486
 683   8  10.198278   2.647943   3.964690  -0.000222   0.503616  -0.000441
 684   8   9.767468   3.635217   4.297248   0.000173   0.251877   0.000688
 685  20   8.093251   4.445111  -0.200026   0.000040   0.247504   0.000162
 686  20   8.553568   3.485026  -0.526042  -0.000518   0.494872  -0.001046
 687  20   8.434293   2.143099  -0.703784  -0.000020   0.494872  -0.000041
 688   8   8.813579   3.857299   1.096872  -0.000208   0.494872  -0.000420
 689   8   9.122783   2.574374   0.772707  -0.000211   0.494872  -0.000426
 690   8   8.809117   1.507711   0.711182   0.000295   0.247504   0.001192
 691  14   3.823441   6.962769   4.401838   0.000329   0.251867   0.001306
 692  14   4.846332   7.303180   4.071713  -0.000189   0.503598  -0.000375
 693  14   6.075932   6.972073   3.553433  -0.000128   0.503598  -0.000254
 694   9   4.746183   6.886172   5.711868   0.000247   0.503598   0.000490
 695   9   6.033593   7.017282   5.247598  -0.000223   0.503598  -0.000442
 696   9   6.952039   6.522618   4.819894   0.000173   0.251867   0.000687
 697  16   8.642864   5.730392   9.317023   0.000062   0.247495   0.000249
 698  16   7.748822   6.251727   9.726975  -0.000480   0.494852  -0.000969
 699  16   6.468732   6.179210  10.175957   0.000019   0.494852   0.000039
 700   9   7.800883   6.195185   8.043061  -0.000206   0.494852  -0.000416
 701   9   6.593997   6.570474   8.541119  -0.000209   0.494852  -0.000422
 702   9   5.567723   6.282924   8.862423   0.000297   0.247495   0.001200
 703  13   1.212675   1.409440   4.451469   0.000155   0.254766   0.000608
 704  13   0.754414   2.413230   4.776768  -0.000335   0.509452  -0.000658
 705  13   0.923717   3.795828   4.929895   0.000125   0.509452   0.000245
 706  10   1.533317   1.557852   5.999841  -0.000172   0.509452  -0.000338
 707  10   1.245916   2.892955   6.313830  -0.000187   0.509452  -0.000367
 708  10   1.613205   3.982599   6.348349   0.000350   0.254766   0.001373
 709  17   3.198345   3.323873  10.769373   0.000281   0.255907   0.001098
 710  17   2.804864   2.230940  10.731948  -0.000526   0.511771  -0.001028
 711  17   3.078732   0.877530  10.423156  -0.000490   0.511771  -0.000957
 712  10   2.532158   3.139805   9.350853   0.000081   0.511771   0.000158
 713  10   2.337199   1.746775   9.197445  -0.000371   0.511771  -0.000724
 714  10   2.791424   0.725480   8.879064   0.000102   0.255907   0.000399
 =====================================================

              3632661  WORDS OF DYNAMIC MEMORY USED
 EXECUTION OF GAMESS TERMINATED NORMALLY Fri Nov 25 03:28:50 2016
 DDI: 263640 bytes (0.3 MB / 0 MWords) used by master data server.

 ----------------------------------------
 CPU timing information for all processes
 ========================================
 0: 518.932 + 0.184 = 519.116
 ----------------------------------------
 ddikick.x: exited gracefully.
