----- GAMESS execution script -----

          ******************************************************
          *         GAMESS VERSION =  5 DEC 2014 (R1)          *
          *             FROM IOWA STATE UNIVERSITY             *
          * M.W.SCHMIDT, K.K.BALDRIDGE, J.A.BOATZ, S.T.ELBERT, *
          *   M.S.GORDON, J.H.JENSEN, S.KOSEKI, N.MATSUNAGA,   *
          *          K.A.NGUYEN, S.J.SU, T.L.WINDUS,           *
          *       TOGETHER WITH M.DUPUIS, J.A.MONTGOMERY       *
          *         J.COMPUT.CHEM.  14, 1347-1363(1993)        *
          **************** 64 BIT LINUX VERSION ****************

 EXECUTION OF GAMESS BEGUN Fri Nov 25 03:06:04 2016

            ECHO OF THE FIRST FEW INPUT CARDS -
 INPUT CARD>! SELECT RESTRICTED HARTREE-FOCK AS DEFAULT                                     
 INPUT CARD>$contrl scftyp=rhf $end                                                         
 INPUT CARD>                                                                                
 INPUT CARD>! THEORY: HF OR DFT                                                             
 INPUT CARD> $contrl mplevl=0 $end                                                          
 INPUT CARD>                                                                                
 INPUT CARD> $system timlim=10000 mwords=20 $end                                            
 INPUT CARD> $SCF DIRSCF=.TRUE. $end                                                        
 INPUT CARD>                                                                                
 INPUT CARD>                                                                                
 INPUT CARD>! BASIS SETS                                                                    
 INPUT CARD>! 6-311G(d,p)                                                                   
 INPUT CARD> $BASIS GBASIS=N311 NGAUSS=6 NDFUNC=1 NPFUNC=1 $END                             
 INPUT CARD>                                                                                
 INPUT CARD>! One of the following                                                          
 INPUT CARD> $guess guess=HUCKEL $end                                                       
 INPUT CARD>                                                                                
 INPUT CARD> $statpt projct=.FALSE. $end                                                    
 INPUT CARD> $STATPT IFREEZ(1)=1,2,3 $END                                                   
 INPUT CARD>                                                                                
 INPUT CARD>! Optimize the geometry with COSMO effects                                      
 INPUT CARD> $statpt opttol=0.0005 nstep=50 $end                                            
 INPUT CARD> $contrl nzvar=1 $end                                                           
 INPUT CARD> $zmat dlc=.t. auto=.t. $end                                                    
 INPUT CARD> $contrl runtyp=OPTIMIZE maxit=200 $end                                         
 INPUT CARD>                                                                                
 INPUT CARD>! Run COSMO on perfect conductor                                                
 INPUT CARD> $COSGMS PRFCND=.TRUE. $end                                                     
 INPUT CARD>                                                                                
 INPUT CARD>! Specifying RSOLV                                                              
 INPUT CARD> $COSGMS COSRAD = 1.4 $end                                                      
 INPUT CARD>                                                                                
 INPUT CARD>! available memory                                                              
 INPUT CARD> $SYSTEM MWORDS=40 $END                                                         
 INPUT CARD>                                                                                
 INPUT CARD> $DATA                                                                          
 INPUT CARD>                                                                                
 INPUT CARD>C1                                                                              
 INPUT CARD>C      6.0      4.9152000000    1.1070000000    1.6205000000                    
 INPUT CARD>C      6.0      3.6906000000    1.8807000000    1.1286000000                    
 INPUT CARD>C      6.0      2.3913000000    1.1930000000    1.5512000000                    
 INPUT CARD>C      6.0      6.2133000000    1.7987000000    1.2058000000                    
 INPUT CARD>C      6.0      1.1678000000    1.9607000000    1.0515000000                    
 INPUT CARD>C      6.0      7.4326000000    1.0285000000    1.6861000000                    
 INPUT CARD>C      6.0     -0.1258000000    1.2849000000    1.4773000000                    
 INPUT CARD>H      1.0      4.8942000000    0.0891000000    1.2124000000                    
 INPUT CARD>H      1.0      4.8792000000    1.0177000000    2.7130000000                    
 INPUT CARD>H      1.0      3.7139000000    2.9005000000    1.5317000000                    
 INPUT CARD>H      1.0      3.7239000000    1.9641000000    0.0355000000                    
 INPUT CARD>H      1.0      2.3704000000    0.1706000000    1.1545000000                    
   40000000 WORDS OF MEMORY AVAILABLE

     BASIS OPTIONS
     -------------
     GBASIS=N311         IGAUSS=       6      POLAR=POPN311 
     NDFUNC=       1     NFFUNC=       0     DIFFSP=       F
     NPFUNC=       1      DIFFS=       F     BASNAM=        


     RUN TITLE
     ---------
                                                                                 

 THE POINT GROUP OF THE MOLECULE IS C1      
 THE ORDER OF THE PRINCIPAL AXIS IS     0

 ATOM      ATOMIC                      COORDINATES (BOHR)
           CHARGE         X                   Y                   Z
 C           6.0     9.2883811749        2.0919266684        3.0623009631
 C           6.0     6.9742227303        3.5540076651        2.1327447497
 C           6.0     4.5189017544        2.2544431034        2.9313429522
 C           6.0    11.7414344795        3.3990501341        2.2786315960
 C           6.0     2.2068220085        3.7051857441        1.9870468761
 C           6.0    14.0455773763        1.9435831784        3.1862669879
 C           6.0    -0.2377275293        2.4281089216        2.7916922017
 H           1.0     9.2486969291        0.1683745855        2.2911037875
 H           1.0     9.2203510393        1.9231741377        5.1268266047
 H           1.0     7.0182533458        5.4811502274        2.8944932954
 H           1.0     7.0371506057        3.7116108125        0.0670852726
 H           1.0     4.4794064813        0.3223872535        2.1816886528
 H           1.0     4.4516275093        2.1087452297        4.9977583197
 H           1.0    11.7979372865        5.3163661213        3.0604112371
 H           1.0    11.8185352998        3.5751725962        0.2161846530
 H           1.0     2.2381914599        5.6396982378        2.7272525455
 H           1.0     2.2555769389        3.8382224537       -0.0795574641
 H           1.0    14.0563488145        1.7816336612        5.2490918761
 H           1.0    15.7797789153        2.9132015827        2.6097115890
 H           1.0    14.0807262797        0.0357158212        2.3850231691
 H           1.0    -0.3766223894        2.3254968005        4.8531942817
 H           1.0    -0.3543236227        0.5060686195        2.0359907792
 H           1.0    -1.8666713307        3.4931584883        2.0911707780

          INTERNUCLEAR DISTANCES (ANGS.)




     $CONTRL OPTIONS
     ---------------
 SCFTYP=RHF          RUNTYP=OPTIMIZE     EXETYP=RUN     
 MPLEVL=       0     CITYP =NONE         CCTYP =NONE         VBTYP =NONE    
 DFTTYP=NONE         TDDFT =NONE    
 MULT  =       1     ICHARG=       0     NZVAR =       1     COORD =UNIQUE  
 PP    =NONE         RELWFN=NONE         LOCAL =NONE         NUMGRD=       F
 ISPHER=      -1     NOSYM =       0     MAXIT =     200     UNITS =ANGS    
 PLTORB=       F     MOLPLT=       F     AIMPAC=       F     FRIEND=        
 NPRINT=       7     IREST =       0     GEOM  =INPUT   
 NORMF =       0     NORMP =       0     ITOL  =      20     ICUT  =       9
 INTTYP=BEST         GRDTYP=BEST         QMTTOL= 1.0E-06

     $SYSTEM OPTIONS
     ---------------
  REPLICATED MEMORY=    40000000 WORDS (ON EVERY NODE).
 DISTRIBUTED MEMDDI=           0 MILLION WORDS IN AGGREGATE,
 MEMDDI DISTRIBUTED OVER   1 PROCESSORS IS           0 WORDS/PROCESSOR.
 TOTAL MEMORY REQUESTED ON EACH PROCESSOR=    40000000 WORDS.
 TIMLIM=       10000.00 MINUTES, OR       6.9 DAYS.
 PARALL= F  BALTYP=  DLB     KDIAG=    0  COREFL= F
 MXSEQ2=     300 MXSEQ3=     150  mem10=         0

     $COSGMS OPTIONS
     ---------------
     EPSI  =   INFTY     NSPA  =      92     COSRAD=    1.40
     DISEX =   10.00     OUTCHG=DBLCAV       COSBUG=       F
     COSWRT=       F     DCOSMO=       F

     SYMMETRY COORDINATES WILL NOT BE USED FOR 
     THE COSMO CALCULATION, EVEN IF SPECIFIED:
         -- SWITCHING TO C1 POINT GROUP --


     DEFINITION OF CAVITY
     ---------------------------
     ATOM         COORDINATES           RADIUS 
     1    9.2884    2.0919    3.0623    2.0000
     2    6.9742    3.5540    2.1327    2.0000
     3    4.5189    2.2544    2.9313    2.0000
     4   11.7414    3.3991    2.2786    2.0000
     5    2.2068    3.7052    1.9870    2.0000
     6   14.0456    1.9436    3.1863    2.0000
     7   -0.2377    2.4281    2.7917    2.0000
     8    9.2487    0.1684    2.2911    1.3000
     9    9.2204    1.9232    5.1268    1.3000
    10    7.0183    5.4812    2.8945    1.3000
    11    7.0372    3.7116    0.0671    1.3000
    12    4.4794    0.3224    2.1817    1.3000
    13    4.4516    2.1087    4.9978    1.3000
    14   11.7979    5.3164    3.0604    1.3000
    15   11.8185    3.5752    0.2162    1.3000
    16    2.2382    5.6397    2.7273    1.3000
    17    2.2556    3.8382   -0.0796    1.3000
    18   14.0563    1.7816    5.2491    1.3000
    19   15.7798    2.9132    2.6097    1.3000
    20   14.0807    0.0357    2.3850    1.3000
    21   -0.3766    2.3255    4.8532    1.3000
    22   -0.3543    0.5061    2.0360    1.3000
    23   -1.8667    3.4932    2.0912    1.3000

          ----------------
          PROPERTIES INPUT
          ----------------

     MOMENTS            FIELD           POTENTIAL          DENSITY
 IEMOM =       1   IEFLD =       0   IEPOT =       0   IEDEN =       0
 WHERE =COMASS     WHERE =NUCLEI     WHERE =NUCLEI     WHERE =NUCLEI  
 OUTPUT=BOTH       OUTPUT=BOTH       OUTPUT=BOTH       OUTPUT=BOTH    
 IEMINT=       0   IEFINT=       0                     IEDINT=       0
                                                       MORB  =       0
          EXTRAPOLATION IN EFFECT
          SOSCF IN EFFECT
 ORBITAL PRINTING OPTION: NPREO=     1   229     2     1

     -------------------------------
     INTEGRAL TRANSFORMATION OPTIONS
     -------------------------------
     NWORD  =            0
     CUTOFF = 1.0E-09     MPTRAN =       0
     DIRTRF =       T     AOINTS =DUP     

          ----------------------
          INTEGRAL INPUT OPTIONS
          ----------------------
 NOPK  =       1 NORDER=       0 SCHWRZ=       T


 -----------------------------------------------
  STATISTICS ON AUTOMATIC COORDINATE GENERATION 
 -----------------------------------------------
  NUMBER OF USER SPECIFIED BONDS                             0
  NUMBER OF BONDS                                           22
  NUMBER OF ANGLES                                          42
  NUMBER OF TORSIONS                                        54
  NUMBER OF EXTRA COORD.                                     0
  NUMBER OF EXTRA COORD. FOR CONSTRAINTS                     0
  NUMBER OF CONSTRAINED COORD.                               0

  TOTAL NUMBER OF PRIMITIVES                               118
 -----------------------------------------------

   --- ENCODED Z MATRIX ---
 COORD  TYPE   I   J   K   L   M   N
    1      1    1   8
    2      1    1   9
    3      1    1   2
    4      1    1   4
    5      1    2  11
    6      1    2  10
    7      1    2   3
    8      1    3  13
    9      1    3  12
   10      1    3   5
   11      1    4  15
   12      1    4  14
   13      1    4   6
   14      1    5  16
   15      1    5   7
   16      1    5  17
   17      1    6  20
   18      1    6  19
   19      1    6  18
   20      1    7  23
   21      1    7  22
   22      1    7  21
   23      2    1   4   6
   24      2    1   4  14
   25      2    1   2   3
   26      2    1   2  10
   27      2    1   4  15
   28      2    1   2  11
   29      2    2   1   8
   30      2    2   3  12
   31      2    2   3   5
   32      2    2   3  13
   33      2    2   1   4
   34      2    2   1   9
   35      2    3   2  10
   36      2    3   5  17
   37      2    3   5   7
   38      2    3   5  16
   39      2    3   2  11
   40      2    4   6  18
   41      2    4   6  19
   42      2    4   6  20
   43      2    4   1   8
   44      2    4   1   9
   45      2    5   3  12
   46      2    5   3  13
   47      2    5   7  21
   48      2    5   7  22
   49      2    5   7  23
   50      2    6   4  14
   51      2    6   4  15
   52      2    7   5  16
   53      2    7   5  17
   54      2    8   1   9
   55      2   10   2  11
   56      2   12   3  13
   57      2   14   4  15
   58      2   16   5  17
   59      2   18   6  19
   60      2   18   6  20
   61      2   19   6  20
   62      2   21   7  22
   63      2   21   7  23
   64      2   22   7  23
   65      3    1   2   3   5
   66      3    1   2   3  12
   67      3    1   2   3  13
   68      3    1   4   6  18
   69      3    1   4   6  19
   70      3    1   4   6  20
   71      3    2   1   4   6
   72      3    2   1   4  15
   73      3    2   3   5  17
   74      3    2   1   4  14
   75      3    2   3   5   7
   76      3    2   3   5  16
   77      3    3   5   7  21
   78      3    3   5   7  22
   79      3    3   5   7  23
   80      3    3   2   1   4
   81      3    3   2   1   9
   82      3    3   2   1   8
   83      3    4   1   2  11
   84      3    4   1   2  10
   85      3    5   3   2  10
   86      3    5   3   2  11
   87      3    6   4   1   8
   88      3    6   4   1   9
   89      3    7   5   3  12
   90      3    7   5   3  13
   91      3    8   1   4  14
   92      3    8   1   2  11
   93      3    8   1   4  15
   94      3    8   1   2  10
   95      3    9   1   2  11
   96      3    9   1   4  15
   97      3    9   1   4  14
   98      3    9   1   2  10
   99      3   10   2   3  12
  100      3   10   2   3  13
  101      3   11   2   3  12
  102      3   11   2   3  13
  103      3   12   3   5  16
  104      3   12   3   5  17
  105      3   13   3   5  16
  106      3   13   3   5  17
  107      3   14   4   6  20
  108      3   14   4   6  19
  109      3   14   4   6  18
  110      3   15   4   6  20
  111      3   15   4   6  19
  112      3   15   4   6  18
  113      3   16   5   7  23
  114      3   16   5   7  22
  115      3   16   5   7  21
  116      3   17   5   7  23
  117      3   17   5   7  22
  118      3   17   5   7  21

          INDEP./SYM. INTERNAL COORDINATES
          --------------------------------
 CRD  1=  -0.2558 ( 23) -0.4825 ( 25)  0.1458 ( 26)  0.1459 ( 28) -0.1237 ( 29)
          -0.1245 ( 30)  0.3949 ( 31) -0.1236 ( 32)  0.3949 ( 33) -0.1245 ( 34)
           0.1457 ( 35) -0.2558 ( 37)  0.1459 ( 39) -0.1143 ( 43) -0.1145 ( 44)
          -0.1145 ( 45) -0.1145 ( 46)
 CRD  2=  -0.3599 (  3) -0.2856 (  4) -0.3598 (  7) -0.2856 ( 10) -0.2014 ( 13)
          -0.2013 ( 15) -0.2255 ( 23) -0.1933 ( 25) -0.2880 ( 31) -0.2874 ( 33)
          -0.2248 ( 37)
 CRD  3=   0.4042 ( 23) -0.1550 ( 24) -0.1215 ( 27)  0.1227 ( 29)  0.3175 ( 31)
          -0.1225 ( 32) -0.3180 ( 33)  0.1552 ( 36) -0.4049 ( 37)  0.1217 ( 38)
           0.1491 ( 43) -0.1491 ( 46) -0.1407 ( 50)  0.1409 ( 53) -0.1421 ( 65)
          -0.1118 ( 71)  0.1117 ( 75)  0.1421 ( 80)
 CRD  4=  -0.1786 ( 23)  0.1057 ( 28)  0.1230 ( 30) -0.1394 ( 31)  0.1394 ( 33)
          -0.1230 ( 34) -0.1059 ( 35)  0.1780 ( 37) -0.1109 ( 40) -0.1320 ( 44)
           0.1320 ( 45)  0.1108 ( 48)  0.1185 ( 51) -0.1183 ( 52) -0.3209 ( 65)
          -0.1632 ( 66) -0.1554 ( 67)  0.1099 ( 69) -0.2546 ( 71) -0.1554 ( 72)
           0.1255 ( 73) -0.1255 ( 74)  0.2545 ( 75)  0.1553 ( 76) -0.1099 ( 79)
           0.3208 ( 80)  0.1631 ( 81)  0.1554 ( 82)  0.1336 ( 83)  0.1257 ( 84)
          -0.1337 ( 85) -0.1257 ( 86) -0.1021 ( 88)  0.1021 ( 89)
 CRD  5=   0.1049 ( 24) -0.1654 ( 26) -0.1057 ( 27)  0.1667 ( 28)  0.1650 ( 29)
          -0.1644 ( 30)  0.1651 ( 32) -0.1645 ( 34)  0.1667 ( 35)  0.1049 ( 36)
          -0.1056 ( 38) -0.1655 ( 39) -0.1067 ( 40)  0.1078 ( 42) -0.1360 ( 43)
           0.1369 ( 44)  0.1369 ( 45) -0.1359 ( 46)  0.1078 ( 47) -0.1067 ( 48)
          -0.1082 ( 50)  0.1073 ( 51)  0.1073 ( 52) -0.1081 ( 53) -0.2119 ( 65)
          -0.1515 ( 66) -0.1514 ( 67) -0.2218 ( 71) -0.1572 ( 72) -0.1573 ( 73)
          -0.1573 ( 74) -0.2218 ( 75) -0.1572 ( 76) -0.2120 ( 80) -0.1515 ( 81)
          -0.1514 ( 82) -0.1150 ( 83) -0.1152 ( 84) -0.1149 ( 85) -0.1152 ( 86)
          -0.1067 ( 87) -0.1065 ( 88) -0.1065 ( 89) -0.1068 ( 90)
 CRD  6=  -0.1257 (  3) -0.1257 (  7)  0.3855 ( 23) -0.1359 ( 24) -0.4971 ( 25)
           0.1576 ( 26) -0.1339 ( 27)  0.1557 ( 28)  0.1554 ( 35) -0.1358 ( 36)
           0.3854 ( 37) -0.1340 ( 38)  0.1577 ( 39) -0.1199 ( 41) -0.1198 ( 49)
          -0.1073 ( 50) -0.1072 ( 51) -0.1072 ( 52) -0.1071 ( 53) -0.1133 ( 55)
 CRD  7=   0.1194 (  3)  0.2467 (  4) -0.1194 (  7) -0.2467 ( 10)  0.2382 ( 13)
          -0.2383 ( 15)  0.2469 ( 23) -0.1526 ( 29)  0.1529 ( 30) -0.3747 ( 31)
           0.1524 ( 32)  0.3748 ( 33) -0.1528 ( 34) -0.2472 ( 37)
 CRD  8=   0.2734 ( 40) -0.2726 ( 42) -0.2723 ( 47)  0.2731 ( 48) -0.1812 ( 65)
          -0.1262 ( 68) -0.2091 ( 69) -0.1262 ( 70)  0.2224 ( 71)  0.2223 ( 75)
          -0.1264 ( 77) -0.1262 ( 78) -0.2091 ( 79) -0.1809 ( 80) -0.1385 ( 83)
          -0.1386 ( 84) -0.1386 ( 85) -0.1388 ( 86)  0.1391 ( 87)  0.1402 ( 88)
           0.1401 ( 89)  0.1389 ( 90)
 CRD  9=  -0.1711 ( 24)  0.1716 ( 27)  0.1709 ( 36) -0.1715 ( 38)  0.2268 ( 40)
          -0.2285 ( 42)  0.1530 ( 43) -0.1537 ( 44)  0.1536 ( 45) -0.1529 ( 46)
           0.2290 ( 47) -0.2270 ( 48)  0.1739 ( 50) -0.1745 ( 51)  0.1746 ( 52)
          -0.1740 ( 53) -0.1587 ( 65)  0.1335 ( 68)  0.1333 ( 70)  0.1582 ( 71)
          -0.1584 ( 75) -0.1331 ( 77) -0.1333 ( 78)  0.1588 ( 80)  0.1434 ( 83)
           0.1435 ( 84) -0.1433 ( 85) -0.1434 ( 86)  0.1416 ( 87)  0.1414 ( 88)
          -0.1416 ( 89) -0.1418 ( 90)
 CRD 10=   0.1642 (  3) -0.1501 (  4) -0.1636 (  7)  0.1500 ( 10)  0.4133 ( 13)
          -0.4157 ( 15)  0.2668 ( 41) -0.2689 ( 49)  0.1406 ( 50)  0.1401 ( 51)
          -0.1408 ( 52) -0.1412 ( 53) -0.1486 ( 59) -0.1476 ( 61)  0.1486 ( 63)
           0.1494 ( 64)
 CRD 11=   0.4464 ( 13)  0.4443 ( 15)  0.3421 ( 41)  0.3419 ( 49)  0.1247 ( 50)
           0.1247 ( 51)  0.1239 ( 52)  0.1240 ( 53) -0.1733 ( 59) -0.1742 ( 61)
          -0.1737 ( 63) -0.1727 ( 64)
 CRD 12=   0.2721 (  3) -0.3556 (  4) -0.2717 (  7)  0.3557 ( 10) -0.1038 ( 31)
           0.1041 ( 33)  0.1127 ( 40) -0.3099 ( 41)  0.1127 ( 42) -0.1290 ( 43)
          -0.1304 ( 44)  0.1302 ( 45)  0.1289 ( 46) -0.1124 ( 47) -0.1131 ( 48)
           0.3087 ( 49)  0.1059 ( 92) -0.1060 ( 98) -0.1059 (100)  0.1061 (101)
 CRD 13=  -0.1507 (  3)  0.4045 (  4) -0.1509 (  7)  0.4045 ( 10) -0.1328 ( 13)
          -0.1329 ( 15) -0.1828 ( 40)  0.2440 ( 41) -0.1793 ( 42)  0.1138 ( 43)
           0.1120 ( 44)  0.1121 ( 45)  0.1138 ( 46) -0.1792 ( 47) -0.1827 ( 48)
           0.2438 ( 49)  0.1691 ( 60)  0.1689 ( 62)
 CRD 14=  -0.1254 ( 24)  0.1237 ( 27) -0.1251 ( 29) -0.1242 ( 30)  0.1252 ( 32)
           0.1244 ( 34)  0.1255 ( 36) -0.1237 ( 38) -0.3375 ( 40)  0.3418 ( 42)
           0.1099 ( 43) -0.1095 ( 44)  0.1094 ( 45) -0.1100 ( 46) -0.3419 ( 47)
           0.3375 ( 48)  0.1398 ( 59) -0.1404 ( 61)  0.1402 ( 63) -0.1396 ( 64)
           0.1180 ( 68)  0.1622 ( 69)  0.1183 ( 70) -0.1184 ( 77) -0.1180 ( 78)
          -0.1622 ( 79)
 CRD 15=   0.1068 (  1)  0.1078 (  2)  0.4005 (  3)  0.1472 (  4) -0.4002 (  7)
          -0.1068 (  8) -0.1079 (  9) -0.1474 ( 10) -0.1827 ( 13)  0.1828 ( 15)
           0.1222 ( 26)  0.1218 ( 28) -0.1209 ( 35) -0.1230 ( 39) -0.1924 ( 40)
           0.2049 ( 41) -0.1840 ( 42)  0.1829 ( 47)  0.1935 ( 48) -0.2049 ( 49)
           0.1771 ( 60) -0.1770 ( 62)
 CRD 16=   0.2353 ( 24)  0.1721 ( 26) -0.2348 ( 27) -0.1714 ( 28) -0.1152 ( 29)
           0.1136 ( 30) -0.1157 ( 32)  0.1140 ( 34) -0.1721 ( 35)  0.2353 ( 36)
          -0.2349 ( 38)  0.1713 ( 39) -0.1426 ( 40)  0.1433 ( 42)  0.1446 ( 47)
          -0.1414 ( 48) -0.1933 ( 50)  0.1927 ( 51)  0.1931 ( 52) -0.1932 ( 53)
           0.1080 ( 66)  0.1073 ( 67) -0.1755 ( 68) -0.1468 ( 69) -0.1754 ( 70)
           0.1404 ( 72)  0.1407 ( 73)  0.1408 ( 74)  0.1407 ( 76) -0.1753 ( 77)
          -0.1757 ( 78) -0.1469 ( 79)  0.1079 ( 81)  0.1074 ( 82)
 CRD 17=   0.3408 (  3) -0.1805 (  4)  0.1637 (  5)  0.1636 (  6)  0.3409 (  7)
          -0.1805 ( 10) -0.1201 ( 13) -0.1203 ( 15) -0.1658 ( 25) -0.1736 ( 40)
           0.2430 ( 41) -0.1896 ( 42) -0.1894 ( 47) -0.1740 ( 48)  0.2432 ( 49)
          -0.1219 ( 55)  0.1696 ( 60)  0.1696 ( 62)
 CRD 18=  -0.1389 (  1)  0.1397 (  2) -0.1390 (  8)  0.1400 (  9) -0.2434 ( 26)
           0.2479 ( 28) -0.1504 ( 29)  0.1547 ( 30) -0.1493 ( 32)  0.1557 ( 34)
           0.2479 ( 35) -0.2435 ( 39) -0.2146 ( 40)  0.2070 ( 42)  0.1250 ( 43)
          -0.1282 ( 44) -0.1272 ( 45)  0.1241 ( 46)  0.2076 ( 47) -0.2145 ( 48)
           0.1029 ( 59) -0.1037 ( 61) -0.1037 ( 63)  0.1031 ( 64) -0.1552 ( 66)
          -0.1528 ( 67)  0.1504 ( 71)  0.1237 ( 72)  0.1228 ( 73)  0.1236 ( 74)
           0.1502 ( 75)  0.1230 ( 76) -0.1553 ( 81) -0.1529 ( 82)
 CRD 19=   0.1029 (  5) -0.1028 (  6)  0.1860 ( 24) -0.1858 ( 27) -0.2280 ( 29)
          -0.2281 ( 30)  0.2296 ( 32)  0.2267 ( 34) -0.1865 ( 36)  0.1863 ( 38)
           0.2049 ( 43) -0.2044 ( 44)  0.2063 ( 45) -0.2069 ( 46) -0.1921 ( 50)
           0.1930 ( 51) -0.1938 ( 52)  0.1928 ( 53) -0.1084 ( 68) -0.1083 ( 70)
           0.1475 ( 72) -0.1476 ( 73)  0.1470 ( 74) -0.1481 ( 76)  0.1084 ( 77)
           0.1085 ( 78)  0.1133 ( 83)  0.1145 ( 84) -0.1147 ( 85) -0.1159 ( 86)
          -0.1177 ( 87) -0.1169 ( 88)  0.1175 ( 89)  0.1184 ( 90)
 CRD 20=  -0.1165 ( 17)  0.1176 ( 19)  0.1172 ( 21) -0.1163 ( 22)  0.1013 ( 24)
          -0.1618 ( 26)  0.1593 ( 28) -0.1239 ( 29)  0.1199 ( 30) -0.1223 ( 32)
           0.1215 ( 34)  0.1594 ( 35) -0.1620 ( 39)  0.2012 ( 40) -0.1962 ( 42)
           0.1944 ( 43) -0.1935 ( 44) -0.1920 ( 45)  0.1929 ( 46) -0.1963 ( 47)
           0.2010 ( 48) -0.1516 ( 50)  0.1530 ( 51)  0.1517 ( 52) -0.1502 ( 53)
          -0.1108 ( 59)  0.1108 ( 61)  0.1104 ( 63) -0.1106 ( 64) -0.1110 ( 71)
          -0.1112 ( 75)  0.1696 ( 83)  0.1687 ( 84)  0.1688 ( 85)  0.1679 ( 86)
          -0.1352 ( 87) -0.1340 ( 88) -0.1331 ( 89) -0.1344 ( 90)
 CRD 21=  -0.1273 (  1) -0.1284 (  2) -0.1450 (  3) -0.3070 (  4)  0.1453 (  7)
           0.1277 (  8)  0.1282 (  9)  0.3070 ( 10) -0.1427 ( 11) -0.1440 ( 12)
           0.1429 ( 14)  0.1439 ( 16)  0.2016 ( 23) -0.1264 ( 24) -0.1272 ( 27)
          -0.1483 ( 31)  0.1482 ( 33)  0.1264 ( 36) -0.2016 ( 37)  0.1272 ( 38)
          -0.1587 ( 40)  0.2303 ( 41) -0.1605 ( 42)  0.1600 ( 47)  0.1592 ( 48)
          -0.2304 ( 49)  0.1161 ( 57) -0.1161 ( 58)  0.1561 ( 60) -0.1561 ( 62)
 CRD 22=  -0.1605 (  1) -0.1595 (  2) -0.2561 (  3) -0.2221 (  4) -0.1681 (  5)
          -0.1682 (  6) -0.2561 (  7) -0.1605 (  8) -0.1595 (  9) -0.2219 ( 10)
          -0.1133 ( 11) -0.1135 ( 12) -0.1130 ( 14) -0.1136 ( 16)  0.1654 ( 23)
           0.2402 ( 25)  0.2180 ( 31)  0.2181 ( 33)  0.1653 ( 37)  0.1421 ( 41)
           0.1420 ( 49)  0.1248 ( 54)  0.1336 ( 55)  0.1247 ( 56)
 CRD 23=   0.2759 (  5) -0.2759 (  6) -0.2623 ( 11)  0.2614 ( 12)  0.2624 ( 14)
          -0.2613 ( 16)  0.1075 ( 17) -0.1074 ( 19)  0.1074 ( 21) -0.1076 ( 22)
          -0.1264 ( 40)  0.1265 ( 42) -0.1265 ( 47)  0.1264 ( 48) -0.1081 ( 65)
          -0.1498 ( 66) -0.1503 ( 67) -0.1153 ( 68) -0.1427 ( 69) -0.1153 ( 70)
           0.1357 ( 71) -0.1357 ( 75)  0.1154 ( 77)  0.1153 ( 78)  0.1426 ( 79)
           0.1081 ( 80)  0.1498 ( 81)  0.1503 ( 82)  0.1529 ( 87)  0.1533 ( 88)
          -0.1534 ( 89) -0.1529 ( 90)
 CRD 24=  -0.2676 (  1)  0.2687 (  2) -0.2675 (  8)  0.2688 (  9)  0.2908 ( 11)
          -0.2916 ( 12)  0.2908 ( 14) -0.2916 ( 16)  0.1133 ( 69)  0.1132 ( 79)
          -0.1186 ( 83) -0.1184 ( 84) -0.1186 ( 85) -0.1184 ( 86) -0.1142 ( 87)
          -0.1145 ( 88) -0.1145 ( 89) -0.1142 ( 90)
 CRD 25=  -0.1763 ( 13) -0.5065 ( 17) -0.4814 ( 18) -0.5066 ( 19)  0.1754 ( 40)
           0.1908 ( 41)  0.1753 ( 42) -0.1921 ( 59) -0.1829 ( 60) -0.1919 ( 61)
 CRD 26=  -0.1762 ( 15) -0.4814 ( 20) -0.5068 ( 21) -0.5066 ( 22)  0.1753 ( 47)
           0.1753 ( 48)  0.1906 ( 49) -0.1828 ( 62) -0.1917 ( 63) -0.1918 ( 64)
 CRD 27=  -0.3098 (  1)  0.3092 (  2)  0.3351 (  5) -0.3353 (  6)  0.3098 (  8)
          -0.3093 (  9)  0.2097 ( 11) -0.2106 ( 12) -0.2096 ( 14)  0.2106 ( 16)
 CRD 28=  -0.1043 ( 11)  0.1043 ( 12) -0.1043 ( 14)  0.1044 ( 16)  0.1396 ( 26)
          -0.1395 ( 28) -0.1191 ( 29)  0.1192 ( 30) -0.1192 ( 32)  0.1192 ( 34)
          -0.1395 ( 35)  0.1396 ( 39)  0.1393 ( 43) -0.1393 ( 44) -0.1393 ( 45)
           0.1394 ( 46)  0.1197 ( 50) -0.1197 ( 51) -0.1197 ( 52)  0.1198 ( 53)
          -0.1511 ( 91) -0.1773 ( 92) -0.1510 ( 93) -0.1772 ( 94) -0.1772 ( 95)
          -0.1511 ( 96) -0.1511 ( 97) -0.1771 ( 98) -0.1772 ( 99) -0.1773 (100)
          -0.1771 (101) -0.1772 (102) -0.1512 (103) -0.1512 (104) -0.1511 (105)
          -0.1512 (106)
 CRD 29=  -0.1830 ( 11) -0.1827 ( 12) -0.2895 ( 17)  0.6339 ( 18) -0.2904 ( 19)
           0.1576 ( 59) -0.3272 ( 60)  0.1584 ( 61)  0.1687 ( 68) -0.1702 ( 70)
          -0.1526 (107)  0.1862 (109) -0.1884 (110)  0.1504 (112)
 CRD 30=  -0.1841 ( 14) -0.1838 ( 16)  0.6337 ( 20) -0.2898 ( 21) -0.2895 ( 22)
          -0.3270 ( 62)  0.1581 ( 63)  0.1577 ( 64) -0.1697 ( 77)  0.1687 ( 78)
           0.1503 (114) -0.1881 (115)  0.1866 (117) -0.1519 (118)
 CRD 31=  -0.3423 ( 17)  0.3447 ( 19) -0.3131 ( 21)  0.3112 ( 22)  0.1808 ( 59)
          -0.1823 ( 61)  0.1652 ( 63) -0.1640 ( 64) -0.1834 ( 69)  0.1703 ( 79)
          -0.1056 ( 91) -0.1059 ( 93) -0.1060 ( 96) -0.1058 ( 97)  0.1056 (103)
           0.1053 (104)  0.1053 (105)  0.1050 (106) -0.2018 (108) -0.2017 (111)
           0.1890 (113)  0.1892 (116)
 CRD 32=  -0.3788 ( 17)  0.3770 ( 19)  0.3959 ( 21) -0.3970 ( 22)  0.2053 ( 59)
          -0.2044 ( 61) -0.2141 ( 63)  0.2146 ( 64) -0.1553 ( 69) -0.1688 ( 79)
          -0.1481 (108) -0.1482 (111) -0.1648 (113) -0.1649 (116)
 CRD 33=  -0.1529 (  5)  0.1522 (  6) -0.2005 ( 17)  0.1973 ( 19) -0.2126 ( 21)
           0.2150 ( 22)  0.1162 ( 59) -0.1145 ( 61)  0.1229 ( 63) -0.1241 ( 64)
           0.1070 ( 68)  0.1052 ( 70) -0.1077 ( 77) -0.1090 ( 78)  0.1006 ( 87)
           0.1007 ( 88) -0.1016 ( 89) -0.1013 ( 90)  0.1622 ( 91)  0.1624 ( 93)
           0.1626 ( 96)  0.1624 ( 97) -0.1624 (103) -0.1623 (104) -0.1621 (105)
          -0.1620 (106)  0.1471 (107)  0.1489 (109)  0.1470 (110)  0.1488 (112)
          -0.1511 (114) -0.1497 (115) -0.1510 (117) -0.1497 (118)
 CRD 34=   0.3206 (  1)  0.3209 (  2) -0.3796 (  5) -0.3794 (  6)  0.3213 (  8)
           0.3216 (  9) -0.1671 ( 11) -0.1665 ( 12) -0.1677 ( 14) -0.1671 ( 16)
           0.1045 ( 54) -0.1239 ( 55)  0.1048 ( 56)  0.1083 ( 94) -0.1082 ( 95)
          -0.1083 ( 99)  0.1083 (102)
 CRD 35=   0.3194 (  1)  0.3195 (  2) -0.3187 (  8) -0.3185 (  9) -0.2958 ( 11)
          -0.2949 ( 12)  0.2964 ( 14)  0.2955 ( 16)  0.1144 ( 54) -0.1141 ( 56)
          -0.1024 ( 57)  0.1027 ( 58) -0.1037 ( 91)  0.1032 ( 96) -0.1033 (103)
           0.1037 (106)
 CRD 36=  -0.3533 (  5) -0.3534 (  6)  0.3408 ( 11)  0.3405 ( 12)  0.3408 ( 14)
           0.3405 ( 16) -0.1422 ( 55)  0.1341 ( 57)  0.1342 ( 58)
 CRD 37=   0.2926 (  1)  0.2935 (  2) -0.2944 (  8) -0.2952 (  9)  0.2930 ( 11)
           0.2934 ( 12) -0.2924 ( 14) -0.2929 ( 16)  0.1316 ( 54) -0.1324 ( 56)
           0.1305 ( 57) -0.1304 ( 58)
 CRD 38=   0.2916 (  1)  0.2912 (  2)  0.3287 (  5)  0.3290 (  6)  0.2899 (  8)
           0.2898 (  9)  0.1714 ( 11)  0.1718 ( 12)  0.1696 ( 14)  0.1701 ( 16)
           0.1427 ( 54)  0.1615 ( 55)  0.1420 ( 56)  0.1148 ( 92) -0.1147 ( 98)
           0.1143 (100) -0.1146 (101)
 CRD 39=   0.1843 (  1) -0.1839 (  2)  0.1841 (  8) -0.1842 (  9) -0.1219 ( 66)
          -0.1218 ( 67)  0.1148 ( 68)  0.1146 ( 70)  0.1146 ( 77)  0.1147 ( 78)
          -0.1219 ( 81) -0.1218 ( 82)  0.1151 ( 91) -0.1583 ( 92)  0.1149 ( 93)
          -0.1582 ( 94) -0.1585 ( 95)  0.1148 ( 96)  0.1150 ( 97) -0.1583 ( 98)
          -0.1584 ( 99) -0.1582 (100) -0.1582 (101) -0.1581 (102)  0.1148 (103)
           0.1150 (104)  0.1150 (105)  0.1152 (106)  0.1617 (107)  0.1433 (108)
           0.1618 (109)  0.1618 (110)  0.1434 (111)  0.1619 (112)  0.1431 (113)
           0.1617 (114)  0.1616 (115)  0.1430 (116)  0.1616 (117)  0.1615 (118)
 CRD 40=  -0.2842 (  1)  0.2840 (  2) -0.3520 (  5)  0.3521 (  6)  0.2841 (  8)
          -0.2842 (  9) -0.1446 ( 11)  0.1446 ( 12)  0.1446 ( 14) -0.1446 ( 16)
           0.1544 ( 92)  0.1545 ( 94)  0.1543 ( 95)  0.1544 ( 98) -0.1544 ( 99)
          -0.1545 (100) -0.1544 (101) -0.1545 (102)
 CRD 41=  -0.1952 (  1)  0.1950 (  2) -0.1945 (  8)  0.1945 (  9) -0.2712 ( 11)
           0.2714 ( 12) -0.2676 ( 14)  0.2677 ( 16)  0.1061 ( 69)  0.1040 ( 79)
          -0.1188 ( 91) -0.1188 ( 93) -0.1190 ( 96) -0.1191 ( 97) -0.1176 (103)
          -0.1176 (104) -0.1173 (105) -0.1174 (106)  0.1464 (107)  0.1619 (108)
           0.1464 (109)  0.1463 (110)  0.1618 (111)  0.1463 (112)  0.1587 (113)
           0.1433 (114)  0.1433 (115)  0.1587 (116)  0.1433 (117)  0.1434 (118)
 CRD 42=   0.1045 (  5) -0.1046 (  6) -0.2115 ( 11)  0.2116 ( 12)  0.2159 ( 14)
          -0.2161 ( 16)  0.1259 ( 68)  0.1334 ( 69)  0.1259 ( 70) -0.1276 ( 77)
          -0.1276 ( 78) -0.1352 ( 79) -0.1050 ( 92) -0.1050 ( 94) -0.1048 ( 95)
          -0.1048 ( 98)  0.1043 ( 99)  0.1046 (100)  0.1044 (101)  0.1046 (102)
           0.1862 (107)  0.1936 (108)  0.1862 (109)  0.1862 (110)  0.1937 (111)
           0.1862 (112) -0.1965 (113) -0.1888 (114) -0.1888 (115) -0.1965 (116)
          -0.1888 (117) -0.1888 (118)
 CRD 43=   0.1548 ( 18) -0.1548 ( 20)  0.1105 ( 24) -0.1562 ( 26)  0.1106 ( 27)
          -0.1560 ( 28)  0.1441 ( 29) -0.1445 ( 30) -0.1442 ( 32)  0.1444 ( 34)
           0.1559 ( 35) -0.1106 ( 36) -0.1107 ( 38)  0.1562 ( 39)  0.1136 ( 41)
          -0.1482 ( 43) -0.1481 ( 44)  0.1481 ( 45)  0.1483 ( 46) -0.1138 ( 49)
          -0.1405 ( 50) -0.1404 ( 51)  0.1405 ( 52)  0.1406 ( 53) -0.1186 ( 59)
          -0.1185 ( 61)  0.1187 ( 63)  0.1187 ( 64)  0.1705 ( 91)  0.1756 ( 94)
          -0.1756 ( 95) -0.1707 ( 96)  0.1756 ( 99) -0.1757 (102)  0.1708 (103)
          -0.1706 (106)
 CRD 44=  -0.1255 (  3) -0.1256 (  7)  0.1337 ( 17)  0.2224 ( 18)  0.1338 ( 19)
           0.2221 ( 20)  0.1338 ( 21)  0.1338 ( 22)  0.1284 ( 24)  0.1285 ( 27)
           0.1283 ( 36)  0.1284 ( 38)  0.1460 ( 40)  0.1764 ( 41)  0.1460 ( 42)
           0.1461 ( 47)  0.1461 ( 48)  0.1765 ( 49) -0.1535 ( 50) -0.1534 ( 51)
          -0.1534 ( 52) -0.1535 ( 53) -0.1873 ( 59) -0.1162 ( 60) -0.1872 ( 61)
          -0.1164 ( 62) -0.1872 ( 63) -0.1872 ( 64) -0.1025 ( 72)  0.1027 ( 73)
           0.1027 ( 74) -0.1024 ( 76)  0.1537 ( 91) -0.1539 ( 96) -0.1537 (103)
           0.1535 (106)
 CRD 45=   0.1567 (  4) -0.1567 ( 10)  0.2465 ( 13) -0.2465 ( 15) -0.1595 ( 17)
          -0.1664 ( 18) -0.1595 ( 19)  0.1661 ( 20)  0.1594 ( 21)  0.1594 ( 22)
          -0.1331 ( 26) -0.1330 ( 28)  0.1329 ( 35)  0.1331 ( 39) -0.1616 ( 40)
          -0.1659 ( 41) -0.1616 ( 42) -0.1040 ( 43) -0.1037 ( 44)  0.1038 ( 45)
           0.1042 ( 46)  0.1616 ( 47)  0.1616 ( 48)  0.1659 ( 49)  0.1725 ( 59)
           0.1672 ( 60)  0.1724 ( 61) -0.1673 ( 62) -0.1723 ( 63) -0.1723 ( 64)
           0.1329 ( 94) -0.1332 ( 95)  0.1333 ( 99) -0.1330 (102)
 CRD 46=  -0.1833 (  3) -0.1833 (  7)  0.3301 ( 13)  0.3299 ( 15) -0.1565 ( 17)
          -0.1565 ( 19) -0.1563 ( 21) -0.1562 ( 22)  0.1272 ( 29)  0.1272 ( 30)
           0.1272 ( 32)  0.1273 ( 34) -0.1223 ( 40) -0.1120 ( 41) -0.1223 ( 42)
          -0.1254 ( 43) -0.1252 ( 44) -0.1252 ( 45) -0.1254 ( 46) -0.1223 ( 47)
          -0.1223 ( 48) -0.1119 ( 49)  0.1928 ( 60)  0.1927 ( 62)  0.1161 (107)
          -0.1166 (112) -0.1165 (114)  0.1160 (118)
 CRD 47=   0.1473 (  1) -0.1485 (  2)  0.1472 (  8) -0.1484 (  9)  0.2123 ( 11)
          -0.2115 ( 12)  0.2117 ( 14) -0.2116 ( 16)  0.1568 ( 17) -0.1580 ( 19)
          -0.1568 ( 21)  0.1572 ( 22)  0.1197 ( 59) -0.1197 ( 61) -0.1193 ( 63)
           0.1196 ( 64) -0.1179 ( 69) -0.1175 ( 79) -0.1621 ( 91) -0.1622 ( 93)
          -0.1610 ( 96) -0.1609 ( 97) -0.1608 (103) -0.1608 (104) -0.1619 (105)
          -0.1619 (106)  0.1571 (107)  0.1564 (109)  0.1558 (110)  0.1551 (112)
           0.1559 (114)  0.1556 (115)  0.1560 (117)  0.1557 (118)
 CRD 48=  -0.1551 (  3) -0.2230 (  4)  0.1553 (  7)  0.2228 ( 10)  0.2351 ( 13)
          -0.2354 ( 15) -0.1413 ( 17)  0.1315 ( 18) -0.1419 ( 19) -0.1311 ( 20)
           0.1426 ( 21)  0.1402 ( 22)  0.1402 ( 24)  0.1222 ( 26)  0.1402 ( 27)
           0.1220 ( 28) -0.1222 ( 35) -0.1405 ( 36) -0.1399 ( 38) -0.1220 ( 39)
          -0.1050 ( 57)  0.1047 ( 58)  0.1975 ( 60) -0.1974 ( 62)  0.2029 (107)
           0.1117 (108) -0.1124 (111) -0.2031 (112)  0.1125 (113)  0.2020 (114)
          -0.1115 (116) -0.2035 (118)
 CRD 49=  -0.1547 (  1)  0.1554 (  2) -0.1363 (  5)  0.1362 (  6)  0.1551 (  8)
          -0.1555 (  9) -0.1723 ( 11)  0.1721 ( 12)  0.1725 ( 14) -0.1725 ( 16)
          -0.1284 ( 17)  0.1283 ( 19) -0.1283 ( 21)  0.1286 ( 22)  0.1556 ( 91)
          -0.1470 ( 92)  0.1553 ( 93) -0.1473 ( 94) -0.1466 ( 95)  0.1547 ( 96)
           0.1550 ( 97) -0.1469 ( 98)  0.1468 ( 99)  0.1471 (100)  0.1470 (101)
           0.1473 (102) -0.1551 (103) -0.1552 (104) -0.1555 (105) -0.1556 (106)
          -0.1292 (107) -0.1293 (109) -0.1291 (110) -0.1292 (112)  0.1295 (114)
           0.1293 (115)  0.1295 (117)  0.1293 (118)
 CRD 50=   0.1193 (  1) -0.1175 (  2)  0.2471 (  5) -0.2463 (  6) -0.1201 (  8)
           0.1164 (  9) -0.1064 ( 11)  0.1057 ( 12)  0.1076 ( 14) -0.1050 ( 16)
          -0.1813 ( 17)  0.1800 ( 19) -0.1806 ( 21)  0.1810 ( 22) -0.1386 ( 59)
           0.1388 ( 61) -0.1396 ( 63)  0.1382 ( 64)  0.1271 ( 65)  0.2071 ( 69)
          -0.2072 ( 79) -0.1271 ( 80)  0.1522 ( 92)  0.1527 ( 94)  0.1540 ( 95)
           0.1545 ( 98) -0.1550 ( 99) -0.1524 (100) -0.1542 (101) -0.1516 (102)
           0.1033 (108) -0.1005 (109)  0.1033 (111) -0.1005 (112) -0.1041 (113)
          -0.1025 (116)  0.1008 (117)  0.1012 (118)
 CRD 51=  -0.1347 (  3)  0.1902 (  4) -0.1342 (  7)  0.1905 ( 10) -0.1049 ( 11)
          -0.1053 ( 12) -0.1041 ( 14) -0.1060 ( 16) -0.2077 ( 18) -0.2074 ( 20)
           0.1112 ( 29)  0.1122 ( 30)  0.1110 ( 32)  0.1122 ( 34) -0.1170 ( 54)
          -0.1170 ( 56)  0.1726 ( 57)  0.1725 ( 58) -0.1413 ( 60) -0.1414 ( 62)
           0.1064 ( 68) -0.1066 ( 70) -0.1067 ( 77)  0.1063 ( 78)  0.1046 ( 87)
          -0.1056 ( 88) -0.1051 ( 89)  0.1051 ( 90)  0.1596 ( 91) -0.1611 ( 96)
          -0.1606 (103)  0.1596 (106) -0.2011 (107)  0.2011 (112)  0.2018 (114)
          -0.2005 (118)
 CRD 52=  -0.1176 (  1) -0.1181 (  2) -0.1207 (  3)  0.2366 (  4)  0.1631 (  5)
           0.1637 (  6) -0.1194 (  7) -0.1176 (  8) -0.1190 (  9)  0.2367 ( 10)
          -0.1279 ( 13) -0.1292 ( 15)  0.1930 ( 54) -0.2668 ( 55)  0.1937 ( 56)
          -0.1206 ( 66)  0.1213 ( 67) -0.1205 ( 81)  0.1210 ( 82) -0.1234 ( 83)
           0.1227 ( 84) -0.1236 ( 85)  0.1231 ( 86)  0.2437 ( 94) -0.2439 ( 95)
          -0.2438 ( 99)  0.2448 (102)
 CRD 53=   0.2448 (  3) -0.2456 (  7)  0.1063 ( 11)  0.1078 ( 12) -0.2212 ( 13)
          -0.1064 ( 14)  0.2205 ( 15) -0.1078 ( 16)  0.1762 ( 18) -0.1767 ( 20)
           0.1483 ( 54) -0.1474 ( 56) -0.1743 ( 57)  0.1745 ( 58)  0.1095 ( 72)
           0.1089 ( 73) -0.1090 ( 74) -0.1092 ( 76) -0.1942 ( 91)  0.1942 ( 96)
          -0.1939 (103)  0.1939 (106)  0.1325 (107) -0.1342 (112)  0.1347 (114)
          -0.1333 (118)
 CRD 54=   0.1712 (  1) -0.1724 (  2)  0.1715 (  8) -0.1719 (  9) -0.1996 ( 17)
           0.2014 ( 19)  0.2011 ( 21) -0.2001 ( 22) -0.1031 ( 40) -0.1029 ( 48)
          -0.1484 ( 59)  0.1549 ( 61)  0.1547 ( 63) -0.1488 ( 64) -0.1221 ( 65)
           0.1990 ( 69)  0.1504 ( 71)  0.1504 ( 75)  0.1990 ( 79) -0.1221 ( 80)
           0.1988 (108)  0.1976 (111)  0.1977 (113)  0.1986 (116)
 CRD 55=  -0.1847 (  4) -0.1847 ( 10)  0.2385 ( 13)  0.2388 ( 15) -0.1571 ( 18)
          -0.1572 ( 20)  0.1132 ( 24)  0.1104 ( 27) -0.1034 ( 30) -0.1033 ( 34)
           0.1132 ( 36)  0.1104 ( 38)  0.1057 ( 43)  0.1059 ( 46) -0.1378 ( 50)
          -0.1305 ( 51) -0.1306 ( 52) -0.1378 ( 53) -0.1223 ( 55) -0.1200 ( 72)
           0.1128 ( 73)  0.1126 ( 74) -0.1201 ( 76) -0.1068 ( 92) -0.1968 ( 93)
           0.2040 ( 97)  0.1012 ( 98) -0.1070 (100)  0.1013 (101)  0.2042 (104)
          -0.1970 (105)  0.1172 (109) -0.1129 (110) -0.1129 (115)  0.1170 (117)
 CRD 56=  -0.1081 (  1) -0.1091 (  2) -0.1554 (  3)  0.1543 (  4)  0.1557 (  7)
           0.1073 (  8)  0.1097 (  9) -0.1543 ( 10) -0.1230 ( 18)  0.1231 ( 20)
           0.1438 ( 26)  0.1432 ( 28)  0.1018 ( 31) -0.1019 ( 33) -0.1434 ( 35)
          -0.1437 ( 39) -0.1019 ( 43) -0.1014 ( 44)  0.1010 ( 45)  0.1021 ( 46)
           0.1754 ( 54) -0.1752 ( 56) -0.1042 ( 60)  0.1043 ( 62)  0.1469 ( 66)
          -0.1471 ( 67) -0.1472 ( 81)  0.1470 ( 82)  0.2312 ( 92) -0.2307 ( 98)
          -0.2312 (100)  0.2301 (101)  0.1357 (109) -0.1363 (110)  0.1365 (115)
          -0.1354 (117)
 CRD 57=  -0.2745 (  3)  0.1908 (  4)  0.2744 (  7) -0.1904 ( 10) -0.1517 ( 13)
           0.1516 ( 15)  0.1478 ( 18) -0.1476 ( 20) -0.1131 ( 24) -0.1132 ( 27)
           0.1107 ( 29) -0.1102 ( 30) -0.1105 ( 32)  0.1102 ( 34)  0.1129 ( 36)
           0.1130 ( 38)  0.1091 ( 50)  0.1100 ( 51) -0.1099 ( 52) -0.1089 ( 53)
           0.1073 ( 87) -0.1080 ( 88)  0.1080 ( 89) -0.1072 ( 90)  0.1754 ( 93)
          -0.1751 ( 97)  0.1750 (104) -0.1753 (105) -0.1560 (109)  0.1564 (110)
          -0.1562 (115)  0.1557 (117)
 CRD 58=   0.1205 (  3) -0.1236 (  5) -0.1233 (  6)  0.1205 (  7)  0.1054 ( 11)
           0.1034 ( 12)  0.1054 ( 14)  0.1035 ( 16) -0.1411 ( 18) -0.1415 ( 20)
           0.1196 ( 23) -0.1343 ( 25)  0.1197 ( 37)  0.1282 ( 41)  0.1284 ( 49)
           0.1941 ( 55) -0.1647 ( 57) -0.1648 ( 58) -0.1173 ( 60) -0.1177 ( 62)
           0.1094 ( 68) -0.1118 ( 70) -0.1120 ( 77)  0.1097 ( 78)  0.1103 ( 83)
          -0.1110 ( 84)  0.1104 ( 85) -0.1109 ( 86)  0.1616 ( 92) -0.1613 ( 98)
           0.1618 (100) -0.1614 (101)  0.1191 (108)  0.2274 (109) -0.2278 (110)
          -0.1148 (111) -0.1149 (113) -0.2282 (115)  0.1192 (116)  0.2277 (117)
 CRD 59=   0.1535 (  5) -0.1538 (  6) -0.1295 ( 11)  0.1382 ( 12)  0.1297 ( 14)
          -0.1383 ( 16)  0.1507 ( 17) -0.1456 ( 19)  0.1457 ( 21) -0.1508 ( 22)
           0.1150 ( 40) -0.1187 ( 42)  0.1188 ( 47) -0.1151 ( 48) -0.1154 ( 50)
           0.1146 ( 51) -0.1147 ( 52)  0.1155 ( 53)  0.1118 ( 59) -0.1091 ( 61)
           0.1091 ( 63) -0.1120 ( 64)  0.1148 ( 65)  0.1291 ( 66)  0.1326 ( 67)
           0.1518 ( 68)  0.1446 ( 70) -0.1901 ( 71)  0.1901 ( 75) -0.1447 ( 77)
          -0.1521 ( 78) -0.1147 ( 80) -0.1292 ( 81) -0.1325 ( 82) -0.1162 ( 87)
          -0.1209 ( 88)  0.1211 ( 89)  0.1164 ( 90) -0.2090 (108) -0.2176 (111)
           0.2176 (113)  0.2091 (116)
 CRD 60=   0.1730 (  4) -0.1732 ( 10) -0.1231 ( 11) -0.1134 ( 12)  0.1104 ( 13)
           0.1230 ( 14) -0.1104 ( 15)  0.1135 ( 16) -0.1686 ( 23)  0.1258 ( 31)
          -0.1257 ( 33)  0.1687 ( 37) -0.1081 ( 41)  0.1081 ( 49)  0.1388 ( 54)
          -0.1390 ( 56)  0.1839 ( 57) -0.1839 ( 58) -0.1104 ( 72) -0.1109 ( 73)
           0.1110 ( 74)  0.1104 ( 76) -0.2017 ( 93)  0.2059 ( 97) -0.2059 (104)
           0.2016 (105) -0.1187 (108) -0.1900 (109)  0.1898 (110)  0.1040 (111)
          -0.1040 (113) -0.1899 (115)  0.1188 (116)  0.1901 (117)
 CRD 61=  -0.1045 (  1) -0.1035 (  2)  0.1790 (  3)  0.1514 (  4) -0.1136 (  5)
          -0.1134 (  6)  0.1788 (  7) -0.1045 (  8) -0.1033 (  9)  0.1514 ( 10)
          -0.1238 ( 23) -0.1848 ( 25) -0.1681 ( 31) -0.1682 ( 33) -0.1236 ( 37)
           0.1598 ( 54)  0.1746 ( 55)  0.1597 ( 56)  0.1173 ( 57)  0.1171 ( 58)
          -0.1034 ( 66)  0.1033 ( 67) -0.1031 ( 81)  0.1036 ( 82)  0.1098 ( 83)
          -0.1086 ( 84)  0.1100 ( 85) -0.1084 ( 86)  0.2123 ( 92) -0.1754 ( 93)
           0.1754 ( 97) -0.2128 ( 98)  0.2124 (100) -0.2128 (101)  0.1751 (104)
          -0.1751 (105) -0.1096 (109)  0.1098 (110)  0.1097 (115) -0.1095 (117)
 CRD 62=   0.1176 (  1) -0.1187 (  2)  0.1176 (  8) -0.1189 (  9) -0.1418 ( 11)
           0.1421 ( 12) -0.1417 ( 14)  0.1420 ( 16) -0.1138 ( 24)  0.1137 ( 27)
          -0.1138 ( 36)  0.1137 ( 38) -0.1077 ( 43)  0.1079 ( 44)  0.1079 ( 45)
          -0.1076 ( 46) -0.1561 ( 65)  0.1856 ( 68)  0.1850 ( 70)  0.1587 ( 72)
           0.1584 ( 73)  0.1583 ( 74)  0.1588 ( 76)  0.1849 ( 77)  0.1856 ( 78)
          -0.1562 ( 80) -0.1323 ( 83) -0.1341 ( 84) -0.1324 ( 85) -0.1343 ( 86)
          -0.1931 ( 87) -0.1920 ( 88) -0.1919 ( 89) -0.1932 ( 90) -0.1553 (108)
          -0.1555 (111) -0.1553 (113) -0.1551 (116)
 CRD 63=  -0.1254 (  1)  0.1250 (  2)  0.1407 (  5) -0.1409 (  6)  0.1253 (  8)
          -0.1250 (  9)  0.1157 ( 26) -0.1162 ( 28)  0.1133 ( 29)  0.1127 ( 30)
          -0.1133 ( 32) -0.1127 ( 34)  0.1162 ( 35) -0.1157 ( 39)  0.2186 ( 66)
           0.2179 ( 67) -0.1243 ( 68) -0.1239 ( 70) -0.1891 ( 72)  0.1883 ( 73)
          -0.1883 ( 74)  0.1891 ( 76)  0.1238 ( 77)  0.1242 ( 78) -0.2187 ( 81)
          -0.2179 ( 82)  0.1986 ( 83)  0.1988 ( 84) -0.1984 ( 85) -0.1989 ( 86)
           0.1405 ( 87)  0.1407 ( 88) -0.1405 ( 89) -0.1405 ( 90)

 THE DETERMINANT OF THE G MATRIX IS 10**(   -20)


                     --------------------
                     INTERNAL COORDINATES
                     --------------------

                 - - ATOMS - -         COORDINATE      COORDINATE
 NO.   TYPE    I  J  K  L  M  N        (BOHR,RAD)       (ANG,DEG)
 ----------------------------------------------------------------
   1 STRETCH   1  8                     2.0727693       1.0968624
   2 STRETCH   1  9                     2.0725278       1.0967346
   3 STRETCH   1  2                     2.8908623       1.5297786
   4 STRETCH   1  4                     2.8879370       1.5282305
   5 STRETCH   2 11                     2.0726186       1.0967826
   6 STRETCH   2 10                     2.0726982       1.0968248
   7 STRETCH   2  3                     2.8905412       1.5296086
   8 STRETCH   3 13                     2.0726375       1.0967926
   9 STRETCH   3 12                     2.0727714       1.0968635
  10 STRETCH   3  5                     2.8882628       1.5284030
  11 STRETCH   4 15                     2.0713887       1.0961318
  12 STRETCH   4 14                     2.0713456       1.0961090
  13 STRETCH   4  6                     2.8725007       1.5200620
  14 STRETCH   5 16                     2.0715277       1.0962053
  15 STRETCH   5  7                     2.8730127       1.5203329
  16 STRETCH   5 17                     2.0714558       1.0961673
  17 STRETCH   6 20                     2.0695857       1.0951777
  18 STRETCH   6 19                     2.0688236       1.0947744
  19 STRETCH   6 18                     2.0692004       1.0949738
  20 STRETCH   7 23                     2.0684581       1.0945809
  21 STRETCH   7 22                     2.0685546       1.0946320
  22 STRETCH   7 21                     2.0687223       1.0947208
  23 BEND      1  4  6                  1.9457929     111.4857205
  24 BEND      1  4 14                  1.9174048     109.8592050
  25 BEND      1  2  3                  1.9430919     111.3309648
  26 BEND      1  2 10                  1.9124680     109.5763443
  27 BEND      1  4 15                  1.9180206     109.8944858
  28 BEND      1  2 11                  1.9120023     109.5496606
  29 BEND      2  1  8                  1.9117519     109.5353166
  30 BEND      2  3 12                  1.9127564     109.5928676
  31 BEND      2  3  5                  1.9431682     111.3353344
  32 BEND      2  3 13                  1.9120047     109.5497985
  33 BEND      2  1  4                  1.9431326     111.3332944
  34 BEND      2  1  9                  1.9126272     109.5854635
  35 BEND      3  2 10                  1.9118995     109.5437750
  36 BEND      3  5 17                  1.9172821     109.8521724
  37 BEND      3  5  7                  1.9458125     111.4868455
  38 BEND      3  5 16                  1.9178409     109.8841875
  39 BEND      3  2 11                  1.9127513     109.5925769
  40 BEND      4  6 18                  1.9378136     111.0285408
  41 BEND      4  6 19                  1.9250201     110.2955281
  42 BEND      4  6 20                  1.9373392     111.0013624
  43 BEND      4  1  8                  1.9127535     109.5927036
  44 BEND      4  1  9                  1.9124516     109.5754027
  45 BEND      5  3 12                  1.9120748     109.5538150
  46 BEND      5  3 13                  1.9127060     109.5899785
  47 BEND      5  7 21                  1.9372090     110.9939023
  48 BEND      5  7 22                  1.9376348     111.0182959
  49 BEND      5  7 23                  1.9244659     110.2637756
  50 BEND      6  4 14                  1.9048482     109.1397606
  51 BEND      6  4 15                  1.9048072     109.1374135
  52 BEND      7  5 16                  1.9048934     109.1423525
  53 BEND      7  5 17                  1.9049701     109.1467444
  54 BEND      8  1  9                  1.8696599     107.1236222
  55 BEND     10  2 11                  1.8701847     107.1536893
  56 BEND     12  3 13                  1.8696656     107.1239457
  57 BEND     14  4 15                  1.8713801     107.2221797
  58 BEND     16  5 17                  1.8714602     107.2267728
  59 BEND     18  6 19                  1.8861444     108.0681133
  60 BEND     18  6 20                  1.8899042     108.2835345
  61 BEND     19  6 20                  1.8859128     108.0548418
  62 BEND     21  7 22                  1.8903895     108.3113371
  63 BEND     21  7 23                  1.8861494     108.0684021
  64 BEND     22  7 23                  1.8863217     108.0782733
  65 TORSION   1  2  3  5              -3.1347084    -179.6055630
  66 TORSION   1  2  3 12              -1.0165575     -58.2444533
  67 TORSION   1  2  3 13               1.0300391      59.0168945
  68 TORSION   1  4  6 18              -1.0489428     -60.0999930
  69 TORSION   1  4  6 19              -3.1392365    -179.8650025
  70 TORSION   1  4  6 20               1.0542510      60.4041305
  71 TORSION   2  1  4  6              -3.1359562    -179.6770547
  72 TORSION   2  1  4 15              -1.0216715     -58.5374657
  73 TORSION   2  3  5 17               1.0339703      59.2421363
  74 TORSION   2  1  4 14               1.0333104      59.2043228
  75 TORSION   2  3  5  7              -3.1352128    -179.6344603
  76 TORSION   2  3  5 16              -1.0209283     -58.4948851
  77 TORSION   3  5  7 21               1.0553768      60.4686375
  78 TORSION   3  5  7 22              -1.0482229     -60.0587461
  79 TORSION   3  5  7 23              -3.1382606    -179.8090856
  80 TORSION   3  2  1  4              -3.1353934    -179.6448093
  81 TORSION   3  2  1  9              -1.0168791     -58.2628811
  82 TORSION   3  2  1  8               1.0294880      58.9853159
  83 TORSION   4  1  2 11               1.0293486      58.9773328
  84 TORSION   4  1  2 10              -1.0177071     -58.3103205
  85 TORSION   5  3  2 10               1.0304590      59.0409488
  86 TORSION   5  3  2 11              -1.0167020     -58.2527348
  87 TORSION   6  4  1  8              -1.0182365     -58.3406522
  88 TORSION   6  4  1  9               1.0286124      58.9351509
  89 TORSION   7  5  3 12               1.0294241      58.9816574
  90 TORSION   7  5  3 13              -1.0171840     -58.2803495
  91 TORSION   8  1  4 14              -3.1321552    -179.4592747
  92 TORSION   8  1  2 11              -1.0889553     -62.3925419
  93 TORSION   8  1  4 15               1.0960482      62.7989368
  94 TORSION   8  1  2 10              -3.1360110    -179.6801953
  95 TORSION   9  1  2 11              -3.1353224    -179.6407390
  96 TORSION   9  1  4 15              -3.1402882    -179.9252601
  97 TORSION   9  1  4 14              -1.0853063     -62.1834716
  98 TORSION   9  1  2 10               1.1008072      63.0716077
  99 TORSION  10  2  3 12              -3.1345754    -179.5979416
 100 TORSION  10  2  3 13              -1.0879788     -62.3365938
 101 TORSION  11  2  3 12               1.1014489      63.1083748
 102 TORSION  11  2  3 13              -3.1351398    -179.6302773
 103 TORSION  12  3  5 16              -3.1394767    -179.8787674
 104 TORSION  12  3  5 17              -1.0845781     -62.1417460
 105 TORSION  13  3  5 16               1.0971005      62.8592257
 106 TORSION  13  3  5 17              -3.1311862    -179.4037529
 107 TORSION  14  4  6 20              -3.1077105    -178.0586938
 108 TORSION  14  4  6 19              -1.0180126     -58.3278268
 109 TORSION  14  4  6 18               1.0722811      61.4371826
 110 TORSION  15  4  6 20              -1.0677183     -61.1757543
 111 TORSION  15  4  6 19               1.0219795      58.5551127
 112 TORSION  15  4  6 18               3.1122733     178.3201222
 113 TORSION  16  5  7 23               1.0231102      58.6198942
 114 TORSION  16  5  7 22               3.1131479     178.3702337
 115 TORSION  16  5  7 21              -1.0664378     -61.1023827
 116 TORSION  17  5  7 23              -1.0170958     -58.2752954
 117 TORSION  17  5  7 22               1.0729419      61.4750441
 118 TORSION  17  5  7 21              -3.1066437    -177.9975723

     ------------------------------------------
     THE POINT GROUP IS C1 , NAXIS= 1, ORDER= 1
     ------------------------------------------

     DIMENSIONS OF THE SYMMETRY SUBSPACES ARE
 A   =  229

 ..... DONE SETTING UP THE RUN .....
 STEP CPU TIME =     0.02 TOTAL CPU TIME =        0.0 (    0.0 MIN)
 TOTAL WALL CLOCK TIME=        0.0 SECONDS, CPU UTILIZATION IS 100.00%


          -----------------------------
          STATIONARY POINT LOCATION RUN
          -----------------------------

 OBTAINING INITIAL HESSIAN, HESS=GUESS   
 DIAGONAL GUESS HESSIAN IN INTERNAL COORDS IS
     1  0.3418     2  0.3419     3  0.3673     4  0.3684     5  0.3418
     6  0.3418     7  0.3674     8  0.3418     9  0.3418    10  0.3683
    11  0.3423    12  0.3423    13  0.3743    14  0.3422    15  0.3741
    16  0.3422    17  0.3429    18  0.3432    19  0.3430    20  0.3433
    21  0.3433    22  0.3432    23  0.2493    24  0.2238    25  0.2485
    26  0.2237    27  0.2238    28  0.2237    29  0.2237    30  0.2237
    31  0.2486    32  0.2237    33  0.2486    34  0.2237    35  0.2237
    36  0.2238    37  0.2493    38  0.2238    39  0.2237    40  0.2244
    41  0.2244    42  0.2244    43  0.2238    44  0.2238    45  0.2238
    46  0.2238    47  0.2244    48  0.2244    49  0.2244    50  0.2243
    51  0.2243    52  0.2243    53  0.2243    54  0.2027    55  0.2027
    56  0.2027    57  0.2028    58  0.2028    59  0.2029    60  0.2029
    61  0.2029    62  0.2029    63  0.2029    64  0.2029    65  0.2500
    66  0.2500    67  0.2500    68  0.2500    69  0.2500    70  0.2500
    71  0.2500    72  0.2500    73  0.2500    74  0.2500    75  0.2500
    76  0.2500    77  0.2500    78  0.2500    79  0.2500    80  0.2500
    81  0.2500    82  0.2500    83  0.2500    84  0.2500    85  0.2500
    86  0.2500    87  0.2500    88  0.2500    89  0.2500    90  0.2500
    91  0.2500    92  0.2500    93  0.2500    94  0.2500    95  0.2500
    96  0.2500    97  0.2500    98  0.2500    99  0.2500   100  0.2500
   101  0.2500   102  0.2500   103  0.2500   104  0.2500   105  0.2500
   106  0.2500   107  0.2500   108  0.2500   109  0.2500   110  0.2500
   111  0.2500   112  0.2500   113  0.2500   114  0.2500   115  0.2500
   116  0.2500   117  0.2500   118  0.2500
 TRANSFORMING HESSIAN TO SYMMETRY COORDINATES

          PARAMETERS CONTROLLING GEOMETRY SEARCH ARE
          METHOD =QA                  UPHESS =BFGS    
          NNEG   =         0          NFRZ   =         3
          NSTEP  =        50          IFOLOW =         1
          HESS   =GUESS               RESTAR =         F
          IHREP  =         0          HSSEND =         F
          NPRT   =         0          NPUN   =         0
          OPTTOL = 5.000E-04          RMIN   = 1.500E-03
          RMAX   = 1.000E-01          RLIM   = 7.000E-02
          DXMAX  = 3.000E-01          PURIFY =         F
          MOVIE  =         F          TRUPD  =         T
          TRMAX  = 5.000E-01          TRMIN  = 5.000E-02
          ITBMAT =         5          STPT   =         F
          STSTEP = 1.000E-02          PROJCT=          F
          FROZEN COORD(S)=   1   2   3


      ***** EQUILIBRIUM GEOMETRY LOCATED *****
            (SUBJECT TO   3 CONSTRAINT(S))
 COORDINATES OF ALL ATOMS ARE (ANGS)
   ATOM   CHARGE       X              Y              Z
 ------------------------------------------------------------
 C           6.0   4.9182228206   1.1141190829   1.6163826943
 C           6.0   3.6900225694   1.8695993825   1.1356096169
 C           6.0   2.3888145567   1.1999776165   1.5465164159
 C           6.0   6.2165479177   1.7959879407   1.2067929442
 C           6.0   1.1643390441   1.9588164349   1.0533959553
 C           6.0   7.4428630358   1.0302224174   1.6854011096
 C           6.0  -0.1356692429   1.2871054418   1.4754330089
 H           1.0   4.8978871728   0.0999463393   1.2176646289
 H           1.0   4.8829511796   1.0197103642   2.7016535452
 H           1.0   3.7135207949   2.8848091594   1.5304372468
 H           1.0   3.7230625653   1.9581217272   0.0501751871
 H           1.0   2.3674710600   0.1819566534   1.1577432395
 H           1.0   2.3525590509   1.1162630842   2.6326177916
 H           1.0   6.2280962616   2.8075598062   1.6096479341
 H           1.0   6.2384157571   1.8945196496   0.1225623178
 H           1.0   1.1996913315   2.9769549805   1.4379608303
 H           1.0   1.2086285736   2.0363112335  -0.0318405174
 H           1.0   7.4365548727   0.9417946793   2.7690834026
 H           1.0   8.3630205139   1.5246339581   1.3907115406
 H           1.0   7.4490218098   0.0252241484   1.2705134593
 H           1.0  -0.1969730628   1.2253639660   2.5592299065
 H           1.0  -0.1853468982   0.2746749102   1.0820571239
 H           1.0  -1.0024362909   1.8332324704   1.1170646231


                     --------------------
                     INTERNAL COORDINATES
                     --------------------

                 - - ATOMS - -         COORDINATE      COORDINATE
 NO.   TYPE    I  J  K  L  M  N        (BOHR,RAD)       (ANG,DEG)
 ----------------------------------------------------------------
   1 STRETCH   1  8                     2.0596591       1.0899248
   2 STRETCH   1  9                     2.0596886       1.0899403
   3 STRETCH   1  2                     2.8723643       1.5199898
   4 STRETCH   1  4                     2.8773255       1.5226152
   5 STRETCH   2 11                     2.0589306       1.0895392
   6 STRETCH   2 10                     2.0589273       1.0895375
   7 STRETCH   2  3                     2.8723711       1.5199934
   8 STRETCH   3 13                     2.0596616       1.0899260
   9 STRETCH   3 12                     2.0596859       1.0899389
  10 STRETCH   3  5                     2.8773177       1.5226111
  11 STRETCH   4 15                     2.0577569       1.0889182
  12 STRETCH   4 14                     2.0577226       1.0889000
  13 STRETCH   4  6                     2.8779177       1.5229286
  14 STRETCH   5 16                     2.0577598       1.0889197
  15 STRETCH   5  7                     2.8779308       1.5229355
  16 STRETCH   5 17                     2.0577244       1.0889009
  17 STRETCH   6 20                     2.0546729       1.0872862
  18 STRETCH   6 19                     2.0510053       1.0853453
  19 STRETCH   6 18                     2.0547037       1.0873024
  20 STRETCH   7 23                     2.0509994       1.0853422
  21 STRETCH   7 22                     2.0547049       1.0873031
  22 STRETCH   7 21                     2.0546683       1.0872837
  23 BEND      1  4  6                  1.9572447     112.1418586
  24 BEND      1  4 14                  1.9023856     108.9986667
  25 BEND      1  2  3                  1.9684492     112.7838301
  26 BEND      1  2 10                  1.9082385     109.3340120
  27 BEND      1  4 15                  1.9023285     108.9953929
  28 BEND      1  2 11                  1.9081463     109.3287308
  29 BEND      2  1  8                  1.9089010     109.3719698
  30 BEND      2  3 12                  1.9090193     109.3787515
  31 BEND      2  3  5                  1.9620315     112.4161271
  32 BEND      2  3 13                  1.9089004     109.3719388
  33 BEND      2  1  4                  1.9620357     112.4163650
  34 BEND      2  1  9                  1.9090584     109.3809913
  35 BEND      3  2 10                  1.9081464     109.3287333
  36 BEND      3  5 17                  1.9023731     108.9979480
  37 BEND      3  5  7                  1.9572541     112.1423971
  38 BEND      3  5 16                  1.9023361     108.9958288
  39 BEND      3  2 11                  1.9082325     109.3336688
  40 BEND      4  6 18                  1.9277737     110.4532972
  41 BEND      4  6 19                  1.9479726     111.6106091
  42 BEND      4  6 20                  1.9277398     110.4513527
  43 BEND      4  1  8                  1.9115573     109.5241664
  44 BEND      4  1  9                  1.9115906     109.5260734
  45 BEND      5  3 12                  1.9115811     109.5255318
  46 BEND      5  3 13                  1.9116131     109.5273628
  47 BEND      5  7 21                  1.9277346     110.4510579
  48 BEND      5  7 22                  1.9277618     110.4526169
  49 BEND      5  7 23                  1.9479467     111.6091242
  50 BEND      6  4 14                  1.9201686     110.0175574
  51 BEND      6  4 15                  1.9200994     110.0135939
  52 BEND      7  5 16                  1.9200944     110.0133062
  53 BEND      7  5 17                  1.9201574     110.0169150
  54 BEND      8  1  9                  1.8577716     106.4424733
  55 BEND     10  2 11                  1.8594448     106.5383370
  56 BEND     12  3 13                  1.8577691     106.4423267
  57 BEND     14  4 15                  1.8588634     106.5050279
  58 BEND     16  5 17                  1.8588754     106.5057141
  59 BEND     18  6 19                  1.8887032     108.2147229
  60 BEND     18  6 20                  1.8809140     107.7684345
  61 BEND     19  6 20                  1.8887782     108.2190210
  62 BEND     21  7 22                  1.8809231     107.7689557
  63 BEND     21  7 23                  1.8888053     108.2205726
  64 BEND     22  7 23                  1.8887121     108.2152343
  65 TORSION   1  2  3  5              -3.1354091    -179.6457098
  66 TORSION   1  2  3 12              -1.0079555     -57.7515984
  67 TORSION   1  2  3 13               1.0203657      58.4626489
  68 TORSION   1  4  6 18              -1.0375215     -59.4456037
  69 TORSION   1  4  6 19              -3.1395283    -179.8817190
  70 TORSION   1  4  6 20               1.0415785      59.6780492
  71 TORSION   2  1  4  6              -3.1364581    -179.7058116
  72 TORSION   2  1  4 15              -1.0060646     -57.6432578
  73 TORSION   2  3  5 17               1.0169542      58.2671844
  74 TORSION   2  1  4 14               1.0162064      58.2243388
  75 TORSION   2  3  5  7              -3.1357270    -179.6639235
  76 TORSION   2  3  5 16              -1.0053284     -57.6010748
  77 TORSION   3  5  7 21               1.0424749      59.7294103
  78 TORSION   3  5  7 22              -1.0366256     -59.3942711
  79 TORSION   3  5  7 23              -3.1386183    -179.8295836
  80 TORSION   3  2  1  4              -3.1361716    -179.6893989
  81 TORSION   3  2  1  9              -1.0086757     -57.7928599
  82 TORSION   3  2  1  8               1.0196710      58.4228468
  83 TORSION   4  1  2 11               1.0201322      58.4492721
  84 TORSION   4  1  2 10              -1.0093345     -57.8306094
  85 TORSION   5  3  2 10               1.0208871      58.4925210
  86 TORSION   5  3  2 11              -1.0085763     -57.7871682
  87 TORSION   6  4  1  8              -1.0106256     -57.9045818
  88 TORSION   6  4  1  9               1.0206706      58.4801195
  89 TORSION   7  5  3 12               1.0214610      58.5254035
  90 TORSION   7  5  3 13              -1.0098587     -57.8606390
  91 TORSION   8  1  4 14              -3.1411464    -179.9744313
  92 TORSION   8  1  2 11              -1.1072104     -63.4384822
  93 TORSION   8  1  4 15               1.1197679      64.1579720
  94 TORSION   8  1  2 10              -3.1366772    -179.7183637
  95 TORSION   9  1  2 11              -3.1355571    -179.6541889
  96 TORSION   9  1  4 15              -3.1321212    -179.4573267
  97 TORSION   9  1  4 14              -1.1098502     -63.5897301
  98 TORSION   9  1  2 10               1.1181614      64.0659296
  99 TORSION  10  2  3 12              -3.1348446    -179.6133676
 100 TORSION  10  2  3 13              -1.1065234     -63.3991203
 101 TORSION  11  2  3 12               1.1188772      64.1069432
 102 TORSION  11  2  3 13              -3.1359868    -179.6788094
 103 TORSION  12  3  5 16              -3.1313257    -179.4117477
 104 TORSION  12  3  5 17              -1.1090431     -63.5434886
 105 TORSION  13  3  5 16               1.1205399      64.2022098
 106 TORSION  13  3  5 17              -3.1403627    -179.9295311
 107 TORSION  14  4  6 20              -3.1212558    -178.8347852
 108 TORSION  14  4  6 19              -1.0191772     -58.3945535
 109 TORSION  14  4  6 18               1.0828295      62.0415618
 110 TORSION  15  4  6 20              -1.0786514     -61.8021701
 111 TORSION  15  4  6 19               1.0234272      58.6380616
 112 TORSION  15  4  6 18               3.1254340     179.0741769
 113 TORSION  16  5  7 23               1.0243246      58.6894790
 114 TORSION  16  5  7 22               3.1263174     179.1247916
 115 TORSION  16  5  7 21              -1.0777675     -61.7515271
 116 TORSION  17  5  7 23              -1.0182848     -58.3434195
 117 TORSION  17  5  7 22               1.0837080      62.0918931
 118 TORSION  17  5  7 21              -3.1203769    -178.7844256

          INTERNUCLEAR DISTANCES (ANGS.)


 =====================================================
   GAMESS/COSab RESULTS
 =====================================================

   Dielectric Constant                  = INFTY
   Basic Grid Size                      =                 1082
   Number of Segments                   =                   92
   Number of Segments located on spheres=                  273
   Number of Segments of the cavity     =                  815
   Solvent Radius (rsolv)               = 1.40
   Outlying Charge Error Method         = double cavity

 =====================================================

  Total solvated Energy (a.u.)          =  -274.4726830908
  Total Energy corrected (a.u.)         =  -274.4725779651

  Outlying charge effect (a.u.)         =     0.0001051258
  Outlying charge effect (kcal/mol)     =     0.0659674742

  Dielectric Energy (a.u.)              =    -0.0013054663
  Dielectric energy corr. (a.u.)        =    -0.0012003405

  Sum of polarization charges           =     0.0321622727
  Sum of polarization charges(cor.)     =    -0.0321622727

  Total surface area of cavity (A**2)   =  174.44
  Total volume of cavity (A**3)         =  165.75

 =====================================================
 NPS=                   815
NR.  ATOM  (X, Y, Z)(a.u.)                  CHARGE(e)  AREA(A**2) SIGMA(e/A**2)
   1   1   8.132101  -0.768774   5.216291   0.001519   0.325193   0.004671
   2   1   9.302193   4.693753   5.808505   0.000198   0.092912   0.002129
   3   1   9.764587   4.350962   6.057881   0.000074   0.046456   0.001582
   4   1   8.339885  -1.249393   4.510284   0.001448   0.278737   0.005196
   5   1   9.045768   0.611318  -0.408203   0.000303   0.139368   0.002172
   6   1  10.280112  -0.826938   5.225591   0.001138   0.232280   0.004900
   7   1   9.330690  -1.016076   5.185115   0.001990   0.325193   0.006120
   8   1   8.982516   4.509401   5.954136   0.000105   0.046456   0.002265
   9   1   9.998332  -1.295755   4.544692   0.000670   0.139368   0.004809
  10   1   9.606716   0.593328  -0.395162   0.000113   0.046456   0.002436
  11   2   6.127816   6.464767  -0.084386   0.001518   0.325193   0.004667
  12   2   6.968745   0.934128  -0.598096   0.000212   0.092912   0.002279
  13   2   6.451883   6.919033   0.549905   0.001273   0.232280   0.005481
  14   2   6.625838   5.059678   5.585894   0.000303   0.139368   0.002174
  15   2   8.272022   6.382215   0.029565   0.001151   0.232280   0.004956
  16   2   7.336306   6.633291   0.015098   0.002001   0.325193   0.006154
  17   2   6.670710   1.138174  -0.762192   0.000105   0.046456   0.002256
  18   2   7.983157   6.872306   0.692272   0.000668   0.139368   0.004795
  19   2   7.186583   5.040855   5.605052   0.000113   0.046456   0.002437
  20   3   3.346790  -0.583712   5.111405   0.001512   0.325193   0.004650
  21   3   4.523481   4.882847   5.651006   0.000198   0.092912   0.002127
  22   3   4.985236   4.541922   5.904096   0.000073   0.046456   0.001568
  23   3   3.554506  -1.071492   4.410306   0.001444   0.278737   0.005182
  24   3   4.266649   0.740029  -0.525610   0.000304   0.139368   0.002179
  25   3   5.494716  -0.644543   5.122985   0.001152   0.232280   0.004958
  26   3   4.545083  -0.832848   5.083607   0.001989   0.325193   0.006117
  27   3   4.203452   4.700342   5.798181   0.000106   0.046456   0.002271
  28   3   5.212864  -1.119647   4.446487   0.000670   0.139368   0.004806
  29   3   4.827563   0.721446  -0.511947   0.000113   0.046456   0.002431
  30   4  14.295009   5.680456   0.678471   0.000557   0.232280   0.002397
  31   4  10.898484   6.379368   0.124025   0.001241   0.278737   0.004451
  32   4  11.758080   0.817973  -0.485094   0.000187   0.092912   0.002014
  33   4  12.248644   1.137787  -0.709969   0.000076   0.046456   0.001627
  34   4  11.160250   6.784576   0.717568   0.001180   0.232280   0.005079
  35   4  13.950372   6.371388   1.527785   0.001396   0.418105   0.003339
  36   4  11.408083   4.886673   5.736052   0.000285   0.139368   0.002045
  37   4  13.369172   6.186961   0.317460   0.001689   0.371649   0.004544
  38   4  11.986641   6.493870   0.131693   0.001653   0.278737   0.005932
  39   4  13.977260   5.295029  -0.106638   0.000892   0.278737   0.003201
  40   4  11.455492   1.018766  -0.644813   0.000099   0.046456   0.002128
  41   4  12.718942   6.657271   0.640013   0.001409   0.278737   0.005053
  42   4  11.969201   4.876303   5.750056   0.000111   0.046456   0.002380
  43   5   1.327587   6.600936  -0.271386   0.001837   0.371649   0.004943
  44   5   2.181297   1.075221  -0.727058   0.000189   0.092912   0.002033
  45   5   2.685386   1.375740  -0.948609   0.000065   0.046456   0.001402
  46   5   1.618938   7.097135   0.435998   0.001386   0.278737   0.004974
  47   5   1.844937   5.268431   5.411617   0.000290   0.139368   0.002078
  48   5   3.561724   6.509054  -0.142238   0.001078   0.232280   0.004639
  49   5   2.630117   6.774123  -0.167914   0.001873   0.325193   0.005758
  50   5   0.397987   6.648570   0.457147   0.001346   0.371649   0.003621
  51   5  -0.198882   6.428612   0.945701   0.000342   0.139368   0.002455
  52   5   0.218421   5.798351  -0.450736   0.001116   0.325193   0.003432
  53   5   1.887917   1.282074  -0.895959   0.000104   0.046456   0.002236
  54   5   0.082974   6.804827   1.576533   0.000461   0.185824   0.002480
  55   5   3.274331   7.010210   0.512791   0.000600   0.139368   0.004303
  56   5   2.405132   5.241307   5.436166   0.000106   0.046456   0.002292
  57   6  13.664476  -1.449736   4.793388   0.001151   0.232280   0.004953
  58   6  17.237071   0.506447   4.650327   0.000993   0.371649   0.002671
  59   6  16.395936   4.110156   5.227234   0.001844   0.371649   0.004962
  60   6  14.880421   0.991897  -0.379807   0.001481   0.418105   0.003542
  61   6  15.724537   0.458994   0.132652   0.000781   0.185824   0.004206
  62   6  15.353223   2.180933  -0.360468   0.000836   0.278737   0.003000
  63   6  15.911989   1.852117  -0.111098   0.000698   0.185824   0.003757
  64   6  13.452522   4.227140   6.136104   0.000101   0.092912   0.001089
  65   6  16.014123   3.632832   5.949451   0.001281   0.278737   0.004594
  66   6  16.670160   0.688373   5.616718   0.001373   0.418105   0.003284
  67   6  13.790409  -1.038958   5.485779   0.001152   0.232280   0.004959
  68   6  16.752476   0.189373   1.191715   0.001972   0.371649   0.005306
  69   6  17.016932   0.856764   1.091619   0.001113   0.232280   0.004790
  70   6  12.875116  -1.206734   4.894743   0.000955   0.185824   0.005137
  71   6  14.915356  -1.263495   4.989061   0.002624   0.511017   0.005136
  72   6  16.374353  -0.498057   4.909330   0.001331   0.418105   0.003184
  73   6  17.431153   1.728965   4.889540   0.001724   0.418105   0.004123
  74   6  16.986759   3.048884   5.314014   0.001798   0.325193   0.005528
  75   6  15.139684   4.692287   5.549635   0.001631   0.464561   0.003510
  76   6  13.980706   4.686801   5.786816   0.000255   0.092912   0.002739
  77   6  16.912690  -0.467364   2.596358   0.001455   0.371649   0.003916
  78   6  17.093977  -0.244901   3.737846   0.001326   0.464561   0.002854
  79   6  17.666105   0.946842   3.747227   0.001020   0.325193   0.003138
  80   6  15.885006   4.914182   4.656894   0.001003   0.278737   0.003599
  81   6  15.408462   5.451447   3.628841   0.000271   0.139368   0.001941
  82   6  13.973476   0.622305  -0.353635   0.000397   0.185824   0.002135
  83   6  16.213492   1.125630   0.185975   0.001782   0.371649   0.004794
  84   6  15.501674   3.224172  -0.069076   0.000433   0.185824   0.002329
  85   6  14.420985   4.383806   6.051768   0.000378   0.139368   0.002712
  86   6  16.919984   2.114071   5.655817   0.001459   0.325193   0.004488
  87   6  15.615280  -0.613392   5.492759   0.001076   0.278737   0.003859
  88   6  12.843081  -0.705538   5.584125   0.000523   0.139368   0.003752
  89   6  17.480279   0.472805   2.516193   0.001725   0.418105   0.004126
  90   6  16.127492  -1.115069   3.994267   0.001201   0.371649   0.003233
  91   6  15.179227   5.308091   4.505813   0.000682   0.232280   0.002937
  92   7  -2.952939   4.333432   4.631628   0.001163   0.232280   0.005008
  93   7  -3.101032   0.299423   4.070019   0.001006   0.371649   0.002706
  94   7   0.431677  -0.870996   4.490893   0.001796   0.371649   0.004833
  95   7  -1.531620   2.588405  -0.766220   0.001502   0.418105   0.003593
  96   7  -2.415852   2.084150  -0.294002   0.000759   0.185824   0.004083
  97   7  -0.738417   1.680607  -0.884290   0.000613   0.232280   0.002638
  98   7  -1.217387   1.206884  -0.655550   0.000862   0.232280   0.003712
  99   7   0.224474  -0.376723   5.270622   0.001307   0.278737   0.004690
 100   7  -2.644539   0.591954   5.067235   0.001379   0.418105   0.003297
 101   7  -2.470444   4.177567   5.305319   0.001807   0.371649   0.004862
 102   7  -0.170838   4.999998   5.560109   0.000602   0.232280   0.002590
 103   7  -3.162121   1.232465   0.690217   0.001959   0.371649   0.005272
 104   7  -2.725011   0.677714   0.527268   0.001131   0.232280   0.004868
 105   7  -1.107653   5.526259   4.784857   0.001077   0.325193   0.003313
 106   7  -2.129399   5.180740   4.583136   0.001445   0.325193   0.004443
 107   7  -3.430672   3.148840   4.710299   0.002591   0.511017   0.005071
 108   7  -3.520108   1.520593   4.461825   0.001311   0.418105   0.003136
 109   7  -2.147367  -0.512143   4.216046   0.001741   0.418105   0.004164
 110   7  -0.781477  -0.846290   4.593595   0.001800   0.325193   0.005536
 111   7  -1.341159   6.052570   2.818249   0.000211   0.092912   0.002276
 112   7  -3.793519   1.283745   2.114542   0.001443   0.371649   0.003884
 113   7  -3.683048   0.897710   3.220943   0.001320   0.464561   0.002841
 114   7  -2.951622  -0.197778   3.108732   0.001034   0.325193   0.003178
 115   7  -1.385003   3.549033  -0.641604   0.000427   0.185824   0.002297
 116   7  -2.092601   1.321923  -0.323055   0.001793   0.371649   0.004823
 117   7  -0.082434   0.933431  -0.677022   0.000390   0.139368   0.002801
 118   7  -1.546922  -0.349779   4.996998   0.001491   0.325193   0.004586
 119   7  -3.224781   2.168022   5.112595   0.001067   0.278737   0.003827
 120   7  -1.390071   4.901121   5.415660   0.000856   0.232280   0.003687
 121   7  -3.276874   0.329158   1.929225   0.001737   0.418105   0.004155
 122   7  -1.613356   5.831407   3.730875   0.001021   0.325193   0.003141
 123   7  -3.933651   2.139669   3.610525   0.001181   0.371649   0.003179
 124   8   9.032858  -2.149141   1.580528  -0.001361   0.353299  -0.003852
 125   8   8.803507  -0.755338   0.078646  -0.000774   0.372926  -0.002074
 126   8   8.853867  -2.014531   3.310366  -0.000316   0.372926  -0.000848
 127   8   9.825045  -1.130675   0.308652  -0.001435   0.471065  -0.003046
 128   8   8.567999  -1.625253   0.794016  -0.001656   0.392554  -0.004217
 129   8   8.454228  -2.132944   2.345746  -0.001300   0.333671  -0.003895
 130   8   9.861046  -2.115838   2.898493  -0.001111   0.431809  -0.002573
 131   8   9.962955  -1.996179   1.429058  -0.001837   0.392554  -0.004680
 132   9   9.312472   1.519134   7.526444  -0.001373   0.353299  -0.003886
 133   9   9.709230   3.462021   6.961896  -0.000770   0.372926  -0.002065
 134   9   9.485091   0.010286   6.620306  -0.000302   0.372926  -0.000809
 135   9   8.653917   3.164184   7.148791  -0.001437   0.471065  -0.003050
 136   9   9.848832   2.420378   7.430364  -0.001662   0.392554  -0.004235
 137   9   9.855864   0.800604   7.196186  -0.001290   0.333671  -0.003865
 138   9   8.487985   0.442739   6.917932  -0.001208   0.451437  -0.002677
 139   9   8.395496   1.828813   7.414786  -0.001736   0.372926  -0.004655
 140  10   6.907874   7.803111   3.594224  -0.001358   0.353299  -0.003845
 141  10   6.502029   6.435814   5.083093  -0.000768   0.372926  -0.002060
 142  10   6.749288   7.639716   1.808201  -0.000199   0.314043  -0.000635
 143  10   7.557478   6.742204   4.911416  -0.001429   0.471065  -0.003033
 144  10   6.365421   7.315215   4.353735  -0.001645   0.392554  -0.004189
 145  10   6.374130   7.820480   2.797075  -0.001286   0.333671  -0.003853
 146  10   7.685118   7.736313   2.284592  -0.001092   0.451437  -0.002419
 147  10   7.815739   7.590481   3.799143  -0.001833   0.392554  -0.004669
 148  11   7.281025   4.116899  -2.313765  -0.001276   0.333671  -0.003823
 149  11   7.520731   2.123502  -1.725452  -0.000771   0.372926  -0.002067
 150  11   7.513457   5.604502  -1.381913  -0.000203   0.314043  -0.000645
 151  11   6.499664   2.488320  -1.973751  -0.001428   0.471065  -0.003031
 152  11   7.710285   3.171041  -2.207291  -0.001666   0.392554  -0.004245
 153  11   7.855018   4.767853  -1.960398  -0.001289   0.333671  -0.003864
 154  11   6.566344   5.287633  -1.720479  -0.001095   0.451437  -0.002426
 155  11   6.355857   3.874356  -2.259493  -0.001834   0.392554  -0.004671
 156  12   4.248609  -2.000813   1.490051  -0.001373   0.353299  -0.003886
 157  12   4.022239  -0.621498  -0.025597  -0.000770   0.372926  -0.002064
 158  12   4.006842  -1.829502   3.233527  -0.000302   0.372926  -0.000810
 159  12   5.043110  -0.995876   0.208889  -0.001436   0.471065  -0.003049
 160  12   3.785045  -1.484059   0.698074  -0.001662   0.392554  -0.004233
 161  12   3.669402  -1.976375   2.254612  -0.001290   0.333671  -0.003866
 162  12   5.018472  -1.982044   2.761134  -0.001206   0.451437  -0.002671
 163  12   5.190045  -1.833285   1.303379  -0.001736   0.372926  -0.004654
 164  13   4.528311   1.725227   7.399924  -0.001362   0.353299  -0.003854
 165  13   4.928023   3.661974   6.816676  -0.000773   0.372926  -0.002074
 166  13   4.637593   0.217330   6.529980  -0.000316   0.372926  -0.000849
 167  13   3.872180   3.367340   7.005640  -0.001436   0.471065  -0.003048
 168  13   5.065911   2.624795   7.295442  -0.001656   0.392554  -0.004219
 169  13   5.071031   1.002795   7.077157  -0.001300   0.333671  -0.003896
 170  13   3.645538   0.616934   6.754603  -0.001115   0.431809  -0.002581
 171  13   3.619894   1.995742   7.285807  -0.001838   0.392554  -0.004682
 172  14  12.054180   7.557265   3.981795  -0.001833   0.431809  -0.004244
 173  14  12.971757   6.625011   4.729500  -0.000659   0.294415  -0.002240
 174  14  11.181398   6.262708   5.226549  -0.000846   0.353299  -0.002394
 175  14  11.475981   7.519248   2.017898  -0.000502   0.372926  -0.001345
 176  14  13.391571   7.130878   2.774101  -0.000472   0.353299  -0.001336
 177  14  12.142881   6.571276   5.113861  -0.001062   0.412182  -0.002577
 178  14  11.135295   7.209674   4.458548  -0.001641   0.372926  -0.004401
 179  14  11.163275   7.684600   3.129268  -0.001679   0.412182  -0.004074
 180  14  12.444481   7.614330   2.543097  -0.001060   0.451437  -0.002348
 181  14  13.224780   7.131625   3.804851  -0.001118   0.451437  -0.002477
 182  15  12.149542   3.301168  -2.182348  -0.001393   0.353299  -0.003944
 183  15  12.221357   2.043245  -1.635484  -0.000693   0.392554  -0.001765
 184  15  13.427269   3.926076  -1.565924  -0.000989   0.392554  -0.002519
 185  15  12.076602   5.461443  -1.321768  -0.000425   0.353299  -0.001203
 186  15  11.210117   2.418112  -1.854012  -0.001606   0.471065  -0.003410
 187  15  13.081144   2.891082  -1.740794  -0.000750   0.353299  -0.002123
 188  15  12.326070   4.453113  -2.000974  -0.001476   0.392554  -0.003760
 189  15  11.177433   5.168154  -1.540223  -0.001010   0.372926  -0.002709
 190  15  11.177222   3.888180  -2.127638  -0.002012   0.431809  -0.004660
 191  15  13.137352   4.951648  -1.296685  -0.000421   0.333671  -0.001261
 192  16   1.998414   7.699340   4.006771  -0.001393   0.353299  -0.003943
 193  16   1.809256   6.668165   4.894174  -0.000693   0.392554  -0.001764
 194  16   0.743051   7.510448   3.117131  -0.000990   0.392554  -0.002522
 195  16   2.190223   7.857459   1.693566  -0.000428   0.353299  -0.001210
 196  16   2.854293   6.952636   4.699601  -0.001606   0.471065  -0.003410
 197  16   1.019860   7.193437   4.139127  -0.000750   0.353299  -0.002122
 198  16   1.898857   8.048743   2.884700  -0.001476   0.392554  -0.003759
 199  16   3.074507   7.860471   2.093914  -0.001012   0.372926  -0.002712
 200  16   3.007692   7.833217   3.500393  -0.002012   0.431809  -0.004660
 201  16   1.094850   7.691884   2.091629  -0.000423   0.333671  -0.001267
 202  17   2.122464   4.000744  -2.506731  -0.001833   0.431809  -0.004245
[...]
 556   4  12.297817   0.470060  -0.234328   0.000382   0.199406   0.001914
 557   5   1.170676   5.496605   5.162310   0.000029   0.027301   0.001067
 558   7   0.749405   5.254395   5.264338   0.000061   0.027301   0.002236
 559  16   1.257669   5.766035   5.051211   0.000010   0.027301   0.000365
 560   5  -0.240553   6.552665   2.496111   0.000050   0.027301   0.001824
 561   7  -0.643396   6.296665   2.632953   0.000104   0.027301   0.003794
 562  16  -0.027023   6.727405   2.624074   0.000016   0.027301   0.000578
 563   5  -0.220365   4.423267  -0.830938   0.000044   0.027296   0.001599
 564   7  -0.623419   4.189570  -0.659248   0.000068   0.027296   0.002482
 565  17  -0.004777   4.381462  -1.041350   0.000025   0.027296   0.000912
 566   5   1.207688   1.568033  -0.976527   0.000052   0.027296   0.001911
 567   7   0.785987   1.371620  -0.802935   0.000097   0.027296   0.003539
 568  17   1.295230   1.782241  -1.173885   0.000014   0.027296   0.000510
 569   5   1.135858   4.792192   5.566690   0.000033   0.026617   0.001221
 570   7   0.713984   4.596236   5.740326  -0.000003   0.026617  -0.000108
 571  21   0.621023   4.385980   5.938228  -0.000035   0.026617  -0.001327
 572   5   1.183784   0.891015  -0.494860   0.000045   0.026615   0.001689
 573   7   0.762478   0.648771  -0.393144   0.000021   0.026615   0.000770
 574  22   0.670200   0.380883  -0.284788  -0.000021   0.026615  -0.000781
 575   5  -0.749546   6.233793   2.068239   0.000089   0.024880   0.003597
 576   7  -1.192052   6.054124   2.203845   0.000034   0.024880   0.001367
 577  23  -1.462745   5.975683   2.094351  -0.000005   0.024880  -0.000199
 578   5  -0.730163   4.658588  -0.379191   0.000055   0.024880   0.002223
 579   7  -1.172406   4.457556  -0.276779   0.000025   0.024880   0.001007
 580  23  -1.444867   4.522769  -0.163074  -0.000004   0.024880  -0.000142
 581   7   0.665250   4.868749   5.596677   0.000138   0.081948   0.001683
 582   5   1.221423   5.253239   5.353363   0.000155   0.081948   0.001893
 583   7  -1.021250   6.175882   2.482166   0.000179   0.066730   0.002676
 584   5  -0.432994   6.478699   2.207681   0.000186   0.066730   0.002784
 585   7  -1.020308   4.328767  -0.454851   0.000144   0.063099   0.002277
 586   5  -0.393661   4.580804  -0.691898   0.000165   0.063099   0.002615
 587   7   0.655764   0.972885  -0.633303   0.000210   0.085635   0.002450
 588   5   1.317069   1.212696  -0.783053   0.000192   0.085635   0.002236
 589   5   4.112180   5.705207  -0.681531   0.000151   0.088549   0.001701
 590  11   5.056451   5.449688  -0.842499   0.000230   0.088549   0.002596
 591  17   4.007084   5.552522  -0.926650  -0.000072   0.088549  -0.000812
 592  11   5.611260   5.611646  -0.961460   0.000031   0.007094   0.004300
 593   5   4.212122   5.920835  -0.666032   0.000077   0.010070   0.007645
 594   5   2.128578   0.410847  -0.018631   0.000103   0.166811   0.000620
 595  12   2.640225  -0.072108   0.252600  -0.000006   0.166811  -0.000035
 596  22   1.562518  -0.032682   0.221165  -0.000134   0.166811  -0.000803
 597  12   3.350250  -0.090952  -0.014163  -0.000142   0.143508  -0.000992
 598   5   2.736297   0.732446  -0.470340   0.000404   0.202334   0.001999
 599   5   2.097264   4.143870   5.820361   0.000101   0.166803   0.000603
 600  13   2.605311   3.694205   6.149454  -0.000056   0.166803  -0.000335
 601  21   1.529060   3.739915   6.118001  -0.000088   0.166803  -0.000527
 602  13   3.406360   4.004541   6.255703  -0.000102   0.135559  -0.000749
 603   5   2.591256   4.598296   5.761430   0.000368   0.191140   0.001923
 604  16   1.747818   6.006693   5.086858  -0.000063   0.071051  -0.000884
 605  16   2.632219   5.962693   5.122033  -0.000073   0.071051  -0.001028
 606   5   2.165988   5.585523   5.209329  -0.000179   0.155151  -0.001156
 607  16   3.318685   7.367761   1.338950   0.000012   0.067760   0.000181
 608  16   2.247479   7.468827   1.169867  -0.000055   0.149590  -0.000369
 609  16   1.008323   7.348123   1.603367  -0.000175   0.149590  -0.001173
 610  16   0.308640   7.074560   2.391968  -0.000049   0.067760  -0.000724
 611   5   2.972632   7.188132   0.892200   0.000242   0.149371   0.001618
 612   5   1.492721   7.218692   0.947362   0.000190   0.149371   0.001272
 613   5   0.328815   6.930604   1.817099  -0.000012   0.149371  -0.000080
 614  17   0.330667   4.739343  -1.256491  -0.000036   0.067713  -0.000534
 615  17   1.024294   5.573593  -1.168619  -0.000141   0.149469  -0.000941
 616  17   2.259261   6.025220  -1.085976  -0.000032   0.149469  -0.000217
 617  17   3.330841   5.836505  -1.055721  -0.000043   0.067713  -0.000632
 618   5   0.344768   5.200954  -0.884866  -0.000051   0.149287  -0.000343
 619   5   1.501569   6.117824  -0.772194   0.000228   0.149287   0.001530
 620   5   2.979843   6.164599  -0.708528   0.000212   0.149287   0.001423
 621  17   2.671779   1.807818  -1.370266  -0.000066   0.071073  -0.000931
 622  17   1.787077   1.853337  -1.403119  -0.000060   0.071073  -0.000843
 623   5   2.204099   1.568032  -1.068383  -0.000160   0.155187  -0.001031
 624  21   0.839632   4.031910   6.213023  -0.000224   0.142164  -0.001578
 625   5   1.552168   4.734917   5.690239   0.000377   0.200386   0.001883
 626  22   0.785506   0.067533  -0.151434  -0.000188   0.137113  -0.001371
 627   5   1.680156   0.695362  -0.433560   0.000339   0.193274   0.001753
 628  23  -1.647176   5.911877   1.691338  -0.000208   0.195080  -0.001064
 629  23  -1.642353   5.212277   0.475542  -0.000965   0.398598  -0.002421
 630   5  -0.612646   6.071212   1.033098   0.000877   0.535056   0.001640
 631   5  -0.597925   5.155142  -0.272871   0.000715   0.274738   0.002604
 632   6  12.216482  -1.384186   3.713015   0.000111   0.087944   0.001257
 633   8  11.272348  -1.420204   3.411282   0.000221   0.087944   0.002512
 634  20  12.338846  -1.528787   3.472118  -0.000099   0.087944  -0.001126
 635   8  10.703764  -1.602062   3.522434   0.000067   0.027985   0.002410
 636   6  12.095418  -1.453387   3.951854   0.000201   0.039727   0.005066
 637   6  12.187876  -0.043073   5.888735   0.000097   0.088157   0.001102
 638   9  11.240009   0.208337   6.049119   0.000201   0.088157   0.002279
 639  18  12.307170   0.105689   6.128668  -0.000025   0.088157  -0.000285
 640   9  10.670928   0.027220   6.158009   0.000024   0.016528   0.001429
 641   6  12.079251  -0.263342   5.869903   0.000123   0.023467   0.005259
 642  14  12.893308   5.702954   5.222945  -0.000120   0.211423  -0.000567
 643  14  13.719850   6.218106   4.055002  -0.000937   0.434494  -0.002156
 644   6  14.027787   5.200031   5.101757   0.000985   0.577454   0.001705
 645   6  14.857240   5.705993   3.671498   0.000739   0.297822   0.002480
 646  15  13.995016   3.632557  -0.912358  -0.000118   0.211474  -0.000560
 647  15  13.286571   2.300127  -1.103248  -0.000983   0.434606  -0.002262
 648   6  14.605773   2.631333  -0.488928   0.001001   0.577584   0.001734
 649   6  13.687473   1.169297  -0.589762   0.000716   0.297893   0.002405
 650  18  12.984233  -0.186321   6.250113  -0.000036   0.066854  -0.000536
 651  18  14.038990  -0.408563   6.238124  -0.000080   0.147343  -0.000545
 652  18  15.281026  -0.008902   6.277971  -0.000188   0.147343  -0.001273
 653  18  16.045627   1.045218   6.368437  -0.000220   0.147343  -0.001493
 654  18  16.037168   2.346232   6.474545  -0.000098   0.147343  -0.000664
 655  18  15.258920   3.391116   6.555269  -0.000186   0.147343  -0.001262
 656  18  14.011784   3.775874   6.579397  -0.000288   0.147343  -0.001952
 657   6  13.307075  -0.520626   5.887829   0.000099   0.147604   0.000674
 658   6  14.773825  -0.526338   5.895908   0.000178   0.147604   0.001203
 659   6  15.959998   0.333028   5.972939  -0.000015   0.147604  -0.000100
 660   6  16.406973   1.725208   6.089139   0.000110   0.147604   0.000744
 661   6  15.941931   3.111927   6.199580   0.000148   0.147604   0.001001
 662   6  14.744675   3.957025   6.261561  -0.000009   0.147604  -0.000062
 663   6  13.561664   4.084582   6.265077   0.000006   0.081677   0.000076
 664  19  15.990739   5.311693   2.926494  -0.000089   0.069660  -0.001275
 665  19  16.519977   4.849173   3.803048  -0.000294   0.155019  -0.001897
 666  19  17.238338   3.815564   4.312002  -0.000138   0.155019  -0.000892
 667  19  17.774956   2.615160   3.973628  -0.000231   0.155019  -0.001493
 668  19  17.903118   1.755113   2.930884  -0.000279   0.155019  -0.001801
 669  19  17.568679   1.598776   1.624311  -0.000148   0.155019  -0.000956
 670  19  16.912932   2.212201   0.605915  -0.000191   0.155019  -0.001233
 671  19  16.212921   3.336225   0.305950  -0.000317   0.155019  -0.002046
 672   6  15.828130   5.220544   3.497060  -0.000106   0.152357  -0.000696
 673   6  16.609069   4.351253   4.477093   0.000040   0.152357   0.000266
 674   6  17.354380   3.024510   4.578398   0.000036   0.152357   0.000238
 675   6  17.749181   1.800843   3.758174   0.000029   0.152357   0.000188
 676   6  17.626676   1.197230   2.362954   0.000055   0.152357   0.000362
 677   6  17.038622   1.468687   0.982194   0.000143   0.152357   0.000941
 678   6  16.233460   2.500528   0.199242  -0.000017   0.152357  -0.000112
 679   6  15.637889   3.587584   0.163365  -0.000001   0.085106  -0.000013
 680  20  13.647436  -0.239483  -0.002474  -0.000070   0.066759  -0.001053
 681  20  14.718281  -0.276169   0.102263  -0.000211   0.147095  -0.001435
 682  20  15.777090  -0.560892   0.807668  -0.000114   0.147095  -0.000777
 683  20  16.182749  -1.031557   1.953815  -0.000152   0.147095  -0.001033
 684  20  15.778833  -1.506670   3.098742  -0.000216   0.147095  -0.001471
 685  20  14.721095  -1.803024   3.800955  -0.000108   0.147095  -0.000733
 686  20  13.417408  -1.806343   3.789675  -0.000191   0.147095  -0.001299
 687   6  14.061482   0.167315  -0.101859  -0.000095   0.147432  -0.000645
 688   6  15.457818   0.005537   0.310725   0.000144   0.147432   0.000976
 689   6  16.323386  -0.440932   1.405078   0.000237   0.147432   0.001607
 690   6  16.324416  -0.999930   2.759209   0.000036   0.147432   0.000245
 691   6  15.460511  -1.455903   3.850954   0.000009   0.147432   0.000061
 692   6  14.064799  -1.633024   4.259328   0.000188   0.147432   0.001277
 693   6  12.899992  -1.549377   4.039440   0.000173   0.081561   0.002117
 694   7   1.344618  -0.995554   3.481693   0.000101   0.088177   0.001140
 695  12   2.300005  -1.100301   3.228860   0.000201   0.088177   0.002282
 696  22   1.225699  -1.138064   3.237811  -0.000024   0.088177  -0.000277
 697  12   2.847919  -1.319325   3.367341   0.000021   0.015153   0.001366
 698   7   1.436938  -1.082816   3.690715   0.000117   0.021515   0.005433
 699   7   1.314477   0.379725   5.636095   0.000096   0.087924   0.001095
 700  13   2.266329   0.565269   5.843569   0.000219   0.087924   0.002494
 701  21   1.192990   0.542629   5.865475  -0.000104   0.087924  -0.001181
 702  13   2.814734   0.343383   5.983271   0.000068   0.029344   0.002307
 703   7   1.419869   0.124133   5.597236   0.000199   0.041656   0.004781
 704  16   0.125780   6.837897   3.068920  -0.000122   0.211460  -0.000577
 705  16   0.742393   6.379746   4.381672  -0.000979   0.434577  -0.002254
 706   7  -0.575755   6.068454   3.754883   0.001040   0.577550   0.001801
 707   7   0.236235   5.457835   5.154332   0.000773   0.297875   0.002594
 708  17   1.093193   2.143813  -1.422549  -0.000118   0.211433  -0.000559
 709  17   0.361317   3.476894  -1.412665  -0.000936   0.434515  -0.002154
 710   7  -0.068408   2.118014  -0.970114   0.000982   0.577478   0.001700
 711   7  -0.791786   3.682942  -0.837407   0.000751   0.297836   0.002522
 712  21   0.143787   4.319431   6.163431  -0.000074   0.066750  -0.001107
 713  21  -0.930370   4.287849   6.100876  -0.000199   0.147070  -0.001354
 714  21  -2.038301   3.608489   5.999512  -0.000135   0.147070  -0.000921
 715  21  -2.529596   2.404884   5.903165  -0.000155   0.147070  -0.001053
 716  21  -2.214857   1.141032   5.848977  -0.000213   0.147070  -0.001450
 717  21  -1.215418   0.304156   5.857838  -0.000097   0.147070  -0.000658
 718  21   0.083431   0.216877   5.926332  -0.000202   0.147070  -0.001372
 719   7  -0.234108   4.615101   5.822072  -0.000118   0.147414  -0.000798
 720   7  -1.655783   4.276684   5.722383   0.000064   0.147414   0.000433
 721   7  -2.600987   3.163779   5.605528   0.000175   0.147414   0.001184
 722   7  -2.705339   1.705417   5.516556   0.000015   0.147414   0.000105
 723   7  -1.928609   0.463806   5.489766   0.000020   0.147414   0.000136
 724   7  -0.570232  -0.082406   5.535486   0.000212   0.147414   0.001436
 725   7   0.606308   0.065548   5.610461   0.000089   0.081550   0.001087
 726  22   0.524220  -1.324032   3.416291  -0.000055   0.066863  -0.000829
 727  22  -0.542472  -1.332453   3.572682  -0.000130   0.147368  -0.000879
 728  22  -1.752545  -1.104526   3.138886  -0.000160   0.147368  -0.001086
 729  22  -2.441135  -0.673629   2.116840  -0.000217   0.147368  -0.001471
 730  22  -2.341928  -0.206412   0.901820  -0.000112   0.147368  -0.000758
 731  22  -1.493292   0.116429  -0.036263  -0.000135   0.147368  -0.000918
 732  22  -0.223439   0.170034  -0.334604  -0.000282   0.147368  -0.001912
 733   7   0.194596  -1.119654   3.859974   0.000027   0.147620   0.000185
 734   7  -1.267653  -1.022275   3.794022   0.000080   0.147620   0.000541
 735   7  -2.390016  -0.632822   2.933424   0.000042   0.147620   0.000283
 736   7  -2.738420  -0.101916   1.611019   0.000105   0.147620   0.000712
 737   7  -2.178118   0.365114   0.338247   0.000170   0.147620   0.001153
 738   7  -0.925808   0.587644  -0.392644   0.000025   0.147620   0.000169
 739   7   0.262151   0.553117  -0.453815  -0.000000   0.081688  -0.000003
 740  23  -1.914932   4.261623  -0.211880  -0.000083   0.069659  -0.001195
 741  23  -2.516311   3.312652  -0.203538  -0.000236   0.155013  -0.001523
 742  23  -3.331413   2.460676   0.469545  -0.000180   0.155013  -0.001163
 743  23  -3.939078   2.284497   1.670793  -0.000185   0.155013  -0.001192
 744  23  -4.082601   2.858541   2.892746  -0.000270   0.155013  -0.001741
 745  23  -3.701350   3.940306   3.619195  -0.000145   0.155013  -0.000934
 746  23  -2.956384   5.072805   3.543253  -0.000208   0.155013  -0.001340
 747  23  -2.162410   5.777618   2.697004  -0.000339   0.155013  -0.002189
 748   7  -1.785714   3.697604  -0.371481  -0.000131   0.152354  -0.000858
 749   7  -2.672558   2.498063  -0.054552   0.000105   0.152354   0.000687
 750   7  -3.517512   1.887462   1.058576   0.000200   0.152354   0.001311
 751   7  -3.963627   2.123746   2.497668  -0.000004   0.152354  -0.000026
 752   7  -3.822445   3.107099   3.654785   0.000045   0.152354   0.000294
 753   7  -3.153607   4.422106   4.041109   0.000186   0.152354   0.001219
 754   7  -2.239661   5.513249   3.493438  -0.000012   0.152354  -0.000081
 755   7  -1.564498   5.972444   2.560237  -0.000006   0.085103  -0.000070
 756  12   6.113269  -0.777277   0.390828   0.000154   0.254286   0.000604
 757  12   6.068392  -1.521374   1.267419  -0.000275   0.508499  -0.000542
 758  12   6.029311  -1.713009   2.655410   0.000147   0.508499   0.000288
 759   8   7.616504  -1.134356   0.741895  -0.000136   0.508499  -0.000267
 760   8   7.565963  -1.788729   1.980447  -0.000160   0.508499  -0.000314
 761   8   7.541802  -1.696340   3.127176   0.000413   0.254286   0.001623
 762  20  12.359286  -1.867841   3.161503   0.000319   0.251003   0.001271
 763  20  12.380961  -1.925453   2.033737  -0.000434   0.501888  -0.000865
 764  20  12.425433  -1.258906   0.829390  -0.000391   0.501888  -0.000779
 765   8  10.832399  -1.874493   2.700622   0.000118   0.501888   0.000234
 766   8  10.867076  -1.651462   1.342031  -0.000289   0.501888  -0.000576
 767   8  10.906449  -0.907702   0.492962   0.000141   0.251003   0.000562
 768  13   5.977022   0.423821   6.384995   0.000417   0.254208   0.001640
 769  13   5.998904   1.414628   6.968569  -0.000159   0.508343  -0.000312
 770  13   6.053578   2.813779   6.921316  -0.000135   0.508343  -0.000266
 771   9   7.504762   0.728846   6.675956   0.000146   0.508343   0.000287
 772   9   7.543737   2.060468   7.109673  -0.000275   0.508343  -0.000540
 773   9   7.593998   3.173344   6.823815   0.000154   0.254208   0.000604
 774  18  12.397127   2.997117   6.957541   0.000013   0.251815   0.000051
 775  18  12.356339   1.900813   7.235422  -0.000497   0.503510  -0.000987
 776  18  12.327353   0.586968   6.814961  -0.000023   0.503510  -0.000046
 777   9  10.845098   2.632694   7.051948  -0.000147   0.503510  -0.000291
 778   9  10.801811   1.254374   7.098600  -0.000190   0.503510  -0.000377
 779   9  10.786864   0.274571   6.532450   0.000345   0.251815   0.001369
 780  14  10.235569   7.296168   2.123703   0.000386   0.254824   0.001517
 781  14  10.202005   7.387835   3.278482  -0.000229   0.509603  -0.000449
 782  14  10.142416   6.723453   4.522065  -0.000272   0.509603  -0.000534
 783  10   8.713456   7.408679   2.515101   0.000098   0.509603   0.000192
 784  10   8.663425   7.212284   3.911661  -0.000310   0.509603  -0.000608
 785  10   8.612580   6.457800   4.789848   0.000142   0.254824   0.000558
 786  16   3.859152   6.639549   4.613790   0.000119   0.254120   0.000469
 787  16   3.918898   7.384468   3.731966  -0.000366   0.508192  -0.000721
 788  16   3.977014   7.570766   2.337806   0.000039   0.508192   0.000077
 789  10   5.392001   6.892601   4.352317  -0.000167   0.508192  -0.000329
 790  10   5.461741   7.545461   3.107054  -0.000186   0.508192  -0.000365
 791  10   5.500470   7.446851   1.956028   0.000410   0.254120   0.001612
 792  15  10.188498   2.435771  -1.581733   0.000119   0.254242   0.000467
 793  15  10.225028   3.555808  -1.867133  -0.000367   0.508436  -0.000722
 794  15  10.246136   4.893055  -1.425835   0.000043   0.508436   0.000084
 795  11   8.692335   2.894374  -1.764363  -0.000208   0.508436  -0.000410
 796  11   8.729171   4.301551  -1.808119  -0.000191   0.508436  -0.000376
 797  11   8.737267   5.295156  -1.216549   0.000407   0.254242   0.001600
 798  17   3.999856   5.423935  -1.375729   0.000380   0.254700   0.001494
 799  17   3.987870   4.424429  -1.961142  -0.000230   0.509354  -0.000451
 800  17   3.942256   3.015647  -1.905796  -0.000273   0.509354  -0.000536
 801  11   5.506873   5.010635  -1.577103   0.000092   0.509354   0.000180
 802  11   5.479209   3.668047  -2.008963  -0.000309   0.509354  -0.000607
 803  11   5.434768   2.548859  -1.713485   0.000143   0.254700   0.000561
 804  22   1.308737  -0.623710   0.272676   0.000047   0.251960   0.000187
 805  22   1.256632  -1.351711   1.138396  -0.000522   0.503801  -0.001036
 806  22   1.209110  -1.545044   2.504466  -0.000075   0.503801  -0.000149
 807  12   2.824020  -0.980272   0.629585  -0.000147   0.503801  -0.000292
 808  12   2.764505  -1.622714   1.850040  -0.000188   0.503801  -0.000374
 809  12   2.734070  -1.539207   2.978876   0.000344   0.251960   0.001365
 810  21   1.162041   0.676398   6.304618   0.000315   0.250852   0.001255
 811  21   1.188753   1.665720   6.847431  -0.000434   0.501585  -0.000865
 812  21   1.249658   3.038780   6.772838  -0.000392   0.501585  -0.000781
 813  13   2.704196   0.974306   6.581945   0.000113   0.501585   0.000224
 814  13   2.749378   2.293227   6.973065  -0.000288   0.501585  -0.000575
 815  13   2.804497   3.380371   6.674408   0.000142   0.250852   0.000565
 =====================================================

              4810692  WORDS OF DYNAMIC MEMORY USED
 EXECUTION OF GAMESS TERMINATED NORMALLY Fri Nov 25 03:20:27 2016
 DDI: 263640 bytes (0.3 MB / 0 MWords) used by master data server.

 ----------------------------------------
 CPU timing information for all processes
 ========================================
 0: 861.920 + 0.292 = 862.212
 ----------------------------------------
 ddikick.x: exited gracefully.
