----- GAMESS execution script -----

          ******************************************************
          *         GAMESS VERSION =  5 DEC 2014 (R1)          *
          *             FROM IOWA STATE UNIVERSITY             *
          * M.W.SCHMIDT, K.K.BALDRIDGE, J.A.BOATZ, S.T.ELBERT, *
          *   M.S.GORDON, J.H.JENSEN, S.KOSEKI, N.MATSUNAGA,   *
          *          K.A.NGUYEN, S.J.SU, T.L.WINDUS,           *
          *       TOGETHER WITH M.DUPUIS, J.A.MONTGOMERY       *
          *         J.COMPUT.CHEM.  14, 1347-1363(1993)        *
          **************** 64 BIT LINUX VERSION ****************

 EXECUTION OF GAMESS BEGUN Fri Nov 25 03:28:53 2016

            ECHO OF THE FIRST FEW INPUT CARDS -
 INPUT CARD>! SELECT RESTRICTED HARTREE-FOCK AS DEFAULT                                     
 INPUT CARD>$contrl scftyp=rhf $end                                                         
 INPUT CARD>                                                                                
 INPUT CARD>! THEORY: HF OR DFT                                                             
 INPUT CARD> $contrl mplevl=0 $end                                                          
 INPUT CARD>                                                                                
 INPUT CARD> $system timlim=10000 mwords=20 $end                                            
 INPUT CARD> $SCF DIRSCF=.TRUE. $end                                                        
 INPUT CARD>                                                                                
 INPUT CARD>                                                                                
 INPUT CARD>! BASIS SETS                                                                    
 INPUT CARD>! 6-311G(d,p)                                                                   
 INPUT CARD> $BASIS GBASIS=N311 NGAUSS=6 NDFUNC=1 NPFUNC=1 $END                             
 INPUT CARD>                                                                                
 INPUT CARD>! One of the following                                                          
 INPUT CARD> $guess guess=HUCKEL $end                                                       
 INPUT CARD>                                                                                
 INPUT CARD> $statpt projct=.FALSE. $end                                                    
 INPUT CARD> $STATPT IFREEZ(1)=1,2,3 $END                                                   
 INPUT CARD>                                                                                
 INPUT CARD>! Optimize the geometry with COSMO effects                                      
 INPUT CARD> $statpt opttol=0.0005 nstep=50 $end                                            
 INPUT CARD> $contrl nzvar=1 $end                                                           
 INPUT CARD> $zmat dlc=.t. auto=.t. $end                                                    
 INPUT CARD> $contrl runtyp=OPTIMIZE maxit=200 $end                                         
 INPUT CARD>                                                                                
 INPUT CARD>! Run COSMO on perfect conductor                                                
 INPUT CARD> $COSGMS PRFCND=.TRUE. $end                                                     
 INPUT CARD>                                                                                
 INPUT CARD>! Specifying RSOLV                                                              
 INPUT CARD> $COSGMS COSRAD = 1.4 $end                                                      
 INPUT CARD>                                                                                
 INPUT CARD>! available memory                                                              
 INPUT CARD> $SYSTEM MWORDS=40 $END                                                         
 INPUT CARD>                                                                                
 INPUT CARD> $DATA                                                                          
 INPUT CARD>Hexyl ethanoate, ID: C142927                                                    
 INPUT CARD>C1                                                                              
 INPUT CARD>C      6.0      0.6976000000    2.0307000000    1.4826000000                    
 INPUT CARD>C      6.0      2.1247000000    2.3474000000    1.1025000000                    
 INPUT CARD>C      6.0      2.5746000000    3.6894000000    1.6603000000                    
 INPUT CARD>C      6.0      4.0522000000    3.9362000000    1.3942000000                    
 INPUT CARD>C      6.0      4.9218000000    2.9502000000    2.1603000000                    
 INPUT CARD>C      6.0      6.3792000000    3.0791000000    1.7317000000                    
 INPUT CARD>C      6.0      9.1000000000    0.9981000000    3.1915000000                    
 INPUT CARD>C      6.0      8.4620000000    2.0501000000    2.3307000000                    
 INPUT CARD>O      8.0      7.1105000000    2.1245000000    2.5021000000                    
 INPUT CARD>O      8.0      9.0075000000    2.7941000000    1.5391000000                    
 INPUT CARD>H      1.0      0.5663000000    1.9913000000    2.5722000000                    
 INPUT CARD>H      1.0      0.0000000000    2.7863000000    1.0975000000                    
   40000000 WORDS OF MEMORY AVAILABLE

     BASIS OPTIONS
     -------------
     GBASIS=N311         IGAUSS=       6      POLAR=POPN311 
     NDFUNC=       1     NFFUNC=       0     DIFFSP=       F
     NPFUNC=       1      DIFFS=       F     BASNAM=        


     RUN TITLE
     ---------
 Hexyl ethanoate, ID: C142927                                                    

 THE POINT GROUP OF THE MOLECULE IS C1      
 THE ORDER OF THE PRINCIPAL AXIS IS     0

 ATOM      ATOMIC                      COORDINATES (BOHR)
           CHARGE         X                   Y                   Z
 C           6.0     1.3182728490        3.8374665633        2.8017077494
 C           6.0     4.0151008061        4.4359427836        2.0834229015
 C           6.0     4.8652885280        6.9719550591        3.1375120574
 C           6.0     7.6575476474        7.4383394329        2.6346559721
 C           6.0     9.3008533664        5.5750696090        4.0823750513
 C           6.0    12.0549400209        5.8186552888        3.2724384929
 C           6.0    17.1965064883        1.8861355083        6.0310604898
 C           6.0    15.9908613081        3.8741272474        4.4043843596
 O           8.0    13.4368966357        4.0147228609        4.7282833939
 O           8.0    17.0217068344        5.2800833823        2.9084772677
 H           1.0     1.0701518268        3.7630113594        4.8607531856
 H           1.0     0.0000000000        5.2653435196        2.0739742715
 H           1.0     0.7273555327        2.0014087936        2.0397702311
 H           1.0     4.2229706648        4.4242264825        0.0000000000
 H           1.0     5.3222242718        2.9406026095        2.7829994621
 H           1.0     4.4926345632        7.0513235506        5.1978803018
 H           1.0     3.7255947848        8.5130266021        2.2973398833
 H           1.0     8.0428627763        7.2898069702        0.5807127960
 H           1.0     8.1598368150        9.3994970629        3.1668028102
 H           1.0     9.1065895348        5.8927325475        6.1429322683
 H           1.0     8.5803008473        3.6243054719        3.7471376611
 H           1.0    12.2985257007        5.4150098178        1.2351249056
 H           1.0    12.7892875397        7.7435301799        3.6339430744
 H           1.0    16.8395372492        0.0000000000        5.2424778351
 H           1.0    16.4481749971        1.9141034530        7.9657619560
 H           1.0    19.2504496643        2.1554214616        6.1332946658

          INTERNUCLEAR DISTANCES (ANGS.)




     $CONTRL OPTIONS
     ---------------
 SCFTYP=RHF          RUNTYP=OPTIMIZE     EXETYP=RUN     
 MPLEVL=       0     CITYP =NONE         CCTYP =NONE         VBTYP =NONE    
 DFTTYP=NONE         TDDFT =NONE    
 MULT  =       1     ICHARG=       0     NZVAR =       1     COORD =UNIQUE  
 PP    =NONE         RELWFN=NONE         LOCAL =NONE         NUMGRD=       F
 ISPHER=      -1     NOSYM =       0     MAXIT =     200     UNITS =ANGS    
 PLTORB=       F     MOLPLT=       F     AIMPAC=       F     FRIEND=        
 NPRINT=       7     IREST =       0     GEOM  =INPUT   
 NORMF =       0     NORMP =       0     ITOL  =      20     ICUT  =       9
 INTTYP=BEST         GRDTYP=BEST         QMTTOL= 1.0E-06

     $SYSTEM OPTIONS
     ---------------
  REPLICATED MEMORY=    40000000 WORDS (ON EVERY NODE).
 DISTRIBUTED MEMDDI=           0 MILLION WORDS IN AGGREGATE,
 MEMDDI DISTRIBUTED OVER   1 PROCESSORS IS           0 WORDS/PROCESSOR.
 TOTAL MEMORY REQUESTED ON EACH PROCESSOR=    40000000 WORDS.
 TIMLIM=       10000.00 MINUTES, OR       6.9 DAYS.
 PARALL= F  BALTYP=  DLB     KDIAG=    0  COREFL= F
 MXSEQ2=     300 MXSEQ3=     150  mem10=         0

     $COSGMS OPTIONS
     ---------------
     EPSI  =   INFTY     NSPA  =      92     COSRAD=    1.40
     DISEX =   10.00     OUTCHG=DBLCAV       COSBUG=       F
     COSWRT=       F     DCOSMO=       F

     SYMMETRY COORDINATES WILL NOT BE USED FOR 
     THE COSMO CALCULATION, EVEN IF SPECIFIED:
         -- SWITCHING TO C1 POINT GROUP --


     DEFINITION OF CAVITY
     ---------------------------
     ATOM         COORDINATES           RADIUS 
     1    1.3183    3.8375    2.8017    2.0000
     2    4.0151    4.4359    2.0834    2.0000
     3    4.8653    6.9720    3.1375    2.0000
     4    7.6575    7.4383    2.6347    2.0000
     5    9.3009    5.5751    4.0824    2.0000
     6   12.0549    5.8187    3.2724    2.0000
     7   17.1965    1.8861    6.0311    2.0000
     8   15.9909    3.8741    4.4044    2.0000
     9   13.4369    4.0147    4.7283    1.7200
    10   17.0217    5.2801    2.9085    1.7200
    11    1.0702    3.7630    4.8608    1.3000
    12    0.0000    5.2653    2.0740    1.3000
    13    0.7274    2.0014    2.0398    1.3000
    14    4.2230    4.4242    0.0000    1.3000
    15    5.3222    2.9406    2.7830    1.3000
    16    4.4926    7.0513    5.1979    1.3000
    17    3.7256    8.5130    2.2973    1.3000
    18    8.0429    7.2898    0.5807    1.3000
    19    8.1598    9.3995    3.1668    1.3000
    20    9.1066    5.8927    6.1429    1.3000
    21    8.5803    3.6243    3.7471    1.3000
    22   12.2985    5.4150    1.2351    1.3000
    23   12.7893    7.7435    3.6339    1.3000
    24   16.8395    0.0000    5.2425    1.3000
    25   16.4482    1.9141    7.9658    1.3000
    26   19.2504    2.1554    6.1333    1.3000

          ----------------
          PROPERTIES INPUT
          ----------------

     MOMENTS            FIELD           POTENTIAL          DENSITY
 IEMOM =       1   IEFLD =       0   IEPOT =       0   IEDEN =       0
 WHERE =COMASS     WHERE =NUCLEI     WHERE =NUCLEI     WHERE =NUCLEI  
 OUTPUT=BOTH       OUTPUT=BOTH       OUTPUT=BOTH       OUTPUT=BOTH    
 IEMINT=       0   IEFINT=       0                     IEDINT=       0
                                                       MORB  =       0
          EXTRAPOLATION IN EFFECT
          SOSCF IN EFFECT
 ORBITAL PRINTING OPTION: NPREO=     1   286     2     1

     -------------------------------
     INTEGRAL TRANSFORMATION OPTIONS
     -------------------------------
     NWORD  =            0
     CUTOFF = 1.0E-09     MPTRAN =       0
     DIRTRF =       T     AOINTS =DUP     

          ----------------------
          INTEGRAL INPUT OPTIONS
          ----------------------
 NOPK  =       1 NORDER=       0 SCHWRZ=       T


 -----------------------------------------------
  STATISTICS ON AUTOMATIC COORDINATE GENERATION 
 -----------------------------------------------
  NUMBER OF USER SPECIFIED BONDS                             0
  NUMBER OF BONDS                                           25
  NUMBER OF ANGLES                                          46
  NUMBER OF TORSIONS                                        56
  NUMBER OF EXTRA COORD.                                     0
  NUMBER OF EXTRA COORD. FOR CONSTRAINTS                     0
  NUMBER OF CONSTRAINED COORD.                               0

  TOTAL NUMBER OF PRIMITIVES                               127
 -----------------------------------------------

   --- ENCODED Z MATRIX ---
 COORD  TYPE   I   J   K   L   M   N
    1      1    1  11
    2      1    1   2
    3      1    1  13
    4      1    1  12
    5      1    2  14
    6      1    2  15
    7      1    2   3
    8      1    3  16
    9      1    3   4
   10      1    3  17
   11      1    4  19
   12      1    4  18
   13      1    4   5
   14      1    5   6
   15      1    5  21
   16      1    5  20
   17      1    6   9
   18      1    6  23
   19      1    6  22
   20      1    7  26
   21      1    7  25
   22      1    7   8
   23      1    7  24
   24      1    8  10
   25      1    8   9
   26      2    1   2   3
   27      2    1   2  15
   28      2    1   2  14
   29      2    2   3  17
   30      2    2   3   4
   31      2    2   1  11
   32      2    2   3  16
   33      2    2   1  12
   34      2    2   1  13
   35      2    3   2  15
   36      2    3   2  14
   37      2    3   4  18
   38      2    3   4  19
   39      2    3   4   5
   40      2    4   5  20
   41      2    4   3  17
   42      2    4   5  21
   43      2    4   5   6
   44      2    4   3  16
   45      2    5   6   9
   46      2    5   4  18
   47      2    5   4  19
   48      2    5   6  23
   49      2    5   6  22
   50      2    6   5  20
   51      2    6   5  21
   52      2    6   9   8
   53      2    7   8  10
   54      2    7   8   9
   55      2    8   7  24
   56      2    8   7  25
   57      2    8   7  26
   58      2    9   8  10
   59      2    9   6  22
   60      2    9   6  23
   61      2   11   1  12
   62      2   11   1  13
   63      2   12   1  13
   64      2   14   2  15
   65      2   16   3  17
   66      2   18   4  19
   67      2   20   5  21
   68      2   22   6  23
   69      2   24   7  25
   70      2   24   7  26
   71      2   25   7  26
   72      3    1   2   3  17
   73      3    1   2   3   4
   74      3    1   2   3  16
   75      3    2   3   4   5
   76      3    2   3   4  18
   77      3    2   3   4  19
   78      3    3   2   1  12
   79      3    3   4   5  21
   80      3    3   4   5   6
   81      3    3   2   1  11
   82      3    3   2   1  13
   83      3    3   4   5  20
   84      3    4   3   2  15
   85      3    4   3   2  14
   86      3    4   5   6  22
   87      3    4   5   6  23
   88      3    4   5   6   9
   89      3    5   4   3  16
   90      3    5   4   3  17
   91      3    5   6   9   8
   92      3    6   5   4  18
   93      3    6   5   4  19
   94      3    6   9   8  10
   95      3    6   9   8   7
   96      3    8   9   6  22
   97      3    8   9   6  23
   98      3    9   8   7  25
   99      3    9   8   7  26
  100      3    9   8   7  24
  101      3    9   6   5  20
  102      3    9   6   5  21
  103      3   10   8   7  24
  104      3   10   8   7  25
  105      3   10   8   7  26
  106      3   11   1   2  15
  107      3   11   1   2  14
  108      3   12   1   2  14
  109      3   12   1   2  15
  110      3   13   1   2  14
  111      3   13   1   2  15
  112      3   14   2   3  17
  113      3   14   2   3  16
  114      3   15   2   3  17
  115      3   15   2   3  16
  116      3   16   3   4  19
  117      3   16   3   4  18
  118      3   17   3   4  19
  119      3   17   3   4  18
  120      3   18   4   5  21
  121      3   18   4   5  20
  122      3   19   4   5  21
  123      3   19   4   5  20
  124      3   20   5   6  22
  125      3   20   5   6  23
  126      3   21   5   6  22
  127      3   21   5   6  23

          INDEP./SYM. INTERNAL COORDINATES
          --------------------------------
 CRD  1=  -0.2148 ( 30)  0.1132 ( 37)  0.1382 ( 38) -0.4248 ( 39)  0.1005 ( 41)
          -0.1342 ( 42)  0.3525 ( 43) -0.3937 ( 45)  0.1167 ( 46)  0.1495 ( 47)
           0.1079 ( 48) -0.1149 ( 51)  0.3700 ( 52) -0.1827 ( 54)  0.1100 ( 59)
           0.1517 ( 60)
 CRD  2=  -0.1209 (  9)  0.2421 ( 26)  0.1809 ( 29) -0.5175 ( 30)  0.1430 ( 32)
          -0.1093 ( 35)  0.1249 ( 38) -0.1280 ( 39)  0.1339 ( 41) -0.1691 ( 43)
           0.1749 ( 44)  0.1998 ( 45) -0.1426 ( 49)  0.1341 ( 50) -0.3070 ( 52)
           0.1242 ( 54) -0.1085 ( 79) -0.2187 ( 80) -0.1185 ( 83)  0.1348 ( 88)
           0.1134 ( 90) -0.1794 ( 91) -0.1032 ( 93)
 CRD  3=   0.1155 (  9)  0.2629 ( 26) -0.1107 ( 28) -0.1340 ( 30) -0.1097 ( 36)
          -0.1954 ( 37)  0.3418 ( 39)  0.1062 ( 42) -0.1179 ( 45) -0.1927 ( 47)
           0.1067 ( 48)  0.3131 ( 52) -0.1500 ( 54)  0.1178 ( 58)  0.1297 ( 59)
           0.1278 ( 73) -0.1557 ( 75) -0.1286 ( 77) -0.1206 ( 80) -0.1499 ( 88)
          -0.1304 ( 91) -0.2619 ( 94) -0.2898 ( 95)
 CRD  4=  -0.2822 ( 39) -0.1827 ( 40)  0.1118 ( 41)  0.1987 ( 43)  0.1194 ( 45)
           0.1895 ( 46) -0.2492 ( 52)  0.2381 ( 54)  0.1095 ( 55) -0.1466 ( 58)
          -0.1683 ( 60) -0.1299 ( 73) -0.1539 ( 75) -0.1006 ( 84) -0.1240 ( 86)
          -0.1299 ( 87) -0.2945 ( 88) -0.1337 ( 89) -0.1308 ( 90)  0.1137 ( 91)
          -0.2234 ( 94) -0.3193 ( 95) -0.1668 (101) -0.1532 (102)
 CRD  5=  -0.1225 (  2) -0.1212 (  7) -0.2544 (  9) -0.2509 ( 13) -0.2756 ( 14)
          -0.2840 ( 17) -0.1783 ( 22) -0.2381 ( 25) -0.2422 ( 26)  0.1717 ( 42)
          -0.3572 ( 43) -0.1798 ( 45)  0.1111 ( 50)  0.1835 ( 53) -0.2694 ( 54)
          -0.1102 ( 56)  0.1291 ( 59) -0.1287 ( 88) -0.1141 ( 94) -0.1599 ( 95)
 CRD  6=  -0.4048 ( 26)  0.1033 ( 27)  0.1119 ( 28) -0.1130 ( 29)  0.1865 ( 30)
           0.1057 ( 34)  0.1639 ( 35)  0.1361 ( 36)  0.1015 ( 43)  0.1953 ( 48)
          -0.1979 ( 49) -0.1239 ( 51) -0.1869 ( 80)  0.1458 ( 88) -0.4413 ( 91)
          -0.1206 ( 92) -0.1484 ( 93) -0.2041 ( 94) -0.2078 ( 96) -0.2023 ( 97)
          -0.1300 ( 98) -0.1253 ( 99) -0.1158 (100)
 CRD  7=   0.2139 (  2)  0.2562 (  7)  0.1881 (  9) -0.1241 ( 14) -0.2444 ( 17)
          -0.1619 ( 22) -0.2799 ( 25)  0.3019 ( 26) -0.1280 ( 27) -0.1026 ( 28)
           0.2734 ( 30)  0.1086 ( 43) -0.1345 ( 44) -0.1645 ( 45)  0.1508 ( 48)
          -0.4348 ( 52)  0.1261 ( 53) -0.1261 ( 91)
 CRD  8=   0.1043 (  2)  0.1377 (  7)  0.1645 ( 25)  0.1580 ( 26) -0.1601 ( 27)
           0.1402 ( 30)  0.1717 ( 33)  0.1149 ( 37)  0.1000 ( 38) -0.2162 ( 39)
          -0.2883 ( 43) -0.2069 ( 44)  0.2958 ( 45) -0.1717 ( 49)  0.1248 ( 50)
           0.1251 ( 51)  0.2562 ( 52) -0.2164 ( 54)  0.1224 ( 57)  0.2086 ( 58)
          -0.1244 ( 72) -0.2235 ( 73) -0.1419 ( 84) -0.1347 ( 85) -0.1085 ( 91)
 CRD  9=  -0.1122 (  2) -0.1045 ( 26) -0.1648 ( 29) -0.1140 ( 30)  0.2029 ( 32)
           0.1493 ( 35) -0.1829 ( 37)  0.1010 ( 39)  0.1400 ( 41)  0.1486 ( 46)
          -0.1810 ( 47) -0.1653 ( 55)  0.1209 ( 56) -0.3205 ( 75) -0.1903 ( 76)
          -0.2131 ( 77) -0.1295 ( 78) -0.1140 ( 81) -0.1181 ( 82) -0.1645 ( 89)
          -0.1316 ( 90)  0.2923 ( 94)  0.3668 ( 95)  0.1151 ( 96)  0.1184 ( 97)
 CRD 10=   0.1125 (  7) -0.2469 ( 13) -0.2710 ( 14)  0.2016 ( 17)  0.2644 ( 22)
           0.1063 ( 26)  0.1021 ( 30) -0.2606 ( 43) -0.2817 ( 45)  0.1794 ( 52)
          -0.1562 ( 53)  0.3776 ( 54)  0.2211 ( 56) -0.1157 ( 57) -0.2215 ( 58)
           0.1890 ( 59)  0.2018 ( 60) -0.1063 ( 69)  0.1076 ( 96) -0.1011 ( 97)
 CRD 11=   0.2160 (  7) -0.2812 ( 13)  0.1081 ( 27) -0.1454 ( 28)  0.1081 ( 30)
           0.2791 ( 31) -0.2932 ( 33)  0.1557 ( 38) -0.2564 ( 39) -0.1458 ( 40)
          -0.1493 ( 41)  0.2059 ( 45)  0.1535 ( 46) -0.1081 ( 62)  0.1636 ( 72)
           0.2836 ( 73)  0.1870 ( 74) -0.1176 ( 79) -0.1367 ( 82)  0.1290 ( 84)
           0.1154 ( 85)  0.1052 ( 91)  0.1092 ( 97)
 CRD 12=  -0.1368 (  2) -0.3432 (  7) -0.1859 (  9) -0.1129 ( 11)  0.1310 ( 26)
           0.2513 ( 31) -0.1118 ( 33) -0.2507 ( 34) -0.1571 ( 38) -0.2431 ( 55)
           0.1577 ( 56)  0.1399 ( 63)  0.1444 ( 79)  0.2343 ( 80)  0.1628 ( 83)
          -0.1766 ( 91)  0.1292 ( 92) -0.1778 ( 96) -0.1688 ( 97) -0.1642 ( 98)
          -0.2373 ( 99) -0.1901 (100)
 CRD 13=  -0.4689 ( 22) -0.1167 ( 24) -0.4624 ( 53)  0.1133 ( 54)  0.1746 ( 56)
          -0.5092 ( 57)  0.3490 ( 58)  0.2259 ( 70)  0.1627 ( 71)
 CRD 14=   0.3505 (  2)  0.1546 ( 27)  0.1330 ( 29) -0.1013 ( 32)  0.2592 ( 34)
          -0.1655 ( 35) -0.1294 ( 40)  0.1305 ( 42) -0.3869 ( 55)  0.2690 ( 56)
           0.1360 ( 57) -0.1064 ( 62) -0.1620 ( 63) -0.1405 ( 71)  0.1010 ( 76)
           0.1222 ( 77)  0.1338 ( 81)  0.1286 ( 82) -0.1249 ( 86) -0.1297 ( 87)
          -0.1959 ( 88)  0.1110 ( 95) -0.1828 ( 99) -0.1205 (100)
 CRD 15=  -0.4969 (  2)  0.2283 (  7) -0.1474 ( 27) -0.1843 ( 28)  0.1065 ( 29)
           0.1077 ( 30) -0.2228 ( 31) -0.1116 ( 32) -0.2831 ( 34)  0.2047 ( 36)
          -0.1085 ( 40) -0.1274 ( 41) -0.1712 ( 55)  0.1186 ( 56)  0.1088 ( 61)
           0.2314 ( 62)  0.1154 ( 63)  0.1015 ( 77)  0.1172 ( 78)  0.1261 ( 82)
           0.1106 ( 84) -0.1042 ( 88) -0.1027 (107)  0.1073 (115)
 CRD 16=   0.2089 (  7) -0.1463 (  9)  0.4887 ( 13) -0.3735 ( 14)  0.1016 ( 27)
          -0.1818 ( 28) -0.2005 ( 33) -0.1123 ( 35)  0.1703 ( 36)  0.1297 ( 40)
           0.1123 ( 42) -0.1348 ( 44)  0.1366 ( 46) -0.1228 ( 48) -0.1197 ( 49)
          -0.1440 ( 50) -0.1121 ( 51)  0.1175 ( 68)  0.1129 ( 74)  0.1002 ( 81)
           0.1159 (117) -0.1002 (118)  0.1054 (120) -0.1097 (123)
 CRD 17=   0.1157 (  3)  0.3494 (  7) -0.2878 (  9)  0.1639 ( 14) -0.1021 ( 27)
           0.1572 ( 29) -0.1168 ( 30) -0.2656 ( 31)  0.1680 ( 32) -0.1016 ( 33)
           0.3482 ( 34)  0.1043 ( 39) -0.1092 ( 41) -0.1702 ( 42)  0.1451 ( 49)
          -0.1394 ( 50)  0.1815 ( 51)  0.1643 ( 61) -0.1015 ( 63) -0.1047 ( 72)
           0.1344 ( 80)  0.1680 ( 92) -0.1551 ( 96)
 CRD 18=  -0.1805 (  2)  0.1015 (  7)  0.5299 (  9)  0.1306 ( 10) -0.1267 ( 30)
          -0.3511 ( 33)  0.1209 ( 34)  0.1277 ( 37)  0.1619 ( 38)  0.1393 ( 40)
           0.2413 ( 41) -0.1148 ( 43)  0.1537 ( 51) -0.1139 ( 55)  0.1186 ( 56)
           0.1347 ( 61)  0.1053 ( 63)  0.1097 ( 72) -0.1165 ( 85)  0.1720 ( 93)
          -0.1033 (113)
 CRD 19=   0.1662 ( 14)  0.2604 ( 27) -0.2265 ( 28)  0.1020 ( 33) -0.2980 ( 35)
           0.2745 ( 36)  0.1279 ( 38)  0.1498 ( 46) -0.1899 ( 47)  0.1930 ( 49)
           0.1267 ( 51)  0.2210 ( 55) -0.1435 ( 59)  0.1158 ( 60)  0.1026 ( 72)
           0.1215 ( 74) -0.1316 ( 75)  0.2030 ( 78)  0.2019 ( 81)  0.1911 ( 82)
          -0.1501 ( 89) -0.1437 ( 90) -0.1726 ( 96)  0.1100 (101)
 CRD 20=  -0.1607 (  9)  0.1531 ( 13)  0.3811 ( 14)  0.1318 ( 15)  0.1299 ( 16)
           0.1662 ( 31)  0.1103 ( 32) -0.2486 ( 33)  0.1186 ( 37) -0.1498 ( 38)
           0.1623 ( 42) -0.1527 ( 43) -0.1910 ( 44) -0.1149 ( 45)  0.1356 ( 47)
           0.2686 ( 48)  0.2494 ( 50)  0.1086 ( 56) -0.1069 ( 57) -0.1093 ( 62)
          -0.1042 ( 67) -0.1344 ( 68) -0.1096 ( 73)  0.1306 ( 83) -0.1261 ( 84)
          -0.1270 ( 85) -0.1027 ( 92) -0.1419 ( 93)  0.1974 ( 97)
 CRD 21=  -0.1308 (  2)  0.1055 (  3) -0.1052 (  5)  0.1034 (  9) -0.1239 ( 13)
          -0.1556 ( 14) -0.1220 ( 16)  0.1327 ( 26) -0.1965 ( 31) -0.2194 ( 33)
           0.2874 ( 34)  0.1537 ( 37) -0.1092 ( 38) -0.2598 ( 40)  0.2019 ( 42)
          -0.1045 ( 46) -0.1302 ( 48)  0.1522 ( 50) -0.2295 ( 51)  0.1639 ( 55)
          -0.2275 ( 56) -0.1138 ( 59)  0.1375 ( 60)  0.2004 ( 61)  0.1024 ( 71)
           0.1589 ( 79)  0.1227 ( 83) -0.1570 ( 86) -0.1711 ( 87)  0.1118 ( 95)
          -0.1087 ( 97)  0.1213 (101)  0.1008 (102)
 CRD 22=  -0.1314 ( 13)  0.1030 ( 17)  0.1312 ( 20) -0.1961 ( 22) -0.2492 ( 24)
           0.1040 ( 27) -0.1105 ( 28) -0.1259 ( 29) -0.1128 ( 31)  0.1149 ( 32)
          -0.1398 ( 35)  0.1068 ( 41) -0.1149 ( 42) -0.1337 ( 44)  0.2613 ( 48)
          -0.2155 ( 49) -0.1387 ( 53)  0.1693 ( 54) -0.1656 ( 55) -0.3109 ( 56)
           0.2717 ( 57)  0.2136 ( 59) -0.1211 ( 60)  0.2322 ( 69)  0.1056 ( 86)
           0.1614 ( 96)  0.1539 ( 97)
 CRD 23=  -0.1080 (  1) -0.1206 (  5) -0.1678 (  7) -0.1157 ( 10) -0.1139 ( 14)
          -0.1041 ( 19) -0.1176 ( 20)  0.1832 ( 22)  0.2501 ( 24)  0.1161 ( 26)
          -0.1089 ( 29) -0.2665 ( 31)  0.1712 ( 34) -0.1236 ( 35) -0.1144 ( 42)
           0.1406 ( 45)  0.1372 ( 48) -0.2664 ( 49)  0.1217 ( 53) -0.1698 ( 54)
           0.1415 ( 55)  0.2947 ( 56) -0.2431 ( 57) -0.1898 ( 60)  0.1196 ( 61)
          -0.2121 ( 69)  0.1493 ( 96)  0.1085 ( 97)
 CRD 24=   0.1253 (  1) -0.1099 (  4)  0.1193 (  5)  0.1327 ( 10) -0.1555 ( 11)
          -0.1060 ( 13) -0.1181 ( 16) -0.1141 ( 19)  0.1013 ( 28)  0.2035 ( 29)
           0.2286 ( 31) -0.1121 ( 32) -0.1698 ( 33) -0.1163 ( 37)  0.1096 ( 39)
          -0.2252 ( 47)  0.2177 ( 48) -0.2653 ( 49) -0.1093 ( 50)  0.2130 ( 55)
          -0.1136 ( 56)  0.1392 ( 59) -0.1583 ( 60) -0.1120 ( 62)  0.1205 ( 63)
          -0.1374 ( 72) -0.1372 ( 73) -0.1217 ( 74)  0.1184 ( 76)  0.1653 ( 77)
          -0.1235 ( 89) -0.1518 ( 90)  0.1004 ( 92)  0.1081 ( 93)  0.1278 ( 94)
           0.1466 ( 95)  0.1200 ( 96)
 CRD 25=  -0.1585 (  5) -0.1037 (  6) -0.2501 (  7) -0.1359 (  8) -0.1042 ( 10)
           0.1509 ( 12)  0.2511 ( 13)  0.1536 ( 14)  0.1195 ( 15)  0.1505 ( 16)
           0.1639 ( 26)  0.1542 ( 30) -0.1316 ( 31) -0.2623 ( 32) -0.1154 ( 33)
           0.1630 ( 34) -0.1526 ( 36) -0.1434 ( 37)  0.1650 ( 38) -0.1622 ( 39)
           0.1266 ( 40) -0.1755 ( 41) -0.1611 ( 43)  0.1498 ( 44)  0.2700 ( 46)
           0.1211 ( 51)  0.1257 ( 61) -0.1014 ( 67)  0.1287 ( 76) -0.1056 ( 79)
           0.1032 ( 84) -0.1318 ( 89)
 CRD 26=  -0.1127 (  4) -0.2187 (  6) -0.1762 (  7) -0.2378 (  8) -0.1519 (  9)
          -0.2118 ( 12) -0.1818 ( 13) -0.2136 ( 15)  0.1078 ( 26)  0.1162 ( 30)
           0.1045 ( 31) -0.2213 ( 33) -0.1153 ( 35) -0.1360 ( 37)  0.1340 ( 39)
          -0.1061 ( 42)  0.1085 ( 43) -0.1027 ( 44) -0.1250 ( 47) -0.1573 ( 48)
          -0.1807 ( 55)  0.1521 ( 56) -0.1004 ( 59) -0.1097 ( 62) -0.1091 ( 72)
          -0.1776 ( 73) -0.1433 ( 80) -0.1026 ( 83) -0.1087 ( 84) -0.1041 ( 85)
          -0.1103 ( 94) -0.1634 ( 95)  0.1249 ( 98)  0.1191 ( 99)  0.1233 (100)
 CRD 27=   0.1372 (  8) -0.2021 ( 11)  0.2774 ( 12)  0.2692 ( 18) -0.2635 ( 19)
           0.1302 ( 29) -0.1824 ( 55)  0.1233 ( 56) -0.1025 ( 71)  0.1370 ( 79)
           0.1050 ( 80)  0.1437 ( 83)  0.1306 ( 88) -0.1056 ( 89) -0.1575 ( 90)
          -0.1953 ( 95)  0.2590 ( 98)  0.2727 ( 99)  0.2654 (100)  0.1765 (101)
           0.1783 (102)  0.1428 (103)  0.1365 (104)  0.1501 (105)
 CRD 28=   0.2501 ( 17)  0.1467 ( 19)  0.2967 ( 20)  0.3827 ( 21)  0.3531 ( 23)
          -0.1868 ( 25) -0.1126 ( 48)  0.2706 ( 53) -0.1607 ( 55) -0.1309 ( 56)
          -0.2813 ( 57) -0.2160 ( 58)  0.1272 ( 69)  0.2484 ( 70)  0.2292 ( 71)
 CRD 29=   0.3421 (  5) -0.3138 (  6)  0.3540 (  8) -0.2824 ( 10)  0.2225 ( 12)
          -0.1431 ( 15)  0.1831 ( 16) -0.1422 ( 18) -0.1131 ( 21) -0.1018 ( 23)
           0.1225 ( 37) -0.1272 ( 38) -0.1216 ( 41)  0.1189 ( 44)  0.1269 ( 47)
          -0.1324 ( 72) -0.1304 ( 74) -0.1019 ( 75) -0.1184 ( 76) -0.1525 ( 77)
           0.1034 ( 78)  0.1044 ( 81)  0.1252 ( 82)  0.1048 ( 85) -0.1150 (118)
 CRD 30=  -0.5014 (  1) -0.1735 (  2) -0.4798 (  3) -0.5044 (  4)  0.1780 ( 31)
           0.1754 ( 33)  0.1943 ( 34) -0.1875 ( 61) -0.2014 ( 62) -0.1984 ( 63)
 CRD 31=   0.2371 (  5) -0.2404 (  6)  0.1490 (  8) -0.2634 ( 10)  0.3227 ( 11)
          -0.2281 ( 12)  0.3601 ( 15) -0.3657 ( 16)  0.2259 ( 18) -0.2307 ( 19)
          -0.1199 ( 29) -0.1091 ( 86) -0.1085 ( 87)  0.1045 ( 89)  0.1280 ( 90)
           0.1157 ( 92)  0.1112 ( 93)
 CRD 32=  -0.1051 ( 14) -0.2758 ( 17) -0.2367 ( 18) -0.2375 ( 19)  0.3516 ( 20)
           0.3188 ( 21)  0.2519 ( 22)  0.3239 ( 23)  0.2507 ( 24)  0.3061 ( 25)
          -0.1130 ( 45)  0.1558 ( 48)  0.1585 ( 49) -0.2246 ( 53) -0.1101 ( 56)
           0.1649 ( 58) -0.1335 ( 68)  0.1349 ( 69) -0.1043 ( 96)  0.1003 ( 97)
 CRD 33=  -0.1089 (  5)  0.1054 (  6)  0.1006 ( 11) -0.1291 ( 12)  0.1631 ( 15)
          -0.1690 ( 16)  0.1368 ( 18) -0.1418 ( 19)  0.1358 ( 27) -0.1361 ( 28)
           0.1392 ( 29) -0.1516 ( 32)  0.1266 ( 37) -0.1174 ( 38) -0.1330 ( 41)
           0.1454 ( 44) -0.1510 ( 46)  0.1412 ( 47) -0.1206 ( 50)  0.1203 ( 51)
          -0.1056 ( 76) -0.1051 ( 79) -0.1032 ( 83) -0.1066 ( 84) -0.1044 ( 85)
          -0.1769 (112) -0.1841 (113) -0.1790 (114) -0.1863 (115) -0.1915 (116)
          -0.1973 (117) -0.1844 (118) -0.1902 (119) -0.1622 (120) -0.1603 (121)
          -0.1568 (122) -0.1550 (123)
 CRD 34=   0.4852 ( 20) -0.5382 ( 21) -0.3207 ( 69)  0.3656 ( 70)  0.1029 ( 98)
           0.1542 ( 99) -0.2605 (100) -0.2664 (103)  0.1483 (105)
 CRD 35=  -0.3496 ( 20) -0.2429 ( 21)  0.6042 ( 23)  0.2325 ( 69)  0.1612 ( 70)
          -0.3919 ( 71) -0.2504 ( 98)  0.2012 ( 99) -0.2608 (104)  0.1907 (105)
 CRD 36=   0.5526 ( 18)  0.5397 ( 19)  0.1588 ( 20)  0.2505 ( 24)  0.2053 ( 25)
          -0.1763 ( 52) -0.1412 ( 53)  0.1799 ( 58)  0.2192 ( 68) -0.1010 ( 86)
           0.1263 ( 96) -0.1282 ( 97) -0.1072 (124)  0.1050 (127)
 CRD 37=  -0.3003 (  1)  0.6342 (  3) -0.2889 (  4) -0.1692 (  5) -0.1716 (  6)
          -0.3277 ( 61)  0.1556 ( 62)  0.1619 ( 63) -0.1719 ( 78)  0.1710 ( 81)
           0.1863 (106)  0.1560 (107) -0.1869 (108) -0.1566 (109)
 CRD 38=   0.5446 (  1) -0.5524 (  4)  0.2947 ( 62) -0.2912 ( 63) -0.2332 ( 82)
          -0.2263 (110) -0.2260 (111)
 CRD 39=  -0.1660 (  5) -0.1938 (  6)  0.3922 (  8)  0.3423 ( 10) -0.3709 ( 11)
          -0.4221 ( 12)  0.2751 ( 15)  0.2415 ( 16)  0.1381 ( 65) -0.1473 ( 66)
          -0.1325 (116)  0.1309 (119) -0.1052 (121)
 CRD 40=  -0.3216 (  5) -0.3274 (  6)  0.2247 (  8)  0.2143 ( 10) -0.4591 ( 15)
          -0.4604 ( 16) -0.1238 ( 64) -0.1876 ( 67) -0.1076 (114)  0.1078 (121)
 CRD 41=   0.1047 (  3)  0.4289 (  5)  0.4255 (  6)  0.1935 (  8) -0.1940 ( 11)
          -0.2812 ( 12) -0.2640 ( 15) -0.2719 ( 16)  0.1831 ( 64) -0.1098 ( 66)
          -0.1221 ( 67) -0.1364 (109) -0.1225 (112)  0.1150 (123)
 CRD 42=  -0.1772 (  8)  0.2178 ( 10) -0.2428 ( 11)  0.1534 ( 12)  0.1534 ( 18)
          -0.1369 ( 19) -0.1133 ( 27)  0.1056 ( 37)  0.1111 ( 51)  0.1094 ( 72)
           0.1160 ( 74)  0.1085 ( 81) -0.1189 ( 86) -0.1176 ( 87) -0.1300 ( 92)
          -0.1139 ( 93)  0.1353 (106)  0.1594 (107)  0.1502 (108)  0.1261 (109)
           0.1223 (110)  0.1632 (112)  0.1698 (113)  0.1923 (114)  0.1989 (115)
          -0.2103 (120) -0.1766 (121) -0.1942 (122) -0.1605 (123) -0.1785 (124)
          -0.1772 (125) -0.1490 (126) -0.1477 (127)
 CRD 43=  -0.1515 (  5) -0.1365 (  6) -0.3424 (  8) -0.4619 ( 10) -0.4335 ( 11)
          -0.3288 ( 12) -0.1097 ( 15) -0.1210 ( 16) -0.1819 ( 65) -0.1715 ( 66)
          -0.1032 (115)  0.1567 (117) -0.1414 (118)
 CRD 44=   0.5504 ( 17) -0.1211 ( 20) -0.1397 ( 22)  0.4491 ( 24)  0.2281 ( 25)
          -0.1624 ( 45) -0.3362 ( 52) -0.1875 ( 54)  0.1164 ( 58)  0.1507 ( 59)
           0.1656 ( 60) -0.2231 ( 68)  0.1085 ( 86) -0.1197 ( 87)  0.1070 (124)
          -0.1212 (125)  0.1018 (126) -0.1264 (127)
 CRD 45=   0.1767 (  8) -0.1851 ( 10) -0.2785 ( 15)  0.2701 ( 16)  0.2862 ( 18)
          -0.2830 ( 19) -0.1043 ( 59) -0.1566 ( 86) -0.1463 ( 87)  0.1192 ( 89)
           0.1080 ( 90) -0.1393 (101) -0.1340 (102)  0.1488 (116)  0.1437 (117)
           0.1377 (118)  0.1325 (119) -0.2513 (124) -0.2411 (125) -0.2460 (126)
          -0.2357 (127)
 CRD 46=  -0.1027 (  5)  0.1060 (  6)  0.3185 ( 11) -0.3196 ( 12) -0.2513 ( 15)
           0.2440 ( 16)  0.1192 ( 18) -0.1201 ( 19) -0.1300 ( 76) -0.1337 ( 77)
           0.1208 ( 78)  0.1011 ( 79)  0.1232 ( 81)  0.1100 ( 82)  0.1067 ( 83)
          -0.1299 ( 90)  0.1058 ( 93)  0.1784 (106)  0.1881 (107)  0.1857 (108)
           0.1760 (109)  0.1749 (110)  0.1652 (111) -0.1725 (116) -0.1688 (117)
          -0.2036 (118) -0.1999 (119)  0.1355 (120)  0.1411 (121)  0.1461 (122)
           0.1517 (123)
 CRD 47=   0.3606 (  5) -0.3675 (  6) -0.2923 (  8)  0.2840 ( 10)  0.1233 ( 72)
           0.1030 ( 74) -0.1177 ( 78) -0.1154 ( 81) -0.1356 ( 82)  0.1200 ( 84)
           0.1246 ( 85) -0.1877 (106) -0.1876 (107) -0.1899 (108) -0.1900 (109)
          -0.2078 (110) -0.2079 (111)  0.1578 (112)  0.1375 (113)  0.1533 (114)
           0.1330 (115) -0.1130 (118)
 CRD 48=  -0.2307 ( 18)  0.2388 ( 19) -0.1047 ( 21)  0.1510 ( 23)  0.1041 ( 71)
          -0.1189 ( 88) -0.2171 ( 91)  0.1818 ( 95) -0.1738 ( 96) -0.1664 ( 97)
           0.2306 ( 98)  0.1150 ( 99)  0.1976 (100) -0.1578 (101) -0.1520 (102)
           0.3673 (103)  0.4003 (104)  0.2846 (105) -0.1290 (124) -0.1308 (125)
          -0.1232 (126) -0.1251 (127)
 CRD 49=   0.1188 ( 17)  0.2511 ( 20)  0.1737 ( 21)  0.1922 ( 23) -0.2086 ( 24)
          -0.3678 ( 25) -0.2171 ( 52) -0.2299 ( 53) -0.1541 ( 54)  0.1765 ( 55)
           0.1623 ( 56)  0.2134 ( 57)  0.3841 ( 58)  0.1243 ( 59)  0.1233 ( 60)
          -0.1648 ( 69) -0.2154 ( 70) -0.2027 ( 71)  0.1294 (124) -0.1348 (127)
 CRD 50=  -0.1323 (  1) -0.2394 (  3) -0.1253 (  4)  0.1657 ( 17)  0.1156 ( 21)
          -0.2167 ( 24)  0.1708 ( 27)  0.1887 ( 28)  0.1184 ( 29) -0.1374 ( 31)
          -0.1405 ( 33) -0.1752 ( 34) -0.1397 ( 35) -0.1548 ( 36)  0.1090 ( 37)
           0.1288 ( 38) -0.1602 ( 41) -0.1432 ( 44) -0.1165 ( 50) -0.1008 ( 54)
           0.1032 ( 61)  0.1946 ( 62)  0.1882 ( 63)  0.1089 ( 74)  0.1363 ( 85)
          -0.1051 ( 92) -0.1148 (109)  0.2286 (113) -0.1849 (114) -0.1773 (121)
           0.1133 (122)
 CRD 51=   0.1021 (  1)  0.1878 (  3)  0.1157 (  4) -0.1867 (  9)  0.2180 ( 17)
           0.1482 ( 21) -0.3499 ( 24)  0.1532 ( 25) -0.1282 ( 27) -0.1216 ( 28)
           0.1177 ( 31)  0.1165 ( 33)  0.1419 ( 34)  0.1173 ( 35)  0.1041 ( 36)
           0.1252 ( 40)  0.1374 ( 42)  0.1290 ( 48)  0.1323 ( 49) -0.1370 ( 50)
          -0.1416 ( 51) -0.1437 ( 54) -0.1219 ( 59) -0.1317 ( 60) -0.1491 ( 62)
          -0.1615 ( 63) -0.1414 ( 69) -0.1352 ( 96)  0.1282 ( 97)  0.1195 (114)
          -0.1215 (117) -0.1055 (121)  0.1376 (122)  0.1064 (127)
 CRD 52=   0.1155 (  9) -0.1529 ( 14) -0.1225 ( 17) -0.1863 ( 20)  0.1646 ( 21)
          -0.4077 ( 24)  0.5434 ( 25) -0.1241 ( 37) -0.1270 ( 38)  0.1039 ( 46)
           0.1123 ( 47)  0.1187 ( 50) -0.1273 ( 52)  0.1694 ( 53) -0.1222 ( 54)
          -0.1510 ( 69)  0.1467 (121) -0.1213 (122)
 CRD 53=  -0.2232 (  1)  0.3970 (  2) -0.1909 (  4)  0.1054 (  7) -0.1579 (  9)
          -0.1444 ( 11)  0.1075 ( 17) -0.1510 ( 25) -0.1744 ( 29) -0.1753 ( 31)
          -0.1642 ( 32) -0.1664 ( 33) -0.1613 ( 34)  0.1436 ( 41)  0.1616 ( 44)
           0.2412 ( 61)  0.1607 ( 62)  0.1372 ( 63)  0.1298 ( 90)  0.1388 (109)
          -0.1095 (113) -0.1235 (115) -0.1269 (116) -0.1420 (117)  0.1537 (120)
 CRD 54=   0.1308 ( 15) -0.1521 ( 16) -0.1975 ( 18)  0.2844 ( 19)  0.1967 ( 21)
          -0.3287 ( 23)  0.1129 ( 48) -0.1480 ( 59)  0.1599 ( 70) -0.2090 ( 71)
          -0.1386 ( 91)  0.2032 ( 94)  0.2805 ( 99) -0.1820 (103) -0.2894 (104)
           0.1218 (120) -0.1536 (124) -0.1501 (125) -0.1720 (126) -0.1685 (127)
 CRD 55=   0.1468 (  2) -0.1654 (  9) -0.1599 ( 10)  0.1579 ( 13)  0.2738 ( 14)
          -0.1401 ( 17) -0.2191 ( 18)  0.1740 ( 21) -0.1278 ( 22)  0.1799 ( 25)
           0.1039 ( 37) -0.1118 ( 45) -0.1425 ( 46) -0.1475 ( 47) -0.1298 ( 48)
          -0.1927 ( 49) -0.1195 ( 52)  0.1022 ( 59)  0.1688 ( 60)  0.1016 ( 61)
           0.1676 ( 68) -0.1218 ( 71)  0.1101 ( 77) -0.1071 ( 89)  0.1703 ( 96)
          -0.1987 ( 97)  0.1269 ( 99) -0.1016 (103) -0.1342 (107)  0.1009 (113)
           0.1145 (115) -0.2005 (117) -0.1152 (119)
 CRD 56=   0.1945 ( 20)  0.1289 ( 21) -0.6500 ( 22)  0.1780 ( 23)  0.2766 ( 24)
           0.1106 ( 25)  0.1430 ( 52)  0.1187 ( 53)  0.1351 ( 54)  0.1729 ( 55)
           0.1871 ( 56)  0.1738 ( 57) -0.2538 ( 58) -0.1684 ( 69) -0.2151 ( 70)
          -0.1804 ( 71)
 CRD 57=   0.1092 (  1)  0.1074 (  2) -0.1791 (  4) -0.2197 (  5)  0.1850 (  6)
           0.2268 (  8) -0.1037 ( 10)  0.1376 ( 11) -0.2078 ( 12) -0.2088 ( 14)
           0.1053 ( 16) -0.1446 ( 38)  0.1253 ( 41)  0.1294 ( 48)  0.1006 ( 51)
           0.1310 ( 63) -0.1014 ( 65)  0.1023 ( 82) -0.1358 ( 90) -0.1250 ( 96)
          -0.1582 (106) -0.1634 (107) -0.1449 (108) -0.1397 (109)  0.1999 (112)
           0.2430 (114)  0.1316 (115) -0.1927 (122) -0.1630 (123)
 CRD 58=  -0.2124 (  1)  0.1024 (  2)  0.2359 (  3)  0.1756 (  5) -0.3352 (  7)
           0.1597 ( 11) -0.1288 ( 15)  0.1602 ( 35)  0.1159 ( 36) -0.1013 ( 41)
           0.2143 ( 61) -0.1213 ( 63) -0.1647 ( 64) -0.1188 ( 66)  0.1032 ( 67)
           0.1493 ( 78) -0.1201 ( 81)  0.1051 (101) -0.2047 (107)  0.3161 (109)
          -0.1356 (110)  0.1158 (111) -0.1441 (114)  0.1521 (117) -0.1168 (120)
          -0.1628 (121)  0.1514 (124)
 CRD 59=   0.1829 (  1) -0.1037 (  2) -0.1792 (  4)  0.1992 (  6) -0.1269 ( 11)
           0.2093 ( 12)  0.1166 ( 13) -0.2071 ( 16) -0.1238 ( 17) -0.1712 ( 62)
           0.1010 ( 63)  0.1488 ( 65)  0.1297 ( 67) -0.1262 ( 68) -0.1501 ( 77)
           0.1725 ( 82) -0.1418 (102) -0.1153 (106) -0.1744 (107) -0.1394 (108)
           0.1940 (113)  0.1104 (115) -0.1855 (116) -0.1247 (117)  0.1225 (120)
           0.2114 (122)  0.1406 (123) -0.2143 (127)
 CRD 60=  -0.1539 (  3)  0.1824 (  4) -0.1282 (  6)  0.1503 (  7) -0.2046 (  9)
           0.3162 ( 13) -0.1487 ( 15) -0.2245 ( 17)  0.1631 ( 18)  0.1363 ( 19)
          -0.1023 ( 32) -0.1161 ( 40)  0.1554 ( 62)  0.1067 ( 64)  0.1646 ( 67)
          -0.2210 ( 68)  0.1115 ( 77) -0.1310 ( 82)  0.1165 ( 86) -0.1270 ( 87)
          -0.1243 ( 96)  0.1222 (101) -0.1025 (102)  0.1949 (107) -0.1255 (111)
          -0.1023 (117) -0.1021 (121)  0.2589 (124) -0.2093 (127)
 CRD 61=   0.1364 (  1)  0.1565 (  2) -0.1046 (  3) -0.1025 (  4) -0.1545 (  9)
           0.1698 ( 10)  0.1476 ( 11)  0.1130 ( 12) -0.1645 ( 13)  0.2850 ( 14)
          -0.1494 ( 15) -0.1328 ( 20)  0.1497 ( 21) -0.1308 ( 50)  0.1479 ( 63)
           0.1078 ( 64) -0.2020 ( 66)  0.1431 ( 67)  0.1031 ( 70) -0.1462 ( 77)
           0.1404 ( 82) -0.1331 ( 83) -0.1143 (100) -0.1229 (109)  0.1245 (110)
          -0.1599 (113)  0.1888 (117)  0.1219 (119) -0.2261 (121)  0.1580 (122)
 CRD 62=  -0.1245 ( 14) -0.3817 ( 20)  0.2828 ( 21)  0.1075 ( 23)  0.1711 ( 24)
          -0.1982 ( 25) -0.2247 ( 53)  0.2162 ( 54) -0.1706 ( 56)  0.2365 ( 57)
          -0.2729 ( 69)  0.1930 ( 70)  0.2091 ( 98) -0.2842 (100) -0.2808 (103)
           0.2125 (104)
 CRD 63=  -0.2161 (  2)  0.2068 (  7) -0.1536 (  8) -0.1446 ( 15)  0.1635 ( 16)
           0.1217 ( 18) -0.1478 ( 19)  0.1480 ( 21) -0.2298 ( 23) -0.1299 ( 29)
           0.1189 ( 55)  0.1006 ( 59) -0.1186 ( 60) -0.1100 ( 64)  0.1595 ( 65)
           0.1053 ( 70) -0.1591 ( 71)  0.1098 ( 85) -0.1662 ( 88)  0.1959 ( 90)
           0.1038 ( 94)  0.1986 ( 95) -0.1387 ( 96) -0.1525 ( 97) -0.1288 ( 98)
           0.1551 ( 99)  0.2593 (105)  0.1070 (113) -0.1481 (114) -0.1062 (116)
           0.1331 (118)  0.1569 (119)  0.1224 (125)  0.1283 (127)
 CRD 64=   0.2393 (  2) -0.1745 (  3) -0.1421 (  7)  0.1500 ( 13) -0.2445 ( 14)
           0.1749 ( 17) -0.1101 ( 27) -0.1558 ( 28)  0.1111 ( 32)  0.1020 ( 35)
           0.1230 ( 36) -0.1269 ( 40) -0.1041 ( 41) -0.1190 ( 46)  0.1524 ( 50)
           0.1205 ( 51) -0.1176 ( 60)  0.1258 ( 63) -0.1128 ( 78) -0.1434 ( 79)
           0.1377 ( 84)  0.1056 ( 87)  0.1133 (106) -0.1368 (108) -0.2295 (112)
           0.1684 (115) -0.1810 (120)  0.2268 (123)  0.1372 (125) -0.1062 (126)
 CRD 65=   0.1313 (  2) -0.1772 (  7)  0.3020 (  9) -0.1402 ( 11) -0.1484 ( 13)
           0.1174 ( 14) -0.1270 ( 17)  0.1551 ( 18) -0.1102 ( 23) -0.1180 ( 27)
           0.1225 ( 29) -0.1555 ( 37) -0.1484 ( 44) -0.1204 ( 48) -0.1535 ( 51)
           0.1186 ( 59)  0.1003 ( 66) -0.1190 ( 80)  0.1360 ( 86) -0.1356 ( 93)
           0.1240 ( 95) -0.1184 ( 98) -0.1542 (101)  0.2047 (105) -0.1182 (110)
          -0.1059 (112)  0.1815 (115) -0.1065 (118) -0.1187 (119)  0.2119 (120)
          -0.1132 (123) -0.1175 (125)  0.1483 (126)
 CRD 66=   0.1882 (  3) -0.1756 (  4) -0.1123 (  6) -0.1210 (  9)  0.1567 ( 10)
          -0.1028 ( 11)  0.1167 ( 13)  0.1239 ( 18)  0.1053 ( 27)  0.1037 ( 30)
           0.1177 ( 33) -0.1396 ( 34)  0.1321 ( 38)  0.1422 ( 61) -0.1292 ( 62)
           0.1225 ( 64) -0.1698 ( 65)  0.1055 ( 72) -0.1373 ( 76) -0.1219 ( 80)
          -0.1808 ( 81)  0.1584 ( 89)  0.1024 ( 95) -0.1055 ( 98) -0.1113 (101)
           0.1783 (105) -0.2659 (106)  0.2346 (108)  0.2061 (110) -0.1409 (113)
           0.1821 (116) -0.2004 (119)
 CRD 67=   0.1725 (  1)  0.1092 (  5) -0.1290 (  8) -0.1329 ( 12)  0.1406 ( 16)
          -0.1911 ( 17)  0.1511 ( 19) -0.1160 ( 28) -0.1217 ( 31) -0.1068 ( 41)
           0.1020 ( 43)  0.1378 ( 45)  0.1299 ( 63)  0.1264 ( 66) -0.1371 ( 67)
          -0.1574 ( 68)  0.1725 ( 73) -0.1044 ( 76) -0.1365 ( 78)  0.1092 ( 82)
          -0.1760 ( 87)  0.1712 (102) -0.1045 (105) -0.1235 (108)  0.1223 (110)
           0.2253 (111) -0.1069 (114)  0.1655 (116)  0.1884 (118) -0.1386 (122)
          -0.2493 (125)  0.2594 (126)
 CRD 68=  -0.1129 (  1)  0.1253 (  2)  0.1152 (  3) -0.1788 (  5) -0.1063 (  6)
           0.1940 (  7) -0.1025 (  8)  0.1025 (  9) -0.1085 ( 13)  0.1311 ( 16)
          -0.2024 ( 26) -0.1311 ( 30) -0.1358 ( 34)  0.1038 ( 61)  0.2108 ( 64)
           0.1474 ( 65) -0.1450 ( 72)  0.1443 ( 78)  0.1214 ( 84) -0.1264 ( 85)
          -0.1150 ( 87)  0.1157 ( 90) -0.1055 ( 91)  0.1359 ( 94)  0.1246 ( 98)
          -0.1029 (103) -0.1707 (105) -0.2378 (106)  0.2373 (108) -0.1964 (111)
          -0.2207 (112)  0.2353 (115) -0.1269 (116)  0.1022 (119)  0.1143 (126)
 CRD 69=   0.1187 (  6) -0.1847 (  9)  0.1218 ( 11)  0.1264 ( 12) -0.1997 ( 13)
          -0.1405 ( 14)  0.1715 ( 15)  0.1010 ( 16) -0.1094 ( 17)  0.1619 ( 39)
           0.2033 ( 43)  0.1189 ( 45) -0.1839 ( 66) -0.2011 ( 67) -0.1026 ( 68)
          -0.1206 ( 73) -0.1269 ( 74) -0.1050 ( 77) -0.1121 ( 79)  0.1162 ( 81)
           0.1388 ( 83)  0.1243 ( 86) -0.1487 ( 92)  0.1047 ( 93) -0.1379 (101)
           0.1137 (102) -0.1544 (110)  0.1318 (112) -0.1077 (116) -0.1197 (118)
          -0.2312 (120)  0.2730 (123) -0.2312 (125)  0.2069 (126)
 CRD 70=  -0.1244 (  7)  0.1168 ( 18) -0.1185 ( 19)  0.1135 ( 30) -0.1073 ( 55)
           0.1113 ( 59) -0.1114 ( 60) -0.1094 ( 65) -0.1032 ( 79) -0.1112 ( 80)
          -0.1451 ( 88)  0.1448 ( 89) -0.1344 ( 91)  0.3876 ( 94) -0.2667 ( 96)
          -0.2686 ( 97)  0.2444 ( 98)  0.1994 (100) -0.1178 (101) -0.1204 (102)
          -0.1940 (103) -0.1491 (104) -0.2959 (105)  0.1152 (112) -0.1088 (118)
          -0.1413 (119)
 CRD 71=   0.1119 (  5) -0.1379 (  6) -0.1495 ( 10)  0.1426 ( 11)  0.1349 ( 15)
          -0.1049 ( 16) -0.1135 ( 32)  0.1009 ( 35) -0.1008 ( 36)  0.1027 ( 39)
           0.1048 ( 46)  0.1478 ( 72)  0.2063 ( 74)  0.2255 ( 76) -0.1628 ( 78)
           0.1229 ( 79) -0.1768 ( 81)  0.1512 ( 83) -0.1438 ( 84) -0.1682 ( 85)
           0.1794 ( 86)  0.1648 ( 87) -0.2119 ( 89) -0.2067 ( 92) -0.1360 ( 93)
           0.1382 ( 94) -0.1218 ( 96) -0.1181 ( 97) -0.1627 (101) -0.1318 (102)
           0.1556 (110)  0.1290 (111) -0.1311 (116)  0.1156 (119)
 CRD 72=  -0.1244 (  5) -0.1649 (  8) -0.1626 ( 12) -0.1230 ( 16) -0.1264 ( 29)
           0.1071 ( 36)  0.1350 ( 37)  0.1056 ( 40)  0.1348 ( 44) -0.1258 ( 47)
          -0.1938 ( 72) -0.1570 ( 74) -0.2738 ( 75) -0.1225 ( 76)  0.1649 ( 78)
           0.2069 ( 79)  0.1539 ( 81)  0.1749 ( 83)  0.2091 ( 84)  0.1809 ( 85)
           0.1515 ( 86)  0.1642 ( 87) -0.1172 ( 89) -0.1539 ( 92) -0.1893 ( 93)
          -0.1221 (102) -0.1060 (110) -0.1285 (111)  0.1337 (116)  0.2313 (118)
           0.1317 (119)

 THE DETERMINANT OF THE G MATRIX IS 10**(   -32)


                     --------------------
                     INTERNAL COORDINATES
                     --------------------

                 - - ATOMS - -         COORDINATE      COORDINATE
 NO.   TYPE    I  J  K  L  M  N        (BOHR,RAD)       (ANG,DEG)
 ----------------------------------------------------------------
   1 STRETCH   1 11                     2.0752773       1.0981895
   2 STRETCH   1  2                     2.8542929       1.5104269
   3 STRETCH   1 13                     2.0738467       1.0974325
   4 STRETCH   1 12                     2.0751559       1.0981253
   5 STRETCH   2 14                     2.0937999       1.1079913
   6 STRETCH   2 15                     2.1057116       1.1142947
   7 STRETCH   2  3                     2.8749402       1.5213530
   8 STRETCH   3 16                     2.0953013       1.1087858
   9 STRETCH   3  4                     2.8752547       1.5215194
  10 STRETCH   3 17                     2.0927715       1.1074471
  11 STRETCH   4 19                     2.0932305       1.1076900
  12 STRETCH   4 18                     2.0950447       1.1086500
  13 STRETCH   4  5                     2.8754336       1.5216141
  14 STRETCH   5  6                     2.8810284       1.5245747
  15 STRETCH   5 21                     2.1064332       1.1146765
  16 STRETCH   5 20                     2.0939303       1.1080603
  17 STRETCH   6  9                     2.6987887       1.4281376
  18 STRETCH   6 23                     2.0916728       1.1068657
  19 STRETCH   6 22                     2.0911505       1.1065893
  20 STRETCH   7 26                     2.0740418       1.0975357
  21 STRETCH   7 25                     2.0745727       1.0978167
  22 STRETCH   7  8                     2.8375635       1.5015741
  23 STRETCH   7 24                     2.0752823       1.0981922
  24 STRETCH   8 10                     2.2971925       1.2156220
  25 STRETCH   8  9                     2.5782578       1.3643554
  26 BEND      1  2  3                  1.9520659     111.8451385
  27 BEND      1  2 15                  1.9326434     110.7323105
  28 BEND      1  2 14                  1.9209392     110.0617081
  29 BEND      2  3 17                  1.9191212     109.9575471
  30 BEND      2  3  4                  1.9456623     111.4782385
  31 BEND      2  1 11                  1.9499879     111.7260743
  32 BEND      2  3 16                  1.9191524     109.9593347
  33 BEND      2  1 12                  1.9473236     111.5734228
  34 BEND      2  1 13                  1.9416331     111.2473797
  35 BEND      3  2 15                  1.8976193     108.7255745
  36 BEND      3  2 14                  1.9181462     109.9016820
  37 BEND      3  4 18                  1.9161914     109.7896807
  38 BEND      3  4 19                  1.9182906     109.9099533
  39 BEND      3  4  5                  1.9410361     111.2131746
  40 BEND      4  5 20                  1.9221064     110.1285872
  41 BEND      4  3 17                  1.9168717     109.8286603
  42 BEND      4  5 21                  1.9012646     108.9344392
  43 BEND      4  5  6                  1.9283556     110.4866345
  44 BEND      4  3 16                  1.9161711     109.7885162
  45 BEND      5  6  9                  1.8559832     106.3400038
  46 BEND      5  4 18                  1.9204278     110.0324057
  47 BEND      5  4 19                  1.9198182     109.9974824
  48 BEND      5  6 23                  1.9442476     111.3971796
  49 BEND      5  6 22                  1.9486448     111.6491243
  50 BEND      6  5 20                  1.9310455     110.6407572
  51 BEND      6  5 21                  1.9396633     111.1345211
  52 BEND      6  9  8                  2.0668082     118.4193884
  53 BEND      7  8 10                  2.2286605     127.6928428
  54 BEND      7  8  9                  1.9682491     112.7723654
  55 BEND      8  7 24                  1.9239141     110.2321607
  56 BEND      8  7 25                  1.9518577     111.8332080
  57 BEND      8  7 26                  1.9369905     110.9813787
  58 BEND      9  8 10                  2.0862682     119.5343602
  59 BEND      9  6 22                  1.9144035     109.6872412
  60 BEND      9  6 23                  1.9199593     110.0055661
  61 BEND     11  1 12                  1.8720102     107.2582836
  62 BEND     11  1 13                  1.8741250     107.3794520
  63 BEND     12  1 13                  1.8747876     107.4174176
  64 BEND     14  2 15                  1.8389799     105.3657886
  65 BEND     16  3 17                  1.8442115     105.6655382
  66 BEND     18  4 19                  1.8457751     105.7551215
  67 BEND     20  5 21                  1.8393864     105.3890753
  68 BEND     22  6 23                  1.8808591     107.7652874
  69 BEND     24  7 25                  1.8802880     107.7325678
  70 BEND     24  7 26                  1.8829156     107.8831196
  71 BEND     25  7 26                  1.8854647     108.0291720
  72 TORSION   1  2  3 17              -1.1123356     -63.7321371
  73 TORSION   1  2  3  4               3.0406344     174.2155166
  74 TORSION   1  2  3 16               0.9112865      52.2128676
  75 TORSION   2  3  4  5              -1.1548928     -66.1704858
  76 TORSION   2  3  4 18               0.9747074      55.8466180
  77 TORSION   2  3  4 19               2.9980274     171.7743177
  78 TORSION   3  2  1 12               1.0528671      60.3248423
  79 TORSION   3  4  5 21               0.8649615      49.5586417
  80 TORSION   3  4  5  6               3.0003721     171.9086565
  81 TORSION   3  2  1 11              -1.0426574     -59.7398669
  82 TORSION   3  2  1 13              -3.1369693    -179.7351009
  83 TORSION   3  4  5 20              -1.1442830     -65.5625849
  84 TORSION   4  3  2 15               0.9010672      51.6273478
  85 TORSION   4  3  2 14              -1.1034845     -63.2250050
  86 TORSION   4  5  6 22              -1.0569224     -60.5571915
  87 TORSION   4  5  6 23               1.0468574      59.9805126
  88 TORSION   4  5  6  9               3.1386934     179.8338842
  89 TORSION   5  4  3 16               0.9761763      55.9307809
  90 TORSION   5  4  3 17               2.9967790     171.7027891
  91 TORSION   5  6  9  8              -3.1187452    -178.6909357
  92 TORSION   6  5  4 18               0.8732326      50.0325435
  93 TORSION   6  5  4 19              -1.1534348     -66.0869436
  94 TORSION   6  9  8 10               0.0056389       0.3230852
  95 TORSION   6  9  8  7              -3.1320992    -179.4560635
  96 TORSION   8  9  6 22               1.0547146      60.4306928
  97 TORSION   8  9  6 23              -1.0112039     -57.9377128
  98 TORSION   9  8  7 25              -0.7620874     -43.6643942
  99 TORSION   9  8  7 26              -2.8689254    -164.3773199
 100 TORSION   9  8  7 24               1.3292495      76.1603889
 101 TORSION   9  6  5 20               1.0054016      57.6052674
 102 TORSION   9  6  5 21              -1.0317541     -59.1151564
 103 TORSION  10  8  7 24              -1.8081049    -103.5967776
 104 TORSION  10  8  7 25               2.3837435     136.5784392
 105 TORSION  10  8  7 26               0.2769054      15.8655135
 106 TORSION  11  1  2 15               1.0768173      61.6970889
 107 TORSION  11  1  2 14               3.1030548     177.7919412
 108 TORSION  12  1  2 14              -1.0846061     -62.1433496
 109 TORSION  12  1  2 15              -3.1108435    -178.2382018
 110 TORSION  13  1  2 14               1.0087428      57.7967072
 111 TORSION  13  1  2 15              -1.0174946     -58.2981450
 112 TORSION  14  2  3 17               1.0267308      58.8273413
 113 TORSION  14  2  3 16               3.0503529     174.7723460
 114 TORSION  15  2  3 17               3.0312825     173.6796941
 115 TORSION  15  2  3 16              -1.2282807     -70.3753012
 116 TORSION  16  3  4 19              -1.1540888     -66.1244156
 117 TORSION  16  3  4 18               3.1057765     177.9478846
 118 TORSION  17  3  4 19               0.8665140      49.6475926
 119 TORSION  17  3  4 18              -1.1568061     -66.2801072
 120 TORSION  18  4  5 21              -1.2621780     -72.3174713
 121 TORSION  18  4  5 20               3.0117629     172.5613021
 122 TORSION  19  4  5 21               2.9943400     171.5630416
 123 TORSION  19  4  5 20               0.9850955      56.4418150
 124 TORSION  20  5  6 22               3.0929711     177.2141917
 125 TORSION  20  5  6 23              -1.0864344     -62.2481043
 126 TORSION  21  5  6 22               1.0558154      60.4937679
 127 TORSION  21  5  6 23              -3.1235901    -178.9685280

     ------------------------------------------
     THE POINT GROUP IS C1 , NAXIS= 1, ORDER= 1
     ------------------------------------------

     DIMENSIONS OF THE SYMMETRY SUBSPACES ARE
 A   =  286

 ..... DONE SETTING UP THE RUN .....
 STEP CPU TIME =     0.02 TOTAL CPU TIME =        0.0 (    0.0 MIN)
 TOTAL WALL CLOCK TIME=        0.0 SECONDS, CPU UTILIZATION IS  66.67%


          -----------------------------
          STATIONARY POINT LOCATION RUN
          -----------------------------

 OBTAINING INITIAL HESSIAN, HESS=GUESS   
 DIAGONAL GUESS HESSIAN IN INTERNAL COORDS IS
     1  0.3409     2  0.3814     3  0.3414     4  0.3409     5  0.3345
     6  0.3304     7  0.3734     8  0.3339     9  0.3733    10  0.3348
    11  0.3347    12  0.3340    13  0.3732    14  0.3711    15  0.3301
    16  0.3344    17  0.3614    18  0.3352    19  0.3354    20  0.3413
    21  0.3411    22  0.3880    23  0.3409    24  0.5463    25  0.4091
    26  0.2505    27  0.2238    28  0.2242    29  0.2236    30  0.2497
    31  0.2248    32  0.2235    33  0.2248    34  0.2248    35  0.2232
    36  0.2235    37  0.2235    38  0.2235    39  0.2497    40  0.2235
    41  0.2235    42  0.2231    43  0.2495    44  0.2235    45  0.2434
    46  0.2235    47  0.2235    48  0.2234    49  0.2234    50  0.2233
    51  0.2229    52  0.2420    53  0.2603    54  0.2494    55  0.2253
    56  0.2253    57  0.2253    58  0.2570    59  0.2185    60  0.2185
    61  0.2026    62  0.2026    63  0.2026    64  0.2013    65  0.2016
    66  0.2016    67  0.2013    68  0.2017    69  0.2026    70  0.2026
    71  0.2026    72  0.2500    73  0.2500    74  0.2500    75  0.2500
    76  0.2500    77  0.2500    78  0.2500    79  0.2500    80  0.2500
    81  0.2500    82  0.2500    83  0.2500    84  0.2500    85  0.2500
    86  0.2500    87  0.2500    88  0.2500    89  0.2500    90  0.2500
    91  0.2500    92  0.2500    93  0.2500    94  0.2500    95  0.2500
    96  0.2500    97  0.2500    98  0.2500    99  0.2500   100  0.2500
   101  0.2500   102  0.2500   103  0.2500   104  0.2500   105  0.2500
   106  0.2500   107  0.2500   108  0.2500   109  0.2500   110  0.2500
   111  0.2500   112  0.2500   113  0.2500   114  0.2500   115  0.2500
   116  0.2500   117  0.2500   118  0.2500   119  0.2500   120  0.2500
   121  0.2500   122  0.2500   123  0.2500   124  0.2500   125  0.2500
   126  0.2500   127  0.2500
 TRANSFORMING HESSIAN TO SYMMETRY COORDINATES

          PARAMETERS CONTROLLING GEOMETRY SEARCH ARE
          METHOD =QA                  UPHESS =BFGS    
          NNEG   =         0          NFRZ   =         3
          NSTEP  =        50          IFOLOW =         1
          HESS   =GUESS               RESTAR =         F
          IHREP  =         0          HSSEND =         F
          NPRT   =         0          NPUN   =         0
          OPTTOL = 5.000E-04          RMIN   = 1.500E-03
          RMAX   = 1.000E-01          RLIM   = 7.000E-02
          DXMAX  = 3.000E-01          PURIFY =         F
          MOVIE  =         F          TRUPD  =         T
          TRMAX  = 5.000E-01          TRMIN  = 5.000E-02
          ITBMAT =         5          STPT   =         F
          STSTEP = 1.000E-02          PROJCT=          F
          FROZEN COORD(S)=   1   2   3


      ***** EQUILIBRIUM GEOMETRY LOCATED *****
            (SUBJECT TO   3 CONSTRAINT(S))
 COORDINATES OF ALL ATOMS ARE (ANGS)
   ATOM   CHARGE       X              Y              Z
 ------------------------------------------------------------
 C           6.0   0.6007249742   2.0165217560   1.4341456987
 C           6.0   2.0785376082   2.2713270281   1.1421257646
 C           6.0   2.5626768069   3.6421275438   1.6242965418
 C           6.0   4.0496638158   3.9060447545   1.3580647982
 C           6.0   4.9790878930   3.0247383094   2.1958146066
 C           6.0   6.4399502628   3.2151099449   1.8433626892
 C           6.0   9.0391477563   0.9228082936   3.0973680335
 C           6.0   8.4520379189   2.0580807386   2.3107212938
 O           8.0   7.1746521059   2.2257193407   2.5717096616
 O           8.0   9.0519631457   2.7222718913   1.5233779226
 H           1.0   0.4027441888   2.0593336244   2.5025042168
 H           1.0  -0.0320010910   2.7544761419   0.9474008533
 H           1.0   0.2999081787   1.0340674870   1.0804009087
 H           1.0   2.2559917507   2.1920344236   0.0706945511
 H           1.0   2.6639318438   1.4850564586   1.6099096583
 H           1.0   2.3645299635   3.7434486537   2.6910060785
 H           1.0   1.9765912934   4.4136646680   1.1282848028
 H           1.0   4.2546352649   3.7477903888   0.3000797813
 H           1.0   4.2681615875   4.9524734539   1.5617064616
 H           1.0   4.8321320441   3.2377838620   3.2519761713
 H           1.0   4.7416443421   1.9778340558   2.0433472012
 H           1.0   6.6110839073   3.0659868369   0.7853961746
 H           1.0   6.8063833375   4.1965743646   2.1176547251
 H           1.0   8.6587140971  -0.0079690375   2.6886233574
 H           1.0   8.7310397161   0.9878898858   4.1331999532
 H           1.0  10.1164084866   0.9389169973   3.0194241999


                     --------------------
                     INTERNAL COORDINATES
                     --------------------

                 - - ATOMS - -         COORDINATE      COORDINATE
 NO.   TYPE    I  J  K  L  M  N        (BOHR,RAD)       (ANG,DEG)
 ----------------------------------------------------------------
   1 STRETCH   1 11                     2.0548710       1.0873910
   2 STRETCH   1  2                     2.8870978       1.5277865
   3 STRETCH   1 13                     2.0535006       1.0866658
   4 STRETCH   1 12                     2.0543673       1.0871244
   5 STRETCH   2 14                     2.0577564       1.0889179
   6 STRETCH   2 15                     2.0525326       1.0861536
   7 STRETCH   2  3                     2.8944122       1.5316571
   8 STRETCH   3 16                     2.0591922       1.0896776
   9 STRETCH   3  4                     2.8979193       1.5335130
  10 STRETCH   3 17                     2.0569330       1.0884822
  11 STRETCH   4 19                     2.0564389       1.0882207
  12 STRETCH   4 18                     2.0583185       1.0892153
  13 STRETCH   4  5                     2.8921791       1.5304754
  14 STRETCH   5  6                     2.8625342       1.5147880
  15 STRETCH   5 21                     2.0489670       1.0842667
  16 STRETCH   5 20                     2.0549080       1.0874105
  17 STRETCH   6  9                     2.7051280       1.4314922
  18 STRETCH   6 23                     2.0464797       1.0829505
  19 STRETCH   6 22                     2.0447652       1.0820432
  20 STRETCH   7 26                     2.0412762       1.0801969
  21 STRETCH   7 25                     2.0458969       1.0826421
  22 STRETCH   7  8                     2.8360718       1.5007847
  23 STRETCH   7 24                     2.0511567       1.0854255
  24 STRETCH   8 10                     2.2526372       1.1920444
  25 STRETCH   8  9                     2.4840605       1.3145083
  26 BEND      1  2  3                  1.9766934     113.2561920
  27 BEND      1  2 15                  1.8947094     108.5588522
  28 BEND      1  2 14                  1.9108719     109.4848978
  29 BEND      2  3 17                  1.8972958     108.7070435
  30 BEND      2  3  4                  1.9887285     113.9457487
  31 BEND      2  1 11                  1.9362162     110.9370148
  32 BEND      2  3 16                  1.9112428     109.5061445
  33 BEND      2  1 12                  1.9435565     111.3575841
  34 BEND      2  1 13                  1.9351387     110.8752813
  35 BEND      3  2 15                  1.9197767     109.9950997
  36 BEND      3  2 14                  1.9001245     108.8691163
  37 BEND      3  4 18                  1.9029713     109.0322233
  38 BEND      3  4 19                  1.9046594     109.1289468
  39 BEND      3  4  5                  1.9765616     113.2486357
  40 BEND      4  5 20                  1.9142713     109.6796673
  41 BEND      4  3 17                  1.8975890     108.7238416
  42 BEND      4  5 21                  1.9241397     110.2450862
  43 BEND      4  5  6                  1.9670117     112.7014673
  44 BEND      4  3 16                  1.9073864     109.2851887
  45 BEND      5  6  9                  1.8647345     106.8414190
  46 BEND      5  4 18                  1.9110649     109.4959513
  47 BEND      5  4 19                  1.9064214     109.2299014
  48 BEND      5  6 23                  1.9619830     112.4133476
  49 BEND      5  6 22                  1.9419644     111.2663659
  50 BEND      6  5 20                  1.9088985     109.3718275
  51 BEND      6  5 21                  1.8753011     107.4468358
  52 BEND      6  9  8                  2.0781558     119.0695586
  53 BEND      7  8 10                  2.1782862     124.8066058
  54 BEND      7  8  9                  1.9525578     111.8733203
  55 BEND      8  7 24                  1.8903864     108.3111630
  56 BEND      8  7 25                  1.9227039     110.1628179
  57 BEND      8  7 26                  1.9188152     109.9400138
  58 BEND      9  8 10                  2.1521336     123.3081737
  59 BEND      9  6 22                  1.8976394     108.7267276
  60 BEND      9  6 23                  1.9005986     108.8962764
  61 BEND     11  1 12                  1.8830520     107.8909305
  62 BEND     11  1 13                  1.8807647     107.7598793
  63 BEND     12  1 13                  1.8826725     107.8691883
  64 BEND     14  2 15                  1.8579452     106.4524193
  65 BEND     16  3 17                  1.8569537     106.3956071
  66 BEND     18  4 19                  1.8584419     106.4808768
  67 BEND     20  5 21                  1.8714567     107.2265701
  68 BEND     22  6 23                  1.8955046     108.6044116
  69 BEND     24  7 25                  1.8881948     108.1855933
  70 BEND     24  7 26                  1.9125665     109.5819875
  71 BEND     25  7 26                  1.9304565     110.6070103
  72 TORSION   1  2  3 17              -1.0378245     -59.4629649
  73 TORSION   1  2  3  4               3.1262995     179.1237683
  74 TORSION   1  2  3 16               0.9842422      56.3929266
  75 TORSION   2  3  4  5              -1.1910143     -68.2400940
  76 TORSION   2  3  4 18               0.9412559      53.9299913
  77 TORSION   2  3  4 19               2.9646312     169.8608578
  78 TORSION   3  2  1 12               1.0491193      60.1101076
  79 TORSION   3  4  5 21               0.9652370      55.3040050
  80 TORSION   3  4  5  6               3.0604312     175.3497893
  81 TORSION   3  2  1 11              -1.0485024     -60.0747647
  82 TORSION   3  2  1 13              -3.1376506    -179.7741394
  83 TORSION   3  4  5 20              -1.0916153     -62.5449523
  84 TORSION   4  3  2 15               1.0027569      57.4537395
  85 TORSION   4  3  2 14              -1.0268310     -58.8330820
  86 TORSION   4  5  6 22              -0.9504374     -54.4560533
  87 TORSION   4  5  6 23               1.1799566      67.6065330
  88 TORSION   4  5  6  9              -3.0193469    -172.9958359
  89 TORSION   5  4  3 16               0.9531505      54.6114980
  90 TORSION   5  4  3 17               2.9732724     170.3559592
  91 TORSION   5  6  9  8               2.9869883     171.1418202
  92 TORSION   6  5  4 18               0.9326806      53.4386610
  93 TORSION   6  5  4 19              -1.0962001     -62.8076419
  94 TORSION   6  9  8 10               0.0460181       2.6366423
  95 TORSION   6  9  8  7              -3.0746041    -176.1618393
  96 TORSION   8  9  6 22               0.8894046      50.9591293
  97 TORSION   8  9  6 23              -1.1730590     -67.2113295
  98 TORSION   9  8  7 25              -0.8069119     -46.2326491
  99 TORSION   9  8  7 26              -2.9387347    -168.3770931
 100 TORSION   9  8  7 24               1.2551250      71.9133629
 101 TORSION   9  6  5 20               1.1296730      64.7254964
 102 TORSION   9  6  5 21              -0.8962357     -51.3505217
 103 TORSION  10  8  7 24              -1.8651231    -106.8636841
 104 TORSION  10  8  7 25               2.3560253     134.9903039
 105 TORSION  10  8  7 26               0.2242026      12.8458600
 106 TORSION  11  1  2 15               1.0890324      62.3969628
 107 TORSION  11  1  2 14               3.1106400     178.2265411
 108 TORSION  12  1  2 14              -1.0749236     -61.5885866
 109 TORSION  12  1  2 15              -3.0965311    -177.4181649
 110 TORSION  13  1  2 14               1.0214918      58.5271664
 111 TORSION  13  1  2 15              -1.0001158     -57.3024120
 112 TORSION  14  2  3 17               1.0922303      62.5801848
 113 TORSION  14  2  3 16               3.1142970     178.4360763
 114 TORSION  15  2  3 17               3.1218182     178.8670063
 115 TORSION  15  2  3 16              -1.1393004     -65.2771022
 116 TORSION  16  3  4 19              -1.1743893     -67.2875502
 117 TORSION  16  3  4 18               3.0854207     176.7815833
 118 TORSION  17  3  4 19               0.8457326      48.4569110
 119 TORSION  17  3  4 18              -1.1776427     -67.4739555
 120 TORSION  18  4  5 21              -1.1625136     -66.6071232
 121 TORSION  18  4  5 20               3.0638194     175.5439195
 122 TORSION  19  4  5 21               3.0917910     177.1465738
 123 TORSION  19  4  5 20               1.0349386      59.2976165
 124 TORSION  20  5  6 22              -3.0846028    -176.7347210
 125 TORSION  20  5  6 23              -0.9542088     -54.6721347
 126 TORSION  21  5  6 22               1.1726738      67.1892608
 127 TORSION  21  5  6 23              -2.9801175    -170.7481528

          INTERNUCLEAR DISTANCES (ANGS.)


 =====================================================
   GAMESS/COSab RESULTS
 =====================================================

   Dielectric Constant                  = INFTY
   Basic Grid Size                      =                 1082
   Number of Segments                   =                   92
   Number of Segments located on spheres=                  350
   Number of Segments of the cavity     =                  922
   Solvent Radius (rsolv)               = 1.40
   Outlying Charge Error Method         = double cavity

 =====================================================

  Total solvated Energy (a.u.)          =  -462.1428758053
  Total Energy corrected (a.u.)         =  -462.1425081458

  Outlying charge effect (a.u.)         =     0.0003676595
  Outlying charge effect (kcal/mol)     =     0.2307100218

  Dielectric Energy (a.u.)              =    -0.0135274021
  Dielectric energy corr. (a.u.)        =    -0.0131597426

  Sum of polarization charges           =     0.0287073017
  Sum of polarization charges(cor.)     =    -0.0287073017

  Total surface area of cavity (A**2)   =  209.78
  Total volume of cavity (A**3)         =  204.61

 =====================================================
 NPS=                   922
NR.  ATOM  (X, Y, Z)(a.u.)                  CHARGE(e)  AREA(A**2) SIGMA(e/A**2)
   1   1  -1.988194   3.148300   0.687792   0.002268   0.418105   0.005425
   2   1   2.029868   0.919062   4.973420   0.001008   0.325193   0.003099
   3   1  -2.071698   5.404735   3.917998   0.001900   0.418105   0.004544
   4   1  -1.548230   1.469289   3.975576   0.001454   0.371649   0.003913
   5   1   1.240432   2.235146  -0.723657   0.000683   0.278737   0.002452
   6   1   0.552030   4.607651  -0.938013   0.000728   0.232280   0.003133
   7   1   0.517187   3.467082  -1.002582   0.001039   0.325193   0.003194
   8   1  -0.611225   3.147320  -0.575317   0.001302   0.278737   0.004672
   9   1  -1.163066   1.808009   4.944307   0.001574   0.371649   0.004236
  10   1  -1.671094   5.260703   4.785296   0.001211   0.278737   0.004345
  11   1   0.088085   6.607831   5.026091   0.000521   0.139368   0.003739
  12   1   1.595500   1.402160   5.586152   0.000584   0.185824   0.003141
  13   1  -1.293931   3.652896  -0.180996   0.001063   0.232280   0.004576
  14   1  -1.133529   2.682015  -0.094010   0.001291   0.278737   0.004633
  15   1  -0.305299   6.950757   4.242785   0.001473   0.325193   0.004529
  16   1  -1.241788   6.382420   4.131476   0.001436   0.278737   0.005153
  17   1  -2.314629   4.112807   4.223926   0.001492   0.464561   0.003212
  18   1  -2.148333   2.554366   4.097322   0.001379   0.464561   0.002969
  19   1  -0.394967   0.933883   4.625054   0.001916   0.371649   0.005154
  20   1   0.992138   0.570225   4.650061   0.001692   0.371649   0.004552
  21   1   2.111970   0.383206   3.968191   0.001110   0.371649   0.002987
  22   1  -2.575378   4.471089   2.992317   0.001254   0.418105   0.003000
  23   1  -2.534801   3.601636   1.831743   0.001492   0.418105   0.003568
  24   1  -2.264048   2.479811   1.731301   0.001666   0.464561   0.003585
  25   1  -2.119773   1.913263   3.008774   0.000944   0.325193   0.002903
  26   1  -0.181942   4.050936  -0.824217   0.000828   0.232280   0.003563
  27   1   0.333933   2.572637  -0.769736   0.000846   0.232280   0.003643
  28   1  -1.966267   3.230461   4.790625   0.000787   0.278737   0.002823
  29   1  -0.809367   6.285608   4.802390   0.000932   0.185824   0.005013
  30   1   2.436283   1.751669   5.600116   0.000585   0.232280   0.002517
  31   1   0.460687   1.142555   5.300587   0.001458   0.325193   0.004485
  32   1   2.582929   0.334600   3.034671   0.000156   0.092912   0.001675
  33   1  -2.574050   3.187032   3.079880   0.001152   0.464561   0.002480
  34   2   4.985447   0.965902   0.708581   0.001640   0.371649   0.004414
  35   2   4.363725   3.290562   5.776456   0.000120   0.092912   0.001292
  36   2   5.325479   1.568466  -0.058080   0.001433   0.278737   0.005140
  37   2   2.434427   5.973919  -0.879073   0.000343   0.185824   0.001848
  38   2   6.658371   2.203143   0.588411   0.000565   0.139368   0.004051
  39   2   6.100774   1.599367   0.637934   0.001798   0.325193   0.005530
  40   2   4.039060   1.056563   0.208249   0.001239   0.371649   0.003333
  41   2   4.108580   0.581434   1.464043   0.000822   0.278737   0.002949
  42   2   4.275568   2.920785   5.662961   0.000072   0.046456   0.001541
  43   2   3.431820   1.607756  -0.455525   0.000431   0.185824   0.002320
  44   2   6.602201   2.620034   0.075959   0.000688   0.139368   0.004933
  45   2   2.933112   6.331978  -0.863938   0.000093   0.046456   0.002006
  46   3   4.736504  10.298525   4.683334   0.000980   0.325193   0.003012
  47   3   1.815566   8.799874   4.271366   0.001406   0.325193   0.004324
  48   3   4.475854   7.808875  -0.576297   0.000153   0.092912   0.001652
  49   3   4.596227   8.394273  -0.385715   0.000052   0.046456   0.001115
  50   3   2.143842   8.618381   5.066293   0.001324   0.278737   0.004749
  51   3   4.771195   9.789198   5.484208   0.000826   0.278737   0.002963
  52   3   3.746402  10.222455   4.457911   0.001324   0.278737   0.004750
  53   3   2.636498   9.578220   4.535910   0.001612   0.278737   0.005784
  54   3   4.499136  10.611970   3.577514   0.000672   0.278737   0.002413
  55   3   4.083613   7.788795  -0.520340   0.000085   0.046456   0.001835
  56   3   3.382244   9.778020   5.010564   0.001370   0.278737   0.004917
  57   4   6.542378   9.921863  -0.002114   0.000846   0.325193   0.002603
  58   4   9.785299   9.843653   0.649727   0.001331   0.325193   0.004092
  59   4   7.431103   9.431508   5.733715   0.000126   0.092912   0.001361
  60   4   7.108013   9.840278   5.384398   0.000041   0.046456   0.000878
  61   4   9.491478   9.428250  -0.024670   0.000984   0.232280   0.004236
  62   4   6.749866   9.221421  -0.609030   0.000666   0.278737   0.002388
  63   4   7.472312  10.299010   0.170760   0.001189   0.278737   0.004267
  64   4   8.746390  10.133073   0.217711   0.001432   0.278737   0.005136
  65   4   6.579148  10.619957   0.940617   0.000556   0.278737   0.001996
  66   4   7.803954   9.545851   5.660948   0.000060   0.046456   0.001283
  67   4   8.009078   9.881582  -0.245408   0.001217   0.278737   0.004365
  68   5   9.267759   2.894775   6.660531   0.001204   0.325193   0.003704
  69   5   9.409776   3.687564   0.960452  -0.000220   0.185824  -0.001184
  70   5   9.113314   3.546300   7.229983   0.000945   0.278737   0.003391
  71   5  10.061710   8.696924   6.379307   0.000002   0.139368   0.000011
  72   5   7.306257   3.681423   6.541772   0.000227   0.092912   0.002438
  73   5   8.086529   3.216378   6.656928   0.001422   0.325193   0.004372
  74   5   9.644366   3.257011   1.288966  -0.000026   0.046456  -0.000556
  75   5   7.536380   3.964118   6.925867   0.000445   0.139368   0.003194
  76   5   9.527419   8.836553   6.278342   0.000014   0.046456   0.000307
  77   6  11.791109   2.758154   1.712873  -0.000306   0.139368  -0.002193
  78   6  14.171084   8.799202   1.791889  -0.000087   0.092912  -0.000940
  79   6  12.414831   8.042444   6.701520  -0.000127   0.139368  -0.000911
  80   6  12.520862   7.201812   7.074096  -0.000187   0.139368  -0.001344
  81   6  13.888084   8.286066   0.944587   0.000044   0.185824   0.000238
  82   6  12.350433   8.520756   0.607122  -0.000371   0.185824  -0.001998
  83   6  12.124790   3.031603   1.243836  -0.000402   0.139368  -0.002887
  84   6  12.321483   9.208085   1.374112  -0.000526   0.232280  -0.002265
  85   6  13.622264   8.839105   1.353196   0.000041   0.185824   0.000220
  86   6  13.073456   7.656004   6.795562  -0.000401   0.185824  -0.002156
  87   6  13.072344   8.581145   0.801609   0.000097   0.185824   0.000523
  88   6  11.467052   3.237603   1.088489  -0.000201   0.139368  -0.001445
  89   6  13.052560   9.223226   1.586638  -0.000179   0.139368  -0.001284
  90   7  18.807467   4.504998   7.771867  -0.000366   0.232280  -0.001577
  91   7  19.523840  -0.679784   4.289419   0.000453   0.278737   0.001624
  92   7  17.807666  -1.301214   7.970855  -0.000179   0.371649  -0.000481
  93   7  14.370373  -0.107286   7.725947   0.000356   0.278737   0.001277
  94   7  19.475714   4.443888   6.976490  -0.000382   0.185824  -0.002057
  95   7  19.497247   3.758303   7.948516   0.000220   0.325193   0.000676
  96   7  19.880867   2.789558   8.167125   0.000238   0.232280   0.001022
  97   7  18.287907   4.355104   8.304746   0.000137   0.232280   0.000588
  98   7  18.506714   3.764932   8.711193   0.000116   0.232280   0.000499
  99   7  14.600707  -0.797431   7.146140   0.000176   0.185824   0.000947
 100   7  17.223682  -1.807174   7.139372  -0.000268   0.418105  -0.000642
 101   7  18.769307  -1.117360   4.050641   0.000365   0.325193   0.001124
 102   7  17.117836   0.116163   2.442369  -0.000315   0.185824  -0.001697
 103   7  19.699266   1.536852   8.571408   0.000719   0.464561   0.001548
 104   7  19.001381   1.880369   9.105824   0.000199   0.232280   0.000855
 105   7  18.141794   0.453873   2.462593  -0.000457   0.325193  -0.001406
 106   7  19.057546  -0.119015   3.224617   0.000693   0.511017   0.001355
 107   7  19.430109  -1.190258   5.453926   0.000745   0.511017   0.001458
 108   7  18.593888  -1.556413   6.904497  -0.000091   0.418105  -0.000218
 109   7  16.709304  -1.220610   8.167849   0.000285   0.371649   0.000766
 110   7  15.163163  -0.799361   7.886958   0.000431   0.278737   0.001546
 111   7  13.971276  -0.191744   6.782776   0.000133   0.232280   0.000573
 112   7  19.737697   0.237524   8.080269  -0.000003   0.464561  -0.000005
 113   7  18.873646  -0.773996   8.028720  -0.000231   0.464561  -0.000497
 114   7  17.799592  -0.553320   8.767219  -0.000263   0.325193  -0.000809
 115   7  13.929931   0.648563   7.628597  -0.000008   0.185824  -0.000045
 116   7  19.873946   3.973528   7.084070  -0.000187   0.139368  -0.001341
 117   7  19.154656   2.907061   8.791418   0.000621   0.371649   0.001672
 118   7  17.330879   4.363487   8.566024  -0.000568   0.185824  -0.003056
 119   7  13.788383  -0.101257   6.040611  -0.000123   0.092912  -0.001321
 120   7  15.824804  -1.355284   7.613949   0.000218   0.278737   0.000783
 121   7  18.530979  -1.746537   5.829790  -0.000119   0.371649  -0.000321
 122   7  18.116623  -0.432932   2.942083  -0.000116   0.185824  -0.000623
 123   7  18.791484   0.314969   8.905808   0.000140   0.464561   0.000301
 124   7  19.207019   0.966172   2.826341  -0.000165   0.325193  -0.000507
 125   7  19.621332  -0.848519   6.908277  -0.000193   0.464561  -0.000415
 126   7  15.961243  -0.748086   8.464596  -0.000002   0.185824  -0.000010
 127   8  14.025899   1.310402   2.405360  -0.001411   0.185824  -0.007592
 128   8  17.128219   1.713471   1.500693   0.000094   0.139368   0.000674
 129   8  17.500077   6.711415   6.362750  -0.000797   0.232280  -0.003432
 130   8  15.724355   5.574021   7.740705  -0.001420   0.185824  -0.007640
 131   8  16.072243   2.057010   1.062511  -0.000483   0.232280  -0.002079
 132   8  16.747934   7.264713   5.879313  -0.000339   0.185824  -0.001823
 133   8  18.626569   5.899050   6.154988  -0.000094   0.185824  -0.000508
 134   8  16.294873   1.469040   1.481710  -0.001323   0.185824  -0.007121
 135   8  15.157193   1.289991   1.746643  -0.002211   0.278737  -0.007931
 136   8  14.314517   1.774562   1.708596  -0.001723   0.232280  -0.007416
 137   8  15.896185   6.470996   7.125782  -0.001905   0.232280  -0.008201
 138   8  16.554633   6.905636   6.567998  -0.001677   0.278737  -0.006016
 139   8  17.770782   6.026574   6.912301  -0.002101   0.325193  -0.006460
 140   8  16.675742   6.016244   7.410446  -0.003553   0.418105  -0.008497
 141   8  15.109657   2.138378   1.130102  -0.002198   0.371649  -0.005914
 142   9  12.969302   4.595740   8.032528   0.002604   0.171795   0.015157
 143   9  12.001270   1.865373   6.491469   0.004262   0.240512   0.017719
 144   9  12.354226   3.301694   7.740360   0.003709   0.240512   0.015420
 145   9  12.111049   2.528273   7.238020   0.004749   0.274871   0.017276
 146   9  12.067045   1.423979   5.635467   0.002335   0.137436   0.016989
 147   9  13.124755   5.397889   7.852526   0.002419   0.171795   0.014082
 148   9  12.669126   3.978527   7.977930   0.002791   0.171795   0.016249
 149   9  12.527581   1.359168   3.677411   0.001177   0.103077   0.011415
 150   9  12.586942   1.631512   3.129681   0.000762   0.068718   0.011082
 151   9  13.923355   5.684069   7.731513   0.001281   0.137436   0.009318
 152   9  13.722500   4.987376   8.010554   0.001948   0.171795   0.011340
 153   9  12.206556   1.264964   4.562927   0.002161   0.103077   0.020969
 154   9  13.860356   6.155352   7.443111   0.001067   0.137436   0.007765
 155  10  18.822599   6.916117   0.762662   0.005161   0.377948   0.013654
 156  10  18.894029   3.741701   0.555129   0.004192   0.274871   0.015252
 157  10  20.354011   5.186191   2.986564   0.005479   0.274871   0.019933
 158  10  18.462531   7.900613   3.940240   0.004504   0.343589   0.013108
 159  10  16.322114   4.915190  -0.267360   0.002741   0.171795   0.015953
 160  10  18.994975   5.808067   0.318503   0.005776   0.412307   0.014010
 161  10  19.136202   4.659004   0.387512   0.005161   0.343589   0.015020
 162  10  19.700874   6.423108   1.397310   0.006052   0.412307   0.014678
 163  10  20.220756   5.796406   2.218356   0.005686   0.343589   0.016549
 164  10  18.921357   7.597020   1.759579   0.005643   0.412307   0.013686
 165  10  18.603257   8.028157   2.803190   0.005177   0.377948   0.013696
[...]
 663   5   7.817015   4.274951   7.203217  -0.000027   0.151543  -0.000181
 664   5   9.278553   3.999590   7.462127  -0.000046   0.151543  -0.000301
 665  21   9.278383   2.760194   1.634919  -0.000330   0.074445  -0.004436
 666   5   9.587057   3.059756   1.468978  -0.000258   0.090951  -0.002835
 667  21   9.221262   2.177579   5.724197  -0.000131   0.084781  -0.001545
 668  21   8.188180   2.406693   5.759831  -0.000180   0.084781  -0.002123
 669   5   8.778209   2.582151   6.007862  -0.000234   0.176844  -0.001324
 670  22  11.009981   4.120267   0.309508  -0.000430   0.081507  -0.005276
 671   5   9.991949   3.906800   0.735112  -0.000062   0.114939  -0.000539
 672  23  11.603322   9.262473   5.696473  -0.001143   0.193682  -0.005901
 673   5  10.649072   8.812383   6.135815  -0.000229   0.272768  -0.000841
 674   6  14.127137   6.980616   6.712813  -0.000058   0.051785  -0.001130
 675   8  14.790615   6.601429   6.869573  -0.000130   0.051785  -0.002514
 676   9  14.356249   6.614496   6.918227   0.000124   0.051785   0.002397
 677   6  12.596396   2.464171   2.121789  -0.000059   0.051785  -0.001140
 678   8  13.258287   2.080300   2.273787  -0.000149   0.051785  -0.002883
 679   9  12.850646   2.172219   2.402595   0.000106   0.051785   0.002040
 680   6  12.933679   3.164883   1.138127  -0.000433   0.062516  -0.006919
 681   8  13.608943   2.833553   1.342102  -0.000599   0.062516  -0.009583
 682  22  12.971797   3.343633   0.897253  -0.000558   0.062516  -0.008923
 683   6  14.231122   7.566791   6.318455  -0.000315   0.056304  -0.005600
 684   8  14.876523   7.140213   6.409417  -0.000412   0.056304  -0.007321
 685  23  14.234261   7.836986   6.182986  -0.000357   0.056304  -0.006343
 686   8  15.127286   6.838620   6.790140  -0.000429   0.109057  -0.003933
 687   6  14.139423   7.328381   6.619858  -0.000088   0.109057  -0.000808
 688   8  13.582495   2.153996   1.843255  -0.001097   0.257438  -0.004263
 689   6  12.728089   2.796746   1.477167  -0.000627   0.257438  -0.002435
 690   6  12.150212   6.539029   7.270828  -0.000096   0.095807  -0.000997
 691   9  12.404167   6.150600   7.392919   0.000407   0.095807   0.004247
 692  20  11.444420   6.472335   7.502930  -0.000220   0.095807  -0.002293
 693   6  11.530559   2.455434   2.439009  -0.000128   0.098323  -0.001298
 694   9  11.809516   2.223210   2.753491   0.000430   0.098323   0.004374
 695  21  10.854635   2.265519   2.658225  -0.000267   0.098323  -0.002712
 696   9  13.648592   6.419944   7.183470   0.001265   0.235482   0.005371
 697   6  13.043259   6.851472   7.052946   0.000093   0.257535   0.000363
 698   9  12.398853   2.119229   2.602042   0.000460   0.078153   0.005885
 699   6  12.093362   2.505911   2.108145  -0.000038   0.085504  -0.000445
 700   6  14.388174   7.489549   0.686085   0.000277   0.080359   0.003450
 701  10  15.266145   7.212766   0.708392   0.001673   0.080359   0.020814
 702  22  14.309441   7.290586   0.470743  -0.000072   0.080359  -0.000892
 703   6  14.734641   8.586147   2.149498   0.000235   0.075726   0.003108
 704  10  15.591903   8.252984   2.117725   0.001569   0.075726   0.020714
 705  23  14.703043   8.769573   2.389126  -0.000051   0.075726  -0.000669
 706  10  15.884359   7.698817   1.124075   0.007819   0.454032   0.017221
 707   6  14.679125   8.234575   1.442544   0.002263   0.504365   0.004486
 708   6  11.533086   7.915432   0.165422  -0.000545   0.086674  -0.006285
 709  18  10.606795   7.921943  -0.163648  -0.000281   0.086674  -0.003247
 710  22  11.621208   7.690609  -0.019140  -0.000622   0.086674  -0.007178
 711  18  10.163250   8.230895  -0.410779   0.000007   0.018386   0.000395
 712   6  11.506591   8.157689   0.132716   0.000069   0.026078   0.002645
 713   6  11.690481   9.689767   2.278810  -0.000515   0.085307  -0.006039
 714  19  10.748025  10.049867   2.322782  -0.000285   0.085307  -0.003339
 715  23  11.847996   9.804725   2.511957  -0.000599   0.085307  -0.007022
 716  19  10.268309  10.378829   1.993347  -0.000034   0.079044  -0.000429
 717   6  11.604481   9.720199   1.913461  -0.000080   0.112414  -0.000709
 718  20  10.936516   6.985034   7.637344  -0.000656   0.176766  -0.003709
 719  20  10.588367   7.834376   7.226290  -0.000529   0.176766  -0.002991
 720   6  11.734623   7.579709   6.959685  -0.000978   0.486499  -0.002010
 721  21  10.093360   2.466864   2.066620  -0.000866   0.220040  -0.003934
 722   6  11.159367   2.718397   1.866573  -0.000543   0.310324  -0.001751
 723  22  12.380565   3.524099   0.566362  -0.000508   0.075658  -0.006709
 724  22  11.503290   3.842740   0.379545  -0.000441   0.075658  -0.005835
 725   6  11.807250   3.512924   0.814582  -0.001134   0.162081  -0.006997
 726  22  12.463225   7.716730  -0.011259  -0.000665   0.092517  -0.007193
 727  22  13.586979   7.547318   0.194391  -0.000437   0.092517  -0.004723
 728   6  13.007819   7.883018   0.392770  -0.001360   0.187969  -0.007237
 729  23  14.122013   9.235466   2.348359  -0.000271   0.071229  -0.003800
 730  23  13.045081   9.641707   2.333424  -0.001141   0.159553  -0.007150
 731   6  13.649066   9.148429   1.978783  -0.000700   0.154796  -0.004523
 732   6  12.453898   9.569338   2.069313  -0.000569   0.087022  -0.006536
 733  23  12.240739   8.865815   6.184165  -0.000370   0.071279  -0.005184
 734  23  13.302820   8.436114   6.302881  -0.001088   0.159690  -0.006810
 735   6  12.458197   8.351457   6.421302  -0.000955   0.154880  -0.006165
 736   6  13.646649   7.901042   6.445321  -0.000480   0.087083  -0.005513
 737   7  19.388960   4.881309   5.944507  -0.000175   0.037202  -0.004695
 738   8  19.232833   5.277184   5.703005   0.000003   0.037202   0.000090
 739  10  19.332476   5.458359   5.368021   0.000257   0.037202   0.006909
 740   7  18.051376   1.516675   2.086998  -0.000188   0.037202  -0.005061
 741   8  17.876943   1.866500   1.792700   0.000023   0.037202   0.000615
 742  10  18.029088   2.179743   1.609130   0.000400   0.037202   0.010763
 743   7  16.408640   0.284981   2.423031  -0.000343   0.028789  -0.011908
 744   8  16.218716   0.677061   2.200298  -0.000541   0.028789  -0.018790
 745  24  16.294752   0.029908   2.539259  -0.000296   0.028789  -0.010275
 746   7  16.508508   4.476993   8.410669  -0.000334   0.026435  -0.012652
 747   8  16.317778   4.822124   8.121105  -0.000433   0.026435  -0.016374
 748  25  16.417072   4.278713   8.618051  -0.000251   0.026435  -0.009486
 749   8  17.171484   1.377173   1.882389  -0.001848   0.301105  -0.006136
 750   7  17.116411   0.692510   2.273511  -0.001880   0.301105  -0.006244
 751   8  16.731896   5.259765   7.813825  -0.001807   0.206673  -0.008745
 752   8  18.352039   5.357507   6.745675  -0.003583   0.419972  -0.008531
 753   7  17.646792   4.800741   7.806640  -0.003485   0.419972  -0.008299
 754   7  19.194865   4.787752   6.632475  -0.000808   0.206673  -0.003907
 755   7  13.642644   0.176049   5.419158  -0.000182   0.046996  -0.003872
 756   9  13.127225   0.754178   5.235143   0.000273   0.046996   0.005818
 757  24  13.773833  -0.053229   5.271276  -0.000290   0.046996  -0.006167
 758   7  13.822882   1.467414   7.814891  -0.000085   0.061185  -0.001388
 759   9  13.289400   1.981714   7.522125   0.000578   0.061185   0.009454
 760  25  13.958067   1.545907   8.073825  -0.000276   0.061185  -0.004508
 761   9  12.635608   1.125257   5.699185   0.003455   0.318366   0.010852
 762   9  12.741679   1.805236   7.008385   0.003520   0.318366   0.011056
 763   7  13.544158   0.773362   6.643826   0.000504   0.697833   0.000722
 764   7  19.840262   4.379839   5.793267  -0.000253   0.063455  -0.003988
 765  10  19.706280   4.917139   5.192716   0.000409   0.063455   0.006453
 766  26  20.052960   4.174229   5.735495  -0.000324   0.063455  -0.005099
 767   7  19.678761   1.997939   3.068845  -0.000103   0.063455  -0.001629
 768  10  19.554084   2.672466   2.625255   0.000736   0.063455   0.011593
 769  26  19.906543   2.014794   3.265530  -0.000258   0.063455  -0.004070
 770  10  19.567692   5.507727   5.165482   0.000953   0.106099   0.008980
 771   7  19.727008   4.646671   5.949756  -0.000044   0.117162  -0.000379
 772  10  18.991616   2.649375   1.892980   0.004764   0.450735   0.010569
 773   7  18.781988   1.567477   2.421772  -0.000605   0.497565  -0.001216
 774  24  16.570973  -0.422019   2.668245  -0.000447   0.070355  -0.006350
 775  24  17.423200  -0.986042   3.159419  -0.000984   0.156893  -0.006274
 776  24  17.900120  -1.660651   4.251725  -0.000963   0.156893  -0.006140
 777  24  17.536293  -2.064045   5.508939  -0.001028   0.156893  -0.006550
 778  24  16.488371  -2.022535   6.389745  -0.001059   0.156893  -0.006750
 779  24  15.207555  -1.553994   6.514897  -0.000941   0.156893  -0.006001
 780  24  14.245323  -0.860160   5.830509  -0.001100   0.156893  -0.007012
 781   7  17.158048  -0.301250   2.734724  -0.001014   0.153569  -0.006604
 782   7  18.102869  -1.091931   3.655854  -0.000730   0.153569  -0.004753
 783   7  18.170104  -1.732816   5.052670  -0.000716   0.153569  -0.004663
 784   7  17.330804  -1.947959   6.323746  -0.000888   0.153569  -0.005785
 785   7  15.946344  -1.644728   6.921799  -0.000767   0.153569  -0.004995
 786   7  14.612828  -0.953684   6.589327  -0.000771   0.153569  -0.005018
 787   7  13.908437  -0.310179   5.779564  -0.000409   0.085954  -0.004753
 788  25  14.267794   1.058650   8.442444  -0.000408   0.069018  -0.005910
 789  25  14.978932   0.236809   8.705617  -0.000834   0.153558  -0.005433
 790  25  16.215846  -0.141521   9.097316  -0.001001   0.153558  -0.006519
 791  25  17.429451   0.353301   9.427216  -0.001046   0.153558  -0.006809
 792  25  18.110285   1.513552   9.556827  -0.000886   0.153558  -0.005769
 793  25  17.972541   2.852170   9.431740  -0.000894   0.153558  -0.005821
 794  25  17.074043   3.807215   9.104466  -0.001076   0.153558  -0.007005
 795   7  14.412267   0.546717   8.170281  -0.000745   0.150957  -0.004934
 796   7  15.586491  -0.326573   8.574435  -0.000698   0.150957  -0.004625
 797   7  17.041302  -0.257415   9.002829  -0.000838   0.150957  -0.005549
 798   7  18.165983   0.725160   9.275629  -0.000815   0.150957  -0.005399
 799   7  18.488402   2.208675   9.278315  -0.000620   0.150957  -0.004107
 800   7  17.873211   3.570365   9.009760  -0.000794   0.150957  -0.005257
 801   7  16.899140   4.251346   8.677227  -0.000487   0.084321  -0.005776
 802  26  20.326961   3.838452   6.266393  -0.000358   0.066610  -0.005375
 803  26  20.400207   3.210701   7.148906  -0.000826   0.147341  -0.005605
 804  26  20.457266   2.015067   7.690305  -0.000811   0.147341  -0.005504
 805  26  20.456323   0.731178   7.411853  -0.000867   0.147341  -0.005885
 806  26  20.397752  -0.132660   6.423794  -0.000854   0.147341  -0.005798
 807  26  20.304742  -0.234442   5.117311  -0.000724   0.147341  -0.004915
 808  26  20.214116   0.466127   4.009657  -0.000844   0.147341  -0.005725
 809  26  20.163538   1.428210   3.509554  -0.000385   0.066610  -0.005782
 810   7  20.032351   3.841547   6.774878  -0.000770   0.146489  -0.005253
 811   7  20.120848   2.758698   7.774073  -0.000591   0.146489  -0.004033
 812   7  20.154059   1.291231   7.929694  -0.000651   0.146489  -0.004442
 813   7  20.118837   0.020131   7.180129  -0.000749   0.146489  -0.005116
 814   7  20.029125  -0.551357   5.822139  -0.000720   0.146489  -0.004912
 815   7  19.920443  -0.196975   4.393369  -0.000612   0.146489  -0.004180
 816   7  19.835818   0.942974   3.459486  -0.000713   0.146489  -0.004866
 817   8  13.805392   0.943386   3.313966  -0.000663   0.077224  -0.008592
 818   9  13.430511   1.112448   3.464229   0.000011   0.077224   0.000142
 819  24  14.112189   0.346638   3.611943  -0.000832   0.077224  -0.010779
 820   8  15.193091   4.814227   7.986511  -0.000509   0.088462  -0.005754
 821   9  14.755588   4.826232   7.955265   0.000185   0.088462   0.002096
 822  25  15.372492   4.235640   8.417601  -0.000780   0.088462  -0.008822
 823   9  12.986314   1.734313   2.816025   0.000660   0.151566   0.004354
 824   8  13.569183   1.423914   2.785021  -0.000448   0.161726  -0.002772
 825   9  14.473597   5.688105   7.555771   0.001118   0.225016   0.004968
 826   8  15.099533   5.943315   7.372236  -0.000830   0.240099  -0.003456
 827   8  14.978459   3.477726   0.668205   0.000083   0.106674   0.000779
 828  10  15.216262   3.742125   0.490830   0.000913   0.106674   0.008563
 829  22  14.268436   4.002975   0.376552  -0.000216   0.106674  -0.002023
 830   8  16.240635   7.640782   5.198795   0.000095   0.113024   0.000843
 831  10  16.436767   7.770621   4.878135   0.000913   0.113024   0.008082
 832  23  15.464699   8.190482   4.984573  -0.000303   0.113024  -0.002680
 833  10  17.567101   2.546206   1.048183   0.001624   0.190108   0.008543
 834  10  16.093536   3.232945   0.504694   0.001644   0.190108   0.008646
 835   8  16.549002   2.543745   1.102189   0.001000   0.398599   0.002508
 836  10  17.293374   7.544102   5.055708   0.001304   0.142480   0.009149
 837  10  18.645594   6.541183   5.240015   0.002721   0.302307   0.009001
 838   8  17.579586   6.958265   5.611433   0.000846   0.296172   0.002855
 839   8  18.921888   5.840262   5.691100   0.000509   0.152030   0.003345
 840  22  13.464770   3.768173   0.345230  -0.001945   0.318866  -0.006101
 841   8  14.275534   2.841307   0.994033  -0.001728   0.449612  -0.003844
 842  23  14.577988   8.268775   5.791885  -0.002465   0.400721  -0.006151
 843   8  15.793354   7.465837   5.934207  -0.001891   0.566721  -0.003336
 844  24  14.653971  -0.166673   3.307082  -0.002117   0.232566  -0.009104
 845  24  15.819413  -0.165054   2.678511  -0.001925   0.232566  -0.008276
 846   8  14.997085   0.775351   2.550963  -0.006585   0.631258  -0.010431
 847  25  16.088805   4.135413   8.785534  -0.001190   0.157361  -0.007560
 848   8  15.734091   4.942253   8.100721  -0.001243   0.221947  -0.005599
 849  20  10.368443   4.627217   7.909062   0.000127   0.246891   0.000514
 850  20  10.882878   5.777588   7.969087  -0.000747   0.496737  -0.001504
 851   9  11.897677   4.449342   7.806582   0.005418   0.609716   0.008887
 852   9  12.431277   5.717127   7.757918   0.002007   0.307168   0.006535
 853  21  10.492529   1.852062   2.934665  -0.000401   0.239264  -0.001674
 854  21  10.251871   1.585286   4.167996  -0.000747   0.482136  -0.001550
 855  21   9.957917   1.880128   5.383254   0.000170   0.239264   0.000710
 856   9  11.769605   1.638571   3.622808   0.005002   0.586954   0.008521
 857   9  11.404554   1.657736   5.294787   0.006812   0.586954   0.011606
 858  24  13.756448  -0.258228   4.880901  -0.000990   0.254162  -0.003897
 859  24  14.004204  -0.143126   3.935039  -0.001159   0.254162  -0.004561
 860   9  12.907007   0.922428   4.289693   0.003432   0.628890   0.005458
 861  25  15.202891   3.867467   8.862267  -0.001140   0.234654  -0.004859
 862  25  14.426008   2.887766   8.859976  -0.002286   0.472479  -0.004838
 863  25  13.973524   1.797800   8.446938  -0.000671   0.234654  -0.002859
 864   9  13.945793   4.288187   8.210900   0.003871   0.576535   0.006715
 865   9  13.105884   2.874182   7.927145   0.005151   0.576535   0.008935
 866  22  14.316995   7.004012   0.068815  -0.000044   0.257990  -0.000172
 867  22  14.255963   5.722210  -0.326316  -0.001384   0.520026  -0.002662
 868  22  14.011662   4.417181  -0.126096  -0.000745   0.257990  -0.002888
 869  10  15.713459   6.419480   0.091560   0.009333   0.634595   0.014707
 870  10  15.504902   4.652548  -0.041574   0.006774   0.634595   0.010675
 871  23  15.227574   8.832554   4.696545  -0.000859   0.295165  -0.002910
 872  23  15.014835   9.071099   3.300888  -0.001093   0.594823  -0.001837
 873  10  16.537645   8.323744   3.874439   0.007828   0.731796   0.010696
 874  10  16.218921   8.453238   2.348837   0.005002   0.369011   0.013555
 875  26  20.305583   2.234227   3.437352  -0.000592   0.267154  -0.002217
 876  26  20.670671   3.218630   4.351041  -0.002177   0.539047  -0.004038
 877  26  20.426025   4.010572   5.469139  -0.000705   0.267154  -0.002638
 878  10  20.084453   3.600354   2.826021   0.008056   0.656417   0.012272
 879  10  20.166674   4.812994   4.213040   0.007468   0.656417   0.011376
 880  16   2.046627   7.195956   6.250540   0.000255   0.248609   0.001025
 881  16   2.613076   6.467981   6.859265  -0.000282   0.497038  -0.000567
 882  16   3.488249   5.442688   6.911289  -0.000188   0.497038  -0.000378
 883  11   1.069557   5.914694   6.392851   0.000005   0.497038   0.000010
 884  11   1.859849   4.938910   6.885946  -0.000407   0.497038  -0.000819
 885  11   2.579573   4.121532   6.698196   0.000054   0.248609   0.000218
 886  17   1.953838   8.070394   0.129937   0.000092   0.249182   0.000371
 887  17   1.415502   8.637656   0.904493  -0.000368   0.498160  -0.000739
 888  17   1.140459   8.828745   2.205856   0.000036   0.498160   0.000072
 889  12   0.526186   7.302893   0.296345  -0.000261   0.498160  -0.000523
 890  12  -0.001720   7.819595   1.418861  -0.000208   0.498160  -0.000418
 891  12  -0.083521   7.798976   2.516318   0.000332   0.249182   0.001332
 892  18   7.900967   4.785556  -0.808784   0.000091   0.251135   0.000363
 893  18   7.379212   5.552001  -1.460996  -0.000588   0.502167  -0.001171
 894  18   6.537406   6.645189  -1.540656  -0.000435   0.502167  -0.000865
 895  14   6.512481   4.130668  -1.220007   0.000052   0.502167   0.000104
 896  14   5.769523   5.164437  -1.757947  -0.000419   0.502167  -0.000834
 897  14   5.069142   6.038256  -1.582015   0.000101   0.251135   0.000401
 898  21   7.576205   2.057681   5.315016  -0.000359   0.238462  -0.001504
 899  21   7.932529   1.446348   4.301957  -0.002225   0.477441  -0.004661
 900  21   8.220525   1.526027   2.830813  -0.002213   0.477441  -0.004635
 901  15   6.479791   1.501248   4.687596  -0.001925   0.477441  -0.004032
 902  15   6.872391   1.059740   3.307563  -0.001927   0.477441  -0.004037
 903  15   7.039133   1.392994   2.129377  -0.000211   0.238462  -0.000885
 904  20   7.519236   7.962511   7.255847  -0.000116   0.241951  -0.000481
 905  20   7.222639   7.032224   7.721939  -0.000669   0.483719  -0.001383
 906  20   6.979328   5.736171   7.623943  -0.000315   0.483719  -0.000652
 907  16   5.917838   7.925215   7.119539  -0.000307   0.483719  -0.000635
 908  16   5.590475   6.685244   7.441819  -0.000379   0.483719  -0.000783
 909  16   5.445610   5.653716   7.149227   0.000112   0.241951   0.000463
 910  19   6.172982  11.088720   2.271147   0.000265   0.255773   0.001035
 911  17   4.769738  10.783176   2.162385   0.000277   0.255773   0.001084
 912  22  10.819707   4.673740  -0.271319  -0.000660   0.259924  -0.002538
 913  22  11.213361   5.667230  -0.786953  -0.002246   0.519865  -0.004320
 914  22  11.577889   7.052130  -0.611292  -0.002118   0.519865  -0.004074
 915  18   9.557263   5.447711  -0.788752  -0.001073   0.519865  -0.002063
 916  18  10.009836   6.777563  -1.117924  -0.001180   0.519865  -0.002270
 917  18  10.244209   7.870638  -0.720280  -0.000120   0.259924  -0.000461
 918  23  11.939171  10.171603   2.803124  -0.000588   0.283759  -0.002072
 919  23  11.723962  10.313386   3.978443  -0.002138   0.567276  -0.003768
 920  23  11.370540   9.922106   5.060009  -0.000550   0.283759  -0.001937
 921  19  10.330842  10.716185   2.914967  -0.000921   0.567276  -0.001623
 922  19   9.976227  10.560591   4.322426  -0.000921   0.567276  -0.001624
 =====================================================

              7197800  WORDS OF DYNAMIC MEMORY USED
 EXECUTION OF GAMESS TERMINATED NORMALLY Fri Nov 25 04:55:51 2016
 DDI: 263640 bytes (0.3 MB / 0 MWords) used by master data server.

 ----------------------------------------
 CPU timing information for all processes
 ========================================
 0: 5214.732 + 1.656 = 5216.388
 ----------------------------------------
 ddikick.x: exited gracefully.
