----- GAMESS execution script -----

          ******************************************************
          *         GAMESS VERSION =  5 DEC 2014 (R1)          *
          *             FROM IOWA STATE UNIVERSITY             *
          * M.W.SCHMIDT, K.K.BALDRIDGE, J.A.BOATZ, S.T.ELBERT, *
          *   M.S.GORDON, J.H.JENSEN, S.KOSEKI, N.MATSUNAGA,   *
          *          K.A.NGUYEN, S.J.SU, T.L.WINDUS,           *
          *       TOGETHER WITH M.DUPUIS, J.A.MONTGOMERY       *
          *         J.COMPUT.CHEM.  14, 1347-1363(1993)        *
          **************** 64 BIT LINUX VERSION ****************

 EXECUTION OF GAMESS BEGUN Fri Nov 25 03:50:04 2016

            ECHO OF THE FIRST FEW INPUT CARDS -
 INPUT CARD>! SELECT RESTRICTED HARTREE-FOCK AS DEFAULT                                     
 INPUT CARD>$contrl scftyp=rhf $end                                                         
 INPUT CARD>                                                                                
 INPUT CARD>! THEORY: HF OR DFT                                                             
 INPUT CARD> $contrl mplevl=0 $end                                                          
 INPUT CARD>                                                                                
 INPUT CARD> $system timlim=10000 mwords=20 $end                                            
 INPUT CARD> $SCF DIRSCF=.TRUE. $end                                                        
 INPUT CARD>                                                                                
 INPUT CARD>                                                                                
 INPUT CARD>! BASIS SETS                                                                    
 INPUT CARD>! 6-311G(d,p)                                                                   
 INPUT CARD> $BASIS GBASIS=N311 NGAUSS=6 NDFUNC=1 NPFUNC=1 $END                             
 INPUT CARD>                                                                                
 INPUT CARD>! One of the following                                                          
 INPUT CARD> $guess guess=HUCKEL $end                                                       
 INPUT CARD>                                                                                
 INPUT CARD> $statpt projct=.FALSE. $end                                                    
 INPUT CARD> $STATPT IFREEZ(1)=1,2,3 $END                                                   
 INPUT CARD>                                                                                
 INPUT CARD>! Optimize the geometry with COSMO effects                                      
 INPUT CARD> $statpt opttol=0.0005 nstep=50 $end                                            
 INPUT CARD> $contrl nzvar=1 $end                                                           
 INPUT CARD> $zmat dlc=.t. auto=.t. $end                                                    
 INPUT CARD> $contrl runtyp=OPTIMIZE maxit=200 $end                                         
 INPUT CARD>                                                                                
 INPUT CARD>! Run COSMO on perfect conductor                                                
 INPUT CARD> $COSGMS PRFCND=.TRUE. $end                                                     
 INPUT CARD>                                                                                
 INPUT CARD>! Specifying RSOLV                                                              
 INPUT CARD> $COSGMS COSRAD = 1.4 $end                                                      
 INPUT CARD>                                                                                
 INPUT CARD>! available memory                                                              
 INPUT CARD> $SYSTEM MWORDS=40 $END                                                         
 INPUT CARD>                                                                                
 INPUT CARD> $DATA                                                                          
 INPUT CARD>http://cactus.nci.nih.gov/chemical/structure/N-METHYLACETAMIDE/file?format=sdf&g
 INPUT CARD>C1                                                                              
 INPUT CARD>C      6.0      1.9642000000    0.0715000000    0.0000000000                    
 INPUT CARD>N      7.0      0.6403000000    0.6988000000    0.0000000000                    
 INPUT CARD>C      6.0     -0.4685000000   -0.0675000000    0.0000000000                    
 INPUT CARD>C      6.0     -1.8303000000    0.5778000000    0.0000000000                    
 INPUT CARD>O      8.0     -0.3702000000   -1.2763000000    0.0000000000                    
 INPUT CARD>H      1.0      2.7326000000    0.8446000000    0.0000000000                    
 INPUT CARD>H      1.0      2.0725000000   -0.5484000000    0.8900000000                    
 INPUT CARD>H      1.0      2.0725000000   -0.5484000000   -0.8900000000                    
 INPUT CARD>H      1.0      0.5617000000    1.6656000000    0.0000000000                    
 INPUT CARD>H      1.0     -1.7186000000    1.6621000000    0.0000000000                    
 INPUT CARD>H      1.0     -2.3787000000    0.2691000000   -0.8900000000                    
 INPUT CARD>H      1.0     -2.3787000000    0.2691000000    0.8900000000                    
   40000000 WORDS OF MEMORY AVAILABLE

     BASIS OPTIONS
     -------------
     GBASIS=N311         IGAUSS=       6      POLAR=POPN311 
     NDFUNC=       1     NFFUNC=       0     DIFFSP=       F
     NPFUNC=       1      DIFFS=       F     BASNAM=        


     RUN TITLE
     ---------
 http://cactus.nci.nih.gov/chemical/structure/N-METHYLACETAMIDE/file?format=sdf&g

 THE POINT GROUP OF THE MOLECULE IS C1      
 THE ORDER OF THE PRINCIPAL AXIS IS     0

 ATOM      ATOMIC                      COORDINATES (BOHR)
           CHARGE         X                   Y                   Z
 C           6.0     3.7117997851        0.1351154081        0.0000000000
 N           7.0     1.2099915499        1.3205405202        0.0000000000
 C           6.0    -0.8853366252       -0.1275565042        0.0000000000
 C           6.0    -3.4587654753        1.0918836757        0.0000000000
 O           8.0    -0.6995765607       -2.4118572781        0.0000000000
 H           1.0     5.1638652340        1.5960625692        0.0000000000
 H           1.0     3.9164571096       -1.0363257317        1.6818561291
 H           1.0     3.9164571096       -1.0363257317       -1.6818561291
 H           1.0     1.0614590873        3.1475276051        0.0000000000
 H           1.0    -3.2476830825        3.1409135642        0.0000000000
 H           1.0    -4.4950912070        0.5085252633       -1.6818561291
 H           1.0    -4.4950912070        0.5085252633        1.6818561291

          INTERNUCLEAR DISTANCES (ANGS.)




     $CONTRL OPTIONS
     ---------------
 SCFTYP=RHF          RUNTYP=OPTIMIZE     EXETYP=RUN     
 MPLEVL=       0     CITYP =NONE         CCTYP =NONE         VBTYP =NONE    
 DFTTYP=NONE         TDDFT =NONE    
 MULT  =       1     ICHARG=       0     NZVAR =       1     COORD =UNIQUE  
 PP    =NONE         RELWFN=NONE         LOCAL =NONE         NUMGRD=       F
 ISPHER=      -1     NOSYM =       0     MAXIT =     200     UNITS =ANGS    
 PLTORB=       F     MOLPLT=       F     AIMPAC=       F     FRIEND=        
 NPRINT=       7     IREST =       0     GEOM  =INPUT   
 NORMF =       0     NORMP =       0     ITOL  =      20     ICUT  =       9
 INTTYP=BEST         GRDTYP=BEST         QMTTOL= 1.0E-06

     $SYSTEM OPTIONS
     ---------------
  REPLICATED MEMORY=    40000000 WORDS (ON EVERY NODE).
 DISTRIBUTED MEMDDI=           0 MILLION WORDS IN AGGREGATE,
 MEMDDI DISTRIBUTED OVER   1 PROCESSORS IS           0 WORDS/PROCESSOR.
 TOTAL MEMORY REQUESTED ON EACH PROCESSOR=    40000000 WORDS.
 TIMLIM=       10000.00 MINUTES, OR       6.9 DAYS.
 PARALL= F  BALTYP=  DLB     KDIAG=    0  COREFL= F
 MXSEQ2=     300 MXSEQ3=     150  mem10=         0

     $COSGMS OPTIONS
     ---------------
     EPSI  =   INFTY     NSPA  =      92     COSRAD=    1.40
     DISEX =   10.00     OUTCHG=DBLCAV       COSBUG=       F
     COSWRT=       F     DCOSMO=       F

     SYMMETRY COORDINATES WILL NOT BE USED FOR 
     THE COSMO CALCULATION, EVEN IF SPECIFIED:
         -- SWITCHING TO C1 POINT GROUP --


     DEFINITION OF CAVITY
     ---------------------------
     ATOM         COORDINATES           RADIUS 
     1    3.7118    0.1351    0.0000    2.0000
     2    1.2100    1.3205    0.0000    1.8300
     3   -0.8853   -0.1276    0.0000    2.0000
     4   -3.4588    1.0919    0.0000    2.0000
     5   -0.6996   -2.4119    0.0000    1.7200
     6    5.1639    1.5961    0.0000    1.3000
     7    3.9165   -1.0363    1.6819    1.3000
     8    3.9165   -1.0363   -1.6819    1.3000
     9    1.0615    3.1475    0.0000    1.3000
    10   -3.2477    3.1409    0.0000    1.3000
    11   -4.4951    0.5085   -1.6819    1.3000
    12   -4.4951    0.5085    1.6819    1.3000

          ----------------
          PROPERTIES INPUT
          ----------------

     MOMENTS            FIELD           POTENTIAL          DENSITY
 IEMOM =       1   IEFLD =       0   IEPOT =       0   IEDEN =       0
 WHERE =COMASS     WHERE =NUCLEI     WHERE =NUCLEI     WHERE =NUCLEI  
 OUTPUT=BOTH       OUTPUT=BOTH       OUTPUT=BOTH       OUTPUT=BOTH    
 IEMINT=       0   IEFINT=       0                     IEDINT=       0
                                                       MORB  =       0
          EXTRAPOLATION IN EFFECT
          SOSCF IN EFFECT
 ORBITAL PRINTING OPTION: NPREO=     1   137     2     1

     -------------------------------
     INTEGRAL TRANSFORMATION OPTIONS
     -------------------------------
     NWORD  =            0
     CUTOFF = 1.0E-09     MPTRAN =       0
     DIRTRF =       T     AOINTS =DUP     

          ----------------------
          INTEGRAL INPUT OPTIONS
          ----------------------
 NOPK  =       1 NORDER=       0 SCHWRZ=       T


 -----------------------------------------------
  STATISTICS ON AUTOMATIC COORDINATE GENERATION 
 -----------------------------------------------
  NUMBER OF USER SPECIFIED BONDS                             0
  NUMBER OF BONDS                                           11
  NUMBER OF ANGLES                                          18
  NUMBER OF TORSIONS                                        16
  NUMBER OF EXTRA COORD.                                     0
  NUMBER OF EXTRA COORD. FOR CONSTRAINTS                     0
  NUMBER OF CONSTRAINED COORD.                               0

  TOTAL NUMBER OF PRIMITIVES                                45
 -----------------------------------------------

   --- ENCODED Z MATRIX ---
 COORD  TYPE   I   J   K   L   M   N
    1      1    1   7
    2      1    1   6
    3      1    1   8
    4      1    1   2
    5      1    2   9
    6      1    2   3
    7      1    3   4
    8      1    3   5
    9      1    4  12
   10      1    4  11
   11      1    4  10
   12      2    1   2   3
   13      2    1   2   9
   14      2    2   1   7
   15      2    2   1   6
   16      2    2   1   8
   17      2    2   3   4
   18      2    2   3   5
   19      2    3   4  11
   20      2    3   4  12
   21      2    3   2   9
   22      2    3   4  10
   23      2    4   3   5
   24      2    6   1   7
   25      2    6   1   8
   26      2    7   1   8
   27      2   10   4  11
   28      2   10   4  12
   29      2   11   4  12
   30      3    1   2   3   5
   31      3    1   2   3   4
   32      3    2   3   4  10
   33      3    2   3   4  11
   34      3    2   3   4  12
   35      3    3   2   1   8
   36      3    3   2   1   7
   37      3    3   2   1   6
   38      3    4   3   2   9
   39      3    5   3   4  10
   40      3    5   3   4  12
   41      3    5   3   4  11
   42      3    5   3   2   9
   43      3    6   1   2   9
   44      3    7   1   2   9
   45      3    8   1   2   9

          INDEP./SYM. INTERNAL COORDINATES
          --------------------------------
 CRD  1=   0.5429 ( 12) -0.2141 ( 13) -0.1698 ( 15) -0.5316 ( 17)  0.3481 ( 18)
          -0.3288 ( 21) -0.1722 ( 22)  0.1835 ( 23)
 CRD  2=  -0.3908 (  4) -0.3876 (  6) -0.3827 (  7) -0.3388 ( 12)  0.2298 ( 13)
          -0.1486 ( 14) -0.1486 ( 16) -0.3552 ( 17)  0.1090 ( 21) -0.2050 ( 22)
           0.2619 ( 23)  0.1028 ( 24)  0.1028 ( 25)  0.1001 ( 29)
 CRD  3=  -0.3225 ( 14)  0.3225 ( 16)  0.3096 ( 19) -0.3096 ( 20) -0.3252 ( 30)
          -0.4788 ( 31)  0.1079 ( 33)  0.1079 ( 34)  0.1539 ( 37) -0.3172 ( 38)
          -0.1817 ( 39) -0.1636 ( 42) -0.1487 ( 44) -0.1487 ( 45)
 CRD  4=  -0.1363 (  4) -0.4311 (  7)  0.1343 ( 12) -0.1617 ( 13) -0.1867 ( 15)
           0.1373 ( 17)  0.3295 ( 18) -0.3187 ( 19) -0.3187 ( 20)  0.2509 ( 22)
          -0.4668 ( 23)  0.2260 ( 29)
 CRD  5=   0.1433 (  2)  0.2071 (  4)  0.1282 (  5)  0.3511 (  6) -0.1987 (  7)
          -0.1876 ( 14)  0.5675 ( 15) -0.1876 ( 16)  0.3174 ( 18) -0.2782 ( 22)
          -0.2336 ( 23) -0.1494 ( 24) -0.1494 ( 25)  0.1066 ( 26)  0.1043 ( 27)
           0.1043 ( 28)
 CRD  6=  -0.1021 (  1)  0.1021 (  3)  0.1236 (  9) -0.1236 ( 10) -0.4033 ( 14)
           0.4033 ( 16) -0.4772 ( 19)  0.4772 ( 20)  0.1366 ( 24) -0.1366 ( 25)
           0.1632 ( 27) -0.1632 ( 28) -0.1044 ( 30) -0.1428 ( 33) -0.1428 ( 34)
 CRD  7=   0.4522 (  4) -0.3467 (  6)  0.1052 ( 11)  0.4111 ( 13)  0.1192 ( 14)
           0.1996 ( 15)  0.1192 ( 16) -0.1807 ( 19) -0.1807 ( 20) -0.3878 ( 21)
           0.2773 ( 22)  0.1069 ( 23) -0.1426 ( 24) -0.1426 ( 25) -0.1528 ( 26)
           0.1504 ( 29)
 CRD  8=   0.2220 ( 14) -0.2220 ( 16) -0.2105 ( 30) -0.2720 ( 32) -0.2787 ( 33)
          -0.2787 ( 34) -0.3009 ( 35) -0.3009 ( 36) -0.3367 ( 37) -0.2232 ( 38)
          -0.1152 ( 39) -0.1218 ( 40) -0.1218 ( 41) -0.3801 ( 42) -0.1672 ( 43)
          -0.1313 ( 44) -0.1313 ( 45)
 CRD  9=  -0.1318 (  2)  0.2534 (  4)  0.2414 (  5) -0.2617 (  7) -0.2537 (  8)
          -0.1343 ( 11) -0.1186 ( 12)  0.2861 ( 14) -0.2983 ( 15)  0.2861 ( 16)
           0.1296 ( 17)  0.1017 ( 19)  0.1017 ( 20) -0.4862 ( 22) -0.2533 ( 26)
           0.1757 ( 27)  0.1757 ( 28)
 CRD 10=  -0.1665 (  1)  0.1665 (  3) -0.1545 (  9)  0.1545 ( 10) -0.2851 ( 14)
           0.2851 ( 16)  0.2723 ( 19) -0.2723 ( 20)  0.1751 ( 24) -0.1751 ( 25)
          -0.1649 ( 27)  0.1649 ( 28)  0.2312 ( 30)  0.3545 ( 31) -0.1785 ( 32)
          -0.2137 ( 33) -0.2137 ( 34) -0.1587 ( 35) -0.1587 ( 36) -0.1986 ( 37)
           0.2148 ( 38)
 CRD 11=  -0.1017 (  2)  0.5107 (  5)  0.2796 (  6)  0.5001 (  8) -0.2622 ( 12)
           0.1344 ( 14) -0.1599 ( 15)  0.1344 ( 16) -0.2486 ( 17)  0.2105 ( 18)
           0.2081 ( 21)  0.2189 ( 22) -0.1439 ( 26)
 CRD 12=  -0.2255 (  1) -0.1953 (  2) -0.2255 (  3)  0.1105 (  8)  0.4153 (  9)
           0.4153 ( 10)  0.4464 ( 11) -0.1083 ( 13)  0.1116 ( 15) -0.1013 ( 18)
          -0.1975 ( 19) -0.1975 ( 20) -0.1377 ( 22)  0.1184 ( 23)  0.1618 ( 27)
           0.1618 ( 28)  0.2090 ( 29)
 CRD 13=  -0.4498 (  1) -0.4311 (  2) -0.4498 (  3) -0.1455 (  4) -0.2279 (  9)
          -0.2279 ( 10) -0.2323 ( 11)  0.1543 ( 14)  0.1788 ( 15)  0.1543 ( 16)
          -0.1697 ( 24) -0.1697 ( 25) -0.1479 ( 26)
 CRD 14=   0.4170 (  1) -0.4170 (  3) -0.3005 (  9)  0.3005 ( 10)  0.2871 ( 24)
          -0.2871 ( 25)  0.2008 ( 27) -0.2008 ( 28) -0.1066 ( 32)  0.1136 ( 33)
           0.1136 ( 34) -0.2502 ( 37) -0.1024 ( 39)  0.1178 ( 40)  0.1178 ( 41)
          -0.2423 ( 43)
 CRD 15=  -0.1724 (  2)  0.2754 (  9)  0.2754 ( 10) -0.5799 ( 11)  0.1222 ( 26)
          -0.1935 ( 27) -0.1935 ( 28)  0.3901 ( 29) -0.2144 ( 33)  0.2144 ( 34)
           0.2144 ( 40) -0.2144 ( 41)
 CRD 16=  -0.2879 (  1)  0.5706 (  2) -0.2879 (  3) -0.1799 ( 11)  0.1940 ( 24)
           0.1940 ( 25) -0.3873 ( 26)  0.1212 ( 29) -0.2142 ( 35)  0.2142 ( 36)
           0.2142 ( 44) -0.2142 ( 45)
 CRD 17=   0.3029 (  1) -0.3029 (  3)  0.4264 (  9) -0.4264 ( 10)  0.2005 ( 24)
          -0.2005 ( 25) -0.2846 ( 27)  0.2846 ( 28)  0.2158 ( 32) -0.1024 ( 33)
          -0.1024 ( 34) -0.1510 ( 37)  0.2270 ( 39) -0.1449 ( 43)
 CRD 18=   0.2889 ( 32)  0.2386 ( 33)  0.2386 ( 34) -0.2816 ( 35) -0.2816 ( 36)
          -0.2306 ( 37)  0.3680 ( 39)  0.3177 ( 40)  0.3177 ( 41) -0.2354 ( 43)
          -0.2864 ( 44) -0.2864 ( 45)
 CRD 19=  -0.2392 (  2) -0.1911 (  4) -0.1057 (  6)  0.2593 (  7)  0.2433 (  9)
           0.2433 ( 10)  0.3865 ( 13) -0.1465 ( 15)  0.3346 ( 18)  0.1607 ( 19)
           0.1607 ( 20) -0.3108 ( 21) -0.3698 ( 23)  0.1245 ( 24)  0.1245 ( 25)
          -0.1892 ( 29)
 CRD 20=  -0.1419 (  1) -0.1419 (  3)  0.6248 (  5) -0.6105 (  8)  0.1748 ( 11)
           0.1014 ( 12) -0.1298 ( 13) -0.1200 ( 14) -0.1200 ( 16)  0.1387 ( 22)
           0.1561 ( 23)  0.1582 ( 26)
 CRD 21=   0.1774 (  1)  0.2332 (  2)  0.1774 (  3) -0.1336 (  4) -0.2566 (  6)
          -0.1191 (  7) -0.1803 (  8)  0.1699 (  9)  0.1699 ( 10)  0.1850 ( 11)
          -0.1122 ( 12) -0.2003 ( 13)  0.1908 ( 14)  0.2143 ( 15)  0.1908 ( 16)
          -0.1310 ( 17)  0.2242 ( 18)  0.1765 ( 19)  0.1765 ( 20)  0.3125 ( 21)
           0.1787 ( 22) -0.2116 ( 24) -0.2116 ( 25) -0.1725 ( 26) -0.1809 ( 27)
          -0.1809 ( 28) -0.1700 ( 29)
 CRD 22=   0.1174 (  1) -0.2332 (  2)  0.1174 (  3) -0.4016 (  5)  0.5463 (  6)
          -0.3721 (  8)  0.2362 ( 11) -0.1721 ( 12)  0.1539 ( 13) -0.1696 ( 17)
           0.1272 ( 23) -0.1677 ( 26) -0.1006 ( 27) -0.1006 ( 28)  0.1294 ( 29)
 CRD 23=  -0.1467 (  1) -0.1102 (  2) -0.1467 (  3)  0.4569 (  4) -0.1273 (  5)
          -0.5193 (  7)  0.1832 (  8)  0.1586 (  9)  0.1586 ( 10)  0.1415 ( 11)
          -0.1462 ( 14) -0.1652 ( 15) -0.1462 ( 16)  0.1788 ( 19)  0.1788 ( 20)
           0.1626 ( 22)  0.1433 ( 24)  0.1433 ( 25)  0.1708 ( 26) -0.1696 ( 27)
          -0.1696 ( 28) -0.1809 ( 29)
 CRD 24=   0.3512 (  9) -0.3512 ( 10)  0.2550 ( 27) -0.2550 ( 28)  0.2708 ( 30)
          -0.1605 ( 32)  0.1872 ( 33)  0.1872 ( 34) -0.1284 ( 37) -0.4434 ( 39)
           0.3394 ( 42) -0.1970 ( 43) -0.1436 ( 44) -0.1436 ( 45)
 CRD 25=  -0.3817 (  1)  0.3817 (  3)  0.1026 (  9) -0.1026 ( 10)  0.1036 ( 14)
          -0.1036 ( 16)  0.2776 ( 24) -0.2776 ( 25)  0.1197 ( 35)  0.1197 ( 36)
          -0.2837 ( 37) -0.2196 ( 38)  0.1331 ( 40)  0.1331 ( 41) -0.2656 ( 42)
           0.3180 ( 44)  0.3180 ( 45)
 CRD 26=  -0.4703 (  4)  0.1790 (  5)  0.2874 (  6) -0.4153 (  7)  0.1569 (  8)
           0.1841 ( 12)  0.1743 ( 13)  0.1623 ( 17) -0.3008 ( 18) -0.3584 ( 21)
           0.1108 ( 22)  0.1386 ( 23) -0.1006 ( 26) -0.1273 ( 29)
 CRD 27=   0.1329 (  1) -0.2906 (  2)  0.1329 (  3) -0.1146 (  8)  0.1777 (  9)
           0.1777 ( 10) -0.3646 ( 11) -0.1611 ( 13)  0.1402 ( 15) -0.1678 ( 17)
          -0.1007 ( 19) -0.1007 ( 20)  0.1902 ( 22)  0.1625 ( 23)  0.1128 ( 24)
           0.1128 ( 25) -0.1956 ( 26)  0.1354 ( 27)  0.1354 ( 28) -0.2596 ( 29)
           0.2207 ( 33) -0.2207 ( 34) -0.1719 ( 35)  0.1719 ( 36) -0.2207 ( 40)
           0.2207 ( 41)  0.1719 ( 44) -0.1719 ( 45)
 CRD 28=  -0.1604 (  1)  0.3153 (  2) -0.1604 (  3) -0.1843 (  5)  0.2477 (  6)
          -0.1616 (  8)  0.1141 (  9)  0.1141 ( 10) -0.2388 ( 11) -0.2298 ( 12)
           0.2091 ( 13)  0.1012 ( 14) -0.2092 ( 15)  0.1012 ( 16) -0.1911 ( 17)
           0.1515 ( 22)  0.1457 ( 23) -0.1133 ( 24) -0.1133 ( 25)  0.2335 ( 26)
          -0.1673 ( 29)  0.1528 ( 33) -0.1528 ( 34)  0.2049 ( 35) -0.2049 ( 36)
          -0.1528 ( 40)  0.1528 ( 41) -0.2049 ( 44)  0.2049 ( 45)
 CRD 29=  -0.1762 (  1)  0.1762 (  3) -0.2247 (  9)  0.2247 ( 10)  0.1250 ( 14)
          -0.1250 ( 16) -0.1612 ( 19)  0.1612 ( 20)  0.1275 ( 24) -0.1275 ( 25)
          -0.1626 ( 27)  0.1626 ( 28) -0.2976 ( 31)  0.3013 ( 32)  0.1109 ( 35)
           0.1109 ( 36) -0.1218 ( 37) -0.3205 ( 40) -0.3205 ( 41)  0.2689 ( 42)
          -0.3645 ( 43) -0.1317 ( 44) -0.1317 ( 45)
 CRD 30=   0.1050 ( 14) -0.1050 ( 16) -0.3947 ( 30) -0.2884 ( 32) -0.1860 ( 33)
          -0.1860 ( 34)  0.2752 ( 35)  0.2752 ( 36)  0.1462 ( 37)  0.4430 ( 38)
           0.1808 ( 40)  0.1808 ( 41) -0.3247 ( 43) -0.1957 ( 44) -0.1957 ( 45)

 THE DETERMINANT OF THE G MATRIX IS 10**(   -12)


                     --------------------
                     INTERNAL COORDINATES
                     --------------------

                 - - ATOMS - -         COORDINATE      COORDINATE
 NO.   TYPE    I  J  K  L  M  N        (BOHR,RAD)       (ANG,DEG)
 ----------------------------------------------------------------
   1 STRETCH   1  7                     2.0598056       1.0900022
   2 STRETCH   1  6                     2.0598205       1.0900102
   3 STRETCH   1  8                     2.0598056       1.0900022
   4 STRETCH   1  2                     2.7684431       1.4649971
   5 STRETCH   2  9                     1.8330149       0.9699898
   6 STRETCH   2  3                     2.5470346       1.3478328
   7 STRETCH   3  4                     2.8477307       1.5069543
   8 STRETCH   3  5                     2.2918414       1.2127903
   9 STRETCH   4 12                     2.0598345       1.0900175
  10 STRETCH   4 11                     2.0598345       1.0900175
  11 STRETCH   4 10                     2.0598736       1.0900382
  12 BEND      1  2  3                  2.0943687     119.9984853
  13 BEND      1  2  9                  2.0944082     120.0007479
  14 BEND      2  1  7                  1.9106055     109.4696323
  15 BEND      2  1  6                  1.9106544     109.4724341
  16 BEND      2  1  8                  1.9106055     109.4696323
  17 BEND      2  3  4                  2.0943435     119.9970442
  18 BEND      2  3  5                  2.0943874     119.9995609
  19 BEND      3  4 11                  1.9106794     109.4738644
  20 BEND      3  4 12                  1.9106794     109.4738644
  21 BEND      3  2  9                  2.0944085     120.0007668
  22 BEND      3  4 10                  1.9106589     109.4726924
  23 BEND      4  3  5                  2.0944544     120.0033949
  24 BEND      6  1  7                  1.9106235     109.4706644
  25 BEND      6  1  8                  1.9106235     109.4706644
  26 BEND      7  1  8                  1.9106869     109.4742965
  27 BEND     10  4 11                  1.9105673     109.4674401
  28 BEND     10  4 12                  1.9105673     109.4674401
  29 BEND     11  4 12                  1.9106472     109.4720220
  30 TORSION   1  2  3  5               0.0000000       0.0000000
  31 TORSION   1  2  3  4               3.1415927     180.0000000
  32 TORSION   2  3  4 10               0.0000000       0.0000000
  33 TORSION   2  3  4 11               2.0943583     119.9978901
  34 TORSION   2  3  4 12              -2.0943583    -119.9978901
  35 TORSION   3  2  1  8               1.0472134      60.0009109
  36 TORSION   3  2  1  7              -1.0472134     -60.0009109
  37 TORSION   3  2  1  6               3.1415927     180.0000000
  38 TORSION   4  3  2  9               0.0000000       0.0000000
  39 TORSION   5  3  4 10               3.1415927     180.0000000
  40 TORSION   5  3  4 12               1.0472344      60.0021099
  41 TORSION   5  3  4 11              -1.0472344     -60.0021099
  42 TORSION   5  3  2  9               3.1415927     180.0000000
  43 TORSION   6  1  2  9               0.0000000       0.0000000
  44 TORSION   7  1  2  9               2.0943792     119.9990891
  45 TORSION   8  1  2  9              -2.0943792    -119.9990891

     ------------------------------------------
     THE POINT GROUP IS C1 , NAXIS= 1, ORDER= 1
     ------------------------------------------

     DIMENSIONS OF THE SYMMETRY SUBSPACES ARE
 A   =  137

 ..... DONE SETTING UP THE RUN .....
 STEP CPU TIME =     0.00 TOTAL CPU TIME =        0.0 (    0.0 MIN)
 TOTAL WALL CLOCK TIME=        0.0 SECONDS, CPU UTILIZATION IS   0.00%


          -----------------------------
          STATIONARY POINT LOCATION RUN
          -----------------------------

 OBTAINING INITIAL HESSIAN, HESS=GUESS   
 DIAGONAL GUESS HESSIAN IN INTERNAL COORDS IS
     1  0.3464     2  0.3464     3  0.3464     4  0.3636     5  0.3817
     6  0.4566     7  0.3840     8  0.5493     9  0.3464    10  0.3464
    11  0.3463    12  0.2498    13  0.2203    14  0.2212    15  0.2212
    16  0.2212    17  0.2550    18  0.2635    19  0.2255    20  0.2255
    21  0.2273    22  0.2255    23  0.2601    24  0.2034    25  0.2034
    26  0.2034    27  0.2034    28  0.2034    29  0.2034    30  0.2500
    31  0.2500    32  0.2500    33  0.2500    34  0.2500    35  0.2500
    36  0.2500    37  0.2500    38  0.2500    39  0.2500    40  0.2500
    41  0.2500    42  0.2500    43  0.2500    44  0.2500    45  0.2500
 TRANSFORMING HESSIAN TO SYMMETRY COORDINATES

          PARAMETERS CONTROLLING GEOMETRY SEARCH ARE
          METHOD =QA                  UPHESS =BFGS    
          NNEG   =         0          NFRZ   =         3
          NSTEP  =        50          IFOLOW =         1
          HESS   =GUESS               RESTAR =         F
          IHREP  =         0          HSSEND =         F
          NPRT   =         0          NPUN   =         0
          OPTTOL = 5.000E-04          RMIN   = 1.500E-03
          RMAX   = 1.000E-01          RLIM   = 7.000E-02
          DXMAX  = 3.000E-01          PURIFY =         F
          MOVIE  =         F          TRUPD  =         T
          TRMAX  = 5.000E-01          TRMIN  = 5.000E-02
          ITBMAT =         5          STPT   =         F
          STSTEP = 1.000E-02          PROJCT=          F
          FROZEN COORD(S)=   1   2   3


      ***** EQUILIBRIUM GEOMETRY LOCATED *****
            (SUBJECT TO   3 CONSTRAINT(S))
 COORDINATES OF ALL ATOMS ARE (ANGS)
   ATOM   CHARGE       X              Y              Z
 ------------------------------------------------------------
 C           6.0   1.9528810557   0.0841110246  -0.0000001047
 N           7.0   0.6342974000   0.6907690760  -0.0000048797
 C           6.0  -0.4576635061  -0.0755383172   0.0000090171
 C           6.0  -1.8090597960   0.5940743591   0.0000017439
 O           8.0  -0.3803430444  -1.2869990212  -0.0000072407
 H           1.0   2.7025674228   0.8623341600   0.0000053518
 H           1.0   2.0859930180  -0.5367102664   0.8784639980
 H           1.0   2.0860114826  -0.5367396455  -0.8784345119
 H           1.0   0.5524340264   1.6809824199   0.0000258695
 H           1.0  -1.7705534758   1.6754988025  -0.0000368236
 H           1.0  -2.3479697010   0.2507171845  -0.8761595996
 H           1.0  -2.3479621562   0.2507805170   0.8761915490


                     --------------------
                     INTERNAL COORDINATES
                     --------------------

                 - - ATOMS - -         COORDINATE      COORDINATE
 NO.   TYPE    I  J  K  L  M  N        (BOHR,RAD)       (ANG,DEG)
 ----------------------------------------------------------------
   1 STRETCH   1  7                     2.0482721       1.0838990
   2 STRETCH   1  6                     2.0420069       1.0805836
   3 STRETCH   1  8                     2.0482627       1.0838940
   4 STRETCH   1  2                     2.7428361       1.4514465
   5 STRETCH   2  9                     1.8776157       0.9935915
   6 STRETCH   2  3                     2.5209296       1.3340186
   7 STRETCH   3  4                     2.8500759       1.5081953
   8 STRETCH   3  5                     2.2939869       1.2139257
   9 STRETCH   4 12                     2.0492638       1.0844238
  10 STRETCH   4 11                     2.0492654       1.0844246
  11 STRETCH   4 10                     2.0448910       1.0821098
  12 BEND      1  2  3                  2.0984712     120.2335440
  13 BEND      1  2  9                  2.0844885     119.4323952
  14 BEND      2  1  7                  1.9294005     110.5465075
  15 BEND      2  1  6                  1.9063123     109.2236513
  16 BEND      2  1  8                  1.9294252     110.5479199
  17 BEND      2  3  4                  2.0696399     118.5816309
  18 BEND      2  3  5                  2.1189727     121.4081946
  19 BEND      3  4 11                  1.8804369     107.7410985
  20 BEND      3  4 12                  1.8804496     107.7418281
  21 BEND      3  2  9                  2.1002256     120.3340607
  22 BEND      3  4 10                  1.9952430     114.3190014
  23 BEND      4  3  5                  2.0945727     120.0101745
  24 BEND      6  1  7                  1.9042343     109.1045891
  25 BEND      6  1  8                  1.9042527     109.1056434
  26 BEND      7  1  8                  1.8898565     108.2808024
  27 BEND     10  4 11                  1.9114260     109.5166448
  28 BEND     10  4 12                  1.9114252     109.5165979
  29 BEND     11  4 12                  1.8813766     107.7949399
  30 TORSION   1  2  3  5              -0.0000319      -0.0018295
  31 TORSION   1  2  3  4              -3.1415914    -179.9999262
  32 TORSION   2  3  4 10               0.0000224       0.0012858
  33 TORSION   2  3  4 11               2.1288286     121.9728948
  34 TORSION   2  3  4 12              -2.1287920    -121.9707975
  35 TORSION   3  2  1  8               1.0461792      59.9416543
  36 TORSION   3  2  1  7              -1.0461809     -59.9417488
  37 TORSION   3  2  1  6              -3.1415745    -179.9989586
  38 TORSION   4  3  2  9               0.0000531       0.0030435
  39 TORSION   5  3  4 10              -3.1415375    -179.9968382
  40 TORSION   5  3  4 12               1.0128334      58.0310785
  41 TORSION   5  3  4 11              -1.0127313     -58.0252292
  42 TORSION   5  3  2  9              -3.1415728    -179.9988599
  43 TORSION   6  1  2  9              -0.0000332      -0.0019016
  44 TORSION   7  1  2  9               2.0953604     120.0553083
  45 TORSION   8  1  2  9              -2.0954648    -120.0612887

          INTERNUCLEAR DISTANCES (ANGS.)


 =====================================================
   GAMESS/COSab RESULTS
 =====================================================

   Dielectric Constant                  = INFTY
   Basic Grid Size                      =                 1082
   Number of Segments                   =                   92
   Number of Segments located on spheres=                  217
   Number of Segments of the cavity     =                  464
   Solvent Radius (rsolv)               = 1.40
   Outlying Charge Error Method         = double cavity

 =====================================================

  Total solvated Energy (a.u.)          =  -247.0903141227
  Total Energy corrected (a.u.)         =  -247.0901099433

  Outlying charge effect (a.u.)         =     0.0002041793
  Outlying charge effect (kcal/mol)     =     0.1281245741

  Dielectric Energy (a.u.)              =    -0.0215183165
  Dielectric energy corr. (a.u.)        =    -0.0213141372

  Sum of polarization charges           =     0.0174718600
  Sum of polarization charges(cor.)     =    -0.0174718600

  Total surface area of cavity (A**2)   =  115.81
  Total volume of cavity (A**3)         =  100.30

 =====================================================
 NPS=                   464
NR.  ATOM  (X, Y, Z)(a.u.)                  CHARGE(e)  AREA(A**2) SIGMA(e/A**2)
   1   1   5.201360  -3.302082   0.150407   0.000736   0.418105   0.001761
   2   1   4.263073   1.952862  -3.276923   0.000203   0.278737   0.000728
   3   1   4.099186   2.109881   3.211065   0.000094   0.278737   0.000337
   4   1   6.775390  -0.664395   2.022196   0.000087   0.325193   0.000269
   5   1   6.895471  -0.651805  -1.831558   0.000069   0.371649   0.000185
   6   1   4.040833  -3.602027  -0.128812   0.000285   0.185824   0.001532
   7   1   7.078741   0.414350  -1.654784   0.000047   0.371649   0.000127
   8   1   6.969395   0.479899   1.851893   0.000174   0.371649   0.000469
   9   1   4.913804   2.455066   2.741412   0.000107   0.325193   0.000329
  10   1   5.008037   2.432093  -2.716792   0.000205   0.371649   0.000553
  11   1   4.215129  -3.550537   0.498695   0.000274   0.185824   0.001474
  12   1   4.318392  -3.509570  -0.657228   0.000065   0.185824   0.000352
  13   1   3.998545   2.705609  -2.775580  -0.000216   0.232280  -0.000931
  14   1   3.907738   2.920628   2.571005  -0.000279   0.232280  -0.001200
  15   1   4.934991   1.460569   3.322799   0.000789   0.371649   0.002123
  16   1   6.340154   0.359118   2.687569   0.000945   0.371649   0.002541
  17   1   7.323767  -0.387342   0.885767  -0.000426   0.464561  -0.000917
  18   1   7.316165  -0.679958  -0.659141  -0.000577   0.464561  -0.001243
  19   1   6.368028   0.342921  -2.660987   0.000967   0.418105   0.002313
  20   1   5.130774   1.437273  -3.252008   0.000443   0.232280   0.001909
  21   1   4.061582   0.966453  -3.673484   0.000195   0.278737   0.000698
  22   1   3.530168   1.754398  -3.422449   0.000223   0.232280   0.000960
  23   1   3.420775   1.609564   3.479537   0.000074   0.232280   0.000318
  24   1   3.745634   0.989302   3.686684   0.000119   0.232280   0.000512
  25   1   6.817254  -1.542710   1.269451  -0.000385   0.418105  -0.000920
  26   1   6.231016  -2.570408   0.616646  -0.000321   0.418105  -0.000768
  27   1   6.096645  -2.707758  -0.525705  -0.000250   0.464561  -0.000537
  28   1   6.725794  -1.718389  -1.243542  -0.000444   0.371649  -0.001196
  29   1   7.468474   0.110062  -0.090291  -0.000527   0.278737  -0.001891
  30   1   5.855985   1.453791   2.813872   0.000503   0.278737   0.001803
  31   1   4.293884   3.323883   1.975648  -0.000302   0.139368  -0.002166
  32   1   4.139373   3.238943  -2.143903  -0.000325   0.139368  -0.002329
  33   1   6.033564   1.460364  -2.664632   0.000583   0.325193   0.001792
  34   1   2.921492   0.699974  -3.660651   0.000193   0.232280   0.000831
  35   1   2.709217   0.618305   3.620832   0.000192   0.185824   0.001032
  36   1   5.498606   0.677527   3.278066   0.000434   0.232280   0.001868
  37   1   7.014884  -1.638045   0.054867  -0.000764   0.418105  -0.001826
  38   1   5.377377   0.764007  -3.327518   0.000497   0.232280   0.002140
  39   2   2.314564   3.318409  -2.581000   0.000144   0.077788   0.001848
  40   2   1.218545   3.057181   2.981571   0.001366   0.233365   0.005852
  41   2   2.243732   3.578696  -2.387242  -0.000148   0.116683  -0.001269
  42   2   1.558805   3.045587  -2.966664   0.002113   0.350048   0.006037
  43   2   0.435243   3.071493  -2.873531   0.001135   0.272259   0.004169
  44   2   0.464749   2.936568   2.959660   0.001380   0.233365   0.005913
  45   2   2.110918   3.270268   2.695541   0.000243   0.194471   0.001249
  46   2   1.651497   2.052326  -3.346071   0.001049   0.194471   0.005396
  47   2   1.180428   1.287045  -3.458116   0.001397   0.155577   0.008980
  48   2   0.813856   2.036783   3.357974   0.001514   0.194471   0.007787
  49   2   1.700320   2.416120   3.236291   0.002042   0.233365   0.008749
  50   2   1.271646   1.402492   3.456049   0.001669   0.194471   0.008580
  51   2   0.778365   2.253181  -3.299123   0.002559   0.311154   0.008225
  52   3  -0.725827   0.981875  -3.605548  -0.000883   0.278737  -0.003168
  53   3  -2.103693  -1.592119  -3.263244   0.000147   0.046456   0.003173
  54   3  -0.780857  -1.180527   3.633234  -0.000162   0.139368  -0.001160
  55   3  -0.596111   1.085343   3.564261  -0.000432   0.185824  -0.002323
  56   3  -1.531482  -1.469809  -3.475436   0.000098   0.092912   0.001054
  57   3  -0.185520  -1.335076  -3.521501   0.000290   0.185824   0.001562
  58   3   0.022790  -1.360881   3.465926   0.000368   0.185824   0.001982
  59   3  -1.591720  -0.982167  -3.612640  -0.000372   0.185824  -0.002005
  60   3  -1.237793   0.121561  -3.751687  -0.001324   0.232280  -0.005698
  61   3  -0.185018   0.055046  -3.712517  -0.001132   0.325193  -0.003480
  62   3   0.200314  -0.745334  -3.575807  -0.000162   0.092912  -0.001745
  63   3  -0.096726   0.298871   3.674145  -0.000565   0.185824  -0.003042
  64   3  -0.185493  -0.620417   3.687100  -0.000728   0.278737  -0.002612
  65   3  -1.514950  -0.955627   3.633324  -0.001110   0.325193  -0.003412
  66   3  -1.032356   0.273129   3.752787  -0.002146   0.371649  -0.005775
  67   3  -0.758432  -0.865881  -3.708080  -0.000932   0.278737  -0.003345
  68   4  -6.957324  -0.196578  -0.147011   0.001109   0.418105   0.002654
  69   4  -2.483062   2.726159   3.292076  -0.000253   0.325193  -0.000777
  70   4  -2.269484   2.641781  -3.264326  -0.000399   0.371649  -0.001072
  71   4  -6.156700   2.768388  -2.019585   0.000273   0.325193   0.000838
  72   4  -6.227425   2.863498   1.834237   0.000282   0.371649   0.000758
  73   4  -5.296660  -2.150188  -0.214206  -0.000018   0.139368  -0.000126
  74   4  -5.989183  -1.647511   0.053083   0.000703   0.278737   0.002521
  75   4  -5.588437   3.736282   1.656847   0.000273   0.371649   0.000735
  76   4  -5.468663   3.703202  -1.849946   0.000419   0.371649   0.001127
  77   4  -2.526938   3.567923  -2.740373  -0.000085   0.371649  -0.000228
  78   4  -2.626032   3.613013   2.730227  -0.000044   0.418105  -0.000106
  79   4  -6.363195  -1.178489  -0.564470   0.000238   0.232280   0.001024
  80   4  -6.510092  -0.997539   0.481689   0.000502   0.278737   0.001801
  81   4  -3.355752   3.085776  -3.228980   0.000461   0.278737   0.001655
  82   4  -5.118953   3.166842  -2.685953   0.000867   0.371649   0.002333
  83   4  -6.337562   3.355226  -0.882986   0.000114   0.464561   0.000246
  84   4  -6.541185   3.146390   0.662118   0.000063   0.464561   0.000135
  85   4  -5.144858   3.175659   2.662630   0.000877   0.418105   0.002097
  86   4  -3.497545   3.046727   3.252077   0.000364   0.232280   0.001565
  87   4  -3.178834   2.011176   3.665699   0.000014   0.232280   0.000062
  88   4  -2.472201   1.821009   3.591781  -0.000069   0.139368  -0.000494
  89   4  -3.033846   2.036717  -3.646993   0.000107   0.325193   0.000328
  90   4  -6.816561   2.188030  -1.266206   0.000074   0.418105   0.000176
  91   4  -7.147367   1.052255  -0.613076   0.000323   0.418105   0.000771
  92   4  -7.151632   0.860190   0.529281   0.000396   0.464561   0.000852
  93   4  -6.876899   2.000184   1.246848   0.000107   0.371649   0.000289
  94   4  -5.329386  -2.023526  -0.857273   0.000081   0.185824   0.000436
  95   4  -5.393131  -2.048527   0.573891   0.000140   0.185824   0.000752
  96   4  -6.079587   3.804987   0.092822  -0.000166   0.278737  -0.000597
  97   4  -3.995518   3.579577  -2.813334   0.000514   0.278737   0.001844
  98   4  -4.108978   3.711854   2.665281   0.000586   0.325193   0.001803
  99   4  -2.720614   1.016309   3.712925  -0.000229   0.092912  -0.002463
 100   4  -2.691461   1.244982  -3.706805  -0.000334   0.139368  -0.002395
 101   4  -4.305682   2.783095  -3.277226   0.000281   0.232280   0.001212
 102   4  -7.021304   2.263866  -0.051425  -0.000045   0.418105  -0.000108
 103   4  -4.152931   2.756083   3.328216   0.000413   0.232280   0.001778
 104   5  -0.605438  -5.680381   0.015670   0.005955   0.377948   0.015755
 105   5  -2.384252  -4.127573  -2.217212   0.005628   0.309230   0.018200
 106   5  -3.260046  -4.129995   1.106091   0.005133   0.240512   0.021340
 107   5  -0.529943  -3.940618   2.872837   0.005705   0.343589   0.016603
 108   5   0.599984  -3.906359  -2.579168   0.004342   0.206154   0.021063
 109   5  -1.250239  -5.483775  -0.984501   0.006724   0.412307   0.016308
 110   5  -2.015042  -4.916589  -1.646643   0.006090   0.343589   0.017724
 111   5  -1.730403  -5.499812   0.360705   0.006984   0.412307   0.016938
 112   5  -2.687591  -4.929787   0.670561   0.006563   0.343589   0.019100
 113   5  -0.544978  -5.446697   1.202667   0.006616   0.412307   0.016045
 114   5  -0.301012  -4.820724   2.164347   0.006263   0.377948   0.016572
 115   5   0.502436  -5.421905   0.366336   0.006340   0.377948   0.016776
 116   5   1.337827  -4.886766   0.556402   0.006712   0.309230   0.021704
 117   5   0.136609  -5.424093  -0.938510   0.007328   0.446666   0.016406
 118   5   0.511922  -4.827386  -1.820049   0.005433   0.309230   0.017570
 119   5  -3.014407  -4.328445  -1.303206   0.005427   0.274871   0.019742
 120   5  -3.336428  -4.351396  -0.168972   0.006083   0.274871   0.022131
 121   5  -2.575858  -4.384035   1.818114   0.006384   0.343589   0.018580
 122   5  -1.563859  -4.203431   2.590873   0.007101   0.412307   0.017223
 123   5   0.493865  -4.081591   2.524524   0.005487   0.274871   0.019962
 124   5   1.189618  -4.485048   1.645603   0.004845   0.240512   0.020146
 125   5   1.190863  -4.476861  -1.654353   0.004049   0.206154   0.019642
 126   5  -0.192790  -4.239975  -2.649440   0.005761   0.343589   0.016768
 127   5  -1.383149  -4.223738  -2.629292   0.007009   0.412307   0.017000
 128   5  -2.963592  -3.645862  -2.012970   0.002521   0.137436   0.018343
 129   5  -3.530704  -3.982350   0.504114   0.003778   0.171795   0.021989
 130   5  -3.120005  -3.705452   1.782423   0.002867   0.137436   0.020858
 131   5  -1.771750  -3.030990   3.016129   0.003132   0.206154   0.015191
 132   5  -1.001643  -3.097205   3.168931   0.003934   0.240512   0.016355
 133   5   0.086599  -3.076113   3.082400   0.005131   0.309230   0.016593
 134   5  -0.021140  -3.109100  -3.101561   0.004618   0.274871   0.016800
 135   5  -2.062689  -3.222114  -2.852077   0.005744   0.343589   0.016717
 136   5  -2.470999  -5.108464  -0.575455   0.007680   0.412307   0.018627
 137   5  -1.627412  -5.086957   1.640266   0.008255   0.481025   0.017162
 138   5   0.570570  -5.015932   1.491945   0.004720   0.274871   0.017173
 139   5   1.262644  -4.943348  -0.576375   0.007375   0.377948   0.019513
 140   5  -0.700699  -5.021934  -1.963909   0.006209   0.377948   0.016427
 141   5  -3.480399  -3.835759  -0.983654   0.004635   0.206154   0.022481
 142   5  -2.446263  -3.468149   2.550841   0.004704   0.274871   0.017114
 143   5  -0.977441  -3.181336  -3.152203   0.005598   0.343589   0.016293
 144   6   6.861572   3.348622  -0.043451  -0.004941   0.608459  -0.008121
 145   6   5.409991   4.040476  -0.361858  -0.002527   0.353299  -0.007153
 146   6   6.080564   3.005767  -1.787068  -0.001462   0.333671  -0.004382
 147   6   7.422702   1.762668  -0.809612  -0.001874   0.353299  -0.005306
 148   6   7.125404   2.031729   1.341608  -0.001805   0.372926  -0.004841
 149   6   5.605705   3.390222   1.639100  -0.001537   0.353299  -0.004350
 150   6   5.743682   3.696743  -1.164783  -0.002838   0.451437  -0.006287
 151   6   6.960799   2.565034  -1.312973  -0.003018   0.490692  -0.006151
 152   6   7.517283   2.025863   0.263017  -0.003237   0.510320  -0.006343
 153   6   6.618495   2.949655   1.417127  -0.003118   0.490692  -0.006355
 154   6   5.650933   3.921953   0.695979  -0.003205   0.490692  -0.006531
 155   7   4.465267  -2.289516   3.693506  -0.003341   0.490692  -0.006809
 156   7   4.270477  -3.417957   2.046504  -0.001791   0.372926  -0.004801
 157   7   3.284377  -0.846811   4.021123  -0.001669   0.353299  -0.004723
 158   7   5.316139  -0.803935   3.685515  -0.001348   0.372926  -0.003615
 159   7   5.894814  -2.273242   2.457788  -0.001246   0.314043  -0.003967
 160   7   3.737552  -3.015944   3.069492  -0.002733   0.412182  -0.006630
 161   7   3.164604  -2.016560   3.763903  -0.002931   0.431809  -0.006788
 162   7   4.280030  -0.908691   4.091033  -0.002121   0.451437  -0.004699
 163   7   5.600600  -1.728754   3.325431  -0.002318   0.451437  -0.005135
 164   7   5.152188  -2.977907   2.505318  -0.002445   0.471065  -0.005191
 165   8   4.544797  -2.365048  -3.621411  -0.003656   0.529948  -0.006899
 166   8   5.263806  -2.985312  -2.294782  -0.002145   0.451437  -0.004752
 167   8   5.619103  -1.184141  -3.447030  -0.001501   0.372926  -0.004025
 168   8   3.825889  -0.578996  -4.074973  -0.001337   0.372926  -0.003584
 169   8   3.449056  -2.700501  -3.377205  -0.002985   0.431809  -0.006913
 170   8   4.186688  -3.367469  -2.321640  -0.002808   0.529948  -0.005299
 171   8   5.764820  -2.116053  -2.884114  -0.002191   0.451437  -0.004854
 172   8   4.797517  -0.938492  -3.961601  -0.002252   0.471065  -0.004780
 173   8   3.156900  -1.438361  -3.948858  -0.003157   0.529948  -0.005957
 174   9   0.866961   5.626117   0.060626  -0.007326   0.412182  -0.017773
 175   9   2.146049   4.770361  -1.510056  -0.005522   0.372926  -0.014808
 176   9   2.484008   5.005439   0.785349  -0.005944   0.333671  -0.017815
 177   9   0.660399   4.602999   1.963054  -0.005401   0.412182  -0.013103
 178   9   0.420296   4.708500  -1.816392  -0.004488   0.294415  -0.015244
 179   9   2.231446   5.302182  -0.326872  -0.007438   0.451437  -0.016475
 180   9   1.494166   5.389239   0.967861  -0.005275   0.333671  -0.015808
 181   9   0.439259   5.284832   1.106772  -0.006071   0.333671  -0.018196
 182   9   0.354620   5.373689  -0.855960  -0.005196   0.274788  -0.018908
 183   9   1.301822   5.370074  -1.075729  -0.005272   0.333671  -0.015800
 184   9   1.874692   4.690952   1.746966  -0.004287   0.353299  -0.012133
 185   9   1.212718   4.580885  -2.008586  -0.002677   0.255160  -0.010493
 186  10  -3.807872   5.578537   0.049058  -0.003247   0.412182  -0.007876
 187  10  -2.906180   4.821650   1.760993  -0.001982   0.353299  -0.005610
 188  10  -4.846898   4.944838   0.786379  -0.001961   0.372926  -0.005259
 189  10  -4.564639   4.901966  -1.239789  -0.001461   0.294415  -0.004962
 190  10  -2.806721   4.821204  -1.733717  -0.001842   0.294415  -0.006256
 191  10  -2.874529   5.453639   0.761973  -0.003374   0.412182  -0.008185
 192  10  -3.993612   5.069818   1.411254  -0.002357   0.431809  -0.005459
 193  10  -4.834660   5.092173  -0.330680  -0.002382   0.412182  -0.005780
 194  10  -3.712632   5.073873  -1.503899  -0.002195   0.392554  -0.005591
 195  10  -2.820308   5.486977  -0.610850  -0.003600   0.412182  -0.008735
 196  11  -5.612839  -0.060454  -3.745469  -0.004269   0.510320  -0.008366
 197  11  -4.170393  -0.541135  -3.876947  -0.002827   0.392554  -0.007202
 198  11  -4.570215   1.321099  -3.957739  -0.001597   0.333671  -0.004787
 199  11  -6.306473   1.264296  -3.039654  -0.002368   0.431809  -0.005484
 200  11  -6.537222  -0.751610  -2.005968  -0.001895   0.392554  -0.004828
 201  11  -5.508639  -1.650580  -2.267121  -0.002302   0.392554  -0.005865
 202  11  -4.147632   0.395870  -4.093990  -0.002465   0.412182  -0.005979
 203  11  -5.503643   1.322645  -3.699430  -0.002643   0.431809  -0.006120
 204  11  -6.735763   0.357869  -2.514451  -0.002914   0.490692  -0.005939
 205  11  -6.033835  -0.859064  -2.962916  -0.003148   0.412182  -0.007638
 206  11  -4.839700  -1.267917  -3.340762  -0.003464   0.431809  -0.008022
 207  12  -5.726416  -0.250046   3.617504  -0.004807   0.569203  -0.008446
 208  12  -5.202465   1.625088   3.686525  -0.001736   0.372926  -0.004654
 209  12  -3.811686   0.383915   4.029786  -0.001737   0.294415  -0.005900
 210  12  -4.827587  -1.309065   3.300008  -0.003273   0.412182  -0.007940
 211  12  -6.354553  -1.006384   2.064233  -0.001854   0.372926  -0.004972
 212  12  -6.691291   0.902233   2.533185  -0.001807   0.372926  -0.004845
 213  12  -4.699531   0.782114   4.078821  -0.002688   0.431809  -0.006225
 214  12  -4.305327  -0.558711   3.880950  -0.003060   0.412182  -0.007425
 215  12  -5.571547  -1.524461   2.524341  -0.003014   0.451437  -0.006677
 216  12  -6.693033  -0.133257   2.415245  -0.002915   0.471065  -0.006189
 217  12  -6.090983   1.104114   3.359388  -0.003095   0.471065  -0.006569
 218   1   1.783363   0.268134  -3.385317   0.000213   0.052011   0.004089
 219   2   1.347275   0.474382  -3.369956   0.000411   0.052011   0.007910
 220   3   0.988610   0.215462  -3.388742   0.000174   0.052011   0.003344
 221   1   1.783402   0.268245   3.385317   0.000185   0.052011   0.003563
 222   2   1.347313   0.474492   3.369954   0.000361   0.052011   0.006931
 223   3   0.988649   0.215572   3.388752   0.000174   0.052011   0.003340
 224   1   3.252184   3.472240   1.974473  -0.000321   0.029116  -0.011028
 225   2   2.809047   3.661883   1.966823  -0.000374   0.029116  -0.012851
 226   9   2.670690   3.902606   1.819054  -0.000397   0.029116  -0.013630
 227   1   3.252255   3.472378  -1.974275  -0.000288   0.029116  -0.009902
 228   2   2.809118   3.662020  -1.966628  -0.000367   0.029116  -0.012617
 229   9   2.670755   3.902734  -1.818847  -0.000496   0.029116  -0.017029
 230   2   1.722990   1.037681   3.406519   0.001252   0.197644   0.006337
 231   2   2.474336   2.670751   2.763403   0.000545   0.409549   0.001330
 232   1   2.651087   1.409660   3.286999   0.000770   0.413274   0.001864
 233   1   3.389665   3.014980   2.465704  -0.000553   0.207212  -0.002667
 234   2   2.742534   3.253669  -2.402401  -0.000449   0.197664  -0.002272
 235   2   2.019616   1.682381  -3.211210   0.002357   0.409596   0.005754
 236   1   3.116596   2.421433  -2.828530  -0.000416   0.413319  -0.001007
 237   1   2.350311   0.755887  -3.489256   0.000465   0.207233   0.002244
 238   1   2.087882  -0.146603   3.444536  -0.000055   0.058792  -0.000930
 239   3   1.298568  -0.201197   3.363142   0.000103   0.058792   0.001754
 240   7   2.253381  -0.392094   3.508308  -0.000164   0.058792  -0.002789
 241   1   2.087856  -0.146854  -3.444518  -0.000071   0.058789  -0.001202
 242   3   1.298543  -0.201442  -3.363112   0.000098   0.058789   0.001675
 243   8   2.253363  -0.392333  -3.508274  -0.000209   0.058789  -0.003562
 244   3   0.845867  -0.024972   3.524200   0.000063   0.051173   0.001235
 245   1   1.976572   0.088872   3.523929   0.000124   0.051173   0.002422
 246   3   0.843262   0.013640  -3.523917   0.000071   0.051213   0.001386
 247   1   1.979106   0.049880  -3.524186   0.000126   0.051213   0.002467
 248   1   3.277112  -3.533350   0.944013   0.000470   0.079090   0.005945
 249   5   2.399916  -3.842437   0.902398   0.002356   0.079090   0.029788
 250   7   3.330338  -3.486905   1.239879   0.000080   0.079090   0.001017
 251   1   3.277129  -3.533380  -0.943923   0.000603   0.079088   0.007629
 252   5   2.399933  -3.842466  -0.902315   0.002088   0.079088   0.026402
 253   8   3.330359  -3.486944  -1.239780   0.000087   0.079088   0.001103
 254   5   2.064121  -4.256230  -0.161469   0.009715   0.466790   0.020812
 255   1   3.280866  -3.706037   0.156992   0.003525   0.518886   0.006793
 256   1   3.956280   3.717884  -1.312338  -0.000505   0.047301  -0.010680
 257   6   4.226469   3.745869  -1.183516  -0.000425   0.047301  -0.008981
 258   9   3.315157   4.053012  -1.161211  -0.000888   0.047301  -0.018766
 259   1   3.956298   3.717849   1.312410  -0.000444   0.047301  -0.009377
 260   6   4.226485   3.745837   1.183585  -0.000479   0.047301  -0.010134
 261   9   3.315173   4.052982   1.161301  -0.000857   0.047301  -0.018128
 262   6   4.794235   3.591447   1.447369  -0.000477   0.065693  -0.007257
 263   6   5.461569   2.948583   1.984041  -0.000809   0.144874  -0.005587
 264   6   6.395507   2.048895   1.991498  -0.000625   0.144874  -0.004314
 265   6   7.152980   1.319206   1.232866  -0.000923   0.144874  -0.006370
 266   6   7.442603   1.040213  -0.000023  -0.000933   0.144874  -0.006443
 267   6   7.152963   1.319239  -1.232901  -0.000868   0.144874  -0.005989
 268   6   6.395480   2.048948  -1.991503  -0.000735   0.144874  -0.005075
 269   6   5.461542   2.948636  -1.984010  -0.000814   0.144874  -0.005622
 270   6   4.794216   3.591486  -1.447311  -0.000467   0.065693  -0.007106
 271   1   4.701738   3.221301   1.889586  -0.000843   0.144899  -0.005815
 272   1   5.697575   2.261982   2.349444  -0.000527   0.144899  -0.003639
 273   1   6.697158   1.299059   1.905517  -0.000552   0.144899  -0.003807
 274   1   7.315966   0.702953   0.728577  -0.000795   0.144899  -0.005490
 275   1   7.315956   0.702972  -0.728631  -0.000797   0.144899  -0.005498
 276   1   6.697132   1.299110  -1.905547  -0.000547   0.144899  -0.003778
 277   1   5.697543   2.262044  -2.349434  -0.000560   0.144899  -0.003864
 278   1   4.701712   3.221352  -1.889537  -0.000881   0.144899  -0.006083
 279   7   4.057450  -3.451570   1.385912  -0.000222   0.070079  -0.003170
 280   7   5.127471  -3.092930   1.477232  -0.000755   0.156305  -0.004831
 281   7   6.012561  -2.183031   1.986155  -0.000861   0.156305  -0.005506
 282   7   6.069811  -1.063096   2.768951  -0.000668   0.156305  -0.004273
 283   7   5.274598  -0.214822   3.488931  -0.000622   0.156305  -0.003981
 284   7   3.968952  -0.003063   3.836422  -0.000623   0.156305  -0.003984
 285   7   2.887110  -0.330176   3.769174  -0.000318   0.070079  -0.004538
 286   1   4.491001  -3.349665   0.981085  -0.000413   0.152929  -0.002697
 287   1   5.809150  -2.625354   1.293231  -0.000707   0.152929  -0.004624
 288   1   6.369347  -1.418667   2.061126  -0.000680   0.152929  -0.004444
 289   1   5.930646  -0.248615   2.954489  -0.000463   0.152929  -0.003027
 290   1   4.681738   0.381548   3.589075  -0.000349   0.152929  -0.002282
 291   1   3.159791   0.200781   3.691939  -0.000550   0.152929  -0.003598
 292   8   2.887087  -0.330416  -3.769149  -0.000308   0.070078  -0.004397
 293   8   3.968917  -0.003261  -3.836427  -0.000622   0.156302  -0.003979
 294   8   5.274574  -0.214958  -3.488937  -0.000490   0.156302  -0.003137
 295   8   6.069813  -1.063179  -2.768920  -0.000765   0.156302  -0.004893
 296   8   6.012582  -2.183082  -1.986074  -0.000862   0.156302  -0.005514
 297   8   5.127497  -3.092970  -1.477119  -0.000737   0.156302  -0.004718
 298   8   4.057473  -3.451611  -1.385798  -0.000153   0.070078  -0.002187
 299   1   3.159751   0.200547  -3.691953  -0.000584   0.152923  -0.003817
 300   1   4.681693   0.381377  -3.589114  -0.000350   0.152923  -0.002287
 301   1   5.930626  -0.248719  -2.954507  -0.000431   0.152923  -0.002821
 302   1   6.369354  -1.418722  -2.061090  -0.000676   0.152923  -0.004419
 303   1   5.809169  -2.625385  -1.293144  -0.000706   0.152923  -0.004617
 304   1   4.491020  -3.349692  -0.980982  -0.000324   0.152923  -0.002121
 305   9   2.723544   4.182913   1.564468  -0.001887   0.144001  -0.013105
 306   1   3.698214   3.664814   1.684489  -0.000912   0.203180  -0.004491
 307   9   2.791382   4.242464  -1.446180  -0.002025   0.143966  -0.014067
 308   1   3.636487   3.610747  -1.791920  -0.000894   0.203132  -0.004400
 309   2  -0.458253   2.263341   3.010830  -0.000025   0.050029  -0.000509
 310   3  -0.835159   2.047546   3.096088  -0.000334   0.050029  -0.006670
 311   4  -1.282935   2.247934   3.056811  -0.000450   0.050029  -0.008990
 312   2  -0.458285   2.263238  -3.010873  -0.000070   0.050029  -0.001397
 313   3  -0.835191   2.047440  -3.096119  -0.000388   0.050029  -0.007757
 314   4  -1.282967   2.247830  -3.056845  -0.000516   0.050029  -0.010324
 315   3   0.376226   0.561939   3.508271   0.000171   0.167842   0.001020
 316   3  -0.375088   1.632536   3.309579  -0.000062   0.167842  -0.000372
 317   2   0.526462   1.445051   3.294459   0.001803   0.329925   0.005466
 318   3  -0.375124   1.632425  -3.309602  -0.000194   0.167841  -0.001158
 319   3   0.376187   0.561824  -3.508265   0.000208   0.167841   0.001241
 320   2   0.526426   1.444941  -3.294485   0.001838   0.329924   0.005570
 321   2  -0.292955   3.491414   2.301062  -0.000599   0.073470  -0.008158
 322   4  -1.117433   3.449965   2.284617  -0.000821   0.073470  -0.011168
 323   9  -0.250650   3.755653   2.131784  -0.000933   0.073470  -0.012705
 324   2  -0.292988   3.491565  -2.300924  -0.000636   0.073470  -0.008651
 325   4  -1.117466   3.450115  -2.284470  -0.000812   0.073470  -0.011052
 326   9  -0.250681   3.755793  -2.131630  -0.000838   0.073470  -0.011400
 327   4  -1.482600   2.822192   2.913548  -0.001241   0.336198  -0.003691
 328   2  -0.312833   3.028467   2.716866  -0.000318   0.317587  -0.001000
 329   4  -1.490626   3.024166  -2.791434  -0.001216   0.336291  -0.003617
 330   2  -0.304709   2.822365  -2.841411  -0.000175   0.317675  -0.000552
 331   9   0.432872   3.988054   2.230110  -0.000817   0.083201  -0.009814
 332   9   1.690617   4.092040   2.098634  -0.002274   0.185157  -0.012279
 333   2   0.951650   3.645972   2.437066  -0.001214   0.177921  -0.006824
 334   2   2.295968   3.757120   2.172190  -0.000775   0.097904  -0.007912
 335   9   2.162996   4.131229  -1.959912  -0.000894   0.083205  -0.010750
 336   9   0.924818   4.028873  -2.217983  -0.002089   0.185168  -0.011280
 337   2   1.793082   3.715694  -2.305596  -0.001462   0.177928  -0.008218
 338   2   0.432035   3.603178  -2.462943  -0.000645   0.097908  -0.006588
 339   3  -2.222648   0.259579  -3.614967  -0.000402   0.029422  -0.013659
 340   4  -2.661790   0.477208  -3.655156  -0.000292   0.029422  -0.009942
 341  11  -2.941139   0.375608  -3.709094  -0.000238   0.029422  -0.008084
 342   3  -2.222604   0.259725   3.615011  -0.000418   0.029420  -0.014212
 343   4  -2.661745   0.477355   3.655199  -0.000279   0.029420  -0.009482
 344  12  -2.941095   0.375774   3.709145  -0.000234   0.029420  -0.007939
 345   4  -2.169111   1.228532   3.486659  -0.001906   0.338470  -0.005630
 346   3  -1.362247   1.269347   3.389388  -0.002487   0.338470  -0.007347
 347   4  -1.993861   1.582170  -3.389390  -0.001899   0.338473  -0.005612
 348   3  -1.537576   0.915458  -3.486647  -0.002545   0.338473  -0.007518
 349   3   0.731608  -1.748860   3.122912   0.000729   0.116543   0.006253
 350   5   0.726648  -2.142053   3.023482   0.001625   0.116543   0.013946
 351   7   1.714907  -1.802302   3.149665   0.000331   0.116543   0.002843
 352   3   0.731622  -1.748779  -3.122907   0.000793   0.116543   0.006807
 353   5   0.726661  -2.141976  -3.023489   0.001705   0.116543   0.014628
 354   8   1.714924  -1.802243  -3.149652   0.000381   0.116543   0.003267
 355   3  -2.508607  -1.751137  -3.029171   0.000153   0.068073   0.002249
 356   5  -2.431158  -2.126125  -2.906068   0.000801   0.068073   0.011766
 357  11  -3.176251  -1.452575  -3.082465  -0.000292   0.068073  -0.004294
 358   3  -2.508715  -1.751211   3.029114   0.000206   0.068069   0.003023
 359   5  -2.431260  -2.126194   2.905998   0.000859   0.068069   0.012623
 360  12  -3.176343  -1.452605   3.082420  -0.000282   0.068069  -0.004137
 361   5  -0.192513  -2.362606   3.190424   0.002386   0.165139   0.014449
 362   5  -1.659987  -2.456269   3.094193   0.002051   0.165139   0.012421
 363   3  -0.966867  -1.850220   3.217403   0.002726   0.343701   0.007930
 364   5  -1.659890  -2.456173  -3.094253   0.002229   0.165132   0.013499
 365   5  -0.192479  -2.362511  -3.190445   0.002449   0.165132   0.014833
 366   3  -0.966800  -1.850122  -3.217432   0.002586   0.343685   0.007524
 367   7   2.289884  -0.986851   3.581655  -0.001047   0.340936  -0.003072
 368   3   0.826652  -1.038367   3.441913   0.000475   0.482911   0.000983
 369   8   2.257853  -1.243004  -3.539950  -0.001009   0.340852  -0.002961
 370   3   0.856381  -0.800767  -3.480576   0.000385   0.482792   0.000798
 371  11  -3.172416   0.006927  -3.752034  -0.001161   0.176668  -0.006569
 372  11  -3.464510  -0.930263  -3.470828  -0.001173   0.176668  -0.006639
 373   3  -2.287492  -0.742998  -3.478146  -0.002306   0.485992  -0.004744
 374  12  -3.464572  -0.930254   3.470828  -0.001186   0.176696  -0.006713
 375  12  -3.172394   0.007057   3.752088  -0.001149   0.176696  -0.006501
 376   3  -2.287524  -0.742967   3.478149  -0.002185   0.486066  -0.004494
 377   4  -4.547210  -2.243402  -1.379322   0.000119   0.054741   0.002175
 378   5  -3.941199  -2.771079  -1.313858   0.000979   0.054741   0.017878
 379  11  -4.646618  -2.107021  -1.630671  -0.000149   0.054741  -0.002726
 380   4  -4.547086  -2.243310   1.379665   0.000124   0.054734   0.002260
 381   5  -3.941079  -2.770988   1.314171   0.000987   0.054734   0.018034
 382  12  -4.646501  -2.106902   1.630992  -0.000153   0.054734  -0.002792
 383   5  -3.839309  -3.301858   0.749425   0.005721   0.326536   0.017519
 384   5  -3.839385  -3.301905  -0.749076   0.005784   0.326536   0.017712
 385   4  -4.600423  -2.437279   0.000186   0.003126   0.716282   0.004364
 386   4  -1.748240   3.985653  -1.948644  -0.000643   0.081472  -0.007895
 387   9  -0.866642   4.174348  -1.715026  -0.001456   0.081472  -0.017870
 388  10  -1.835781   4.217668  -1.773265  -0.000704   0.081472  -0.008646
 389   4  -1.748354   3.985833   1.948504  -0.000662   0.081472  -0.008124
 390   9  -0.866742   4.174506   1.714920  -0.001406   0.081472  -0.017254
 391  10  -1.835884   4.217833   1.773097  -0.000712   0.081472  -0.008742
 392   9  -0.304840   4.166610   1.961476  -0.001369   0.123870  -0.011049
 393   4  -1.564592   3.746836   2.332464  -0.000462   0.174910  -0.002644
 394   9  -0.270364   4.091775  -2.020268  -0.001310   0.123759  -0.010583
 395   4  -1.596312   3.815834  -2.278185  -0.000408   0.174752  -0.002336
 396  10  -2.500368   4.329038  -1.993129  -0.000414   0.066761  -0.006203
 397  10  -3.581534   4.367542  -2.072310  -0.000685   0.147564  -0.004640
 398  10  -4.761384   4.409591  -1.497797  -0.000830   0.147564  -0.005622
 399  10  -5.366273   4.431188  -0.332669  -0.000901   0.147564  -0.006106
 400  10  -5.157658   4.423816   0.963597  -0.000877   0.147564  -0.005945
 401  10  -4.217808   4.390383   1.879809  -0.000738   0.147564  -0.005000
 402  10  -2.917359   4.344073   2.054652  -0.000873   0.147564  -0.005917
 403   4  -2.881328   4.010499  -2.308809  -0.000682   0.146941  -0.004641
 404   4  -4.342499   4.062550  -2.112449  -0.000481   0.146941  -0.003272
 405   4  -5.398557   4.100210  -1.083076  -0.000680   0.146941  -0.004630
 406   4  -5.633039   4.108627   0.373370  -0.000703   0.146941  -0.004783
 407   4  -4.953474   4.084483   1.682528  -0.000548   0.146941  -0.003726
 408   4  -3.627853   4.037298   2.328122  -0.000539   0.146941  -0.003670
 409   4  -2.433521   3.994756   2.255273  -0.000427   0.081563  -0.005234
 410  11  -5.277395  -1.832747  -1.703774  -0.000354   0.070321  -0.005031
 411  11  -6.159965  -1.179245  -1.417029  -0.000735   0.156907  -0.004686
 412  11  -6.791183   0.034435  -1.504415  -0.000887   0.156907  -0.005654
 413  11  -6.660146   1.275580  -2.071408  -0.000914   0.156907  -0.005826
 414  11  -5.823465   2.007985  -2.873056  -0.000833   0.156907  -0.005307
 415  11  -4.642605   1.915236  -3.563026  -0.000775   0.156907  -0.004940
 416  11  -3.627726   1.037401  -3.843237  -0.001009   0.156907  -0.006430
 417   4  -5.542186  -1.708898  -1.176527  -0.000585   0.153402  -0.003810
 418   4  -6.583961  -0.593646  -0.972815  -0.000544   0.153402  -0.003544
 419   4  -6.881381   0.866052  -1.361924  -0.000686   0.153402  -0.004474
 420   4  -6.305952   2.039572  -2.175751  -0.000727   0.153402  -0.004741
 421   4  -5.106274   2.419927  -3.062703  -0.000577   0.153402  -0.003761
 422   4  -3.800634   1.842794  -3.639597  -0.000671   0.153402  -0.004374
 423   4  -3.007287   0.879748  -3.750155  -0.000444   0.085913  -0.005172
 424  12  -3.372448   0.677013   3.858955  -0.000361   0.070322  -0.005127
 425  12  -4.082654   1.557612   3.767160  -0.000840   0.156910  -0.005353
 426  12  -5.245109   2.071455   3.253514  -0.000848   0.156910  -0.005402
 427  12  -6.313240   1.732765   2.463860  -0.000886   0.156910  -0.005644
 428  12  -6.825564   0.687874   1.739365  -0.000861   0.156910  -0.005487
 429  12  -6.560735  -0.611778   1.393046  -0.000723   0.156910  -0.004606
 430  12  -5.633169  -1.604680   1.574527  -0.000851   0.156910  -0.005426
 431   4  -3.289516   1.258943   3.725067  -0.000845   0.153403  -0.005511
 432   4  -4.429413   2.244959   3.410293  -0.000599   0.153403  -0.003906
 433   4  -5.755777   2.349110   2.635316  -0.000620   0.153403  -0.004043
 434   4  -6.695556   1.526397   1.734964  -0.000725   0.153403  -0.004726
 435   4  -6.842723   0.132271   1.098230  -0.000579   0.153403  -0.003778
 436   4  -6.133695  -1.230941   1.000213  -0.000585   0.153403  -0.003816
 437   4  -5.165824  -1.964070   1.308264  -0.000233   0.085914  -0.002717
 438   7   2.285385  -2.175910   3.345530  -0.000220   0.244781  -0.000900
 439   7   2.791451  -3.069263   2.687718  -0.000119   0.491929  -0.000242
 440   7   3.296244  -3.566955   1.695556   0.000426   0.244781   0.001739
 441   5   1.085125  -3.072431   2.823795   0.008240   0.607165   0.013571
 442   5   1.777502  -4.025212   1.693663   0.010046   0.607165   0.016546
 443   8   3.296268  -3.566999  -1.695465   0.000417   0.244793   0.001703
 444   8   2.791472  -3.069283  -2.687685  -0.000126   0.491952  -0.000256
 445   8   2.285404  -2.175870  -3.345519  -0.000209   0.244793  -0.000852
 446   5   1.777519  -4.025235  -1.693619   0.009847   0.607193   0.016218
 447   5   1.085139  -3.072396  -2.823805   0.008409   0.607193   0.013849
 448  11  -3.808133  -1.619504  -3.060856  -0.001211   0.327083  -0.003703
 449  11  -4.565908  -2.072975  -2.154944  -0.000783   0.327083  -0.002394
 450   5  -3.155283  -2.813243  -2.228926   0.009729   0.805687   0.012075
 451  12  -4.565819  -2.072842   2.155177  -0.000806   0.327014  -0.002465
 452  12  -3.808173  -1.619463   3.060866  -0.001180   0.327014  -0.003608
 453   5  -3.155268  -2.813219   2.229042   0.009747   0.805521   0.012101
 454   9   3.140085   4.501475   0.888283  -0.002537   0.262689  -0.009659
 455   9   3.162062   4.559237  -0.396454  -0.006754   0.525922  -0.012842
 456   6   4.444912   4.070792   0.396545  -0.003371   0.525922  -0.006410
 457   6   4.422917   4.013064  -0.888193  -0.001118   0.262689  -0.004257
 458  10  -1.847855   4.632135   1.616838  -0.001089   0.222032  -0.004904
 459  10  -1.849117   5.177890   0.668688  -0.003457   0.444122  -0.007783
 460  10  -1.849078   5.177828  -0.668945  -0.003468   0.444122  -0.007809
 461  10  -1.847760   4.631985  -1.617045  -0.001078   0.222032  -0.004854
 462   9  -0.461592   4.866960   1.269021  -0.005661   0.444122  -0.012746
 463   9  -0.462553   5.289587  -0.000093  -0.006529   0.444122  -0.014701
 464   9  -0.461517   4.866842  -1.269168  -0.005691   0.444122  -0.012814
 =====================================================


   1 warning(s) detected.
     A line exceeding 80 characters begins with "http://cactus.nci.ni".
 There may be a problem in your input file.

              1719302  WORDS OF DYNAMIC MEMORY USED
 EXECUTION OF GAMESS TERMINATED NORMALLY Fri Nov 25 03:52:56 2016
 DDI: 263640 bytes (0.3 MB / 0 MWords) used by master data server.

 ----------------------------------------
 CPU timing information for all processes
 ========================================
 0: 172.404 + 0.132 = 172.536
 ----------------------------------------
 ddikick.x: exited gracefully.
