----- GAMESS execution script -----

          ******************************************************
          *         GAMESS VERSION =  5 DEC 2014 (R1)          *
          *             FROM IOWA STATE UNIVERSITY             *
          * M.W.SCHMIDT, K.K.BALDRIDGE, J.A.BOATZ, S.T.ELBERT, *
          *   M.S.GORDON, J.H.JENSEN, S.KOSEKI, N.MATSUNAGA,   *
          *          K.A.NGUYEN, S.J.SU, T.L.WINDUS,           *
          *       TOGETHER WITH M.DUPUIS, J.A.MONTGOMERY       *
          *         J.COMPUT.CHEM.  14, 1347-1363(1993)        *
          **************** 64 BIT LINUX VERSION ****************

 EXECUTION OF GAMESS BEGUN Fri Nov 25 03:53:00 2016

            ECHO OF THE FIRST FEW INPUT CARDS -
 INPUT CARD>! SELECT RESTRICTED HARTREE-FOCK AS DEFAULT                                     
 INPUT CARD>$contrl scftyp=rhf $end                                                         
 INPUT CARD>                                                                                
 INPUT CARD>! THEORY: HF OR DFT                                                             
 INPUT CARD> $contrl mplevl=0 $end                                                          
 INPUT CARD>                                                                                
 INPUT CARD> $system timlim=10000 mwords=20 $end                                            
 INPUT CARD> $SCF DIRSCF=.TRUE. $end                                                        
 INPUT CARD>                                                                                
 INPUT CARD>                                                                                
 INPUT CARD>! BASIS SETS                                                                    
 INPUT CARD>! 6-311G(d,p)                                                                   
 INPUT CARD> $BASIS GBASIS=N311 NGAUSS=6 NDFUNC=1 NPFUNC=1 $END                             
 INPUT CARD>                                                                                
 INPUT CARD>! One of the following                                                          
 INPUT CARD> $guess guess=HUCKEL $end                                                       
 INPUT CARD>                                                                                
 INPUT CARD> $statpt projct=.FALSE. $end                                                    
 INPUT CARD> $STATPT IFREEZ(1)=1,2,3 $END                                                   
 INPUT CARD>                                                                                
 INPUT CARD>! Optimize the geometry with COSMO effects                                      
 INPUT CARD> $statpt opttol=0.0005 nstep=50 $end                                            
 INPUT CARD> $contrl nzvar=1 $end                                                           
 INPUT CARD> $zmat dlc=.t. auto=.t. $end                                                    
 INPUT CARD> $contrl runtyp=OPTIMIZE maxit=200 $end                                         
 INPUT CARD>                                                                                
 INPUT CARD>! Run COSMO on perfect conductor                                                
 INPUT CARD> $COSGMS PRFCND=.TRUE. $end                                                     
 INPUT CARD>                                                                                
 INPUT CARD>! Specifying RSOLV                                                              
 INPUT CARD> $COSGMS COSRAD = 1.4 $end                                                      
 INPUT CARD>                                                                                
 INPUT CARD>! available memory                                                              
 INPUT CARD> $SYSTEM MWORDS=40 $END                                                         
 INPUT CARD>                                                                                
 INPUT CARD> $DATA                                                                          
 INPUT CARD>http://cactus.nci.nih.gov/chemical/structure/N-METHYLFORMAMIDE/file?format=sdf&g
 INPUT CARD>C1                                                                              
 INPUT CARD>C      6.0     -1.4319000000    0.5164000000    0.0000000000                    
 INPUT CARD>N      7.0     -0.5602000000   -0.6610000000    0.0000000000                    
 INPUT CARD>C      6.0      0.7789000000   -0.5081000000    0.0000000000                    
 INPUT CARD>O      8.0      1.2622000000    0.6042000000    0.0000000000                    
 INPUT CARD>H      1.0     -1.2351000000    1.1141000000   -0.8900000000                    
 INPUT CARD>H      1.0     -2.4740000000    0.1969000000    0.0000000000                    
 INPUT CARD>H      1.0     -1.2351000000    1.1141000000    0.8900000000                    
 INPUT CARD>H      1.0     -0.9467000000   -1.5507000000    0.0000000000                    
 INPUT CARD>H      1.0      1.4215000000   -1.3761000000    0.0000000000                    
 INPUT CARD> $END                                                                           
 INPUT CARD>                                                                                
 INPUT CARD>                                                                                
   40000000 WORDS OF MEMORY AVAILABLE

     BASIS OPTIONS
     -------------
     GBASIS=N311         IGAUSS=       6      POLAR=POPN311 
     NDFUNC=       1     NFFUNC=       0     DIFFSP=       F
     NPFUNC=       1      DIFFS=       F     BASNAM=        


     RUN TITLE
     ---------
 http://cactus.nci.nih.gov/chemical/structure/N-METHYLFORMAMIDE/file?format=sdf&g

 THE POINT GROUP OF THE MOLECULE IS C1      
 THE ORDER OF THE PRINCIPAL AXIS IS     0

 ATOM      ATOMIC                      COORDINATES (BOHR)
           CHARGE         X                   Y                   Z
 C           6.0    -2.7058986418        0.9758545001        0.0000000000
 N           7.0    -1.0586244983       -1.2491088779        0.0000000000
 C           6.0     1.4719075718       -0.9601697744        0.0000000000
 O           8.0     2.3852121417        1.1417724418        0.0000000000
 H           1.0    -2.3340005674        2.1053437229       -1.6818561291
 H           1.0    -4.6751820936        0.3720870470        0.0000000000
 H           1.0    -2.3340005674        2.1053437229        1.6818561291
 H           1.0    -1.7890035926       -2.9303980892        0.0000000000
 H           1.0     2.6862454915       -2.6004519317        0.0000000000

          INTERNUCLEAR DISTANCES (ANGS.)




     $CONTRL OPTIONS
     ---------------
 SCFTYP=RHF          RUNTYP=OPTIMIZE     EXETYP=RUN     
 MPLEVL=       0     CITYP =NONE         CCTYP =NONE         VBTYP =NONE    
 DFTTYP=NONE         TDDFT =NONE    
 MULT  =       1     ICHARG=       0     NZVAR =       1     COORD =UNIQUE  
 PP    =NONE         RELWFN=NONE         LOCAL =NONE         NUMGRD=       F
 ISPHER=      -1     NOSYM =       0     MAXIT =     200     UNITS =ANGS    
 PLTORB=       F     MOLPLT=       F     AIMPAC=       F     FRIEND=        
 NPRINT=       7     IREST =       0     GEOM  =INPUT   
 NORMF =       0     NORMP =       0     ITOL  =      20     ICUT  =       9
 INTTYP=BEST         GRDTYP=BEST         QMTTOL= 1.0E-06

     $SYSTEM OPTIONS
     ---------------
  REPLICATED MEMORY=    40000000 WORDS (ON EVERY NODE).
 DISTRIBUTED MEMDDI=           0 MILLION WORDS IN AGGREGATE,
 MEMDDI DISTRIBUTED OVER   1 PROCESSORS IS           0 WORDS/PROCESSOR.
 TOTAL MEMORY REQUESTED ON EACH PROCESSOR=    40000000 WORDS.
 TIMLIM=       10000.00 MINUTES, OR       6.9 DAYS.
 PARALL= F  BALTYP=  DLB     KDIAG=    0  COREFL= F
 MXSEQ2=     300 MXSEQ3=     150  mem10=         0

     $COSGMS OPTIONS
     ---------------
     EPSI  =   INFTY     NSPA  =      92     COSRAD=    1.40
     DISEX =   10.00     OUTCHG=DBLCAV       COSBUG=       F
     COSWRT=       F     DCOSMO=       F

     SYMMETRY COORDINATES WILL NOT BE USED FOR 
     THE COSMO CALCULATION, EVEN IF SPECIFIED:
         -- SWITCHING TO C1 POINT GROUP --


     DEFINITION OF CAVITY
     ---------------------------
     ATOM         COORDINATES           RADIUS 
     1   -2.7059    0.9759    0.0000    2.0000
     2   -1.0586   -1.2491    0.0000    1.8300
     3    1.4719   -0.9602    0.0000    2.0000
     4    2.3852    1.1418    0.0000    1.7200
     5   -2.3340    2.1053   -1.6819    1.3000
     6   -4.6752    0.3721    0.0000    1.3000
     7   -2.3340    2.1053    1.6819    1.3000
     8   -1.7890   -2.9304    0.0000    1.3000
     9    2.6862   -2.6005    0.0000    1.3000

          ----------------
          PROPERTIES INPUT
          ----------------

     MOMENTS            FIELD           POTENTIAL          DENSITY
 IEMOM =       1   IEFLD =       0   IEPOT =       0   IEDEN =       0
 WHERE =COMASS     WHERE =NUCLEI     WHERE =NUCLEI     WHERE =NUCLEI  
 OUTPUT=BOTH       OUTPUT=BOTH       OUTPUT=BOTH       OUTPUT=BOTH    
 IEMINT=       0   IEFINT=       0                     IEDINT=       0
                                                       MORB  =       0
          EXTRAPOLATION IN EFFECT
          SOSCF IN EFFECT
 ORBITAL PRINTING OPTION: NPREO=     1   106     2     1

     -------------------------------
     INTEGRAL TRANSFORMATION OPTIONS
     -------------------------------
     NWORD  =            0
     CUTOFF = 1.0E-09     MPTRAN =       0
     DIRTRF =       T     AOINTS =DUP     

          ----------------------
          INTEGRAL INPUT OPTIONS
          ----------------------
 NOPK  =       1 NORDER=       0 SCHWRZ=       T


 -----------------------------------------------
  STATISTICS ON AUTOMATIC COORDINATE GENERATION 
 -----------------------------------------------
  NUMBER OF USER SPECIFIED BONDS                             0
  NUMBER OF BONDS                                            8
  NUMBER OF ANGLES                                          12
  NUMBER OF TORSIONS                                        10
  NUMBER OF EXTRA COORD.                                     0
  NUMBER OF EXTRA COORD. FOR CONSTRAINTS                     0
  NUMBER OF CONSTRAINED COORD.                               0

  TOTAL NUMBER OF PRIMITIVES                                30
 -----------------------------------------------

   --- ENCODED Z MATRIX ---
 COORD  TYPE   I   J   K   L   M   N
    1      1    1   5
    2      1    1   7
    3      1    1   2
    4      1    1   6
    5      1    2   8
    6      1    2   3
    7      1    3   4
    8      1    3   9
    9      2    1   2   8
   10      2    1   2   3
   11      2    2   3   4
   12      2    2   1   5
   13      2    2   3   9
   14      2    2   1   6
   15      2    2   1   7
   16      2    3   2   8
   17      2    4   3   9
   18      2    5   1   6
   19      2    5   1   7
   20      2    6   1   7
   21      3    1   2   3   4
   22      3    1   2   3   9
   23      3    3   2   1   6
   24      3    3   2   1   7
   25      3    3   2   1   5
   26      3    4   3   2   8
   27      3    5   1   2   8
   28      3    6   1   2   8
   29      3    7   1   2   8
   30      3    8   2   3   9

          INDEP./SYM. INTERNAL COORDINATES
          --------------------------------
 CRD  1=   0.1991 (  3)  0.1959 (  6) -0.3173 (  9)  0.6551 ( 10)  0.3254 ( 11)
           0.1618 ( 12) -0.2227 ( 13) -0.1699 ( 14)  0.1618 ( 15) -0.3378 ( 16)
          -0.1026 ( 17)
 CRD  2=  -0.5748 (  3) -0.1437 (  5) -0.3815 (  6) -0.1691 (  8) -0.1150 (  9)
           0.1180 ( 11) -0.2931 ( 13) -0.4551 ( 14)  0.1751 ( 17)  0.2160 ( 18)
           0.2160 ( 20)
 CRD  3=  -0.1151 (  1)  0.1151 (  2) -0.6068 ( 12)  0.6068 ( 15)  0.1790 ( 18)
          -0.1790 ( 20)  0.1301 ( 21)  0.2600 ( 22) -0.2192 ( 23)  0.1026 ( 30)
 CRD  4=   0.2600 (  3) -0.1501 (  4) -0.2668 (  6) -0.1978 (  7)  0.1383 (  8)
          -0.4070 ( 11)  0.3421 ( 12)  0.2288 ( 13) -0.4314 ( 14)  0.3421 ( 15)
           0.1782 ( 17) -0.2779 ( 19)
 CRD  5=   0.2218 (  3) -0.4686 (  6) -0.1407 (  8)  0.4506 (  9)  0.1328 ( 11)
          -0.3749 ( 13)  0.2670 ( 14) -0.4405 ( 16)  0.2421 ( 17)
 CRD  6=  -0.4560 ( 21) -0.1142 ( 22) -0.2845 ( 23) -0.3214 ( 24) -0.3214 ( 25)
          -0.5138 ( 26) -0.2635 ( 27) -0.2266 ( 28) -0.2635 ( 29) -0.1721 ( 30)
 CRD  7=   0.1035 (  3) -0.1414 (  4)  0.5485 (  5)  0.1573 (  6)  0.2199 (  7)
          -0.2709 (  8)  0.1651 (  9) -0.2997 ( 10)  0.3824 ( 11)  0.1881 ( 12)
          -0.2036 ( 13) -0.2264 ( 14)  0.1881 ( 15)  0.1346 ( 16) -0.1788 ( 17)
          -0.1985 ( 19)
 CRD  8=   0.2468 (  1)  0.2468 (  2)  0.2258 (  4) -0.5483 (  7) -0.4141 (  8)
           0.1554 ( 11)  0.2563 ( 13) -0.1083 ( 14) -0.1082 ( 16) -0.4117 ( 17)
           0.1033 ( 18)  0.1033 ( 20)
 CRD  9=   0.4405 (  1)  0.4405 (  2)  0.1502 (  3)  0.4258 (  4)  0.1362 (  5)
           0.2953 (  7)  0.2762 (  8) -0.1481 ( 12) -0.1207 ( 13) -0.1716 ( 14)
          -0.1481 ( 15)  0.2081 ( 17)  0.1626 ( 18)  0.1426 ( 19)  0.1626 ( 20)
 CRD 10=  -0.1413 (  1)  0.1413 (  2) -0.1875 ( 12)  0.1875 ( 15)  0.1961 ( 18)
          -0.1961 ( 20) -0.2249 ( 21) -0.5902 ( 22)  0.3401 ( 23)  0.2148 ( 24)
           0.2148 ( 25)  0.1656 ( 28) -0.4157 ( 30)
 CRD 11=   0.3018 (  1)  0.3018 (  2) -0.5975 (  4) -0.2033 ( 18)  0.4059 ( 19)
          -0.2033 ( 20) -0.2244 ( 24)  0.2244 ( 25)  0.2244 ( 27) -0.2244 ( 29)
 CRD 12=  -0.5345 (  1)  0.5345 (  2) -0.3354 ( 18)  0.3354 ( 20) -0.2312 ( 23)
           0.1494 ( 24)  0.1494 ( 25)  0.1462 ( 27) -0.2345 ( 28)  0.1462 ( 29)
 CRD 13=  -0.1306 (  1) -0.1306 (  2) -0.1203 (  3) -0.2910 (  4)  0.1285 (  6)
           0.5001 (  8)  0.4043 (  9)  0.1185 ( 11) -0.1350 ( 12)  0.1489 ( 13)
          -0.2100 ( 14) -0.1350 ( 15) -0.3931 ( 16) -0.2674 ( 17)  0.1975 ( 18)
           0.1975 ( 20)
 CRD 14=   0.1718 (  1)  0.1718 (  2) -0.6906 (  5)  0.4639 (  7)  0.1450 (  9)
          -0.1549 ( 10)  0.1478 ( 11)  0.1414 ( 12)  0.1261 ( 13)  0.1414 ( 15)
          -0.2738 ( 17) -0.1958 ( 19)
 CRD 15=  -0.4092 ( 21)  0.3266 ( 22)  0.1326 ( 23)  0.1842 ( 24)  0.1842 ( 25)
          -0.5507 ( 26)  0.3257 ( 27)  0.2741 ( 28)  0.3257 ( 29)  0.1851 ( 30)
 CRD 16=   0.1671 (  1)  0.1671 (  2) -0.4086 (  3)  0.2063 (  4)  0.1323 (  5)
          -0.2184 (  6) -0.2568 (  7)  0.5105 (  8)  0.2428 ( 11)  0.1871 ( 12)
           0.2184 ( 14)  0.1871 ( 15)  0.1022 ( 16) -0.1606 ( 17) -0.2062 ( 18)
          -0.1800 ( 19) -0.2062 ( 20)
 CRD 17=  -0.1461 (  1) -0.1461 (  2)  0.1019 (  3)  0.2093 (  4)  0.2555 (  5)
          -0.5571 (  6)  0.4348 (  7) -0.1136 (  9)  0.1201 ( 10)  0.3260 ( 13)
          -0.3313 ( 17)  0.2023 ( 19) -0.1058 ( 24)  0.1058 ( 25)  0.1058 ( 27)
          -0.1058 ( 29)
 CRD 18=  -0.5333 (  3)  0.1169 (  4)  0.2177 (  5)  0.2369 (  6)  0.2045 (  7)
          -0.3097 (  8)  0.1961 (  9)  0.1962 ( 10) -0.2979 ( 11)  0.1118 ( 12)
           0.2322 ( 13)  0.1118 ( 15) -0.3923 ( 16) -0.1171 ( 18) -0.1171 ( 20)
 CRD 19=   0.3994 (  1) -0.3994 (  2) -0.1369 ( 12)  0.1369 ( 15) -0.2904 ( 18)
           0.2904 ( 20) -0.2364 ( 22) -0.3492 ( 23)  0.2145 ( 27) -0.2249 ( 28)
           0.2145 ( 29) -0.3607 ( 30)
 CRD 20=  -0.2045 (  1) -0.2045 (  2)  0.4101 (  4) -0.1935 (  5)  0.2247 (  6)
          -0.1021 (  7)  0.2584 (  9) -0.2500 ( 10)  0.1275 ( 12) -0.1073 ( 13)
          -0.2537 ( 14)  0.1275 ( 15) -0.1498 ( 18)  0.2983 ( 19) -0.1498 ( 20)
          -0.2607 ( 24)  0.2607 ( 25)  0.2607 ( 27) -0.2607 ( 29)
 CRD 21=  -0.1171 (  1)  0.1171 (  2)  0.1402 ( 12) -0.1402 ( 15)  0.3894 ( 21)
          -0.1189 ( 23) -0.3077 ( 24) -0.3077 ( 25) -0.1636 ( 26)  0.2454 ( 27)
           0.4342 ( 28)  0.2454 ( 29) -0.4705 ( 30)

 THE DETERMINANT OF THE G MATRIX IS 10**(    -8)


                     --------------------
                     INTERNAL COORDINATES
                     --------------------

                 - - ATOMS - -         COORDINATE      COORDINATE
 NO.   TYPE    I  J  K  L  M  N        (BOHR,RAD)       (ANG,DEG)
 ----------------------------------------------------------------
   1 STRETCH   1  5                     2.0597801       1.0899888
   2 STRETCH   1  7                     2.0597801       1.0899888
   3 STRETCH   1  2                     2.7683884       1.4649681
   4 STRETCH   1  6                     2.0597603       1.0899783
   5 STRETCH   2  8                     1.8330813       0.9700249
   6 STRETCH   2  3                     2.5469744       1.3478009
   7 STRETCH   3  4                     2.2917867       1.2127614
   8 STRETCH   3  9                     2.0408680       1.0799809
   9 BEND      1  2  8                  2.0944706     120.0043266
  10 BEND      1  2  3                  2.0944105     120.0008824
  11 BEND      2  3  4                  2.0943790     119.9990799
  12 BEND      2  1  5                  1.9105769     109.4679912
  13 BEND      2  3  9                  2.0943863     119.9994932
  14 BEND      2  1  6                  1.9106054     109.4696266
  15 BEND      2  1  7                  1.9105769     109.4679912
  16 BEND      3  2  8                  2.0943042     119.9947910
  17 BEND      4  3  9                  2.0944200     120.0014269
  18 BEND      5  1  6                  1.9106592     109.4727074
  19 BEND      5  1  7                  1.9107219     109.4762997
  20 BEND      6  1  7                  1.9106592     109.4727074
  21 TORSION   1  2  3  4               0.0000000       0.0000000
  22 TORSION   1  2  3  9               3.1415927     180.0000000
  23 TORSION   3  2  1  6               3.1415927     180.0000000
  24 TORSION   3  2  1  7              -1.0472173     -60.0011327
  25 TORSION   3  2  1  5               1.0472173      60.0011327
  26 TORSION   4  3  2  8               3.1415927     180.0000000
  27 TORSION   5  1  2  8              -2.0943753    -119.9988673
  28 TORSION   6  1  2  8               0.0000000       0.0000000
  29 TORSION   7  1  2  8               2.0943753     119.9988673
  30 TORSION   8  2  3  9               0.0000000       0.0000000

     ------------------------------------------
     THE POINT GROUP IS C1 , NAXIS= 1, ORDER= 1
     ------------------------------------------

     DIMENSIONS OF THE SYMMETRY SUBSPACES ARE
 A   =  106

 ..... DONE SETTING UP THE RUN .....
 STEP CPU TIME =     0.01 TOTAL CPU TIME =        0.0 (    0.0 MIN)
 TOTAL WALL CLOCK TIME=        0.0 SECONDS, CPU UTILIZATION IS 100.00%


          -----------------------------
          STATIONARY POINT LOCATION RUN
          -----------------------------

 OBTAINING INITIAL HESSIAN, HESS=GUESS   
 DIAGONAL GUESS HESSIAN IN INTERNAL COORDS IS
     1  0.3464     2  0.3464     3  0.3636     4  0.3464     5  0.3817
     6  0.4567     7  0.5493     8  0.3532     9  0.2203    10  0.2498
    11  0.2635    12  0.2212    13  0.2288    14  0.2212    15  0.2212
    16  0.2273    17  0.2331    18  0.2034    19  0.2034    20  0.2034
    21  0.2500    22  0.2500    23  0.2500    24  0.2500    25  0.2500
    26  0.2500    27  0.2500    28  0.2500    29  0.2500    30  0.2500
 TRANSFORMING HESSIAN TO SYMMETRY COORDINATES

          PARAMETERS CONTROLLING GEOMETRY SEARCH ARE
          METHOD =QA                  UPHESS =BFGS    
          NNEG   =         0          NFRZ   =         3
          NSTEP  =        50          IFOLOW =         1
          HESS   =GUESS               RESTAR =         F
          IHREP  =         0          HSSEND =         F
          NPRT   =         0          NPUN   =         0
          OPTTOL = 5.000E-04          RMIN   = 1.500E-03
          RMAX   = 1.000E-01          RLIM   = 7.000E-02
          DXMAX  = 3.000E-01          PURIFY =         F
          MOVIE  =         F          TRUPD  =         T
          TRMAX  = 5.000E-01          TRMIN  = 5.000E-02
          ITBMAT =         5          STPT   =         F
          STSTEP = 1.000E-02          PROJCT=          F
          FROZEN COORD(S)=   1   2   3


      ***** EQUILIBRIUM GEOMETRY LOCATED *****
            (SUBJECT TO   3 CONSTRAINT(S))
 COORDINATES OF ALL ATOMS ARE (ANGS)
   ATOM   CHARGE       X              Y              Z
 ------------------------------------------------------------
 C           6.0  -1.4317103802   0.5052507665  -0.0000003087
 N           7.0  -0.5613279587  -0.6665986111   0.0000025073
 C           6.0   0.7586015934  -0.4863811364   0.0000154928
 O           8.0   1.2812692416   0.6030617453  -0.0000101880
 H           1.0  -1.2372409417   1.1120028270  -0.8765533908
 H           1.0  -2.4782172123   0.2309306195  -0.0000319847
 H           1.0  -1.2372768324   1.1119467314   0.8766041898
 H           1.0  -0.9287143435  -1.5935742097  -0.0000554452
 H           1.0   1.3645108427  -1.3930027793  -0.0000173089


                     --------------------
                     INTERNAL COORDINATES
                     --------------------

                 - - ATOMS - -         COORDINATE      COORDINATE
 NO.   TYPE    I  J  K  L  M  N        (BOHR,RAD)       (ANG,DEG)
 ----------------------------------------------------------------
   1 STRETCH   1  5                     2.0478141       1.0836566
   2 STRETCH   1  7                     2.0478212       1.0836604
   3 STRETCH   1  2                     2.7584799       1.4597248
   4 STRETCH   1  6                     2.0444251       1.0818633
   5 STRETCH   2  8                     1.8842914       0.9971241
   6 STRETCH   2  3                     2.5174472       1.3321758
   7 STRETCH   3  4                     2.2834172       1.2083324
   8 STRETCH   3  9                     2.0606583       1.0904535
   9 BEND      1  2  8                  2.1254156     121.7773461
  10 BEND      1  2  3                  2.0739399     118.8280015
  11 BEND      2  3  4                  2.1538152     123.4045235
  12 BEND      2  1  5                  1.9203603     110.0285417
  13 BEND      2  3  9                  2.0242429     115.9805758
  14 BEND      2  1  6                  1.9532749     111.9144105
  15 BEND      2  1  7                  1.9203325     110.0269492
  16 BEND      3  2  8                  2.0838298     119.3946524
  17 BEND      4  3  9                  2.1051271     120.6149006
  18 BEND      5  1  6                  1.8918229     108.3934703
  19 BEND      5  1  7                  1.8845808     107.9785280
  20 BEND      6  1  7                  1.8918241     108.3935376
  21 TORSION   1  2  3  4              -0.0000351      -0.0020082
  22 TORSION   1  2  3  9              -3.1415576    -179.9979918
  23 TORSION   3  2  1  6               3.1415719     179.9988129
  24 TORSION   3  2  1  7              -1.0372080     -59.4276426
  25 TORSION   3  2  1  5               1.0371491      59.4242665
  26 TORSION   4  3  2  8               3.1414996     179.9946656
  27 TORSION   5  1  2  8              -2.1043840    -120.5723245
  28 TORSION   6  1  2  8               0.0000388       0.0022219
  29 TORSION   7  1  2  8               2.1044441     120.5757664
  30 TORSION   8  2  3  9              -0.0000230      -0.0013180

          INTERNUCLEAR DISTANCES (ANGS.)


 =====================================================
   GAMESS/COSab RESULTS
 =====================================================

   Dielectric Constant                  = INFTY
   Basic Grid Size                      =                 1082
   Number of Segments                   =                   92
   Number of Segments located on spheres=                  178
   Number of Segments of the cavity     =                  360
   Solvent Radius (rsolv)               = 1.40
   Outlying Charge Error Method         = double cavity

 =====================================================

  Total solvated Energy (a.u.)          =  -208.0352377339
  Total Energy corrected (a.u.)         =  -208.0350833011

  Outlying charge effect (a.u.)         =     0.0001544328
  Outlying charge effect (kcal/mol)     =     0.0969081306

  Dielectric Energy (a.u.)              =    -0.0215614837
  Dielectric energy corr. (a.u.)        =    -0.0214070509

  Sum of polarization charges           =     0.0141623959
  Sum of polarization charges(cor.)     =    -0.0141623959

  Total surface area of cavity (A**2)   =   96.00
  Total volume of cavity (A**3)         =   79.09

 =====================================================
 NPS=                   360
NR.  ATOM  (X, Y, Z)(a.u.)                  CHARGE(e)  AREA(A**2) SIGMA(e/A**2)
   1   1  -3.621893  -0.858344   3.187015  -0.000027   0.325193  -0.000082
   2   1  -5.440497   2.394320   2.175297   0.000510   0.418105   0.001219
   3   1  -3.868639  -0.390386  -3.334972   0.000014   0.232280   0.000060
   4   1  -5.607189   2.622775  -1.755698  -0.000005   0.418105  -0.000011
   5   1  -3.055888   4.687360   0.478896  -0.000049   0.371649  -0.000131
   6   1  -3.034894   0.044058   3.653258   0.000139   0.325193   0.000428
   7   1  -4.482654  -1.235837   2.515404  -0.000178   0.371649  -0.000478
   8   1  -4.752996  -1.675235   1.781895  -0.000277   0.092912  -0.002983
   9   1  -4.314189  -0.049714   3.269162   0.000340   0.371649   0.000916
  10   1  -4.862247   0.908460   3.103327   0.000866   0.371649   0.002330
  11   1  -2.716118   4.698338  -0.519543   0.000103   0.325193   0.000316
  12   1  -4.921917   2.865141  -2.392169   0.000142   0.278737   0.000510
  13   1  -3.725158   0.529368  -3.614377   0.000423   0.325193   0.001300
  14   1  -5.482590   1.232290   2.548560   0.000200   0.232280   0.000861
  15   1  -4.810990   1.949397   2.976910   0.000500   0.278737   0.001792
  16   1  -2.957802  -0.286870  -3.560758   0.000231   0.232280   0.000994
  17   1  -4.730219   0.393963  -3.141728   0.000695   0.325193   0.002139
  18   1  -5.321260   1.752108  -2.608937   0.000576   0.278737   0.002067
  19   1  -4.988038   3.702744  -1.234159  -0.000476   0.464561  -0.001025
  20   1  -4.060875   4.475581  -0.226432  -0.000622   0.464561  -0.001338
  21   1  -1.687184   4.583341   0.284171   0.000407   0.325193   0.001252
  22   1  -3.766605  -1.106038  -2.985210   0.000068   0.185824   0.000368
  23   1  -4.665333  -0.625671  -2.818807   0.000037   0.325193   0.000112
  24   1  -5.808302   3.068433  -0.435390  -0.000828   0.418105  -0.001979
  25   1  -5.708511   3.014992   1.010886  -0.000548   0.418105  -0.001310
  26   1  -4.928598   3.470096   1.736490  -0.000206   0.464561  -0.000444
  27   1  -4.068954   4.326403   1.028337  -0.000510   0.325193  -0.001570
  28   1  -2.106781   0.157427   3.645533   0.000170   0.139368   0.001221
  29   1  -5.048326  -0.419557   2.628066   0.000020   0.232280   0.000087
  30   1  -3.890449   0.827257   3.586628   0.000426   0.278737   0.001527
  31   1  -4.047243   4.280833  -1.192252  -0.000428   0.278737  -0.001537
  32   1  -4.721030   1.369846  -3.170144   0.000584   0.278737   0.002096
  33   1  -2.366966   0.201830  -3.688193  -0.000016   0.185824  -0.000087
  34   1  -1.403954   4.478019  -0.420642   0.000442   0.232280   0.001905
  35   1  -4.640564  -1.447815  -2.183460  -0.000396   0.278737  -0.001419
  36   1  -5.405164   0.769607  -2.638564   0.000096   0.185824   0.000516
  37   1  -5.081890   3.883349   0.246305  -0.000946   0.464561  -0.002037
  38   2  -2.749082  -2.408002  -2.791073   0.000490   0.116683   0.004200
  39   2  -1.762910  -2.780055   3.025662   0.002175   0.350048   0.006212
  40   2  -0.567666  -3.564611  -2.530489  -0.000170   0.077788  -0.002185
  41   2  -3.035450  -2.755700  -2.412819   0.000044   0.155577   0.000285
  42   2  -2.071021  -2.783063  -2.935619   0.001313   0.272259   0.004822
  43   2  -1.160489  -3.180905  -2.873700   0.001319   0.272259   0.004843
  44   2  -0.890050  -3.335343   2.760742   0.001446   0.311154   0.004647
  45   2  -2.842356  -2.539949   2.673199   0.000505   0.272259   0.001854
  46   2  -1.967753  -1.841476  -3.286035   0.001141   0.194471   0.005867
  47   2  -1.122511  -1.299666  -3.457416   0.001682   0.194471   0.008650
  48   2  -1.055601  -2.009669   3.375893   0.001715   0.233365   0.007351
  49   2  -1.900044  -1.828951   3.306158   0.002466   0.272259   0.009058
  50   2  -1.069730  -1.149920   3.456444   0.000922   0.116683   0.007902
  51   2  -1.104814  -2.295276  -3.299208   0.002913   0.311154   0.009362
  52   3   1.104317   0.431576  -3.514428   0.000049   0.139368   0.000350
  53   3   1.035751  -3.301000  -2.907325  -0.001558   0.371649  -0.004192
  54   3   4.115266  -1.107128  -2.656520  -0.000207   0.278737  -0.000744
  55   3   4.936020  -1.236590   1.384278  -0.000252   0.185824  -0.001356
  56   3   2.265835  -2.335206   3.403898  -0.002026   0.371649  -0.005451
  57   3   2.629401  -3.168661   2.791774  -0.001875   0.371649  -0.005044
  58   3   4.982031  -1.721229   1.024305  -0.000666   0.185824  -0.003582
  59   3   4.369105  -1.977181  -2.132399  -0.001648   0.418105  -0.003942
  60   3   1.834407  -3.686513  -2.542639  -0.001535   0.278737  -0.005507
  61   3   1.353197   0.419250   3.533662  -0.000185   0.325193  -0.000568
  62   3   1.114326  -4.157363  -1.922528  -0.000918   0.185824  -0.004939
  63   3   1.911462  -2.706424  -3.295637  -0.002097   0.418105  -0.005014
  64   3   3.341403  -1.934106  -3.100637  -0.001839   0.418105  -0.004398
  65   3   4.775674  -1.163083  -1.747796   0.000301   0.185824   0.001618
  66   3   5.183480  -1.359125   0.169259   0.000128   0.185824   0.000689
  67   3   4.417555  -1.359737   2.277268  -0.000320   0.418105  -0.000766
  68   3   3.427012  -2.012653   3.019066  -0.002073   0.464561  -0.004462
  69   3   1.240175  -3.234924   2.980636  -0.002011   0.464561  -0.004330
  70   3   0.957366  -3.965039   2.186352  -0.001015   0.185824  -0.005464
  71   3   0.793264  -2.070845  -3.542263  -0.001226   0.371649  -0.003298
  72   3   0.762304  -0.706265  -3.713237  -0.001393   0.464561  -0.002998
  73   3   1.842198  -0.143967  -3.676428  -0.001032   0.418105  -0.002468
  74   3   3.119132  -0.678359  -3.374143  -0.000539   0.464561  -0.001161
  75   3   2.309475  -0.223302   3.610133  -0.000444   0.371649  -0.001196
  76   3   2.318708  -1.256561   3.658843  -0.002145   0.418105  -0.005130
  77   3   1.018889  -2.010794   3.594558  -0.002183   0.557473  -0.003916
  78   3   4.043359  -2.321145   2.346838  -0.001149   0.232280  -0.004947
  79   3   5.075774  -1.413622  -0.879678  -0.000675   0.278737  -0.002423
  80   3   3.014234  -2.827407  -2.853766  -0.001709   0.325193  -0.005257
  81   3   1.519144  -4.065574   2.092128  -0.001095   0.232280  -0.004713
  82   3   0.933888  -0.665497   3.737716  -0.001747   0.464561  -0.003760
  83   3   2.081221  -1.463274  -3.683536  -0.003069   0.557473  -0.005505
  84   3   3.467594  -0.806728   3.183469  -0.000344   0.371649  -0.000926
  85   4   3.741965   4.109483  -0.015792   0.005760   0.377948   0.015241
  86   4   2.005465   3.343494   2.352590   0.004306   0.206154   0.020888
  87   4   3.160650   2.467898  -2.872916   0.005404   0.343589   0.015728
  88   4   5.568790   1.367664  -0.778181   0.006839   0.343589   0.019906
  89   4   4.426003   1.741799   2.486542   0.005280   0.309230   0.017074
  90   4   3.070523   4.168474   0.984433   0.006416   0.412307   0.015562
  91   4   2.149087   3.928724   1.646649   0.006115   0.343589   0.017796
  92   4   2.728843   4.358068  -0.334117   0.005457   0.343589   0.015884
  93   4   1.782275   4.251042  -0.689525   0.007331   0.377948   0.019397
  94   4   3.710480   3.870157  -1.202788   0.006375   0.412307   0.015461
  95   4   3.702374   3.198371  -2.164468   0.005929   0.377948   0.015687
  96   4   4.672570   3.455179  -0.366535   0.006103   0.377948   0.016147
  97   4   5.314384   2.526658  -0.520086   0.006203   0.343589   0.018054
  98   4   4.373361   3.574746   0.907750   0.007589   0.481025   0.015776
  99   4   4.558457   2.788489   1.810563   0.006822   0.412307   0.016546
 100   4   1.926042   3.835157  -1.747440   0.004099   0.206154   0.019883
 101   4   2.300246   3.098547  -2.590880   0.007470   0.412307   0.018119
 102   4   4.280507   2.072854  -2.497375   0.006908   0.412307   0.016754
 103   4   5.116803   1.739361  -1.714325   0.007555   0.412307   0.018323
 104   4   5.641648   1.452177   0.309682   0.007434   0.377948   0.019670
 105   4   5.223573   1.634091   1.570677   0.007617   0.412307   0.018474
 106   4   3.641681   2.405557   2.733590   0.007202   0.446666   0.016124
 107   4   2.658213   3.003888   2.651970   0.004364   0.274871   0.015876
 108   4   2.235979   1.919010  -3.150068   0.005410   0.343589   0.015747
 109   4   3.501502   1.358195  -3.057769   0.005301   0.377948   0.014024
 110   4   5.230567   0.489231  -1.499774   0.005670   0.343589   0.016503
 111   4   5.561012   0.315020  -0.162753   0.006823   0.377948   0.018053
 112   4   4.716496   0.721332   2.263055   0.006024   0.377948   0.015939
 113   4   3.691492   1.122431   2.991779   0.004068   0.309230   0.013157
 114   4   2.031599   2.330350   2.999155   0.003847   0.240512   0.015994
 115   4   1.797985   4.277296   0.575490   0.008562   0.412307   0.020765
 116   4   2.742646   3.901586  -1.683129   0.005545   0.343589   0.016139
 117   4   4.712273   2.895985  -1.493658   0.006882   0.412307   0.016692
 118   4   5.269472   2.555954   0.667977   0.008057   0.446666   0.018038
 119   4   3.423133   3.496932   2.000975   0.006474   0.412307   0.015703
 120   4   4.581130   0.856149  -2.412299   0.005904   0.343589   0.017183
 121   4   5.405760   0.530878   1.134316   0.007322   0.377948   0.019373
 122   4   2.650620   1.764806   3.181369   0.004772   0.309230   0.015433
 123   5  -2.144682   3.576082  -3.611692  -0.003712   0.529948  -0.007005
 124   5  -2.525454   4.502581  -2.140447  -0.001607   0.353299  -0.004549
 125   5  -3.787368   3.167352  -3.329254  -0.001491   0.372926  -0.003999
 126   5  -2.572751   1.696584  -4.068112  -0.001579   0.412182  -0.003831
 127   5  -1.069252   3.194088  -3.454017  -0.003000   0.431809  -0.006947
 128   5  -1.448458   4.272869  -2.383362  -0.003156   0.549575  -0.005743
 129   5  -3.203295   4.053337  -2.871496  -0.002466   0.471065  -0.005236
 130   5  -3.128078   2.614565  -3.925277  -0.002364   0.471065  -0.005018
 131   5  -1.509910   2.036140  -3.968376  -0.002844   0.490692  -0.005796
 132   6  -7.060714  -0.180766  -0.036901  -0.005153   0.608459  -0.008469
 133   6  -6.496052   0.561975   1.653014  -0.002013   0.392554  -0.005129
 134   6  -5.933415  -1.385057   1.074274  -0.002008   0.353299  -0.005684
 135   6  -5.984672  -1.363463  -1.049649  -0.001972   0.333671  -0.005909
 136   6  -6.481682   0.633363  -1.661864  -0.001866   0.372926  -0.005003
 137   6  -6.764075   1.741637   0.034116  -0.002373   0.412182  -0.005758
 138   6  -6.455029  -0.538304   1.394730  -0.003023   0.490692  -0.006160
 139   6  -6.326039  -1.390032   0.011697  -0.002980   0.471065  -0.006325
 140   6  -6.464525  -0.487681  -1.417056  -0.003100   0.510320  -0.006075
 141   6  -6.903094   1.093652  -0.821610  -0.003127   0.471065  -0.006638
 142   6  -6.915130   1.022644   0.842335  -0.003180   0.471065  -0.006751
 143   7  -2.395939   3.695339   3.524876  -0.002792   0.412182  -0.006773
 144   7  -1.621325   1.718978   3.974981  -0.002143   0.392554  -0.005459
 145   7  -2.914853   1.834769   4.029606  -0.001336   0.372926  -0.003582
 146   7  -3.604045   3.707978   3.017047  -0.001814   0.392554  -0.004622
 147   7  -1.687212   4.443463   2.010854  -0.001922   0.392554  -0.004897
 148   7  -2.217483   2.685589   4.039628  -0.002301   0.372926  -0.006171
 149   7  -3.579670   2.777396   3.665637  -0.001814   0.431809  -0.004201
 150   7  -2.801782   4.372025   2.471252  -0.002340   0.471065  -0.004968
 151   7  -1.283980   3.942842   2.894482  -0.002809   0.412182  -0.006814
 152   7  -1.170717   2.972247   3.634841  -0.002790   0.392554  -0.007108
 153   8  -2.691028  -5.281310  -0.081336  -0.007799   0.451437  -0.017275
 154   8  -3.465944  -3.925176  -1.507712  -0.005957   0.412182  -0.014454
 155   8  -3.881356  -4.081610   0.606957  -0.006827   0.392554  -0.017391
 156   8  -2.244051  -4.367779   1.988936  -0.003953   0.353299  -0.011187
 157   8  -0.983595  -5.264804   0.601783  -0.005452   0.333671  -0.016338
 158   8  -1.321036  -4.841483  -1.580483  -0.006111   0.431809  -0.014151
 159   8  -3.781732  -4.320475  -0.462629  -0.007952   0.471065  -0.016881
 160   8  -3.071843  -4.820908   1.013239  -0.006725   0.412182  -0.016316
 161   8  -1.997033  -5.256677   0.967042  -0.006457   0.392554  -0.016450
 162   8  -1.283800  -5.369867  -0.500873  -0.008325   0.490692  -0.016965
 163   8  -2.604935  -4.984039  -1.192374  -0.007269   0.451437  -0.016102
 164   8  -3.331331  -3.884108   1.669868  -0.004655   0.353299  -0.013176
 165   8  -1.310212  -4.741194   1.686655  -0.004389   0.314043  -0.013977
 166   8  -2.367003  -4.266101  -2.021570  -0.003865   0.353299  -0.010941
 167   9   3.794598  -4.761059  -0.158365  -0.004989   0.490692  -0.010168
 168   9   2.522392  -4.662587  -1.382140  -0.002849   0.372926  -0.007639
 169   9   2.143966  -4.935519   0.736038  -0.003324   0.353299  -0.009409
 170   9   3.620593  -3.983560   1.767329  -0.002755   0.353299  -0.007798
 171   9   4.980004  -3.099465   0.223473  -0.002939   0.353299  -0.008319
 172   9   4.266989  -3.526924  -1.544076  -0.003177   0.412182  -0.007708
 173   9   2.520053  -5.064969  -0.337978  -0.004707   0.490692  -0.009592
 174   9   2.991214  -4.695184   1.268692  -0.004074   0.471065  -0.008648
 175   9   4.302618  -4.220904   0.734335  -0.004507   0.451437  -0.009983
 176   9   4.767993  -3.567754  -0.605444  -0.004621   0.471065  -0.009809
 177   9   3.539823  -4.345836  -1.474866  -0.004183   0.471065  -0.008880
 178   9   4.551630  -3.294307   1.305308  -0.002503   0.314043  -0.007972
 179   1  -1.094294  -0.063542  -3.387144   0.000184   0.052964   0.003480
 180   2  -0.809075  -0.456118  -3.371268   0.000360   0.052964   0.006803
 181   3  -0.372243  -0.390424  -3.390869   0.000148   0.052964   0.002801
 182   1  -1.094381  -0.063576   3.387155   0.000162   0.052964   0.003053
 183   2  -0.809161  -0.456152   3.371283   0.000358   0.052964   0.006754
 184   3  -0.372330  -0.390459   3.390896   0.000171   0.052964   0.003220
 185   1  -3.962907  -2.215511   1.860519  -0.000318   0.027131  -0.011734
 186   2  -3.664519  -2.597577   1.854378  -0.000412   0.027131  -0.015177
 187   8  -3.637539  -2.879360   1.713935  -0.000401   0.027131  -0.014783
 188   1  -3.962715  -2.215385  -1.860883  -0.000274   0.027131  -0.010108
 189   2  -3.664328  -2.597451  -1.854737  -0.000377   0.027131  -0.013892
 190   8  -3.637362  -2.879244  -1.714310  -0.000497   0.027131  -0.018303
 191   2  -1.421651  -0.784908   3.402097   0.001260   0.205609   0.006128
 192   2  -2.898005  -1.881457   2.700080   0.000289   0.427416   0.000676
 193   1  -2.433337  -0.674694   3.261833   0.000620   0.430505   0.001440
 194   1  -3.878950  -1.748412   2.370888  -0.000660   0.215570  -0.003059
 195   2  -3.421478  -2.270283  -2.309915  -0.000571   0.205591  -0.002777
 196   2  -2.006826  -1.219570  -3.186856   0.002355   0.427375   0.005510
 197   1  -3.345145  -1.351956  -2.763881  -0.000631   0.430466  -0.001467
 198   1  -1.839778  -0.233864  -3.484686   0.000462   0.215551   0.002142
 199   1  -1.164559   0.441166  -3.448681  -0.000100   0.059657  -0.001684
 200   3  -0.445833   0.119193  -3.369341   0.000060   0.059657   0.001012
 201   5  -1.184750   0.736451  -3.512742  -0.000247   0.059657  -0.004137
 202   1  -1.164762   0.440872   3.448709  -0.000083   0.059659  -0.001387
 203   3  -0.446031   0.118905   3.369386   0.000060   0.059659   0.000999
 204   7  -1.184948   0.736155   3.512794  -0.000183   0.059659  -0.003060
 205   3  -0.151303  -0.281815  -3.526092   0.000088   0.048767   0.001804
 206   1  -1.165542   0.218224  -3.526678   0.000113   0.048767   0.002318
 207   3  -0.136115  -0.248106   3.526703   0.000073   0.048691   0.001489
 208   1  -1.181031   0.184176   3.526116   0.000112   0.048691   0.002307
 209   1  -0.579209   4.010395  -0.920433   0.000543   0.079885   0.006803
 210   4   0.342802   3.865925  -0.880411   0.001971   0.079885   0.024678
 211   5  -0.641070   3.994413  -1.217788   0.000054   0.079885   0.000676
 212   1  -0.579214   4.010305   0.920715   0.000421   0.079884   0.005276
 213   4   0.342796   3.865836   0.880674   0.002206   0.079884   0.027620
 214   7  -0.641090   3.994300   1.218068   0.000053   0.079884   0.000663
 215   4   0.832818   4.071027  -0.156429   0.008859   0.453640   0.019528
 216   1  -0.503686   4.165349   0.152323   0.003187   0.504380   0.006318
 217   5  -1.766232   0.988213  -3.769585  -0.000326   0.069330  -0.004699
 218   5  -2.856818   1.239872  -3.837333  -0.000635   0.154298  -0.004115
 219   5  -3.880444   2.059889  -3.496799  -0.000507   0.154298  -0.003287
 220   5  -4.163788   3.178020  -2.785672  -0.000797   0.154298  -0.005166
 221   5  -3.587380   4.122809  -2.003795  -0.000873   0.154298  -0.005661
 222   5  -2.394260   4.495889  -1.480844  -0.000784   0.154298  -0.005083
 223   5  -1.294897   4.306013  -1.368382  -0.000207   0.069330  -0.002981
 224   1  -2.262802   0.662267  -3.693645  -0.000569   0.151604  -0.003756
 225   1  -3.661794   1.253808  -3.594543  -0.000416   0.151604  -0.002743
 226   1  -4.437897   2.404717  -2.970047  -0.000393   0.151604  -0.002595
 227   1  -4.263871   3.629716  -2.083474  -0.000704   0.151604  -0.004647
 228   1  -3.213092   4.412291  -1.308643  -0.000724   0.151604  -0.004776
 229   1  -1.728618   4.422471  -0.972259  -0.000417   0.151604  -0.002753
 230   1  -4.713208  -2.088552  -1.069548  -0.000426   0.039893  -0.010690
 231   6  -4.959535  -1.953506  -0.962112  -0.000394   0.039893  -0.009883
 232   8  -4.279567  -2.690313  -0.942856  -0.000691   0.039893  -0.017321
 233   1  -4.713258  -2.088610   1.069269  -0.000364   0.039893  -0.009131
 234   6  -4.959580  -1.953558   0.961829  -0.000373   0.039893  -0.009360
 235   8  -4.279611  -2.690364   0.942565  -0.000727   0.039893  -0.018215
 236   6  -5.393998  -1.556243   1.246891  -0.000443   0.069126  -0.006413
 237   6  -5.623804  -0.679615   1.906939  -0.000848   0.153932  -0.005508
 238   6  -5.966111   0.626261   2.021058  -0.000845   0.153932  -0.005492
 239   6  -6.253865   1.724121   1.281186  -0.001004   0.153932  -0.006522
 240   6  -6.365484   2.150091  -0.000063  -0.001098   0.153932  -0.007132
 241   6  -6.253805   1.724190  -1.281330  -0.000945   0.153932  -0.006138
 242   6  -5.966016   0.626371  -2.021248  -0.000896   0.153932  -0.005818
 243   6  -5.623715  -0.679511  -1.907184  -0.000858   0.153932  -0.005573
 244   6  -5.393940  -1.556175  -1.247172  -0.000493   0.069126  -0.007139
 245   1  -5.113121  -1.319669   1.718729  -0.000886   0.151061  -0.005867
 246   1  -5.466205   0.027268   2.332814  -0.000610   0.151061  -0.004036
 247   1  -5.840390   1.454814   1.961188  -0.000687   0.151061  -0.004547
 248   1  -6.077572   2.359796   0.760871  -0.000989   0.151061  -0.006545
 249   1  -6.077536   2.359837  -0.760972  -0.000954   0.151061  -0.006318
 250   1  -5.840298   1.454920  -1.961326  -0.000670   0.151061  -0.004438
 251   1  -5.466096   0.027394  -2.333013  -0.000610   0.151061  -0.004036
 252   1  -5.113040  -1.319576  -1.718984  -0.000923   0.151061  -0.006112
 253   7  -1.294919   4.305895   1.368680  -0.000176   0.069330  -0.002539
 254   7  -2.394284   4.495777   1.481103  -0.000797   0.154299  -0.005165
 255   7  -3.587437   4.122675   2.003966  -0.000892   0.154299  -0.005778
 256   7  -4.163902   3.177837   2.785742  -0.000756   0.154299  -0.004898
 257   7  -3.880616   2.059647   3.496801  -0.000548   0.154299  -0.003550
 258   7  -2.857026   1.239582   3.837330  -0.000682   0.154299  -0.004420
 259   7  -1.766443   0.987903   3.769623  -0.000271   0.069330  -0.003904
 260   1  -1.728619   4.422387   0.972542  -0.000408   0.151606  -0.002690
 261   1  -3.213110   4.412202   1.308851  -0.000721   0.151606  -0.004754
 262   1  -4.263941   3.629586   2.083569  -0.000722   0.151606  -0.004765
 263   1  -4.438036   2.404523   2.970041  -0.000449   0.151606  -0.002959
 264   1  -3.661990   1.253552   3.594493  -0.000466   0.151606  -0.003073
 265   1  -2.263017   0.661972   3.693629  -0.000605   0.151606  -0.003993
 266   8  -3.817275  -3.107846   1.414444  -0.002251   0.170668  -0.013192
 267   1  -4.462079  -2.179620   1.483702  -0.001083   0.240500  -0.004503
 268   8  -3.908354  -3.129616  -1.269835  -0.002367   0.170699  -0.013868
 269   1  -4.378888  -2.159617  -1.616073  -0.001061   0.240543  -0.004411
 270   2  -0.328459  -3.945386   2.064098  -0.000397   0.027795  -0.014284
 271   3   0.110848  -3.902676   2.075936  -0.000346   0.027795  -0.012465
 272   8  -0.523112  -4.141812   1.910953  -0.000573   0.027795  -0.020621
 273   2  -0.328432  -3.945173  -2.064366  -0.000369   0.027795  -0.013281
 274   3   0.110875  -3.902461  -2.076194  -0.000394   0.027795  -0.014159
 275   8  -0.523087  -4.141614  -1.911244  -0.000407   0.027795  -0.014650
 276   3   0.351262  -3.488637  -2.548758  -0.000863   0.187068  -0.004616
 277   3   0.112822  -1.742218  -3.315819   0.000350   0.372653   0.000939
 278   2  -0.366080  -2.887015  -2.823379   0.000555   0.371732   0.001493
 279   2  -0.607916  -1.115737  -3.417027   0.001049   0.178502   0.005878
 280   3   0.016234  -1.035475   3.499697   0.000311   0.187085   0.001663
 281   3   0.262869  -2.841777   2.889568  -0.000750   0.372687  -0.002014
 282   2  -0.512803  -1.813007   3.239692   0.002201   0.371769   0.005921
 283   2  -0.279351  -3.522744   2.483914  -0.000550   0.178518  -0.003083
 284   8  -1.058817  -4.203526   2.026593  -0.000961   0.081744  -0.011754
 285   8  -2.199737  -3.751349   2.222053  -0.001917   0.180855  -0.010599
 286   8  -3.308590  -3.311852   1.873262  -0.000906   0.081744  -0.011079
 287   2  -1.296532  -3.694017   2.350974  -0.001422   0.175579  -0.008099
 288   2  -2.827470  -3.087245   2.246634  -0.001608   0.175579  -0.009160
 289   8  -3.308415  -3.311718  -1.873624  -0.000829   0.081738  -0.010139
 290   8  -2.199609  -3.751159  -2.222347  -0.002062   0.180839  -0.011404
 291   8  -1.058771  -4.203324  -2.026892  -0.000956   0.081738  -0.011701
 292   2  -2.827295  -3.087070  -2.246932  -0.001543   0.175568  -0.008787
 293   2  -1.296444  -3.693796  -2.351228  -0.001408   0.175568  -0.008017
 294   3   0.822298   1.254719  -3.124263   0.000636   0.114535   0.005552
 295   4   1.018160   1.592878  -3.023722   0.001470   0.114535   0.012835
 296   5  -0.009363   1.760980  -3.151209   0.000242   0.114535   0.002117
 297   3   0.822334   1.254807   3.124272   0.000623   0.114534   0.005435
 298   4   1.018194   1.592961   3.023714   0.001505   0.114534   0.013141
 299   7  -0.009347   1.761026   3.151228   0.000191   0.114534   0.001670
 300   4   1.851676   1.381478   3.191984   0.001709   0.136329   0.012535
 301   4   3.288514   0.692147   3.008586   0.003723   0.286627   0.012989
 302   4   4.715462   0.007540   1.859823   0.004190   0.286627   0.014620
 303   4   5.260572  -0.254017  -0.000006   0.004530   0.286627   0.015805
 304   4   4.715434   0.007476  -1.859836   0.003976   0.286627   0.013872
 305   4   3.288469   0.692042  -3.008602   0.003760   0.286627   0.013118
 306   4   1.851628   1.381367  -3.192003   0.001677   0.136329   0.012298
 307   3   2.165435   0.612279   3.284833   0.002035   0.283834   0.007171
 308   3   3.907410  -0.223452   2.658381   0.002225   0.283834   0.007841
 309   3   4.984242  -0.740100   1.015555   0.002481   0.283834   0.008741
 310   3   4.984227  -0.740135  -1.015546   0.002530   0.283834   0.008915
 311   3   3.907371  -0.223545  -2.658374   0.002277   0.283834   0.008022
 312   3   2.165386   0.612164  -3.284830   0.002172   0.283834   0.007651
 313   5  -0.762623   1.510606  -3.539042  -0.001262   0.351392  -0.003590
 314   3   0.239965   0.455655  -3.481248   0.000136   0.497147   0.000274
 315   7  -0.919182   1.291733   3.581690  -0.001270   0.351505  -0.003613
 316   3   0.384915   0.658312   3.441790   0.000252   0.497307   0.000506
 317   3   0.869382  -4.546829  -0.958538  -0.000628   0.032934  -0.019066
 318   8   0.190912  -4.657968  -0.848927  -0.000982   0.032934  -0.029804
 319   9   1.151934  -4.608647  -0.862839  -0.000512   0.032934  -0.015554
 320   3   0.869362  -4.546917   0.958262  -0.000679   0.032934  -0.020626
 321   8   0.190895  -4.658045   0.848627  -0.000897   0.032934  -0.027251
 322   9   1.151916  -4.608726   0.862563  -0.000491   0.032934  -0.014906
 323   8  -0.447704  -4.515731  -1.529274  -0.003420   0.267989  -0.012760
 324   3   0.558194  -4.342016  -1.498650  -0.003043   0.327407  -0.009293
 325   8  -0.360308  -4.649093   1.297303  -0.003856   0.267981  -0.014388
 326   3   0.486616  -4.233131   1.687989  -0.002718   0.327397  -0.008301
 327   9   1.703847  -4.627366  -1.138733  -0.000739   0.067836  -0.010889
 328   9   2.392027  -4.167411  -1.844708  -0.001603   0.149653  -0.010709
 329   9   3.468957  -3.447662  -2.082442  -0.001550   0.149653  -0.010360
 330   9   4.452155  -2.790587  -1.502865  -0.001558   0.149653  -0.010410
 331   9   4.955726  -2.454083  -0.333458  -0.001488   0.149653  -0.009944
 332   9   4.782024  -2.570223   0.966801  -0.001686   0.149653  -0.011266
 333   9   3.999225  -3.093424   1.887573  -0.001613   0.149653  -0.010779
 334   9   2.914569  -3.818334   2.067463  -0.001608   0.149653  -0.010742
 335   9   1.953773  -4.460435   1.435868  -0.001548   0.149653  -0.010345
 336   3   1.608176  -4.284622  -1.613598  -0.001730   0.149653  -0.011563
 337   3   2.687741  -3.563093  -2.323170  -0.001526   0.149653  -0.010199
 338   3   3.906456  -2.748602  -2.120946  -0.001454   0.149653  -0.009718
 339   3   4.785989  -2.160828  -1.086295  -0.001421   0.149653  -0.009498
 340   3   4.981130  -2.030467   0.374693  -0.001406   0.149653  -0.009394
 341   3   4.415290  -2.408683   1.688593  -0.001411   0.149653  -0.009426
 342   3   3.310555  -3.147032   2.339715  -0.001432   0.149653  -0.009567
 343   3   2.100521  -3.955718   2.072498  -0.001513   0.149653  -0.010113
 344   3   1.333166  -4.468532   1.304296  -0.000951   0.082876  -0.011472
 345   5  -0.569121   4.050355  -1.673756   0.000339   0.244509   0.001386
 346   5  -0.356732   3.380615  -2.672864  -0.000339   0.491423  -0.000689
 347   5  -0.331195   2.357850  -3.340081  -0.000295   0.244509  -0.001205
 348   4   0.981180   3.737829  -1.673764   0.009779   0.606220   0.016131
 349   4   1.144125   2.578710  -2.814953   0.007961   0.606220   0.013133
 350   7  -0.331200   2.357854   3.340105  -0.000393   0.244482  -0.001608
 351   7  -0.356775   3.380506   2.672969  -0.000390   0.491368  -0.000794
 352   7  -0.569157   4.050219   1.674009   0.000334   0.244482   0.001368
 353   4   1.144125   2.578706   2.814969   0.007760   0.606156   0.012803
 354   4   0.981160   3.737731   1.673935   0.009863   0.606156   0.016271
 355   8  -4.319572  -3.161438   0.586436  -0.003339   0.327121  -0.010209
 356   8  -4.319545  -3.161406  -0.586754  -0.003186   0.327121  -0.009740
 357   6  -5.209988  -2.039004  -0.000149  -0.004079   0.655970  -0.006218
 358   9   1.279245  -4.858423   0.523480  -0.002127   0.279194  -0.007619
 359   9   1.279256  -4.858375  -0.523777  -0.002105   0.279194  -0.007539
 360   8  -0.092243  -4.941139  -0.000166  -0.008310   0.559249  -0.014859
 =====================================================


   1 warning(s) detected.
     A line exceeding 80 characters begins with "http://cactus.nci.ni".
 There may be a problem in your input file.

              1098736  WORDS OF DYNAMIC MEMORY USED
 EXECUTION OF GAMESS TERMINATED NORMALLY Fri Nov 25 03:54:19 2016
 DDI: 263640 bytes (0.3 MB / 0 MWords) used by master data server.

 ----------------------------------------
 CPU timing information for all processes
 ========================================
 0: 79.560 + 0.84 = 79.644
 ----------------------------------------
 ddikick.x: exited gracefully.
