----- GAMESS execution script -----

          ******************************************************
          *         GAMESS VERSION =  5 DEC 2014 (R1)          *
          *             FROM IOWA STATE UNIVERSITY             *
          * M.W.SCHMIDT, K.K.BALDRIDGE, J.A.BOATZ, S.T.ELBERT, *
          *   M.S.GORDON, J.H.JENSEN, S.KOSEKI, N.MATSUNAGA,   *
          *          K.A.NGUYEN, S.J.SU, T.L.WINDUS,           *
          *       TOGETHER WITH M.DUPUIS, J.A.MONTGOMERY       *
          *         J.COMPUT.CHEM.  14, 1347-1363(1993)        *
          **************** 64 BIT LINUX VERSION ****************

 EXECUTION OF GAMESS BEGUN Fri Nov 25 03:54:22 2016

            ECHO OF THE FIRST FEW INPUT CARDS -
 INPUT CARD>! SELECT RESTRICTED HARTREE-FOCK AS DEFAULT                                     
 INPUT CARD>$contrl scftyp=rhf $end                                                         
 INPUT CARD>                                                                                
 INPUT CARD>! THEORY: HF OR DFT                                                             
 INPUT CARD> $contrl mplevl=0 $end                                                          
 INPUT CARD>                                                                                
 INPUT CARD> $system timlim=10000 mwords=20 $end                                            
 INPUT CARD> $SCF DIRSCF=.TRUE. $end                                                        
 INPUT CARD>                                                                                
 INPUT CARD>                                                                                
 INPUT CARD>! BASIS SETS                                                                    
 INPUT CARD>! 6-311G(d,p)                                                                   
 INPUT CARD> $BASIS GBASIS=N311 NGAUSS=6 NDFUNC=1 NPFUNC=1 $END                             
 INPUT CARD>                                                                                
 INPUT CARD>! One of the following                                                          
 INPUT CARD> $guess guess=HUCKEL $end                                                       
 INPUT CARD>                                                                                
 INPUT CARD> $statpt projct=.FALSE. $end                                                    
 INPUT CARD> $STATPT IFREEZ(1)=1,2,3 $END                                                   
 INPUT CARD>                                                                                
 INPUT CARD>! Optimize the geometry with COSMO effects                                      
 INPUT CARD> $statpt opttol=0.0005 nstep=50 $end                                            
 INPUT CARD> $contrl nzvar=1 $end                                                           
 INPUT CARD> $zmat dlc=.t. auto=.t. $end                                                    
 INPUT CARD> $contrl runtyp=OPTIMIZE maxit=200 $end                                         
 INPUT CARD>                                                                                
 INPUT CARD>! Run COSMO on perfect conductor                                                
 INPUT CARD> $COSGMS PRFCND=.TRUE. $end                                                     
 INPUT CARD>                                                                                
 INPUT CARD>! Specifying RSOLV                                                              
 INPUT CARD> $COSGMS COSRAD = 1.4 $end                                                      
 INPUT CARD>                                                                                
 INPUT CARD>! available memory                                                              
 INPUT CARD> $SYSTEM MWORDS=40 $END                                                         
 INPUT CARD>                                                                                
 INPUT CARD> $DATA                                                                          
 INPUT CARD>http://cactus.nci.nih.gov/chemical/structure/N-Methylpyrrolidine/file?format=sdf
 INPUT CARD>C1                                                                              
 INPUT CARD>C      6.0      2.0448000000   -0.0062000000   -0.2835000000                    
 INPUT CARD>N      7.0      0.7652000000   -0.0639000000    0.4357000000                    
 INPUT CARD>C      6.0     -0.0042000000    1.1794000000    0.2457000000                    
 INPUT CARD>C      6.0     -1.3734000000    0.7838000000   -0.3460000000                    
 INPUT CARD>C      6.0     -1.5181000000   -0.7033000000    0.0716000000                    
 INPUT CARD>C      6.0     -0.0550000000   -1.2013000000   -0.0325000000                    
 INPUT CARD>H      1.0      2.6346000000    0.8305000000    0.0908000000                    
 INPUT CARD>H      1.0      2.5921000000   -0.9357000000   -0.1264000000                    
 INPUT CARD>H      1.0      1.8571000000    0.1293000000   -1.3487000000                    
 INPUT CARD>H      1.0     -0.1449000000    1.6786000000    1.2044000000                    
 INPUT CARD>H      1.0      0.5215000000    1.8390000000   -0.4447000000                    
 INPUT CARD>H      1.0     -2.1704000000    1.3859000000    0.0904000000                    
   40000000 WORDS OF MEMORY AVAILABLE

     BASIS OPTIONS
     -------------
     GBASIS=N311         IGAUSS=       6      POLAR=POPN311 
     NDFUNC=       1     NFFUNC=       0     DIFFSP=       F
     NPFUNC=       1      DIFFS=       F     BASNAM=        


     RUN TITLE
     ---------
 http://cactus.nci.nih.gov/chemical/structure/N-Methylpyrrolidine/file?format=sdf

 THE POINT GROUP OF THE MOLECULE IS C1      
 THE ORDER OF THE PRINCIPAL AXIS IS     0

 ATOM      ATOMIC                      COORDINATES (BOHR)
           CHARGE         X                   Y                   Z
 C           6.0     3.8641116997       -0.0117163011       -0.5357373175
 N           7.0     1.4460183258       -0.1207534906        0.8233536129
 C           6.0    -0.0079368491        2.2287428299        0.4643056752
 C           6.0    -2.5953496715        1.4811672292       -0.6538451918
 C           6.0    -2.8687930220       -1.3290442872        0.1353043807
 C           6.0    -0.1039349293       -2.2701278291       -0.0614160946
 H           1.0     4.9786720873        1.5694174328        0.1715871197
 H           1.0     4.8983587328       -1.7682166067       -0.2388613648
 H           1.0     3.5094101318        0.2443415702       -2.5486734396
 H           1.0    -0.2738212956        3.1720940430        2.2759859796
 H           1.0     0.9854921026        3.4752060914       -0.8403611467
 H           1.0    -4.1014612838        2.6189712464        0.1708312293
 H           1.0    -2.5823105622        1.6635257870       -2.7055206966
 H           1.0    -3.5668578018       -1.4885371605        2.0666043402
 H           1.0    -4.0899339552       -2.3476065945       -1.1738977836
 H           1.0     0.3590479377       -2.7319768604       -2.0146368755
 H           1.0     0.1836813660       -3.9092761508        1.1523549073

          INTERNUCLEAR DISTANCES (ANGS.)




     $CONTRL OPTIONS
     ---------------
 SCFTYP=RHF          RUNTYP=OPTIMIZE     EXETYP=RUN     
 MPLEVL=       0     CITYP =NONE         CCTYP =NONE         VBTYP =NONE    
 DFTTYP=NONE         TDDFT =NONE    
 MULT  =       1     ICHARG=       0     NZVAR =       1     COORD =UNIQUE  
 PP    =NONE         RELWFN=NONE         LOCAL =NONE         NUMGRD=       F
 ISPHER=      -1     NOSYM =       0     MAXIT =     200     UNITS =ANGS    
 PLTORB=       F     MOLPLT=       F     AIMPAC=       F     FRIEND=        
 NPRINT=       7     IREST =       0     GEOM  =INPUT   
 NORMF =       0     NORMP =       0     ITOL  =      20     ICUT  =       9
 INTTYP=BEST         GRDTYP=BEST         QMTTOL= 1.0E-06

     $SYSTEM OPTIONS
     ---------------
  REPLICATED MEMORY=    40000000 WORDS (ON EVERY NODE).
 DISTRIBUTED MEMDDI=           0 MILLION WORDS IN AGGREGATE,
 MEMDDI DISTRIBUTED OVER   1 PROCESSORS IS           0 WORDS/PROCESSOR.
 TOTAL MEMORY REQUESTED ON EACH PROCESSOR=    40000000 WORDS.
 TIMLIM=       10000.00 MINUTES, OR       6.9 DAYS.
 PARALL= F  BALTYP=  DLB     KDIAG=    0  COREFL= F
 MXSEQ2=     300 MXSEQ3=     150  mem10=         0

     $COSGMS OPTIONS
     ---------------
     EPSI  =   INFTY     NSPA  =      92     COSRAD=    1.40
     DISEX =   10.00     OUTCHG=DBLCAV       COSBUG=       F
     COSWRT=       F     DCOSMO=       F

     SYMMETRY COORDINATES WILL NOT BE USED FOR 
     THE COSMO CALCULATION, EVEN IF SPECIFIED:
         -- SWITCHING TO C1 POINT GROUP --


     DEFINITION OF CAVITY
     ---------------------------
     ATOM         COORDINATES           RADIUS 
     1    3.8641   -0.0117   -0.5357    2.0000
     2    1.4460   -0.1208    0.8234    1.8300
     3   -0.0079    2.2287    0.4643    2.0000
     4   -2.5953    1.4812   -0.6538    2.0000
     5   -2.8688   -1.3290    0.1353    2.0000
     6   -0.1039   -2.2701   -0.0614    2.0000
     7    4.9787    1.5694    0.1716    1.3000
     8    4.8984   -1.7682   -0.2389    1.3000
     9    3.5094    0.2443   -2.5487    1.3000
    10   -0.2738    3.1721    2.2760    1.3000
    11    0.9855    3.4752   -0.8404    1.3000
    12   -4.1015    2.6190    0.1708    1.3000
    13   -2.5823    1.6635   -2.7055    1.3000
    14   -3.5669   -1.4885    2.0666    1.3000
    15   -4.0899   -2.3476   -1.1739    1.3000
    16    0.3590   -2.7320   -2.0146    1.3000
    17    0.1837   -3.9093    1.1524    1.3000

          ----------------
          PROPERTIES INPUT
          ----------------

     MOMENTS            FIELD           POTENTIAL          DENSITY
 IEMOM =       1   IEFLD =       0   IEPOT =       0   IEDEN =       0
 WHERE =COMASS     WHERE =NUCLEI     WHERE =NUCLEI     WHERE =NUCLEI  
 OUTPUT=BOTH       OUTPUT=BOTH       OUTPUT=BOTH       OUTPUT=BOTH    
 IEMINT=       0   IEFINT=       0                     IEDINT=       0
                                                       MORB  =       0
          EXTRAPOLATION IN EFFECT
          SOSCF IN EFFECT
 ORBITAL PRINTING OPTION: NPREO=     1   180     2     1

     -------------------------------
     INTEGRAL TRANSFORMATION OPTIONS
     -------------------------------
     NWORD  =            0
     CUTOFF = 1.0E-09     MPTRAN =       0
     DIRTRF =       T     AOINTS =DUP     

          ----------------------
          INTEGRAL INPUT OPTIONS
          ----------------------
 NOPK  =       1 NORDER=       0 SCHWRZ=       T


 -----------------------------------------------
  STATISTICS ON AUTOMATIC COORDINATE GENERATION 
 -----------------------------------------------
  NUMBER OF USER SPECIFIED BONDS                             0
  NUMBER OF BONDS                                           17
  NUMBER OF ANGLES                                          33
  NUMBER OF TORSIONS                                        45
  NUMBER OF EXTRA COORD.                                     0
  NUMBER OF EXTRA COORD. FOR CONSTRAINTS                     0
  NUMBER OF CONSTRAINED COORD.                               0

  TOTAL NUMBER OF PRIMITIVES                                95
 -----------------------------------------------

   --- ENCODED Z MATRIX ---
 COORD  TYPE   I   J   K   L   M   N
    1      1    1   7
    2      1    1   2
    3      1    1   9
    4      1    1   8
    5      1    2   6
    6      1    2   3
    7      1    3   4
    8      1    3  11
    9      1    3  10
   10      1    4  13
   11      1    4  12
   12      1    4   5
   13      1    5  15
   14      1    5  14
   15      1    5   6
   16      1    6  17
   17      1    6  16
   18      2    1   2   3
   19      2    1   2   6
   20      2    2   1   7
   21      2    2   6   5
   22      2    2   3   4
   23      2    2   1   8
   24      2    2   3  10
   25      2    2   3  11
   26      2    2   6  16
   27      2    2   1   9
   28      2    2   6  17
   29      2    3   4   5
   30      2    3   4  12
   31      2    3   4  13
   32      2    3   2   6
   33      2    4   3  11
   34      2    4   5   6
   35      2    4   5  14
   36      2    4   5  15
   37      2    4   3  10
   38      2    5   4  12
   39      2    5   4  13
   40      2    5   6  16
   41      2    5   6  17
   42      2    6   5  14
   43      2    6   5  15
   44      2    7   1   8
   45      2    7   1   9
   46      2    8   1   9
   47      2   10   3  11
   48      2   12   4  13
   49      2   14   5  15
   50      2   16   6  17
   51      3    1   2   6  16
   52      3    1   2   3  10
   53      3    1   2   6  17
   54      3    1   2   6   5
   55      3    1   2   3  11
   56      3    1   2   3   4
   57      3    2   3   4   5
   58      3    2   3   4  12
   59      3    2   3   4  13
   60      3    2   6   5  14
   61      3    2   6   5  15
   62      3    2   6   5   4
   63      3    3   2   1   8
   64      3    3   4   5   6
   65      3    3   2   1   7
   66      3    3   4   5  14
   67      3    3   4   5  15
   68      3    3   2   1   9
   69      3    3   2   6  17
   70      3    3   2   6  16
   71      3    3   2   6   5
   72      3    4   5   6  16
   73      3    4   5   6  17
   74      3    4   3   2   6
   75      3    5   4   3  10
   76      3    5   4   3  11
   77      3    6   5   4  12
   78      3    6   5   4  13
   79      3    6   2   3  11
   80      3    6   2   3  10
   81      3    6   2   1   7
   82      3    6   2   1   8
   83      3    6   2   1   9
   84      3   10   3   4  13
   85      3   10   3   4  12
   86      3   11   3   4  13
   87      3   11   3   4  12
   88      3   12   4   5  15
   89      3   12   4   5  14
   90      3   13   4   5  15
   91      3   13   4   5  14
   92      3   14   5   6  17
   93      3   14   5   6  16
   94      3   15   5   6  17
   95      3   15   5   6  16

          INDEP./SYM. INTERNAL COORDINATES
          --------------------------------
 CRD  1=   0.1952 (  5) -0.2619 (  6) -0.4407 ( 18)  0.4103 ( 19) -0.2209 ( 20)
           0.2296 ( 23) -0.1299 ( 25)  0.1570 ( 51)  0.1913 ( 52)  0.2143 ( 53)
           0.2547 ( 54)  0.1452 ( 55)  0.2148 ( 56)  0.1073 ( 68) -0.1233 ( 70)
           0.1001 ( 83)
 CRD  2=   0.3764 (  2)  0.2081 (  5)  0.1947 (  6)  0.1156 ( 15)  0.1934 ( 18)
           0.2349 ( 19)  0.1926 ( 22)  0.3331 ( 27) -0.2551 ( 32) -0.1628 ( 37)
          -0.1072 ( 41) -0.1022 ( 46) -0.1621 ( 51)  0.1733 ( 52) -0.1356 ( 53)
          -0.2362 ( 54)  0.1832 ( 55)  0.2814 ( 56)
 CRD  3=   0.4543 (  2)  0.1293 (  5)  0.1873 (  7)  0.2809 ( 20)  0.2532 ( 21)
          -0.1102 ( 22)  0.2008 ( 23) -0.1129 ( 26) -0.1015 ( 27)  0.2237 ( 29)
          -0.1554 ( 31) -0.2395 ( 34)  0.1052 ( 37) -0.1324 ( 38) -0.1461 ( 40)
           0.1629 ( 42) -0.1704 ( 44) -0.1185 ( 45)  0.1364 ( 54) -0.1536 ( 56)
           0.1044 ( 57)  0.1134 ( 63)  0.1056 ( 66) -0.1190 ( 74)
 CRD  4=   0.2163 (  2)  0.1452 (  6) -0.1109 (  7) -0.1013 (  8)  0.2507 ( 15)
           0.1248 ( 16)  0.1011 ( 20) -0.2121 ( 21)  0.2258 ( 22)  0.2948 ( 23)
          -0.1048 ( 24) -0.2071 ( 27) -0.2753 ( 29)  0.1039 ( 30) -0.1509 ( 33)
           0.2881 ( 34) -0.1751 ( 35)  0.1778 ( 39)  0.1713 ( 41) -0.1210 ( 44)
          -0.1055 ( 48)  0.1090 ( 51) -0.1041 ( 52)  0.1590 ( 54) -0.1239 ( 56)
          -0.1096 ( 65)  0.1205 ( 70)  0.1705 ( 71)
 CRD  5=  -0.4147 (  5) -0.3948 (  6)  0.1789 (  7) -0.1121 (  8) -0.1047 (  9)
           0.2392 ( 15) -0.1252 ( 16)  0.1861 ( 21)  0.2387 ( 22) -0.1432 ( 24)
          -0.2183 ( 25) -0.1300 ( 26) -0.2142 ( 28) -0.1822 ( 29)  0.1305 ( 30)
          -0.1162 ( 32) -0.1395 ( 34)  0.1334 ( 43)  0.1019 ( 47)  0.1056 ( 64)
           0.1036 ( 72)  0.1004 ( 93)
 CRD  6=  -0.2239 (  5)  0.1743 (  6)  0.3957 (  7) -0.3129 ( 15) -0.3103 ( 20)
          -0.1181 ( 22)  0.2444 ( 23) -0.1201 ( 28) -0.1563 ( 29)  0.1606 ( 30)
           0.1270 ( 34)  0.1297 ( 37) -0.1199 ( 40) -0.1769 ( 43) -0.1243 ( 46)
           0.1293 ( 61)  0.1228 ( 68) -0.1160 ( 77) -0.1043 ( 79)  0.1470 ( 81)
           0.1340 ( 82)  0.1838 ( 83)
 CRD  7=  -0.1020 (  2) -0.1556 (  3)  0.1075 (  4)  0.1127 (  6) -0.3439 ( 12)
          -0.1066 ( 15) -0.1016 ( 16)  0.1001 ( 20)  0.3191 ( 23) -0.5173 ( 27)
           0.1445 ( 31) -0.1466 ( 32) -0.1714 ( 36) -0.1181 ( 37) -0.1651 ( 39)
          -0.1487 ( 44)  0.1654 ( 45)  0.1244 ( 62)  0.1402 ( 63)  0.1185 ( 68)
           0.1156 ( 72)  0.1173 ( 73)  0.1114 ( 74)
 CRD  8=   0.1301 (  1)  0.2596 (  5)  0.4305 (  7)  0.1014 (  8)  0.1062 ( 10)
           0.1338 ( 11)  0.3725 ( 12)  0.3734 ( 20) -0.1936 ( 23) -0.2311 ( 27)
          -0.1236 ( 29)  0.1307 ( 31)  0.1537 ( 33) -0.1026 ( 42)  0.1704 ( 46)
          -0.1040 ( 48)  0.1013 ( 52) -0.1020 ( 79)
 CRD  9=  -0.1135 (  4) -0.2270 (  6) -0.1321 (  8) -0.3432 ( 12) -0.1454 ( 13)
          -0.3220 ( 15)  0.3630 ( 20) -0.3439 ( 23)  0.1955 ( 26) -0.1068 ( 29)
           0.1305 ( 34) -0.1309 ( 35) -0.1720 ( 40) -0.1322 ( 43) -0.1511 ( 45)
           0.1120 ( 46)  0.1010 ( 49)  0.1162 ( 60)  0.1040 ( 75)
 CRD 10=  -0.1086 (  5) -0.2966 (  7)  0.4165 ( 12) -0.3457 ( 15) -0.1047 ( 16)
           0.1334 ( 21)  0.1358 ( 22) -0.1119 ( 29) -0.1076 ( 32) -0.1056 ( 33)
           0.1760 ( 35)  0.1327 ( 36) -0.1264 ( 37)  0.1922 ( 38)  0.1213 ( 39)
          -0.1409 ( 41) -0.1130 ( 42)  0.1035 ( 50) -0.1043 ( 51)  0.1180 ( 58)
           0.1106 ( 61) -0.1035 ( 84)  0.1678 ( 88) -0.1764 ( 91) -0.1068 ( 93)
           0.1022 ( 94)
 CRD 11=   0.1501 (  5) -0.1814 (  6)  0.1023 (  7) -0.1170 ( 14) -0.2264 ( 15)
          -0.3098 ( 24)  0.1236 ( 25)  0.1601 ( 28)  0.1401 ( 30)  0.2211 ( 37)
          -0.1001 ( 38) -0.1702 ( 41) -0.1097 ( 42)  0.1646 ( 52)  0.1151 ( 53)
          -0.1281 ( 57) -0.1849 ( 58) -0.1530 ( 59) -0.1224 ( 60) -0.1247 ( 62)
          -0.1863 ( 63)  0.1581 ( 64) -0.1831 ( 65)  0.1198 ( 67) -0.1465 ( 68)
           0.1470 ( 69)  0.1409 ( 80) -0.2101 ( 81) -0.2133 ( 82) -0.1735 ( 83)
 CRD 12=   0.2196 (  2)  0.1168 (  3) -0.1092 ( 13) -0.1397 ( 15)  0.1196 ( 24)
          -0.1894 ( 25) -0.1361 ( 26)  0.2521 ( 27)  0.2131 ( 28)  0.1707 ( 31)
           0.2004 ( 33)  0.1037 ( 34)  0.1501 ( 35) -0.1873 ( 36)  0.1626 ( 38)
          -0.1866 ( 39)  0.1283 ( 40) -0.1323 ( 41) -0.1655 ( 42) -0.1403 ( 45)
          -0.1394 ( 46)  0.1048 ( 51) -0.1016 ( 52)  0.1600 ( 53) -0.1726 ( 55)
           0.1314 ( 59) -0.1427 ( 60) -0.1323 ( 61)  0.1555 ( 72)  0.1549 ( 73)
          -0.1303 ( 75) -0.1817 ( 76)
 CRD 13=   0.1063 (  5)  0.1440 (  9) -0.1358 ( 16)  0.1616 ( 17)  0.1233 ( 23)
          -0.1491 ( 25)  0.2036 ( 26) -0.1132 ( 28)  0.1894 ( 33) -0.1693 ( 40)
           0.1061 ( 41)  0.1032 ( 42) -0.2122 ( 51) -0.1543 ( 53) -0.1008 ( 54)
          -0.1817 ( 55)  0.1143 ( 60)  0.1119 ( 61) -0.2669 ( 63) -0.1102 ( 64)
          -0.2589 ( 65) -0.2673 ( 68) -0.1521 ( 70) -0.1520 ( 79) -0.2425 ( 81)
          -0.2505 ( 82) -0.2510 ( 83)
 CRD 14=  -0.1209 (  6)  0.1138 ( 10) -0.2697 ( 11)  0.2999 ( 13) -0.2410 ( 14)
          -0.1545 ( 16)  0.1042 ( 23) -0.2110 ( 30)  0.1289 ( 31)  0.1151 ( 33)
           0.1020 ( 36)  0.1192 ( 40) -0.1328 ( 42)  0.1774 ( 43)  0.1230 ( 51)
          -0.1053 ( 52)  0.1126 ( 53) -0.1192 ( 55) -0.1005 ( 58)  0.1132 ( 60)
           0.1161 ( 61) -0.1952 ( 66) -0.2048 ( 67)  0.1641 ( 69)  0.1745 ( 70)
          -0.1395 ( 72) -0.2033 ( 73)  0.1152 ( 75)  0.1141 ( 76)  0.2445 ( 77)
           0.2047 ( 78) -0.1520 ( 79) -0.1380 ( 80)
 CRD 15=   0.1713 (  8) -0.2335 (  9) -0.1481 ( 10) -0.1329 ( 13)  0.2387 ( 14)
          -0.1932 ( 16)  0.2426 ( 17)  0.1150 ( 28)  0.1546 ( 30) -0.1640 ( 31)
           0.2097 ( 33)  0.1122 ( 36) -0.1637 ( 37) -0.1442 ( 38)  0.1202 ( 39)
           0.2630 ( 40) -0.2347 ( 41)  0.1556 ( 42) -0.1414 ( 43)  0.1426 ( 51)
           0.1391 ( 53) -0.1037 ( 54) -0.1109 ( 55) -0.1108 ( 58)  0.1187 ( 66)
           0.1140 ( 67)  0.1699 ( 69)  0.1734 ( 70) -0.1368 ( 77) -0.1430 ( 78)
          -0.1393 ( 79) -0.1232 ( 80)
 CRD 16=  -0.4717 ( 10)  0.3164 ( 11)  0.2007 ( 13) -0.3726 ( 14) -0.1201 ( 25)
          -0.1806 ( 35)  0.1609 ( 36) -0.1110 ( 37)  0.1460 ( 38) -0.1632 ( 39)
          -0.1019 ( 43) -0.1310 ( 57) -0.1104 ( 62)  0.1412 ( 64)  0.1200 ( 66)
           0.1630 ( 67) -0.1673 ( 72) -0.1733 ( 73) -0.1960 ( 75) -0.2102 ( 76)
 CRD 17=   0.3423 (  8) -0.3124 (  9)  0.2429 ( 16) -0.3639 ( 17)  0.1815 ( 33)
          -0.1172 ( 36) -0.2118 ( 37) -0.1367 ( 38)  0.1071 ( 39) -0.1639 ( 40)
           0.1396 ( 41)  0.1025 ( 43) -0.1240 ( 51) -0.1870 ( 52) -0.1167 ( 53)
          -0.1610 ( 55) -0.1469 ( 58) -0.1312 ( 59) -0.1022 ( 60) -0.1229 ( 61)
          -0.1457 ( 69) -0.1530 ( 70) -0.1983 ( 79) -0.2243 ( 80)
 CRD 18=  -0.4727 (  1) -0.1267 (  2) -0.5097 (  3) -0.4700 (  4)  0.2043 ( 20)
           0.1964 ( 23)  0.1785 ( 27) -0.2108 ( 44) -0.1862 ( 45) -0.1822 ( 46)
 CRD 19=   0.5243 (  1) -0.4989 (  4)  0.3466 ( 45) -0.3657 ( 46)  0.1518 ( 63)
           0.1309 ( 65) -0.2495 ( 68)  0.1298 ( 81)  0.1507 ( 82) -0.2507 ( 83)
 CRD 20=  -0.2704 (  1)  0.5914 (  3) -0.3171 (  4) -0.4125 ( 44)  0.2220 ( 45)
           0.1900 ( 46) -0.2266 ( 63)  0.2288 ( 65)  0.2391 ( 81) -0.2163 ( 82)
 CRD 21=  -0.4145 (  8) -0.4289 (  9)  0.4804 ( 16)  0.4462 ( 17) -0.1555 ( 47)
           0.1773 ( 50)
 CRD 22=   0.4398 (  8)  0.4392 (  9) -0.1232 ( 10) -0.1369 ( 11) -0.1271 ( 13)
          -0.1559 ( 14)  0.3840 ( 16)  0.3923 ( 17)  0.1881 ( 47)  0.1716 ( 50)
          -0.1017 ( 86)
 CRD 23=  -0.4565 ( 10) -0.4443 ( 11)  0.4377 ( 13)  0.4440 ( 14) -0.1587 ( 48)
           0.1582 ( 49) -0.1357 ( 89)  0.1304 ( 90)
 CRD 24=   0.1089 (  8)  0.1246 (  9)  0.3850 ( 10)  0.4471 ( 11) -0.1052 ( 12)
           0.4815 ( 13)  0.3568 ( 14)  0.1118 ( 16)  0.1040 ( 17)  0.1515 ( 48)
           0.1567 ( 49)  0.1196 ( 88) -0.1261 ( 91)  0.1011 ( 93)
 CRD 25=  -0.2427 (  8)  0.2171 (  9)  0.1102 ( 13) -0.1236 ( 14) -0.2082 ( 16)
           0.1538 ( 17)  0.1629 ( 30) -0.1690 ( 31)  0.1260 ( 35) -0.1182 ( 36)
          -0.1351 ( 38)  0.1444 ( 39) -0.1592 ( 42)  0.1502 ( 43) -0.1212 ( 66)
          -0.1181 ( 67) -0.1002 ( 75) -0.1210 ( 77) -0.1240 ( 78) -0.1897 ( 84)
          -0.1819 ( 85) -0.1775 ( 86) -0.1697 ( 87) -0.2449 ( 88) -0.2481 ( 89)
          -0.2479 ( 90) -0.2511 ( 91) -0.1383 ( 92) -0.1621 ( 93) -0.1294 ( 94)
          -0.1532 ( 95)
 CRD 26=   0.1189 (  2)  0.2457 (  8) -0.2060 (  9) -0.1608 ( 10)  0.1946 ( 11)
          -0.1702 ( 13)  0.1948 ( 14) -0.2220 ( 16)  0.2726 ( 17) -0.1207 ( 24)
           0.1212 ( 25)  0.1172 ( 26) -0.1341 ( 28)  0.1059 ( 35) -0.1226 ( 36)
          -0.1015 ( 60) -0.1159 ( 61) -0.1121 ( 72) -0.1430 ( 73)  0.1121 ( 75)
           0.1977 ( 84)  0.1872 ( 85)  0.1810 ( 86)  0.1705 ( 87) -0.2339 ( 92)
          -0.2031 ( 93) -0.2483 ( 94) -0.2175 ( 95)
 CRD 27=  -0.2223 ( 10)  0.2289 ( 11)  0.2335 ( 13) -0.2257 ( 14)  0.1214 ( 58)
           0.1131 ( 59)  0.1077 ( 60)  0.1168 ( 61) -0.1123 ( 64) -0.1518 ( 66)
          -0.1795 ( 67)  0.1394 ( 72)  0.1568 ( 73)  0.1480 ( 75)  0.1608 ( 76)
          -0.1743 ( 77) -0.1502 ( 78)  0.1665 ( 84)  0.1748 ( 85)  0.1793 ( 86)
           0.1876 ( 87) -0.2415 ( 88) -0.2138 ( 89) -0.2174 ( 90) -0.1897 ( 91)
           0.1705 ( 92)  0.1531 ( 93)  0.1797 ( 94)  0.1623 ( 95)
 CRD 28=   0.2604 (  1)  0.1852 (  2)  0.2683 (  4) -0.1482 (  5) -0.1723 (  6)
          -0.1640 (  7) -0.1537 ( 15)  0.1554 ( 16)  0.1769 ( 20) -0.1247 ( 21)
          -0.1062 ( 22)  0.1869 ( 23)  0.1700 ( 32)  0.1057 ( 33)  0.1695 ( 37)
           0.1320 ( 40)  0.1623 ( 41) -0.2612 ( 44)  0.1971 ( 52) -0.2016 ( 53)
          -0.1048 ( 54)  0.1052 ( 56) -0.1032 ( 58) -0.1168 ( 63) -0.1816 ( 69)
          -0.1016 ( 76)  0.1808 ( 80)  0.1276 ( 81) -0.1448 ( 87) -0.1197 ( 91)
           0.1013 ( 93)
 CRD 29=   0.2567 (  3)  0.2466 (  8) -0.2984 (  9)  0.2449 ( 10) -0.1925 ( 11)
           0.2126 ( 13) -0.2483 ( 14) -0.2786 ( 16)  0.3049 ( 17)  0.1724 ( 27)
          -0.1245 ( 33) -0.1559 ( 45) -0.1388 ( 46)  0.1026 ( 54)  0.1056 ( 63)
          -0.1463 ( 69) -0.1424 ( 70)  0.1124 ( 73) -0.1086 ( 75)  0.1880 ( 79)
           0.1046 ( 80) -0.1232 ( 81) -0.1049 ( 84)  0.1000 ( 92)
 CRD 30=  -0.2397 (  1)  0.2201 (  4)  0.3778 (  5) -0.3722 (  6) -0.1341 (  9)
           0.1526 ( 16)  0.1636 ( 18) -0.1765 ( 19) -0.1109 ( 20)  0.1095 ( 23)
          -0.1121 ( 25)  0.1200 ( 26)  0.1045 ( 28)  0.1501 ( 45) -0.1701 ( 46)
           0.1795 ( 47) -0.1689 ( 50) -0.1472 ( 52) -0.1036 ( 53) -0.1132 ( 56)
           0.1867 ( 63)  0.1690 ( 65) -0.1345 ( 72) -0.1030 ( 76)  0.1454 ( 81)
           0.1631 ( 82)  0.1017 ( 84) -0.1059 ( 87) -0.1590 ( 93) -0.1112 ( 95)
 CRD 31=   0.1693 (  1) -0.4860 (  2)  0.2352 (  3)  0.1857 (  4) -0.1522 (  8)
           0.1092 (  9) -0.1387 ( 10)  0.1897 ( 11)  0.1421 ( 14) -0.1198 ( 17)
           0.2189 ( 20)  0.2216 ( 23)  0.1141 ( 25)  0.2110 ( 27) -0.1006 ( 37)
          -0.1888 ( 44) -0.2255 ( 45) -0.2372 ( 46) -0.1019 ( 52)  0.1143 ( 78)
           0.1458 ( 91)
 CRD 32=  -0.1153 (  1)  0.2635 (  5) -0.1973 (  6)  0.2506 (  7)  0.1526 ( 11)
          -0.2574 ( 13) -0.1642 ( 15)  0.1013 ( 25) -0.1200 ( 26) -0.1391 ( 28)
          -0.1582 ( 30) -0.1428 ( 35)  0.1316 ( 38)  0.1793 ( 39)  0.1005 ( 41)
           0.1623 ( 49) -0.1947 ( 59)  0.2003 ( 60) -0.1130 ( 66) -0.1000 ( 75)
           0.1159 ( 77) -0.2788 ( 84) -0.1128 ( 86)  0.1544 ( 87) -0.1182 ( 91)
           0.1139 ( 92)  0.2775 ( 93) -0.1131 ( 94)
 CRD 33=   0.1220 (  2) -0.1288 (  4)  0.1008 (  5) -0.1076 (  6) -0.1539 (  8)
          -0.1657 ( 15)  0.1756 ( 25) -0.1075 ( 26) -0.1511 ( 28)  0.1564 ( 30)
           0.1590 ( 31) -0.1797 ( 33)  0.1318 ( 36) -0.1762 ( 37) -0.1882 ( 38)
          -0.1254 ( 39)  0.1560 ( 40)  0.1905 ( 41)  0.1393 ( 47)  0.1586 ( 51)
          -0.1777 ( 52) -0.1407 ( 53)  0.1578 ( 55) -0.1526 ( 58) -0.1142 ( 65)
          -0.1863 ( 69)  0.1129 ( 70) -0.1114 ( 77)  0.1309 ( 78)  0.1469 ( 79)
          -0.1887 ( 80) -0.1074 ( 81) -0.1223 ( 85)  0.1308 ( 86) -0.1668 ( 89)
           0.1939 ( 90) -0.1276 ( 92)  0.1321 ( 95)
 CRD 34=  -0.2042 (  2)  0.1976 (  3)  0.1113 (  6)  0.1312 (  7) -0.1431 ( 11)
          -0.2624 ( 12) -0.1016 ( 13)  0.2272 ( 15)  0.1666 ( 16) -0.1380 ( 31)
          -0.1207 ( 32)  0.1470 ( 35)  0.1826 ( 36) -0.2194 ( 42) -0.1657 ( 43)
          -0.1587 ( 45)  0.1637 ( 48) -0.1001 ( 50)  0.1199 ( 51)  0.1752 ( 61)
          -0.1646 ( 66)  0.1322 ( 67)  0.1208 ( 70) -0.1278 ( 78) -0.1760 ( 81)
           0.2092 ( 88) -0.3150 ( 91) -0.1518 ( 93)  0.1443 ( 94)
 CRD 35=   0.2082 (  1) -0.1691 (  2) -0.2618 (  3)  0.1454 (  4) -0.1992 (  6)
           0.1963 (  7)  0.2043 ( 10) -0.1471 ( 12) -0.1622 ( 14)  0.2058 ( 24)
           0.1173 ( 27) -0.1411 ( 37)  0.1213 ( 38) -0.2484 ( 44) -0.1096 ( 48)
           0.2144 ( 58) -0.1160 ( 61) -0.2376 ( 63)  0.1405 ( 67)  0.1419 ( 70)
          -0.1354 ( 80)  0.1564 ( 81) -0.1532 ( 82) -0.1157 ( 84)  0.2302 ( 87)
          -0.1172 ( 95)
 CRD 36=  -0.3064 (  2)  0.1057 (  4)  0.2651 (  5)  0.2396 (  6) -0.1453 (  8)
          -0.1212 ( 11)  0.2047 ( 12) -0.1656 ( 14) -0.1019 ( 15) -0.1316 ( 16)
           0.1316 ( 19) -0.1204 ( 24) -0.1163 ( 25) -0.2412 ( 26) -0.1031 ( 32)
           0.1155 ( 33)  0.1020 ( 40)  0.1013 ( 41) -0.1026 ( 46)  0.1660 ( 49)
          -0.1860 ( 61)  0.1105 ( 67)  0.1434 ( 72)  0.1379 ( 75) -0.1629 ( 79)
          -0.1327 ( 80)  0.2157 ( 84)  0.1482 ( 85)  0.1950 ( 93) -0.1992 ( 94)
 CRD 37=  -0.3126 (  1)  0.3124 (  4) -0.1147 (  5)  0.1789 (  9)  0.1147 ( 17)
          -0.1579 ( 18)  0.1522 ( 19)  0.1651 ( 20) -0.1765 ( 23)  0.1211 ( 25)
           0.1293 ( 35)  0.2359 ( 45) -0.2186 ( 46) -0.1428 ( 47)  0.1090 ( 54)
          -0.1173 ( 60)  0.1133 ( 63)  0.1213 ( 65) -0.2655 ( 68)  0.1787 ( 76)
           0.1148 ( 81)  0.1068 ( 82) -0.2721 ( 83) -0.1013 ( 85)  0.1278 ( 86)
           0.1089 ( 88)  0.1272 ( 90)
 CRD 38=   0.1292 (  3) -0.1785 (  4)  0.1973 (  9)  0.1297 ( 11)  0.1820 ( 13)
          -0.1295 ( 14) -0.2029 ( 15)  0.2055 ( 17)  0.1096 ( 23)  0.1257 ( 33)
          -0.1068 ( 36)  0.1437 ( 39) -0.1370 ( 45) -0.1007 ( 48) -0.2375 ( 50)
          -0.2399 ( 53) -0.1321 ( 55) -0.1517 ( 59) -0.1021 ( 61)  0.1186 ( 66)
           0.1552 ( 68) -0.1741 ( 69)  0.1954 ( 73)  0.1246 ( 76) -0.1799 ( 79)
           0.1344 ( 83)  0.1027 ( 85)  0.1389 ( 87)  0.1384 ( 89)  0.1513 ( 91)
          -0.1412 ( 93) -0.1600 ( 95)
 CRD 39=  -0.1577 (  1)  0.1885 (  3) -0.2097 (  7)  0.1732 (  8)  0.2217 ( 10)
          -0.1240 ( 15)  0.1684 ( 16) -0.1993 ( 17)  0.1064 ( 20) -0.1407 ( 28)
           0.1321 ( 30)  0.1509 ( 40)  0.1216 ( 42)  0.1217 ( 44) -0.1288 ( 46)
          -0.1119 ( 47) -0.1588 ( 48)  0.2110 ( 52) -0.1191 ( 54)  0.1562 ( 58)
          -0.1394 ( 65) -0.1197 ( 68)  0.1096 ( 69)  0.1576 ( 70) -0.1720 ( 73)
          -0.1416 ( 75) -0.2274 ( 77)  0.1159 ( 80) -0.1180 ( 81)  0.1076 ( 82)
           0.1109 ( 87) -0.2020 ( 88) -0.1076 ( 89) -0.1748 ( 92) -0.1561 ( 94)
 CRD 40=  -0.1114 (  1)  0.1285 (  2)  0.1657 (  3) -0.1471 (  5) -0.1010 (  6)
           0.2123 (  7) -0.1868 (  8) -0.1146 ( 11) -0.1579 ( 14)  0.1885 ( 15)
           0.1367 ( 25) -0.1419 ( 27) -0.1207 ( 31)  0.1763 ( 32) -0.1563 ( 37)
          -0.1284 ( 41)  0.1403 ( 44)  0.1103 ( 47)  0.1440 ( 49) -0.1907 ( 51)
          -0.1639 ( 54)  0.1962 ( 55)  0.2069 ( 56) -0.1077 ( 61) -0.2132 ( 65)
           0.1462 ( 67) -0.1143 ( 68) -0.1430 ( 70) -0.1161 ( 71)  0.1323 ( 74)
          -0.1067 ( 78)  0.1217 ( 79) -0.1082 ( 80)  0.2043 ( 82)  0.1085 ( 84)
           0.1094 ( 85) -0.1318 ( 94) -0.1510 ( 95)
 CRD 41=  -0.1844 (  5)  0.2189 (  6)  0.2222 (  7) -0.1512 (  9) -0.2587 ( 15)
           0.1637 ( 16) -0.1073 ( 18)  0.1164 ( 19)  0.1175 ( 21) -0.1309 ( 22)
          -0.1071 ( 30)  0.1115 ( 38)  0.1177 ( 43)  0.1899 ( 47) -0.1157 ( 49)
          -0.1723 ( 50)  0.2127 ( 51)  0.1908 ( 55) -0.1340 ( 67) -0.1881 ( 68)
           0.1475 ( 70) -0.1002 ( 72) -0.1546 ( 76)  0.1200 ( 79) -0.1004 ( 80)
          -0.1930 ( 83)  0.1211 ( 85) -0.1418 ( 86)  0.1802 ( 89) -0.2203 ( 90)
          -0.1004 ( 93)
 CRD 42=  -0.1173 (  5) -0.1199 (  6)  0.1355 (  8) -0.1357 ( 11)  0.3599 ( 12)
          -0.1209 ( 13)  0.1188 ( 16)  0.1382 ( 21)  0.1446 ( 22) -0.1283 ( 29)
          -0.1243 ( 35) -0.1249 ( 39)  0.1170 ( 43) -0.1440 ( 47)  0.1799 ( 48)
           0.1235 ( 49) -0.1487 ( 50) -0.1118 ( 58)  0.2061 ( 59)  0.1685 ( 60)
           0.1031 ( 70) -0.1517 ( 72) -0.1694 ( 75) -0.2918 ( 85)  0.2709 ( 86)
           0.2565 ( 92) -0.2415 ( 95)
 CRD 43=   0.1639 (  5) -0.1590 (  6)  0.1818 (  7) -0.1664 ( 11)  0.2002 ( 13)
          -0.1520 ( 15) -0.1151 ( 21) -0.1894 ( 29)  0.1958 ( 34)  0.1975 ( 48)
          -0.2006 ( 49)  0.1032 ( 50)  0.1067 ( 59) -0.1608 ( 60)  0.2231 ( 66)
           0.1746 ( 72) -0.1091 ( 75) -0.2307 ( 78) -0.1395 ( 85)  0.2051 ( 86)
           0.3066 ( 89) -0.2754 ( 90) -0.2339 ( 92)  0.1795 ( 95)
 CRD 44=   0.1094 (  9)  0.2034 ( 10) -0.1314 ( 11) -0.1234 ( 13)  0.2124 ( 14)
           0.1377 ( 17)  0.1340 ( 30) -0.1090 ( 31) -0.1473 ( 35)  0.1421 ( 36)
          -0.1114 ( 37)  0.1390 ( 38) -0.1516 ( 39) -0.1315 ( 40) -0.1203 ( 42)
           0.1371 ( 43)  0.1161 ( 56) -0.2095 ( 57) -0.2279 ( 62)  0.2594 ( 64)
           0.1050 ( 71) -0.1232 ( 72) -0.1221 ( 75)  0.1325 ( 85)  0.1210 ( 86)
           0.1777 ( 87) -0.2527 ( 88) -0.1557 ( 89) -0.1696 ( 90)  0.1318 ( 92)
           0.2130 ( 94)  0.1413 ( 95)
 CRD 45=  -0.1018 (  3) -0.1190 (  8)  0.1669 (  9)  0.1297 ( 16) -0.1345 ( 17)
          -0.1273 ( 18) -0.1104 ( 19) -0.1541 ( 24)  0.1122 ( 25)  0.1256 ( 26)
           0.1080 ( 27) -0.1402 ( 28)  0.1091 ( 33)  0.1968 ( 51) -0.1593 ( 52)
           0.1917 ( 53) -0.2313 ( 55) -0.1845 ( 57) -0.1274 ( 59)  0.1499 ( 60)
           0.1373 ( 62)  0.2152 ( 65)  0.1351 ( 68) -0.2561 ( 71)  0.2721 ( 74)
           0.1207 ( 80) -0.2163 ( 82) -0.1414 ( 83)  0.1025 ( 85)  0.1281 ( 87)
          -0.1078 ( 94)

 THE DETERMINANT OF THE G MATRIX IS 10**(   -11)


                     --------------------
                     INTERNAL COORDINATES
                     --------------------

                 - - ATOMS - -         COORDINATE      COORDINATE
 NO.   TYPE    I  J  K  L  M  N        (BOHR,RAD)       (ANG,DEG)
 ----------------------------------------------------------------
   1 STRETCH   1  7                     2.0597419       1.0899685
   2 STRETCH   1  2                     2.7760030       1.4689976
   3 STRETCH   1  9                     2.0599249       1.0900654
   4 STRETCH   1  8                     2.0598776       1.0900403
   5 STRETCH   2  6                     2.7937399       1.4783836
   6 STRETCH   2  3                     2.7862222       1.4744054
   7 STRETCH   3  4                     2.9161337       1.5431516
   8 STRETCH   3 11                     2.0597882       1.0899930
   9 STRETCH   3 10                     2.0598038       1.0900013
  10 STRETCH   4 13                     2.0598051       1.0900020
  11 STRETCH   4 12                     2.0598693       1.0900359
  12 STRETCH   4  5                     2.9316918       1.5513846
  13 STRETCH   5 15                     2.0597730       1.0899850
  14 STRETCH   5 14                     2.0597699       1.0899834
  15 STRETCH   5  6                     2.9272474       1.5490327
  16 STRETCH   6 17                     2.0597986       1.0899986
  17 STRETCH   6 16                     2.0597886       1.0899933
  18 BEND      1  2  3                  1.9372904     110.9985659
  19 BEND      1  2  6                  1.9373864     111.0040617
  20 BEND      2  1  7                  1.9106787     109.4738282
  21 BEND      2  6  5                  1.8290520     104.7969598
  22 BEND      2  3  4                  1.8715598     107.2324764
  23 BEND      2  1  8                  1.9106008     109.4693626
  24 BEND      2  3 10                  1.9179393     109.8898267
  25 BEND      2  3 11                  1.9179593     109.8909757
  26 BEND      2  6 16                  1.9263564     110.3720924
  27 BEND      2  1  9                  1.9106077     109.4697570
  28 BEND      2  6 17                  1.9263933     110.3742031
  29 BEND      3  4  5                  1.7980271     103.0193652
  30 BEND      3  4 12                  1.9322492     110.7097226
  31 BEND      3  4 13                  1.9322241     110.7082871
  32 BEND      3  2  6                  1.8948769     108.5684474
  33 BEND      4  3 11                  1.9179207     109.8887620
  34 BEND      4  5  6                  1.7741779     101.6529074
  35 BEND      4  5 14                  1.9371611     110.9911576
  36 BEND      4  5 15                  1.9371531     110.9906942
  37 BEND      4  3 10                  1.9178442     109.8843795
  38 BEND      5  4 12                  1.9321221     110.7024423
  39 BEND      5  4 13                  1.9321816     110.7058526
  40 BEND      5  6 16                  1.9263552     110.3720207
  41 BEND      5  6 17                  1.9263642     110.3725372
  42 BEND      6  5 14                  1.9371585     110.9910062
  43 BEND      6  5 15                  1.9372116     110.9940482
  44 BEND      7  1  8                  1.9107011     109.4751090
  45 BEND      7  1  9                  1.9106255     109.4707759
  46 BEND      8  1  9                  1.9105856     109.4684908
  47 BEND     10  3 11                  1.9200665     110.0117082
  48 BEND     12  4 13                  1.9331756     110.7628046
  49 BEND     14  5 15                  1.9355842     110.9008059
  50 BEND     16  6 17                  1.9272605     110.4238947
  51 TORSION   1  2  6 16              -0.4806122     -27.5370517
  52 TORSION   1  2  3 10              -2.0479119    -117.3367061
  53 TORSION   1  2  6 17               1.6546910      94.8068123
  54 TORSION   1  2  6  5              -2.5545386    -146.3642809
  55 TORSION   1  2  3 11               0.0672928       3.8555923
  56 TORSION   1  2  3  4               2.1513347     123.2623984
  57 TORSION   2  3  4  5               0.3889081      22.2827937
  58 TORSION   2  3  4 12               2.4550368     140.6632489
  59 TORSION   2  3  4 13              -1.6772783     -96.1009696
  60 TORSION   2  6  5 14              -1.4141344     -81.0239336
  61 TORSION   2  6  5 15               2.7080695     155.1609557
  62 TORSION   2  6  5  4               0.6469606      37.0681121
  63 TORSION   3  2  1  8              -3.1415780    -179.9991579
  64 TORSION   3  4  5  6              -0.6222373     -35.6515683
  65 TORSION   3  2  1  7               1.0471211      59.9956207
  66 TORSION   3  4  5 14               1.4388559      82.4403686
  67 TORSION   3  4  5 15              -2.6833883    -153.7468228
  68 TORSION   3  2  1  9              -1.0472767     -60.0045351
  69 TORSION   3  2  6 17              -2.4944858    -142.9235066
  70 TORSION   3  2  6 16               1.6533963      94.7326294
  71 TORSION   3  2  6  5              -0.4205301     -24.0945998
  72 TORSION   4  5  6 16              -1.4269666     -81.7591655
  73 TORSION   4  5  6 17               2.7209359     155.8981429
  74 TORSION   4  3  2  6               0.0172679       0.9893762
  75 TORSION   5  4  3 10              -1.6950917     -97.1215985
  76 TORSION   5  4  3 11               2.4729748     141.6910207
  77 TORSION   6  5  4 12              -2.6884549    -154.0371166
  78 TORSION   6  5  4 13               1.4439789      82.7338981
  79 TORSION   6  2  3 11              -2.0667740    -118.4174299
  80 TORSION   6  2  3 10               2.1012066     120.3902718
  81 TORSION   6  2  1  7              -3.1268972    -179.1580132
  82 TORSION   6  2  1  8              -1.0324110     -59.1527918
  83 TORSION   6  2  1  9               1.0618903      60.8418310
  84 TORSION  10  3  4 13               2.5219072     144.4946382
  85 TORSION  10  3  4 12               0.3710370      21.2588566
  86 TORSION  11  3  4 13               0.4067884      23.3072574
  87 TORSION  11  3  4 12              -1.7440818     -99.9285241
  88 TORSION  12  4  5 15               1.5335794      87.8676289
  89 TORSION  12  4  5 14              -0.6273617     -35.9451798
  90 TORSION  13  4  5 15              -0.6171721     -35.3613564
  91 TORSION  13  4  5 14              -2.7781133    -159.1741651
  92 TORSION  14  5  6 17               0.6598409      37.8060972
  93 TORSION  14  5  6 16               2.7951237     160.1487888
  94 TORSION  15  5  6 17              -1.5011405     -86.0090135
  95 TORSION  15  5  6 16               0.6341423      36.3336782

     ------------------------------------------
     THE POINT GROUP IS C1 , NAXIS= 1, ORDER= 1
     ------------------------------------------

     DIMENSIONS OF THE SYMMETRY SUBSPACES ARE
 A   =  180

 ..... DONE SETTING UP THE RUN .....
 STEP CPU TIME =     0.01 TOTAL CPU TIME =        0.0 (    0.0 MIN)
 TOTAL WALL CLOCK TIME=        0.0 SECONDS, CPU UTILIZATION IS  50.00%


          -----------------------------
          STATIONARY POINT LOCATION RUN
          -----------------------------

 OBTAINING INITIAL HESSIAN, HESS=GUESS   
 DIAGONAL GUESS HESSIAN IN INTERNAL COORDS IS
     1  0.3464     2  0.3608     3  0.3463     4  0.3463     5  0.3543
     6  0.3570     7  0.3579     8  0.3464     9  0.3464    10  0.3464
    11  0.3463    12  0.3522    13  0.3464    14  0.3464    15  0.3538
    16  0.3464    17  0.3464    18  0.2408    19  0.2405    20  0.2209
    21  0.2428    22  0.2435    23  0.2209    24  0.2206    25  0.2206
    26  0.2204    27  0.2209    28  0.2204    29  0.2461    30  0.2233
    31  0.2233    32  0.2402    33  0.2233    34  0.2457    35  0.2228
    36  0.2228    37  0.2233    38  0.2228    39  0.2228    40  0.2230
    41  0.2230    42  0.2230    43  0.2230    44  0.2034    45  0.2034
    46  0.2034    47  0.2034    48  0.2034    49  0.2034    50  0.2034
    51  0.2500    52  0.2500    53  0.2500    54  0.2500    55  0.2500
    56  0.2500    57  0.2500    58  0.2500    59  0.2500    60  0.2500
    61  0.2500    62  0.2500    63  0.2500    64  0.2500    65  0.2500
    66  0.2500    67  0.2500    68  0.2500    69  0.2500    70  0.2500
    71  0.2500    72  0.2500    73  0.2500    74  0.2500    75  0.2500
    76  0.2500    77  0.2500    78  0.2500    79  0.2500    80  0.2500
    81  0.2500    82  0.2500    83  0.2500    84  0.2500    85  0.2500
    86  0.2500    87  0.2500    88  0.2500    89  0.2500    90  0.2500
    91  0.2500    92  0.2500    93  0.2500    94  0.2500    95  0.2500
 TRANSFORMING HESSIAN TO SYMMETRY COORDINATES

          PARAMETERS CONTROLLING GEOMETRY SEARCH ARE
          METHOD =QA                  UPHESS =BFGS    
          NNEG   =         0          NFRZ   =         3
          NSTEP  =        50          IFOLOW =         1
          HESS   =GUESS               RESTAR =         F
          IHREP  =         0          HSSEND =         F
          NPRT   =         0          NPUN   =         0
          OPTTOL = 5.000E-04          RMIN   = 1.500E-03
          RMAX   = 1.000E-01          RLIM   = 7.000E-02
          DXMAX  = 3.000E-01          PURIFY =         F
          MOVIE  =         F          TRUPD  =         T
          TRMAX  = 5.000E-01          TRMIN  = 5.000E-02
          ITBMAT =         5          STPT   =         F
          STSTEP = 1.000E-02          PROJCT=          F
          FROZEN COORD(S)=   1   2   3


      ***** EQUILIBRIUM GEOMETRY LOCATED *****
            (SUBJECT TO   3 CONSTRAINT(S))
 COORDINATES OF ALL ATOMS ARE (ANGS)
   ATOM   CHARGE       X              Y              Z
 ------------------------------------------------------------
 C           6.0   2.0320152056  -0.0121754559  -0.2832370683
 N           7.0   0.7615256751  -0.0610845692   0.4014288310
 C           6.0  -0.0252365139   1.1770190761   0.2733889393
 C           6.0  -1.3550979758   0.7679104131  -0.3629456521
 C           6.0  -1.4973796388  -0.6880597581   0.0860634472
 C           6.0  -0.0633752530  -1.1910763119  -0.0282326651
 H           1.0   2.6458928111   0.7824935890   0.1255640323
 H           1.0   2.5569539581  -0.9515923701  -0.1463321702
 H           1.0   1.9126503707   0.1595430016  -1.3580263335
 H           1.0  -0.1887093842   1.6127497598   1.2563672953
 H           1.0   0.5049350359   1.9165288179  -0.3193411601
 H           1.0  -2.1769083919   1.4058787227  -0.0583537038
 H           1.0  -1.2798669208   0.8111578474  -1.4467234296
 H           1.0  -1.8277435117  -0.7332930379   1.1204991560
 H           1.0  -2.1875365488  -1.2637472215  -0.5195270242
 H           1.0   0.1527383877  -1.4629954261  -1.0647712370
 H           1.0   0.1353409088  -2.0668443355   0.5829466909


                     --------------------
                     INTERNAL COORDINATES
                     --------------------

                 - - ATOMS - -         COORDINATE      COORDINATE
 NO.   TYPE    I  J  K  L  M  N        (BOHR,RAD)       (ANG,DEG)
 ----------------------------------------------------------------
   1 STRETCH   1  7                     2.0488177       1.0841877
   2 STRETCH   1  2                     2.7288737       1.4440579
   3 STRETCH   1  9                     2.0691483       1.0949462
   4 STRETCH   1  8                     2.0499893       1.0848077
   5 STRETCH   2  6                     2.7656912       1.4635409
   6 STRETCH   2  3                     2.7826429       1.4725113
   7 STRETCH   3  4                     2.8912333       1.5299749
   8 STRETCH   3 11                     2.0521463       1.0859491
   9 STRETCH   3 10                     2.0552289       1.0875804
  10 STRETCH   4 13                     2.0545974       1.0872462
  11 STRETCH   4 12                     2.0485468       1.0840444
  12 STRETCH   4  5                     2.8917762       1.5302622
  13 STRETCH   5 15                     2.0479542       1.0837308
  14 STRETCH   5 14                     2.0538493       1.0868503
  15 STRETCH   5  6                     2.8798691       1.5239612
  16 STRETCH   6 17                     2.0527661       1.0862771
  17 STRETCH   6 16                     2.0658235       1.0931868
  18 BEND      1  2  3                  1.9827224     113.6016237
  19 BEND      1  2  6                  1.9636709     112.5100569
  20 BEND      2  1  7                  1.9221895     110.1333461
  21 BEND      2  6  5                  1.8270917     104.6846454
  22 BEND      2  3  4                  1.8501677     106.0068030
  23 BEND      2  1  8                  1.9140708     109.6681795
  24 BEND      2  3 10                  1.9162079     109.7906260
  25 BEND      2  3 11                  1.9381915     111.0501933
  26 BEND      2  6 16                  1.9379806     111.0381116
  27 BEND      2  1  9                  1.9549757     112.0118541
  28 BEND      2  6 17                  1.9328401     110.7435827
  29 BEND      3  4  5                  1.7856400     102.3096380
  30 BEND      3  4 12                  1.9656954     112.6260517
  31 BEND      3  4 13                  1.9217621     110.1088602
  32 BEND      3  2  6                  1.8991749     108.8147088
  33 BEND      4  3 11                  1.9599807     112.2986214
  34 BEND      4  5  6                  1.7768010     101.8031991
  35 BEND      4  5 14                  1.9253049     110.3118470
  36 BEND      4  5 15                  1.9830422     113.6199490
  37 BEND      4  3 10                  1.9309210     110.6336212
  38 BEND      5  4 12                  1.9899694     114.0168500
  39 BEND      5  4 13                  1.9142735     109.6797912
  40 BEND      5  6 16                  1.9169020     109.8303927
  41 BEND      5  6 17                  1.9780019     113.3311580
  42 BEND      6  5 14                  1.9216155     110.1004602
  43 BEND      6  5 15                  1.9627517     112.4573873
  44 BEND      7  1  8                  1.8893078     108.2493617
  45 BEND      7  1  9                  1.8932471     108.4750692
  46 BEND      8  1  9                  1.8885571     108.2063499
  47 BEND     10  3 11                  1.8690741     107.0900556
  48 BEND     12  4 13                  1.8850721     108.0066747
  49 BEND     14  5 15                  1.8924855     108.4314314
  50 BEND     16  6 17                  1.8721155     107.2643184
  51 TORSION   1  2  6 16              -0.5100210     -29.2220482
  52 TORSION   1  2  3 10              -2.0685032    -118.5165023
  53 TORSION   1  2  6 17               1.5679284      89.8356823
  54 TORSION   1  2  6  5              -2.5775242    -147.6812605
  55 TORSION   1  2  3 11              -0.0048502      -0.2778947
  56 TORSION   1  2  3  4               2.1285297     121.9557700
  57 TORSION   2  3  4  5               0.4762709      27.2883148
  58 TORSION   2  3  4 12               2.6202005     150.1264302
  59 TORSION   2  3  4 13              -1.5578847     -89.2602200
  60 TORSION   2  6  5 14              -1.3902970     -79.6581532
  61 TORSION   2  6  5 15               2.7804204     159.3063557
  62 TORSION   2  6  5  4               0.6518637      37.3490417
  63 TORSION   3  2  1  8               3.1398530     179.9003252
  64 TORSION   3  4  5  6              -0.6826227     -39.1114010
  65 TORSION   3  2  1  7               1.0624259      60.8725209
  66 TORSION   3  4  5 14               1.3568651      77.7426426
  67 TORSION   3  4  5 15              -2.7971281    -160.2636346
  68 TORSION   3  2  1  9              -1.0461857     -59.9420270
  69 TORSION   3  2  6 17              -2.5021366    -143.3618661
  70 TORSION   3  2  6 16               1.7030993      97.5804034
  71 TORSION   3  2  6  5              -0.3644040     -20.8788089
  72 TORSION   4  5  6 16              -1.4298855     -81.9264035
  73 TORSION   4  5  6 17               2.7599166     158.1315723
  74 TORSION   4  3  2  6              -0.0736273      -4.2185334
  75 TORSION   5  4  3 10              -1.6002091     -91.6852261
  76 TORSION   5  4  3 11               2.5957024     148.7227916
  77 TORSION   6  5  4 12              -2.8100397    -161.0034146
  78 TORSION   6  5  4 13               1.3569206      77.7458214
  79 TORSION   6  2  3 11              -2.2070072    -126.4521981
  80 TORSION   6  2  3 10               2.0125251     115.3091942
  81 TORSION   6  2  1  7              -3.0531086    -174.9302378
  82 TORSION   6  2  1  8              -0.9756815     -55.9024334
  83 TORSION   6  2  1  9               1.1214651      64.2552144
  84 TORSION  10  3  4 13               2.6488206     151.7662391
  85 TORSION  10  3  4 12               0.5437205      31.1528893
  86 TORSION  11  3  4 13               0.5615467      32.1742568
  87 TORSION  11  3  4 12              -1.5435534     -88.4390929
  88 TORSION  12  4  5 15               1.3586402      77.8443518
  89 TORSION  12  4  5 14              -0.7705519     -44.1493710
  90 TORSION  13  4  5 15              -0.7575848     -43.4064122
  91 TORSION  13  4  5 14              -2.8867769    -165.4001350
  92 TORSION  14  5  6 17               0.7177558      41.1243774
  93 TORSION  14  5  6 16               2.8111390     161.0664015
  94 TORSION  15  5  6 17              -1.3947120     -79.9111137
  95 TORSION  15  5  6 16               0.6986712      40.0309105

          INTERNUCLEAR DISTANCES (ANGS.)


 =====================================================
   GAMESS/COSab RESULTS
 =====================================================

   Dielectric Constant                  = INFTY
   Basic Grid Size                      =                 1082
   Number of Segments                   =                   92
   Number of Segments located on spheres=                  225
   Number of Segments of the cavity     =                  569
   Solvent Radius (rsolv)               = 1.40
   Outlying Charge Error Method         = double cavity

 =====================================================

  Total solvated Energy (a.u.)          =  -250.2388585109
  Total Energy corrected (a.u.)         =  -250.2387700465

  Outlying charge effect (a.u.)         =     0.0000884644
  Outlying charge effect (kcal/mol)     =     0.0555123194

  Dielectric Energy (a.u.)              =    -0.0048786798
  Dielectric energy corr. (a.u.)        =    -0.0047902154

  Sum of polarization charges           =     0.0253305658
  Sum of polarization charges(cor.)     =    -0.0253305658

  Total surface area of cavity (A**2)   =  131.72
  Total volume of cavity (A**3)         =  124.83

 =====================================================
 NPS=                   569
NR.  ATOM  (X, Y, Z)(a.u.)                  CHARGE(e)  AREA(A**2) SIGMA(e/A**2)
   1   1   5.675211  -1.912693  -3.245456   0.001446   0.418105   0.003459
   2   1   5.205233  -0.565208   2.947035   0.001010   0.278737   0.003622
   3   1   7.530182  -0.644630  -0.006005   0.001087   0.418105   0.002599
   4   1   6.204122   1.640319  -2.970062   0.000788   0.371649   0.002121
   5   1   4.300676  -2.897060  -2.946029   0.000844   0.232280   0.003635
   6   1   6.400014   2.252063  -2.133497   0.000677   0.325193   0.002081
   7   1   7.491788   0.228638   0.405532   0.000658   0.278737   0.002362
   8   1   5.747749   0.244604   2.716361   0.000826   0.325193   0.002541
   9   1   5.134773  -2.638095  -2.937137   0.000548   0.185824   0.002951
  10   1   4.552756  -2.136153  -3.586613   0.001355   0.325193   0.004166
  11   1   4.707870   0.342874   3.124957   0.000772   0.232280   0.003325
  12   1   6.085154  -0.810993   2.401150   0.001321   0.371649   0.003553
  13   1   7.150974  -0.618938   1.187048   0.001091   0.278737   0.003913
  14   1   7.578490   0.241999  -1.022489   0.000374   0.464561   0.000805
  15   1   7.029552   1.016246  -2.276135   0.000176   0.464561   0.000378
  16   1   5.405134   2.626635  -2.729297   0.001066   0.278737   0.003826
  17   1   4.639532   3.113293  -2.486792   0.001024   0.232280   0.004410
  18   1   4.729957  -1.310180   2.905007   0.000596   0.232280   0.002566
  19   1   5.274781  -1.731009   2.515700   0.000489   0.185824   0.002630
  20   1   7.394205  -1.009393  -1.359050   0.000223   0.418105   0.000535
  21   1   6.695158  -1.472954  -2.542677   0.000421   0.418105   0.001007
  22   1   6.198182  -0.828169  -3.376862   0.000669   0.418105   0.001600
  23   1   6.421526   0.485443  -3.248409   0.000232   0.325193   0.000713
  24   1   7.299343   1.256680  -1.359443   0.000106   0.278737   0.000381
  25   1   6.747623  -0.186316   1.873707   0.000986   0.278737   0.003538
  26   1   4.802297   1.130494   2.932831   0.000379   0.139368   0.002720
  27   1   5.344905   3.140644  -1.953227   0.000690   0.232280   0.002971
  28   1   4.427218  -2.126944   2.549043   0.000661   0.185824   0.003558
  29   1   6.605277  -1.222655   1.744691   0.000503   0.185824   0.002705
  30   1   7.139601  -0.247385  -2.364532  -0.000090   0.464561  -0.000194
  31   2   1.548843  -1.228789   4.030825   0.007758   0.350048   0.022162
  32   2   0.663889  -0.614263   4.091663   0.006355   0.272259   0.023341
  33   2   1.466047  -0.045742   4.215977   0.007451   0.311154   0.023947
  34   2   2.382644  -1.820310   3.615550   0.006304   0.272259   0.023155
  35   2   2.962353  -2.095731   3.149658   0.001859   0.116683   0.015931
  36   2   3.004870   1.261707   3.517369   0.001953   0.116683   0.016734
  37   2   3.052552   0.115302   3.808601   0.004430   0.194471   0.022779
  38   2   2.383727  -0.541057   4.057923   0.007731   0.311154   0.024848
  39   2   2.387970   0.694996   3.983788   0.007592   0.311154   0.024400
  40   2   3.029663  -1.092669   3.669634   0.005246   0.233365   0.022479
  41   3   2.474699   4.121982   2.595177   0.000397   0.185824   0.002138
  42   3   0.027666   5.988499   0.846623   0.000794   0.371649   0.002136
  43   3   0.074353   5.756515   1.855425   0.000832   0.278737   0.002986
  44   3   2.033893   4.466967   2.735057   0.000585   0.185824   0.003147
  45   3   2.425807   3.304230   3.162319   0.000538   0.232280   0.002316
  46   3   2.417555   4.869256   1.616934   0.000902   0.325193   0.002773
  47   3   1.139638   5.677876   1.489701   0.001245   0.325193   0.003828
  48   3  -0.959195   5.840942   1.127258   0.000538   0.371649   0.001448
  49   3  -1.813078   5.524279   1.043321   0.000047   0.185824   0.000251
  50   3  -0.853758   5.806882  -0.377325   0.000104   0.232280   0.000447
  51   3  -1.048360   5.490812  -1.099658   0.000042   0.092912   0.000450
  52   3  -1.806150   5.299711   1.833276   0.000101   0.185824   0.000544
  53   3   1.633013   5.170102   2.184371   0.001110   0.278737   0.003983
  54   3   2.107306   2.813544   3.565067   0.000341   0.092912   0.003673
  55   3  -0.694088   0.948344   4.014997   0.000109   0.046456   0.002337
  56   3  -1.494066   5.703287   0.219193   0.000045   0.278737   0.000162
  57   4  -2.484546   4.917247  -2.190702   0.000612   0.371649   0.001647
  58   4  -5.174609   2.418190  -3.238687   0.001719   0.418105   0.004111
  59   4  -6.328350   1.154974  -0.729531   0.000340   0.139368   0.002439
  60   4  -5.496451   2.972996  -2.516162   0.001018   0.278737   0.003653
  61   4  -3.584490   4.865502  -1.942203   0.001014   0.371649   0.002727
  62   4  -4.306349   2.160946   2.590329   0.000164   0.139368   0.001177
  63   4  -3.129254   5.164846  -1.097542   0.000410   0.185824   0.002208
  64   4  -3.345459   4.336152  -2.997835   0.001253   0.371649   0.003371
  65   4  -4.516102   3.537072  -3.157668   0.001554   0.325193   0.004780
  66   4  -5.878097   1.805092  -2.461905   0.000969   0.325193   0.002979
  67   4  -6.176001   1.004658  -1.693350   0.000529   0.232280   0.002275
  68   4  -2.036028   4.361650  -3.039120   0.000603   0.278737   0.002163
  69   4  -5.168989   1.217739  -3.411109   0.000777   0.278737   0.002787
  70   4  -4.858540   0.258464  -3.439409   0.000421   0.185824   0.002268
  71   4  -6.226884   1.669479  -1.578170   0.000325   0.139368   0.002333
  72   4  -4.332001   4.206928  -2.570706   0.001097   0.278737   0.003935
  73   4  -3.046825   5.180902  -0.315859   0.000081   0.092912   0.000867
  74   4  -3.954028   2.595643   2.635771   0.000024   0.046456   0.000527
  75   4  -5.702522   0.823729  -2.690859   0.000685   0.278737   0.002458
  76   5  -6.476712  -0.545045   0.805135   0.000646   0.278737   0.002319
  77   5  -5.194171  -4.055126   1.213265   0.001666   0.418105   0.003984
  78   5  -3.044820  -2.079455  -3.529349   0.000072   0.092912   0.000780
  79   5  -5.194963  -3.567049   2.047061   0.001072   0.278737   0.003844
  80   5  -6.270114  -0.976159   1.693116   0.000825   0.278737   0.002960
  81   5  -5.965458  -0.059965   1.869280   0.000600   0.232280   0.002582
  82   5  -6.491401  -1.617216   1.043137   0.000939   0.278737   0.003369
  83   5  -5.974527  -3.077765   1.273636   0.001304   0.278737   0.004677
  84   5  -4.243887  -4.335568   1.915040   0.000921   0.325193   0.002832
  85   5  -3.375747  -4.549502   2.014200   0.000339   0.185824   0.001824
  86   5  -6.490418  -0.388695  -0.065499   0.000498   0.232280   0.002146
  87   5  -6.607345  -1.324041   0.050281   0.000619   0.232280   0.002663
  88   5  -4.350656  -4.724799   0.655713   0.000688   0.278737   0.002467
  89   5  -3.605238  -4.996979   0.033091   0.000410   0.185824   0.002206
  90   5  -3.076545  -2.461065  -3.425644   0.000029   0.046456   0.000616
  91   5  -3.431390  -4.061340   2.672310   0.000342   0.185824   0.001842
  92   5  -6.187310  -2.262157   1.606593   0.001165   0.278737   0.004181
  93   5  -6.451462  -0.848465  -0.818461   0.000337   0.139368   0.002415
  94   5  -6.390022  -2.491209   0.597957   0.000609   0.185824   0.003275
  95   5  -3.547755  -4.866417   1.187775   0.000519   0.278737   0.001862
  96   6  -0.164764  -5.910586  -0.995825   0.000859   0.371649   0.002310
  97   6  -0.213651  -2.305562   3.724527   0.000592   0.092912   0.006377
  98   6   0.413701  -2.763254   3.652995   0.000195   0.092912   0.002103
  99   6   0.296312  -5.549446  -1.850613   0.000730   0.278737   0.002619
 100   6   2.376543  -4.479766  -1.809636   0.000078   0.046456   0.001682
 101   6   2.112982  -5.198323  -0.835215   0.000828   0.232280   0.003565
 102   6   1.235615  -5.633559  -1.055464   0.001636   0.418105   0.003913
 103   6  -0.945245  -5.598065  -1.602126   0.000469   0.371649   0.001262
 104   6  -1.738829  -5.187295  -1.796885   0.000067   0.185824   0.000361
 105   6  -1.448035  -5.786428  -0.192244   0.000158   0.232280   0.000680
 106   6  -1.894053  -5.550594   0.444140   0.000130   0.092912   0.001399
 107   6   0.963214  -2.963009   3.496879   0.000220   0.046456   0.004743
 108   6  -0.450358  -2.997041   3.636908   0.000253   0.139368   0.001813
 109   6  -1.402067  -4.858505  -2.469935   0.000075   0.185824   0.000405
 110   6   1.863657  -5.039772  -1.657110   0.000475   0.139368   0.003411
 111   6  -1.788267  -5.518640  -0.959767   0.000039   0.278737   0.000139
 112   7   6.564078   3.148451   1.132098  -0.003080   0.510320  -0.006035
 113   7   5.531047   3.805297  -0.345816  -0.001290   0.333671  -0.003867
 114   7   6.824151   2.855600  -0.663690  -0.001140   0.353299  -0.003227
 115   7   7.318568   1.578588   1.043154  -0.001141   0.372926  -0.003060
 116   7   5.902462   1.923367   2.478472  -0.001168   0.412182  -0.002834
 117   7   5.451054   3.737847   1.090431  -0.002931   0.490692  -0.005973
 118   7   6.286121   3.507135  -0.278898  -0.001639   0.372926  -0.004394
 119   7   7.287430   2.374102   0.204560  -0.002094   0.490692  -0.004267
 120   7   6.784072   1.972031   1.852473  -0.001927   0.471065  -0.004091
 121   7   5.405201   2.884547   2.210724  -0.002359   0.490692  -0.004808
 122   8   6.231558  -3.794835   0.023150  -0.002800   0.471065  -0.005944
 123   8   5.291294  -3.676942  -1.791314  -0.001255   0.412182  -0.003044
 124   8   5.270492  -3.346354   1.579861  -0.001496   0.353299  -0.004235
 125   8   6.835522  -2.445631   0.989036  -0.001028   0.372926  -0.002758
 126   8   7.027266  -2.569666  -1.064255  -0.001118   0.372926  -0.002997
 127   8   5.200657  -4.169970  -0.800054  -0.002290   0.412182  -0.005556
 128   8   5.194454  -4.101361   0.497667  -0.002596   0.412182  -0.006297
 129   8   6.120940  -3.123674   1.341139  -0.001732   0.412182  -0.004202
 130   8   7.066110  -2.770614   0.036627  -0.001968   0.451437  -0.004360
 131   8   6.375052  -3.398559  -1.321934  -0.002234   0.490692  -0.004553
 132   9   3.436843   0.828781  -4.959111  -0.001336   0.333671  -0.004004
 133   9   3.836356  -1.140397  -4.542849  -0.000583   0.353299  -0.001651
 134   9   4.920023  -0.320083  -4.552258  -0.000723   0.372926  -0.001938
 135   9   4.560324   1.867794  -4.205513  -0.000712   0.372926  -0.001908
 136   9   2.709197  -0.045506  -4.823579  -0.002034   0.431809  -0.004709
 137   9   3.862977  -0.298918  -4.935432  -0.001013   0.314043  -0.003225
 138   9   4.402685   0.761538  -4.847098  -0.001274   0.333671  -0.003819
 139   9   3.621414   2.105323  -4.234014  -0.001127   0.412182  -0.002735
 140   9   2.702763   1.442169  -4.541880  -0.001793   0.353299  -0.005074
 141   9   5.219879   0.901491  -4.326269  -0.000559   0.314043  -0.001780
 142  10  -0.660926   4.019455   4.609820  -0.002742   0.569203  -0.004817
 143  10  -0.095548   2.187288   4.660383  -0.000695   0.353299  -0.001966
 144  10  -1.968699   2.988561   4.226946  -0.001109   0.294415  -0.003767
 145  10  -1.924774   4.656987   3.367141  -0.001221   0.392554  -0.003111
 146  10  -0.072710   5.310217   3.288132  -0.000671   0.372926  -0.001798
 147  10   1.159255   3.899027   4.109820  -0.000719   0.412182  -0.001744
 148  10  -1.055581   2.531929   4.672126  -0.001642   0.451437  -0.003638
 149  10  -1.918439   3.846284   4.094047  -0.001584   0.412182  -0.003844
 150  10  -1.039932   5.084635   3.565338  -0.001415   0.431809  -0.003277
 151  10   0.479020   4.727479   3.960063  -0.001358   0.471065  -0.002883
 152  10   0.512238   3.140665   4.670170  -0.001774   0.510320  -0.003476
 153  11   1.735474   5.666936  -1.717786  -0.002302   0.431809  -0.005331
 154  11   0.746553   4.641678  -2.828691  -0.000985   0.255160  -0.003860
 155  11   2.009781   5.768248  -0.043846  -0.000877   0.353299  -0.002483
 156  11   0.365177   5.885781  -1.353217  -0.001122   0.353299  -0.003176
 157  11   1.524631   4.451277  -2.844332  -0.001891   0.353299  -0.005352
 158  11   2.404359   4.930646  -2.093014  -0.002385   0.392554  -0.006075
 159  11   2.656921   5.388146  -0.727856  -0.002438   0.431809  -0.005647
 160  11   1.178229   6.066893  -0.680668  -0.001335   0.372926  -0.003580
 161  11   0.625087   5.427302  -2.236439  -0.001559   0.372926  -0.004181
 162  12  -6.007208   4.087865   0.523642  -0.003482   0.588831  -0.005913
 163  12  -4.697038   4.420685   1.497019  -0.001522   0.353299  -0.004309
 164  12  -5.509869   2.764166   1.908260  -0.001086   0.333671  -0.003256
 165  12  -6.542466   2.346896   0.091017  -0.000893   0.333671  -0.002677
 166  12  -5.899214   3.814360  -1.337939  -0.000830   0.372926  -0.002224
 167  12  -4.509692   5.055941  -0.459762  -0.000794   0.353299  -0.002246
 168  12  -5.152188   3.666151   1.874136  -0.001903   0.451437  -0.004215
 169  12  -6.264720   2.778990   1.070220  -0.002129   0.490692  -0.004338
 170  12  -6.469970   3.171124  -0.578038  -0.001927   0.510320  -0.003775
 171  12  -5.473501   4.590308  -0.779231  -0.001852   0.471065  -0.003932
 172  12  -4.742480   4.927850   0.583887  -0.002135   0.510320  -0.004183
 173  13  -2.465834   1.797942  -5.175765  -0.002328   0.471065  -0.004942
 174  13  -2.641540   0.070238  -4.695070  -0.001086   0.274788  -0.003954
 175  13  -1.476464   3.086976  -4.386872  -0.001325   0.372926  -0.003553
 176  13  -3.461139   2.954450  -4.444852  -0.000699   0.372926  -0.001875
 177  13  -4.047176   0.980070  -4.488120  -0.000692   0.353299  -0.001958
 178  13  -1.706967   0.808271  -4.970806  -0.002180   0.412182  -0.005289
 179  13  -1.212650   2.001768  -4.822208  -0.002340   0.431809  -0.005420
 180  13  -2.414666   3.099578  -4.626142  -0.001299   0.412182  -0.003153
 181  13  -3.721405   2.032496  -4.755835  -0.001358   0.431809  -0.003144
 182  13  -3.202068   0.693360  -4.905668  -0.001552   0.392554  -0.003953
 183  14  -4.333420  -1.604901   4.400767  -0.002649   0.510320  -0.005191
 184  14  -4.189337   0.017331   3.995127  -0.001384   0.333671  -0.004148
 185  14  -2.525652  -1.263640   4.388670  -0.001248   0.294415  -0.004240
 186  14  -3.213628  -3.006076   3.948244  -0.001160   0.353299  -0.003285
 187  14  -5.146050  -2.722678   3.294060  -0.000679   0.372926  -0.001822
 188  14  -5.570192  -0.710864   3.166785  -0.000672   0.353299  -0.001902
 189  14  -3.412509  -0.703398   4.477061  -0.001960   0.392554  -0.004994
 190  14  -3.018908  -2.107739   4.424941  -0.001505   0.392554  -0.003834
 191  14  -4.207822  -2.946236   3.858586  -0.001463   0.451437  -0.003240
 192  14  -5.411358  -1.745145   3.557729  -0.001577   0.471065  -0.003348
 193  14  -4.928395  -0.413692   3.825134  -0.001427   0.372926  -0.003827
 194  15  -5.747080  -3.676320  -2.313357  -0.003537   0.588831  -0.006007
 195  15  -4.194378  -4.102884  -2.739897  -0.001516   0.353299  -0.004291
 196  15  -4.682063  -2.390918  -3.376453  -0.001119   0.333671  -0.003354
 197  15  -6.286250  -1.901386  -2.061277  -0.000954   0.333671  -0.002859
 198  15  -6.321633  -3.413579  -0.537742  -0.000855   0.372926  -0.002291
 199  15  -4.792170  -4.752382  -0.872161  -0.000792   0.353299  -0.002242
 200  15  -4.424465  -3.316670  -3.237519  -0.001934   0.451437  -0.004283
 201  15  -5.693770  -2.351497  -2.879234  -0.002238   0.490692  -0.004560
 202  15  -6.523749  -2.729477  -1.436695  -0.001992   0.510320  -0.003903
 203  15  -5.771886  -4.217922  -0.920222  -0.001879   0.471065  -0.003989
 204  15  -4.642556  -4.594919  -1.933803  -0.002173   0.490692  -0.004428
 205  16   0.512576  -3.466857  -4.355610  -0.001472   0.372926  -0.003946
 206  16  -0.908773  -3.906164  -3.828248  -0.001006   0.314043  -0.003203
 207  16   0.853012  -4.893896  -3.099772  -0.000542   0.314043  -0.001727
 208  16   1.817084  -4.343265  -3.110763  -0.000764   0.314043  -0.002432
 209  16   0.387638  -2.339637  -4.429707  -0.001839   0.392554  -0.004686
 210  16  -0.627007  -2.989216  -4.280672  -0.001406   0.392554  -0.003582
 211  16   0.114534  -4.312810  -3.911615  -0.000974   0.274788  -0.003544
 212  16   1.129666  -4.254946  -3.774757  -0.000801   0.235532  -0.003401
 213  16   1.539825  -3.392569  -4.030892  -0.001392   0.314043  -0.004432
 214  16  -0.356408  -4.744758  -3.315297  -0.000508   0.274788  -0.001848
 215  17   0.752918  -5.903744   2.441784  -0.003236   0.588831  -0.005496
 216  17  -0.720908  -5.272770   2.893981  -0.001406   0.353299  -0.003981
 217  17   0.785776  -4.190288   3.483471  -0.000793   0.333671  -0.002378
 218  17   2.070121  -4.831918   2.474724  -0.001206   0.294415  -0.004095
 219  17   1.328682  -6.070125   0.654953  -0.000834   0.372926  -0.002238
 220  17  -0.693699  -6.170510   1.033614  -0.000883   0.353299  -0.002499
 221  17  -0.031631  -4.775058   3.381280  -0.001728   0.471065  -0.003668
 222  17   1.466920  -4.773164   3.055027  -0.001800   0.412182  -0.004366
 223  17   1.914247  -5.651913   1.586895  -0.002113   0.510320  -0.004140
 224  17   0.407294  -6.357386   1.059928  -0.001794   0.471065  -0.003808
 225  17  -0.723446  -5.933514   2.083733  -0.002125   0.510320  -0.004164
 226   1   3.591988   1.862651   2.852921   0.000523   0.060799   0.008609
 227   2   3.163016   1.834272   3.067497   0.000656   0.060799   0.010796
 228   3   2.912942   2.254642   3.035826   0.000487   0.060799   0.008012
 229   1   3.404353  -2.688950   2.314901   0.000770   0.097518   0.007895
 230   2   2.979747  -2.695775   2.542242   0.001365   0.097518   0.013999
 231  17   2.571381  -3.343950   2.431388   0.000562   0.097518   0.005768
 232   2   3.325501  -2.092578   2.892504   0.002529   0.175552   0.014404
 233   2   3.526591  -0.455830   3.382578   0.007670   0.360326   0.021287
 234   2   3.399116   1.255967   3.268317   0.002584   0.175552   0.014717
 235   1   4.059680  -1.489495   2.855181   0.003769   0.366079   0.010296
 236   1   4.106602   0.644862   3.094724   0.003708   0.366079   0.010129
 237   1   3.950344   2.050370   2.664904   0.000158   0.062489   0.002533
 238   3   3.243743   2.416623   2.778515   0.000289   0.062489   0.004621
 239   7   4.173221   2.226430   2.558586  -0.000030   0.062489  -0.000479
 240   3   2.881810   2.524313   3.108154   0.000115   0.025508   0.004491
 241   1   3.855765   1.980601   2.837183   0.000114   0.025508   0.004471
 242   1   4.358814   3.710218  -1.170233   0.000040   0.069809   0.000574
 243   7   4.542583   3.738543  -0.930187  -0.000111   0.069809  -0.001596
 244  11   3.613722   4.161646  -1.094632  -0.000159   0.069809  -0.002272
 245   7   4.814213   2.011637   2.629258  -0.000122   0.066942  -0.001825
 246   7   5.690890   1.379834   2.540958  -0.000371   0.147855  -0.002506
 247   7   6.714475   0.948878   1.841631  -0.000263   0.147855  -0.001777
 248   7   7.328603   1.068002   0.687870  -0.000455   0.147855  -0.003077
 249   7   7.291991   1.690403  -0.467025  -0.000547   0.147855  -0.003700
 250   7   6.619022   2.571548  -1.169311  -0.000535   0.147855  -0.003618
 251   7   5.574099   3.365244  -1.143067  -0.000358   0.147855  -0.002424
 252   1   4.895624   1.438101   2.737590  -0.000133   0.147464  -0.000901
 253   1   6.111056   0.702931   2.341534  -0.000152   0.147464  -0.001033
 254   1   7.079933   0.518450   1.245242  -0.000064   0.147464  -0.000433
 255   1   7.421593   0.957139  -0.120566  -0.000346   0.147464  -0.002343
 256   1   7.001803   1.846641  -1.219280  -0.000408   0.147464  -0.002767
 257   1   5.985493   2.837482  -1.619229  -0.000190   0.147464  -0.001289
 258   1   5.001334   3.475722  -1.382042   0.000001   0.081785   0.000012
 259   1   3.726124  -3.467443  -2.171033   0.000046   0.059762   0.000774
 260   8   3.922896  -3.566035  -1.962786  -0.000147   0.059762  -0.002453
 261  16   2.887566  -3.726561  -2.315768   0.000010   0.059762   0.000165
 262   1   3.821632  -2.943727   1.973482   0.000149   0.093734   0.001587
 263   8   4.010160  -3.117920   1.807887  -0.000223   0.093734  -0.002380
 264  17   2.945118  -3.543616   2.033787   0.000308   0.093734   0.003291
 265   8   4.636780  -3.529361  -2.009888  -0.000162   0.067289  -0.002406
 266   8   5.583647  -3.028467  -2.203373  -0.000406   0.148720  -0.002728
 267   8   6.637669  -2.374754  -1.759162  -0.000539   0.148720  -0.003625
 268   8   7.204090  -1.899340  -0.668851  -0.000551   0.148720  -0.003707
 269   8   7.058709  -1.790402   0.635995  -0.000364   0.148720  -0.002450
 270   8   6.259071  -2.091059   1.638897  -0.000365   0.148720  -0.002453
 271   8   5.121687  -2.682306   1.942888  -0.000470   0.148720  -0.003162
 272   1   4.789276  -3.115919  -2.403337  -0.000199   0.148140  -0.001344
 273   1   6.078541  -2.389763  -2.363983  -0.000312   0.148140  -0.002104
 274   1   7.037564  -1.721514  -1.455811  -0.000429   0.148140  -0.002894
 275   1   7.286746  -1.375679  -0.038292  -0.000285   0.148140  -0.001923
 276   1   6.727458  -1.489143   1.327497  -0.000151   0.148140  -0.001022
 277   1   5.581075  -2.016997   2.100952  -0.000145   0.148140  -0.000980
 278   1   4.530120  -2.597319   2.148540  -0.000010   0.082209  -0.000117
 279   1   3.517387   3.009105  -2.838909   0.000152   0.070467   0.002158
 280   9   3.461673   2.831664  -3.085361   0.000024   0.070467   0.000342
 281  11   2.851241   3.525444  -2.605951  -0.000090   0.070467  -0.001281
 282   1   3.254065  -2.127488  -3.681059   0.000192   0.076844   0.002495
 283   9   3.216965  -1.884171  -3.868433  -0.000052   0.076844  -0.000674
 284  16   2.459924  -2.530395  -3.691039   0.000036   0.076844   0.000467
 285   9   4.031902   2.560854  -3.435655  -0.000012   0.070853  -0.000163
 286   9   4.970625   1.971602  -3.634061  -0.000299   0.157263  -0.001901
 287   9   5.561466   0.772925  -3.891204  -0.000463   0.157263  -0.002944
 288   9   5.282984  -0.546962  -4.071164  -0.000409   0.157263  -0.002601
 289   9   4.251920  -1.434769  -4.098503  -0.000235   0.157263  -0.001495
 290   1   4.565776   2.537984  -3.150746   0.000061   0.155439   0.000393
 291   1   5.636281   1.485088  -3.437869  -0.000192   0.155439  -0.001234
 292   1   5.821706  -0.010004  -3.697346  -0.000293   0.155439  -0.001886
 293   1   5.044322  -1.320555  -3.820405  -0.000107   0.155439  -0.000690
 294   1   3.962261  -1.931248  -3.797803   0.000037   0.086562   0.000425
 295  11   3.163782   4.481031  -1.521913  -0.000794   0.192631  -0.004120
 296  11   2.767881   4.152927  -2.304233  -0.000772   0.192631  -0.004006
 297   1   3.960140   3.525001  -2.084099   0.000986   0.533750   0.001848
 298  16   2.235266  -3.192797  -3.593607  -0.000396   0.206493  -0.001919
 299  16   2.430789  -3.834418  -2.872673  -0.000283   0.206493  -0.001369
 300   1   3.493294  -2.948599  -3.044963   0.001223   0.571999   0.002138
 301  17   2.508312  -3.862565   2.453572   0.000075   0.063174   0.001187
 302   1   3.725344  -2.881400   2.306004   0.000334   0.090411   0.003698
 303   2   0.220159   0.599013   4.040298   0.000497   0.017390   0.028568
 304   3  -0.058294   0.997094   4.095810   0.000210   0.017390   0.012071
 305  10  -0.114708   1.277325   4.196881   0.000070   0.017390   0.004020
 306   2   1.839932   1.609833   3.861581   0.000603   0.017390   0.034676
 307   3   1.613070   2.040109   3.911400   0.000258   0.017390   0.014808
 308  10   1.403529   2.224781   4.029367   0.000098   0.017390   0.005662
 309   2  -0.467568  -0.108487   3.784818   0.001414   0.143027   0.009885
 310   3  -0.749624   0.297586   3.803008   0.000596   0.143027   0.004168
 311  14  -1.475143  -0.388105   3.808920   0.000026   0.143027   0.000178
 312   3  -0.267134   0.691775   4.020066   0.000730   0.080417   0.009073
 313   2   0.205708   0.162780   4.026201   0.001514   0.076692   0.019742
 314   3   2.110403   2.162081   3.628185   0.001733   0.209397   0.008276
 315   2   2.631553   1.648322   3.484798   0.002874   0.199708   0.014391
 316   2  -0.296502  -1.224681   3.720914   0.001232   0.096777   0.012734
 317   6  -0.588695  -1.613555   3.677926   0.000499   0.096777   0.005155
 318  14  -1.314814  -1.449475   3.788694   0.000030   0.096777   0.000313
 319   2   1.672224  -2.527121   3.384268   0.000487   0.014773   0.032962
 320   6   1.424805  -2.941770   3.330250   0.000252   0.014773   0.017078
 321  17   1.383671  -3.239119   3.292667   0.000100   0.014773   0.006794
 322   6   0.773270  -2.360535   3.534887   0.003382   0.344764   0.009809
 323   2   0.828955  -1.577257   3.730479   0.005950   0.328867   0.018092
 324  10   0.154777   1.562430   4.348837   0.000417   0.206212   0.002023
 325  10   1.058523   2.126413   4.249122   0.000487   0.206212   0.002361
 326   2   1.169397   0.904269   4.081860   0.008844   0.521341   0.016965
 327  14  -1.719912  -1.127142   4.069899  -0.000061   0.208214  -0.000292
 328   2  -0.282469  -0.623807   3.975908   0.002407   0.273943   0.008785
 329  17   1.938896  -3.622908   2.918645   0.000260   0.278690   0.000932
 330   2   2.243957  -2.545210   3.203023   0.004603   0.358655   0.012834
 331   3  -0.963793   5.118735  -1.745002  -0.000043   0.023938  -0.001797
 332   4  -1.393469   4.946733  -1.930892  -0.000005   0.023938  -0.000213
 333  11  -0.672648   5.171701  -1.808215  -0.000093   0.023938  -0.003867
 334   3  -2.579957   5.177025   0.466089  -0.000009   0.023270  -0.000373
 335   4  -3.026763   5.085888   0.264086  -0.000011   0.023270  -0.000455
 336  12  -3.319667   5.041066   0.320665  -0.000046   0.023270  -0.001975
 337   4  -2.683119   5.206183  -0.228185   0.000057   0.219135   0.000262
 338   4  -1.986325   5.078162  -1.602102   0.000039   0.219135   0.000176
 339   3  -1.703691   5.288585  -0.608754  -0.000754   0.446182  -0.001691
 340   3   3.072824   4.457407   0.791758  -0.000078   0.086348  -0.000900
 341   7   3.933137   4.018908   0.668120  -0.000167   0.086348  -0.001930
 342  11   3.070508   4.565032   0.505531  -0.000264   0.086348  -0.003052
 343   7   4.482756   3.837204   1.114718  -0.000658   0.228845  -0.002876
 344   7   4.416190   3.010537   2.118125  -0.001349   0.462085  -0.002919
 345   3   3.151370   4.051370   1.793651   0.000457   0.638851   0.000715
 346   3   3.057136   3.014991   2.856821   0.000702   0.324078   0.002167
 347   3  -2.577628   4.616551   2.044679   0.000030   0.046157   0.000650
 348  10  -2.447510   4.574295   2.315930  -0.000068   0.046157  -0.001463
 349  12  -3.260914   4.450483   1.743432   0.000023   0.046157   0.000503
 350   3  -1.099887   0.855032   3.927627   0.000025   0.066150   0.000375
 351  10  -1.108902   1.143291   4.024905  -0.000028   0.066150  -0.000421
 352  14  -1.812155   0.163039   3.879271  -0.000029   0.066150  -0.000436
 353  10  -0.597167   1.535700   4.309287  -0.000053   0.051397  -0.001036
 354   3  -0.435964   1.155510   4.132909   0.000128   0.062793   0.002043
 355  10   1.364440   2.745506   4.099209   0.000014   0.070893   0.000192
 356  10   1.526417   3.785420   3.665170  -0.000251   0.158128  -0.001586
 357  10   0.987440   4.906101   3.078761  -0.000150   0.158128  -0.000946
 358  10  -0.210237   5.426698   2.648821  -0.000344   0.158128  -0.002176
 359  10  -1.548039   5.121800   2.561505  -0.000455   0.158128  -0.002877
 360   3   1.757144   2.966285   3.694930   0.000008   0.154732   0.000054
 361   3   1.646596   4.367521   3.055402  -0.000062   0.154732  -0.000398
 362   3   0.613810   5.343588   2.450981   0.000053   0.154732   0.000345
 363   3  -0.894036   5.471863   2.143369  -0.000243   0.154732  -0.001572
 364   3  -2.046612   4.972570   2.173028  -0.000091   0.086611  -0.001050
 365  11  -0.315232   5.486689  -1.579848  -0.000224   0.066495  -0.003366
 366  11   0.130425   5.883539  -0.686101  -0.000560   0.146518  -0.003820
 367  11   1.094980   5.892319   0.187608  -0.000402   0.146518  -0.002744
 368  11   2.227655   5.337354   0.508348  -0.000461   0.146518  -0.003148
 369   3  -0.539337   5.584194  -1.045341  -0.000476   0.146835  -0.003239
 370   3   0.282012   5.925741   0.115448  -0.000313   0.146835  -0.002133
 371   3   1.521450   5.602953   0.821353  -0.000126   0.146835  -0.000859
 372   3   2.520152   4.971679   0.927052  -0.000042   0.081239  -0.000514
 373  12  -3.649292   4.746463   1.082762  -0.000760   0.292855  -0.002596
 374   3  -2.533726   5.085117   1.152179   0.000224   0.411727   0.000544
 375  14  -2.028543  -0.478025   4.100591  -0.000157   0.072940  -0.002157
 376   3  -1.014015   0.584689   4.038112   0.000271   0.103579   0.002619
 377   4  -6.251472   1.029377   0.039511   0.000063   0.020888   0.003000
 378   5  -6.252622   0.551307   0.181751   0.000106   0.020888   0.005074
 379  12  -6.276050   1.320782   0.113236   0.000004   0.020888   0.000171
 380   4  -5.864563  -0.137945  -1.990408   0.000106   0.021578   0.004930
 381   5  -5.951392  -0.612686  -1.864384   0.000059   0.021578   0.002751
 382  15  -5.966029  -0.901083  -1.950942  -0.000005   0.021578  -0.000213
 383   5  -6.212057  -0.063233  -0.606961   0.000354   0.373885   0.000947
 384   4  -6.071863   0.482382  -1.230804   0.000401   0.373885   0.001072
 385   4  -3.633026   3.141525   2.544670   0.000019   0.042041   0.000442
 386  10  -3.001643   3.345168   2.907344   0.000026   0.042041   0.000616
 387  12  -3.858902   3.272491   2.393091  -0.000096   0.042041  -0.002272
 388   4  -3.347333   1.789759   3.051944  -0.000078   0.162631  -0.000477
 389  10  -2.729219   2.084466   3.382324  -0.000189   0.162631  -0.001163
 390  14  -3.426713   1.086387   3.324728  -0.000193   0.162631  -0.001187
 391  10  -2.615020   3.120209   3.432985  -0.000383   0.193746  -0.001976
 392   4  -3.465379   2.557830   2.922584   0.000290   0.272891   0.001063
 393   4  -1.031503   3.842156  -3.216861   0.000073   0.047008   0.001562
 394  11  -0.364826   4.082624  -2.931527   0.000056   0.047008   0.001182
 395  13  -1.107098   3.649862  -3.439448  -0.000038   0.047008  -0.000799
 396  11  -0.185057   4.744367  -2.450798  -0.000967   0.303923  -0.003183
 397   4  -1.338216   4.578238  -2.542533   0.000406   0.427229   0.000951
 398   4  -4.876029   1.582708   2.318407   0.000035   0.024257   0.001436
 399  12  -5.012425   1.813318   2.180935  -0.000049   0.024257  -0.002017
 400  14  -4.838032   0.902566   2.641378   0.000028   0.024257   0.001168
 401  12  -5.006476   2.436745   2.168915  -0.000161   0.066947  -0.002401
 402  12  -4.468270   3.074355   2.285545  -0.000172   0.066947  -0.002568
 403   4  -4.452882   2.490437   2.363765  -0.000337   0.147459  -0.002285
 404  12  -3.758134   5.082384  -0.004329  -0.000162   0.072215  -0.002237
 405  12  -4.298646   4.867543  -1.012685  -0.000472   0.162149  -0.002914
 406  12  -5.193867   4.055345  -1.726895  -0.000306   0.162149  -0.001889
 407  12  -6.007189   2.924319  -1.552337  -0.000394   0.162149  -0.002429
 408  12  -6.367980   1.989873  -0.568557  -0.000462   0.162149  -0.002852
 409   4  -3.568399   5.036601  -0.582849  -0.000323   0.156598  -0.002062
 410   4  -4.441871   4.478628  -1.770862  -0.000108   0.156598  -0.000687
 411   4  -5.460974   3.319544  -2.092751  -0.000068   0.156598  -0.000431
 412   4  -6.161304   2.087541  -1.401831  -0.000176   0.156598  -0.001125
 413   4  -6.323913   1.374002  -0.346035  -0.000035   0.088227  -0.000401
 414   4  -4.250953  -0.338447  -3.580654   0.000083   0.039347   0.002120
 415  13  -4.066534  -0.187216  -3.767949  -0.000044   0.039347  -0.001113
 416  15  -4.424312  -1.047831  -3.337817   0.000061   0.039347   0.001542
 417  13  -4.127831   0.398437  -4.081758  -0.000136   0.071912  -0.001898
 418  13  -4.416939   1.515591  -4.057250  -0.000351   0.160949  -0.002183
 419  13  -3.997282   2.841229  -3.975218  -0.000263   0.160949  -0.001634
 420  13  -2.837456   3.604542  -3.864238  -0.000328   0.160949  -0.002038
 421  13  -1.686301   3.627490  -3.783404  -0.000135   0.071912  -0.001881
 422   4  -4.535909   0.717319  -3.760559  -0.000186   0.156451  -0.001189
 423   4  -4.588290   2.279626  -3.701854  -0.000067   0.156451  -0.000431
 424   4  -3.647396   3.524010  -3.586877  -0.000046   0.156451  -0.000294
 425   4  -2.132664   3.895739  -3.466884  -0.000197   0.156451  -0.001256
 426  14  -4.260748   0.618258   3.317451  -0.000623   0.245287  -0.002538
 427   4  -4.393458   1.579692   2.708985   0.000454   0.345291   0.001315
 428  15  -5.814457  -1.128701  -2.325915  -0.000279   0.212607  -0.001310
 429  15  -4.997508  -1.403499  -3.103539  -0.000349   0.212607  -0.001644
 430   4  -5.190991  -0.172900  -2.875180   0.000921   0.581446   0.001584
 431   5  -3.162528  -4.892734  -0.983839  -0.000002   0.023486  -0.000068
 432   6  -2.681997  -5.015930  -1.010239   0.000001   0.023486   0.000055
 433  15  -3.408711  -4.826512  -1.144863  -0.000032   0.023486  -0.001375
 434   5  -2.533055  -5.029443   1.230172   0.000039   0.022280   0.001767
 435   6  -2.080894  -5.233625   1.205444   0.000003   0.022280   0.000148
 436  17  -1.840569  -5.335718   1.358587  -0.000033   0.022280  -0.001491
 437   6  -2.285691  -5.221971   0.298994  -0.000229   0.358418  -0.000639
 438   5  -2.988380  -4.983041  -0.071891  -0.000055   0.358418  -0.000155
 439   5  -5.267581   0.683463   2.296526   0.000097   0.036194   0.002675
 440  12  -5.292698   1.397408   2.005234   0.000076   0.036194   0.002086
 441  14  -5.181070   0.512533   2.531143  -0.000041   0.036194  -0.001145
 442  12  -6.250407   1.547692   0.529509  -0.000240   0.220683  -0.001089
 443  12  -5.725147   1.790618   1.580240  -0.000304   0.220683  -0.001375
 444   5  -5.921621   0.566000   1.276850   0.001008   0.602628   0.001672
 445   5  -3.762702  -1.365252  -3.516181   0.000018   0.028179   0.000641
 446  13  -3.573508  -0.692775  -3.791532   0.000012   0.028179   0.000436
 447  15  -3.966185  -1.575437  -3.444794  -0.000059   0.028179  -0.002088
 448   5  -2.300505  -1.605548  -3.633537  -0.000057   0.165692  -0.000341
 449  13  -2.211925  -0.911487  -3.920386  -0.000186   0.165692  -0.001123
 450  16  -1.604801  -1.875215  -3.758478  -0.000202   0.165692  -0.001222
 451  13  -2.886268  -0.436166  -4.186891  -0.000472   0.198493  -0.002378
 452   5  -3.260278  -1.384577  -3.689871   0.000365   0.279646   0.001305
 453   5  -2.431963  -3.773178   3.020577   0.000082   0.040473   0.002035
 454  14  -2.578102  -3.576283   3.198792  -0.000059   0.040473  -0.001465
 455  17  -1.746264  -4.105964   2.936922   0.000073   0.040473   0.001797
 456  14  -5.405908  -0.062510   2.792844  -0.000139   0.073970  -0.001880
 457  14  -5.781908  -1.174117   2.624144  -0.000381   0.166694  -0.002286
 458  14  -5.461032  -2.565515   2.665766  -0.000265   0.166694  -0.001588
 459  14  -4.362717  -3.423576   2.979002  -0.000364   0.166694  -0.002182
 460  14  -3.234936  -3.503562   3.335680  -0.000146   0.073970  -0.001970
 461   5  -5.701454  -0.351018   2.333414  -0.000225   0.159893  -0.001409
 462   5  -5.873035  -1.940869   2.209081   0.000023   0.159893   0.000144
 463   5  -5.024730  -3.285456   2.421194  -0.000019   0.159893  -0.000120
 464   5  -3.556704  -3.750507   2.869693  -0.000206   0.159893  -0.001290
 465   5  -2.729679  -2.871675  -3.293892   0.000009   0.036735   0.000246
 466  15  -3.003632  -2.984870  -3.238802  -0.000080   0.036735  -0.002169
 467  16  -2.012893  -3.055222  -3.424932   0.000004   0.036735   0.000111
 468  15  -3.937207  -4.834132  -1.007371  -0.000161   0.071931  -0.002235
 469  15  -4.796843  -4.577803  -0.271361  -0.000466   0.161398  -0.002889
 470  15  -5.832603  -3.703509   0.077917  -0.000306   0.161398  -0.001898
 471  15  -6.441835  -2.519444  -0.353373  -0.000396   0.161398  -0.002451
 472  15  -6.348661  -1.561785  -1.369932  -0.000486   0.161398  -0.003008
 473   5  -3.974415  -4.801384  -0.400004  -0.000291   0.156079  -0.001868
 474   5  -5.184223  -4.179547   0.387619  -0.000125   0.156079  -0.000801
 475   5  -6.165048  -2.952252   0.338719  -0.000106   0.156079  -0.000678
 476   5  -6.472748  -1.675250  -0.524561  -0.000152   0.156079  -0.000973
 477   5  -6.185287  -0.950970  -1.540683   0.000028   0.087879   0.000319
 478  15  -3.903744  -2.380689  -3.377809  -0.000406   0.119002  -0.003412
 479   5  -3.404288  -2.349462  -3.380604  -0.000307   0.145387  -0.002110
 480  16  -1.483402  -2.851360  -3.774465  -0.000379   0.174950  -0.002166
 481   5  -2.469587  -2.337785  -3.564505   0.000269   0.246538   0.001093
 482  17  -1.482061  -4.712202   2.702305  -0.000354   0.202265  -0.001749
 483  17  -1.699220  -5.300012   1.784776  -0.000302   0.202265  -0.001491
 484   5  -2.599033  -4.517131   2.168946   0.000619   0.554252   0.001116
 485   6   2.651829  -4.137338  -1.902355   0.000047   0.077102   0.000612
 486   8   3.515874  -3.787225  -1.752261  -0.000038   0.077102  -0.000487
 487  16   2.533202  -4.063646  -2.177132  -0.000145   0.077102  -0.001886
 488   6   2.769126  -4.728080   0.252333   0.000052   0.060802   0.000857
 489   8   3.610896  -4.308445   0.178990  -0.000083   0.060802  -0.001360
 490  17   2.622533  -4.850539   0.488261  -0.000106   0.060802  -0.001742
 491   8   4.210578  -4.275757  -0.315268  -0.000848   0.241140  -0.003515
 492   8   4.138634  -4.004516  -1.361577  -0.000555   0.241140  -0.002300
 493   6   2.865987  -4.578605  -0.862109   0.000775   0.669597   0.001157
 494   6  -1.222741  -3.440667   3.379370   0.000070   0.032410   0.002145
 495  14  -1.887623  -3.117642   3.510714   0.000060   0.032410   0.001861
 496  17  -1.066063  -3.694142   3.327244  -0.000048   0.032410  -0.001486
 497  14  -2.101932  -2.382186   3.872700  -0.000913   0.314474  -0.002903
 498   6  -0.967468  -2.446215   3.669952   0.000732   0.442264   0.001655
 499   6  -1.984327  -4.083964  -2.811846   0.000013   0.043403   0.000308
 500  15  -2.721804  -3.907167  -2.739436   0.000016   0.043403   0.000360
 501  16  -1.752494  -4.020747  -3.001790  -0.000093   0.043403  -0.002142
 502  15  -3.301343  -4.196808  -2.488920  -0.000438   0.195231  -0.002245
 503  15  -3.495918  -4.730004  -1.568771  -0.000356   0.195231  -0.001821
 504   6  -2.313637  -4.714823  -1.945099   0.000002   0.535600   0.000003
 505  16   1.979105  -4.496762  -2.435294  -0.000099   0.069853  -0.001419
 506  16   0.992565  -5.008926  -2.506624  -0.000303   0.154756  -0.001959
 507  16  -0.321896  -4.953437  -2.795241  -0.000481   0.154756  -0.003111
 508  16  -1.203141  -4.362424  -3.134020  -0.000202   0.069853  -0.002887
 509   6   1.677492  -4.844619  -2.048187  -0.000015   0.153500  -0.000097
 510   6   0.233899  -5.254800  -2.241565  -0.000155   0.153500  -0.001008
 511   6  -1.120121  -4.726519  -2.662460  -0.000362   0.153500  -0.002360
 512  17  -1.449020  -5.670481   1.228756  -0.000165   0.068434  -0.002406
 513  17  -0.710240  -6.020238   0.487400  -0.000501   0.151628  -0.003301
 514  17   0.548151  -6.044791   0.043096  -0.000318   0.151628  -0.002100
 515  17   1.775607  -5.587403   0.299421  -0.000398   0.151628  -0.002624
 516   6  -1.451575  -5.671054   0.633353  -0.000376   0.150307  -0.002503
 517   6  -0.244805  -5.979861  -0.201477  -0.000241   0.150307  -0.001602
 518   6   1.228417  -5.723344  -0.312881  -0.000142   0.150307  -0.000948
 519   6   2.243617  -5.198811   0.108664   0.000020   0.083607   0.000242
 520  17   1.024657  -3.584926   3.412917  -0.000030   0.068529  -0.000438
 521  17  -0.060214  -3.782981   3.481832  -0.000393   0.151883  -0.002589
 522   6   0.556998  -3.223418   3.487552  -0.000047   0.150475  -0.000309
 523   6  -0.631157  -3.498310   3.479947  -0.000026   0.083723  -0.000306
 524  11   3.246214   4.775730   0.106443  -0.000102   0.269789  -0.000377
 525  11   3.388390   4.676037  -0.831856  -0.000324   0.269789  -0.001201
 526   7   4.586012   4.018255  -0.095280  -0.000811   0.539760  -0.001503
 527  16   2.596042  -4.123506  -2.472737   0.000192   0.055110   0.003483
 528   8   4.040319  -3.832589  -1.894390   0.000164   0.055110   0.002984
 529  17   2.724466  -5.020124   0.875164   0.000331   0.263456   0.001258
 530  17   2.757331  -4.466114   1.831517   0.000147   0.526535   0.000280
 531   8   4.220405  -4.154170   0.809906  -0.000706   0.526535  -0.001340
 532   8   4.208150  -3.530543   1.722900   0.000093   0.263456   0.000354
 533   9   1.569796   2.112148  -3.498213  -0.000194   0.332989  -0.000584
 534  11   0.967725   2.899413  -3.143230  -0.000519   0.332989  -0.001558
 535  13   0.186782   2.399332  -3.544566  -0.000141   0.332989  -0.000424
 536  11   2.375488   3.832015  -2.850034  -0.000192   0.264160  -0.000728
 537  11   1.612320   3.415292  -3.179441  -0.000114   0.264160  -0.000431
 538   9   2.836422   2.553429  -3.612767  -0.000029   0.528412  -0.000054
 539   9   1.188981  -0.188741  -3.976411  -0.000318   0.372749  -0.000854
 540  13  -0.197362   0.098200  -3.983963  -0.000315   0.372749  -0.000845
 541  16   0.429430  -0.876423  -3.914732  -0.000516   0.372749  -0.001385
 542  13  -0.151822   2.131306  -4.258310   0.000130   0.275494   0.000472
 543  13  -0.343204   1.160357  -4.502835  -0.000252   0.549989  -0.000459
 544   9   1.776897   1.359925  -4.320841  -0.000061   0.549989  -0.000111
 545   9   1.579998   0.373070  -4.483658   0.000100   0.275494   0.000364
 546  16   0.897355  -1.521032  -4.281917  -0.000038   0.243055  -0.000156
 547  16   1.683968  -2.353704  -4.168303  -0.000482   0.486170  -0.000991
 548   9   2.250587  -0.872728  -4.444092  -0.000242   0.486170  -0.000497
 549   9   3.036444  -1.687103  -4.233777   0.000397   0.243055   0.001632
 550  12  -3.984803   3.652283   2.349728   0.000180   0.235129   0.000764
 551  12  -3.763525   4.352523   1.904915   0.000131   0.235129   0.000555
 552  10  -2.672541   4.111863   2.897400  -0.000038   0.470297  -0.000081
 553  14  -2.327833  -0.055759   4.228987   0.000072   0.248899   0.000289
 554  14  -3.134471   0.521485   3.992523  -0.000201   0.497330  -0.000405
 555  10  -1.640183   1.597026   4.245959   0.000308   0.497330   0.000619
 556  10  -2.427096   2.164927   3.932835   0.000212   0.248899   0.000852
 557  13  -0.794423   3.286679  -3.771730  -0.000045   0.412590  -0.000108
 558  11   0.424418   3.757927  -3.151325  -0.000090   0.412590  -0.000217
 559  14  -5.092654   0.601360   2.877491   0.000252   0.134814   0.001870
 560  12  -5.360170   1.850880   2.127739   0.000265   0.134814   0.001967
 561  15  -4.407823  -1.530663  -3.498852   0.000254   0.199071   0.001276
 562  13  -3.763571  -0.343454  -4.081695   0.000264   0.199071   0.001328
 563  16  -1.064946  -1.900707  -4.181926   0.000100   0.314705   0.000317
 564  16  -0.202826  -1.372768  -4.272158   0.000090   0.314705   0.000286
 565  13  -1.501164  -0.253616  -4.420933  -0.000796   0.629355  -0.001265
 566  17  -1.204869  -4.082854   3.315742   0.000294   0.263448   0.001118
 567  14  -2.471667  -3.388334   3.563762   0.000323   0.263448   0.001226
 568  16  -1.723819  -3.740966  -3.409158   0.000126   0.331811   0.000378
 569  15  -3.132175  -3.448025  -3.179056   0.000118   0.331811   0.000356
 =====================================================


   1 warning(s) detected.
     A line exceeding 80 characters begins with "http://cactus.nci.ni".
 There may be a problem in your input file.

              2955558  WORDS OF DYNAMIC MEMORY USED
 EXECUTION OF GAMESS TERMINATED NORMALLY Fri Nov 25 04:16:40 2016
 DDI: 263640 bytes (0.3 MB / 0 MWords) used by master data server.

 ----------------------------------------
 CPU timing information for all processes
 ========================================
 0: 1336.468 + 0.464 = 1336.932
 ----------------------------------------
 ddikick.x: exited gracefully.
