----- GAMESS execution script -----

          ******************************************************
          *         GAMESS VERSION =  5 DEC 2014 (R1)          *
          *             FROM IOWA STATE UNIVERSITY             *
          * M.W.SCHMIDT, K.K.BALDRIDGE, J.A.BOATZ, S.T.ELBERT, *
          *   M.S.GORDON, J.H.JENSEN, S.KOSEKI, N.MATSUNAGA,   *
          *          K.A.NGUYEN, S.J.SU, T.L.WINDUS,           *
          *       TOGETHER WITH M.DUPUIS, J.A.MONTGOMERY       *
          *         J.COMPUT.CHEM.  14, 1347-1363(1993)        *
          **************** 64 BIT LINUX VERSION ****************

 EXECUTION OF GAMESS BEGUN Fri Nov 25 04:24:25 2016

            ECHO OF THE FIRST FEW INPUT CARDS -
 INPUT CARD>! SELECT RESTRICTED HARTREE-FOCK AS DEFAULT                                     
 INPUT CARD>$contrl scftyp=rhf $end                                                         
 INPUT CARD>                                                                                
 INPUT CARD>! THEORY: HF OR DFT                                                             
 INPUT CARD> $contrl mplevl=0 $end                                                          
 INPUT CARD>                                                                                
 INPUT CARD> $system timlim=10000 mwords=20 $end                                            
 INPUT CARD> $SCF DIRSCF=.TRUE. $end                                                        
 INPUT CARD>                                                                                
 INPUT CARD>                                                                                
 INPUT CARD>! BASIS SETS                                                                    
 INPUT CARD>! 6-311G(d,p)                                                                   
 INPUT CARD> $BASIS GBASIS=N311 NGAUSS=6 NDFUNC=1 NPFUNC=1 $END                             
 INPUT CARD>                                                                                
 INPUT CARD>! One of the following                                                          
 INPUT CARD> $guess guess=HUCKEL $end                                                       
 INPUT CARD>                                                                                
 INPUT CARD> $statpt projct=.FALSE. $end                                                    
 INPUT CARD> $STATPT IFREEZ(1)=1,2,3 $END                                                   
 INPUT CARD>                                                                                
 INPUT CARD>! Optimize the geometry with COSMO effects                                      
 INPUT CARD> $statpt opttol=0.0005 nstep=50 $end                                            
 INPUT CARD> $contrl nzvar=1 $end                                                           
 INPUT CARD> $zmat dlc=.t. auto=.t. $end                                                    
 INPUT CARD> $contrl runtyp=OPTIMIZE maxit=200 $end                                         
 INPUT CARD>                                                                                
 INPUT CARD>! Run COSMO on perfect conductor                                                
 INPUT CARD> $COSGMS PRFCND=.TRUE. $end                                                     
 INPUT CARD>                                                                                
 INPUT CARD>! Specifying RSOLV                                                              
 INPUT CARD> $COSGMS COSRAD = 1.4 $end                                                      
 INPUT CARD>                                                                                
 INPUT CARD>! available memory                                                              
 INPUT CARD> $SYSTEM MWORDS=40 $END                                                         
 INPUT CARD>                                                                                
 INPUT CARD> $DATA                                                                          
 INPUT CARD>                                                                                
 INPUT CARD>C1                                                                              
 INPUT CARD>C      6.0      3.8423000000    2.3744000000    1.6673000000                    
 INPUT CARD>C      6.0      2.8455000000    3.0430000000    2.6154000000                    
 INPUT CARD>C      6.0      1.4022000000    2.7249000000    2.2207000000                    
 INPUT CARD>C      6.0      5.2852000000    2.6803000000    2.0717000000                    
 INPUT CARD>C      6.0      0.4062000000    3.4088000000    3.1568000000                    
 INPUT CARD>C      6.0      6.2813000000    2.0271000000    1.1140000000                    
 INPUT CARD>C      6.0     -1.0293000000    3.0850000000    2.7754000000                    
 INPUT CARD>C      6.0      7.7173000000    2.3185000000    1.5197000000                    
 INPUT CARD>H      1.0      3.6651000000    2.7242000000    0.6431000000                    
 INPUT CARD>H      1.0      3.6824000000    1.2893000000    1.6708000000                    
 INPUT CARD>H      1.0      2.9992000000    4.1290000000    2.6030000000                    
 INPUT CARD>H      1.0      3.0283000000    2.7024000000    3.6420000000                    
   40000000 WORDS OF MEMORY AVAILABLE

     BASIS OPTIONS
     -------------
     GBASIS=N311         IGAUSS=       6      POLAR=POPN311 
     NDFUNC=       1     NFFUNC=       0     DIFFSP=       F
     NPFUNC=       1      DIFFS=       F     BASNAM=        


     RUN TITLE
     ---------
                                                                                 

 THE POINT GROUP OF THE MOLECULE IS C1      
 THE ORDER OF THE PRINCIPAL AXIS IS     0

 ATOM      ATOMIC                      COORDINATES (BOHR)
           CHARGE         X                   Y                   Z
 C           6.0     7.2608941626        4.4869653852        3.1507401393
 C           6.0     5.3772152981        5.7504361806        4.9423893483
 C           6.0     2.6497737800        5.1493143439        4.1965145009
 C           6.0     9.9875797903        5.0650325649        3.9149453288
 C           6.0     0.7676066962        6.4416979469        5.9654869980
 C           6.0    11.8699358467        3.8306635497        2.1051547503
 C           6.0    -1.9450949592        5.8298046721        5.2447455063
 C           6.0    14.5835823650        4.3813297025        2.8718165835
 H           1.0     6.9260347176        5.1479915358        1.2152827827
 H           1.0     6.9587269772        2.4364237160        3.1573541803
 H           1.0     5.6676661824        7.8026786033        4.9189567460
 H           1.0     5.7226572086        5.1067955092        6.8823820473
 H           1.0     2.3540316629        3.0983947295        4.2447025136
 H           1.0     2.3086782392        5.7697113857        2.2483959802
 H           1.0    10.3271635503        4.3826525107        5.8424658362
 H           1.0    10.2855895786        7.1161411520        3.9323308079
 H           1.0     1.0402941562        8.4941293422        5.9038819308
 H           1.0     1.1047338124        5.8364187131        7.9177629160
 H           1.0    11.5535957163        4.5266496310        0.1795239688
 H           1.0    11.5760834556        1.7803108530        2.0722735181
 H           1.0    -3.2593993836        6.7824155425        6.5271135616
 H           1.0    -2.3610236491        6.4570047274        3.3176029440
 H           1.0    -2.3011193352        3.7949477285        5.3569952300
 H           1.0    14.9826924937        3.6458483481        4.7638102424
 H           1.0    15.8975088443        3.4897569815        1.5465517484
 H           1.0    14.9556694120        6.4163756187        2.8738952821

          INTERNUCLEAR DISTANCES (ANGS.)




     $CONTRL OPTIONS
     ---------------
 SCFTYP=RHF          RUNTYP=OPTIMIZE     EXETYP=RUN     
 MPLEVL=       0     CITYP =NONE         CCTYP =NONE         VBTYP =NONE    
 DFTTYP=NONE         TDDFT =NONE    
 MULT  =       1     ICHARG=       0     NZVAR =       1     COORD =UNIQUE  
 PP    =NONE         RELWFN=NONE         LOCAL =NONE         NUMGRD=       F
 ISPHER=      -1     NOSYM =       0     MAXIT =     200     UNITS =ANGS    
 PLTORB=       F     MOLPLT=       F     AIMPAC=       F     FRIEND=        
 NPRINT=       7     IREST =       0     GEOM  =INPUT   
 NORMF =       0     NORMP =       0     ITOL  =      20     ICUT  =       9
 INTTYP=BEST         GRDTYP=BEST         QMTTOL= 1.0E-06

     $SYSTEM OPTIONS
     ---------------
  REPLICATED MEMORY=    40000000 WORDS (ON EVERY NODE).
 DISTRIBUTED MEMDDI=           0 MILLION WORDS IN AGGREGATE,
 MEMDDI DISTRIBUTED OVER   1 PROCESSORS IS           0 WORDS/PROCESSOR.
 TOTAL MEMORY REQUESTED ON EACH PROCESSOR=    40000000 WORDS.
 TIMLIM=       10000.00 MINUTES, OR       6.9 DAYS.
 PARALL= F  BALTYP=  DLB     KDIAG=    0  COREFL= F
 MXSEQ2=     300 MXSEQ3=     150  mem10=         0

     $COSGMS OPTIONS
     ---------------
     EPSI  =   INFTY     NSPA  =      92     COSRAD=    1.40
     DISEX =   10.00     OUTCHG=DBLCAV       COSBUG=       F
     COSWRT=       F     DCOSMO=       F

     SYMMETRY COORDINATES WILL NOT BE USED FOR 
     THE COSMO CALCULATION, EVEN IF SPECIFIED:
         -- SWITCHING TO C1 POINT GROUP --


     DEFINITION OF CAVITY
     ---------------------------
     ATOM         COORDINATES           RADIUS 
     1    7.2609    4.4870    3.1507    2.0000
     2    5.3772    5.7504    4.9424    2.0000
     3    2.6498    5.1493    4.1965    2.0000
     4    9.9876    5.0650    3.9149    2.0000
     5    0.7676    6.4417    5.9655    2.0000
     6   11.8699    3.8307    2.1052    2.0000
     7   -1.9451    5.8298    5.2447    2.0000
     8   14.5836    4.3813    2.8718    2.0000
     9    6.9260    5.1480    1.2153    1.3000
    10    6.9587    2.4364    3.1574    1.3000
    11    5.6677    7.8027    4.9190    1.3000
    12    5.7227    5.1068    6.8824    1.3000
    13    2.3540    3.0984    4.2447    1.3000
    14    2.3087    5.7697    2.2484    1.3000
    15   10.3272    4.3827    5.8425    1.3000
    16   10.2856    7.1161    3.9323    1.3000
    17    1.0403    8.4941    5.9039    1.3000
    18    1.1047    5.8364    7.9178    1.3000
    19   11.5536    4.5266    0.1795    1.3000
    20   11.5761    1.7803    2.0723    1.3000
    21   -3.2594    6.7824    6.5271    1.3000
    22   -2.3610    6.4570    3.3176    1.3000
    23   -2.3011    3.7949    5.3570    1.3000
    24   14.9827    3.6458    4.7638    1.3000
    25   15.8975    3.4898    1.5466    1.3000
    26   14.9557    6.4164    2.8739    1.3000

          ----------------
          PROPERTIES INPUT
          ----------------

     MOMENTS            FIELD           POTENTIAL          DENSITY
 IEMOM =       1   IEFLD =       0   IEPOT =       0   IEDEN =       0
 WHERE =COMASS     WHERE =NUCLEI     WHERE =NUCLEI     WHERE =NUCLEI  
 OUTPUT=BOTH       OUTPUT=BOTH       OUTPUT=BOTH       OUTPUT=BOTH    
 IEMINT=       0   IEFINT=       0                     IEDINT=       0
                                                       MORB  =       0
          EXTRAPOLATION IN EFFECT
          SOSCF IN EFFECT
 ORBITAL PRINTING OPTION: NPREO=     1   260     2     1

     -------------------------------
     INTEGRAL TRANSFORMATION OPTIONS
     -------------------------------
     NWORD  =            0
     CUTOFF = 1.0E-09     MPTRAN =       0
     DIRTRF =       T     AOINTS =DUP     

          ----------------------
          INTEGRAL INPUT OPTIONS
          ----------------------
 NOPK  =       1 NORDER=       0 SCHWRZ=       T


 -----------------------------------------------
  STATISTICS ON AUTOMATIC COORDINATE GENERATION 
 -----------------------------------------------
  NUMBER OF USER SPECIFIED BONDS                             0
  NUMBER OF BONDS                                           25
  NUMBER OF ANGLES                                          48
  NUMBER OF TORSIONS                                        63
  NUMBER OF EXTRA COORD.                                     0
  NUMBER OF EXTRA COORD. FOR CONSTRAINTS                     0
  NUMBER OF CONSTRAINED COORD.                               0

  TOTAL NUMBER OF PRIMITIVES                               136
 -----------------------------------------------

   --- ENCODED Z MATRIX ---
 COORD  TYPE   I   J   K   L   M   N
    1      1    1  10
    2      1    1   2
    3      1    1   4
    4      1    1   9
    5      1    2  11
    6      1    2   3
    7      1    2  12
    8      1    3  14
    9      1    3  13
   10      1    3   5
   11      1    4  15
   12      1    4  16
   13      1    4   6
   14      1    5   7
   15      1    5  18
   16      1    5  17
   17      1    6   8
   18      1    6  20
   19      1    6  19
   20      1    7  23
   21      1    7  22
   22      1    7  21
   23      1    8  26
   24      1    8  25
   25      1    8  24
   26      2    1   4  15
   27      2    1   2  11
   28      2    1   2  12
   29      2    1   4   6
   30      2    1   2   3
   31      2    1   4  16
   32      2    2   1   4
   33      2    2   1   9
   34      2    2   3  14
   35      2    2   3  13
   36      2    2   3   5
   37      2    2   1  10
   38      2    3   2  11
   39      2    3   5  17
   40      2    3   5   7
   41      2    3   5  18
   42      2    3   2  12
   43      2    4   6  19
   44      2    4   6  20
   45      2    4   6   8
   46      2    4   1  10
   47      2    4   1   9
   48      2    5   3  13
   49      2    5   3  14
   50      2    5   7  22
   51      2    5   7  23
   52      2    5   7  21
   53      2    6   4  16
   54      2    6   4  15
   55      2    6   8  24
   56      2    6   8  25
   57      2    6   8  26
   58      2    7   5  18
   59      2    7   5  17
   60      2    8   6  19
   61      2    8   6  20
   62      2    9   1  10
   63      2   11   2  12
   64      2   13   3  14
   65      2   15   4  16
   66      2   17   5  18
   67      2   19   6  20
   68      2   21   7  22
   69      2   21   7  23
   70      2   22   7  23
   71      2   24   8  25
   72      2   24   8  26
   73      2   25   8  26
   74      3    1   4   6  19
   75      3    1   4   6   8
   76      3    1   2   3   5
   77      3    1   2   3  13
   78      3    1   2   3  14
   79      3    1   4   6  20
   80      3    2   1   4   6
   81      3    2   1   4  16
   82      3    2   1   4  15
   83      3    2   3   5  17
   84      3    2   3   5  18
   85      3    2   3   5   7
   86      3    3   5   7  21
   87      3    3   5   7  22
   88      3    3   5   7  23
   89      3    3   2   1   9
   90      3    3   2   1   4
   91      3    3   2   1  10
   92      3    4   1   2  11
   93      3    4   6   8  24
   94      3    4   6   8  25
   95      3    4   6   8  26
   96      3    4   1   2  12
   97      3    5   3   2  12
   98      3    5   3   2  11
   99      3    6   4   1   9
  100      3    6   4   1  10
  101      3    7   5   3  13
  102      3    7   5   3  14
  103      3    8   6   4  16
  104      3    8   6   4  15
  105      3    9   1   4  15
  106      3    9   1   2  11
  107      3    9   1   4  16
  108      3    9   1   2  12
  109      3   10   1   2  12
  110      3   10   1   4  15
  111      3   10   1   4  16
  112      3   10   1   2  11
  113      3   11   2   3  13
  114      3   11   2   3  14
  115      3   12   2   3  13
  116      3   12   2   3  14
  117      3   13   3   5  18
  118      3   13   3   5  17
  119      3   14   3   5  18
  120      3   14   3   5  17
  121      3   15   4   6  20
  122      3   15   4   6  19
  123      3   16   4   6  20
  124      3   16   4   6  19
  125      3   17   5   7  21
  126      3   17   5   7  23
  127      3   17   5   7  22
  128      3   18   5   7  21
  129      3   18   5   7  23
  130      3   18   5   7  22
  131      3   19   6   8  26
  132      3   19   6   8  25
  133      3   19   6   8  24
  134      3   20   6   8  26
  135      3   20   6   8  25
  136      3   20   6   8  24

          INDEP./SYM. INTERNAL COORDINATES
          --------------------------------
 CRD  1=  -0.1046 ( 26) -0.1320 ( 27) -0.1327 ( 28)  0.3383 ( 29)  0.4324 ( 30)
          -0.1060 ( 31) -0.4325 ( 32)  0.1321 ( 33)  0.1060 ( 34)  0.1047 ( 35)
          -0.3383 ( 36)  0.1328 ( 37) -0.1284 ( 38)  0.1956 ( 40) -0.1284 ( 42)
          -0.1957 ( 45)  0.1284 ( 46)  0.1282 ( 47)
 CRD  2=  -0.1186 (  3) -0.1185 (  6) -0.1223 ( 26)  0.1478 ( 29) -0.1620 ( 30)
          -0.1624 ( 32) -0.1225 ( 35)  0.1483 ( 36)  0.1553 ( 38) -0.2485 ( 40)
          -0.2482 ( 45)  0.1554 ( 47)  0.1315 ( 59)  0.1314 ( 60)  0.1292 ( 74)
           0.1925 ( 75) -0.2151 ( 76) -0.1128 ( 77) -0.2153 ( 80) -0.1129 ( 82)
           0.1293 ( 83)  0.1925 ( 85)  0.1459 ( 89)  0.3003 ( 90)  0.1334 ( 91)
           0.1458 ( 92)  0.1334 ( 96)
 CRD  3=  -0.1137 (  2) -0.1730 (  3) -0.1730 (  6) -0.1131 ( 10) -0.1131 ( 13)
           0.1508 ( 29) -0.2148 ( 30) -0.1109 ( 31) -0.2146 ( 32) -0.1109 ( 34)
           0.1507 ( 36) -0.3095 ( 40)  0.1032 ( 41)  0.1532 ( 42)  0.1032 ( 44)
          -0.3096 ( 45)  0.1531 ( 46)  0.1416 ( 58)  0.1416 ( 61) -0.1539 ( 75)
           0.1682 ( 76) -0.1098 ( 79)  0.1683 ( 80) -0.1099 ( 84) -0.1540 ( 85)
          -0.1017 ( 89) -0.2366 ( 90) -0.1188 ( 91) -0.1017 ( 92) -0.1188 ( 96)
 CRD  4=  -0.3337 (  2) -0.2596 (  3) -0.2597 (  6) -0.2179 ( 10) -0.2178 ( 13)
          -0.1394 ( 14) -0.1393 ( 17)  0.1092 ( 26) -0.4276 ( 29) -0.1086 ( 30)
           0.1199 ( 31) -0.1086 ( 32)  0.1199 ( 34)  0.1093 ( 35) -0.4276 ( 36)
           0.1436 ( 48)  0.1491 ( 49)  0.1492 ( 53)  0.1437 ( 54)
 CRD  5=   0.1214 ( 26)  0.1782 ( 27) -0.1772 ( 28) -0.1195 ( 31)  0.1781 ( 33)
          -0.1195 ( 34)  0.1214 ( 35) -0.1774 ( 37) -0.1283 ( 38)  0.1004 ( 39)
          -0.1016 ( 41)  0.1287 ( 42)  0.1005 ( 43) -0.1015 ( 44)  0.1287 ( 46)
          -0.1285 ( 47) -0.1376 ( 48)  0.1395 ( 49)  0.1394 ( 53) -0.1377 ( 54)
          -0.1003 ( 74) -0.1199 ( 75) -0.2727 ( 76) -0.1795 ( 77) -0.1799 ( 78)
          -0.1002 ( 79) -0.2728 ( 80) -0.1799 ( 81) -0.1795 ( 82) -0.1002 ( 83)
          -0.1001 ( 84) -0.1198 ( 85) -0.1017 ( 89) -0.1437 ( 90) -0.1020 ( 91)
          -0.1017 ( 92) -0.1022 ( 96) -0.1360 ( 97) -0.1360 ( 98) -0.1359 ( 99)
          -0.1359 (100)
 CRD  6=  -0.1437 ( 14)  0.1438 ( 17)  0.2421 ( 30) -0.2421 ( 32)  0.1475 ( 39)
          -0.4684 ( 40)  0.1461 ( 41) -0.1475 ( 43) -0.1462 ( 44)  0.4685 ( 45)
          -0.1015 ( 51)  0.1017 ( 55)  0.1416 ( 58)  0.1442 ( 59) -0.1444 ( 60)
          -0.1415 ( 61)
 CRD  7=   0.1988 (  3) -0.1987 (  6) -0.2637 ( 10)  0.2636 ( 13) -0.1867 ( 14)
           0.1864 ( 17) -0.1147 ( 26)  0.1472 ( 27)  0.1492 ( 28)  0.3623 ( 29)
          -0.2584 ( 30) -0.1101 ( 31)  0.2591 ( 32) -0.1474 ( 33)  0.1104 ( 34)
           0.1148 ( 35) -0.3625 ( 36) -0.1494 ( 37)  0.1122 ( 48)  0.1111 ( 49)
          -0.1112 ( 53) -0.1123 ( 54) -0.1046 (108)  0.1046 (112)
 CRD  8=   0.1883 (  2) -0.1436 ( 14) -0.1440 ( 17)  0.1136 ( 26) -0.1668 ( 29)
           0.3519 ( 30)  0.1140 ( 31)  0.3514 ( 32)  0.1140 ( 34)  0.1132 ( 35)
          -0.1662 ( 36) -0.1568 ( 38) -0.3172 ( 40) -0.1552 ( 42) -0.3172 ( 45)
          -0.1550 ( 46) -0.1567 ( 47)  0.1002 ( 59)  0.1000 ( 60)
 CRD  9=   0.1228 ( 26) -0.1236 ( 31)  0.1234 ( 34) -0.1231 ( 35)  0.2289 ( 50)
          -0.2277 ( 51)  0.2277 ( 55) -0.2287 ( 57) -0.1238 ( 58)  0.1211 ( 59)
          -0.1212 ( 60)  0.1236 ( 61) -0.1669 ( 74) -0.3302 ( 75) -0.1395 ( 76)
          -0.1677 ( 79)  0.1395 ( 80)  0.1669 ( 83)  0.1678 ( 84)  0.3303 ( 85)
          -0.1364 ( 86)  0.1364 ( 94)  0.1686 (101)  0.1707 (102) -0.1706 (103)
          -0.1686 (104)
 CRD 10=   0.1979 ( 39) -0.1985 ( 41) -0.1979 ( 43)  0.1984 ( 44) -0.1897 ( 48)
           0.1922 ( 49) -0.1921 ( 53)  0.1896 ( 54)  0.1150 ( 58) -0.1152 ( 59)
           0.1153 ( 60) -0.1151 ( 61) -0.2424 ( 76)  0.2423 ( 80) -0.1725 ( 86)
          -0.1847 ( 87) -0.1845 ( 88)  0.1844 ( 93)  0.1724 ( 94)  0.1846 ( 95)
          -0.2000 ( 97) -0.1999 ( 98)  0.1998 ( 99)  0.1999 (100)
 CRD 11=   0.1109 ( 38) -0.1143 ( 42) -0.1142 ( 46)  0.1109 ( 47) -0.3563 ( 50)
           0.3601 ( 51)  0.3601 ( 55) -0.3567 ( 57)  0.1175 ( 58) -0.1185 ( 59)
          -0.1184 ( 60)  0.1175 ( 61)  0.1209 ( 68) -0.1165 ( 69) -0.1167 ( 71)
           0.1208 ( 73) -0.1114 ( 75) -0.1114 ( 85)  0.1291 ( 89)  0.2344 ( 90)
           0.1282 ( 91)  0.1291 ( 92)  0.1282 ( 96) -0.1372 (101) -0.1376 (102)
          -0.1376 (103) -0.1372 (104)
 CRD 12=   0.2395 (  2) -0.1319 (  3) -0.1318 (  6)  0.1366 ( 10)  0.1370 ( 13)
          -0.4138 ( 14) -0.4137 ( 17) -0.2555 ( 52) -0.2550 ( 56) -0.1346 ( 58)
          -0.1315 ( 59) -0.1316 ( 60) -0.1346 ( 61)  0.1452 ( 68)  0.1471 ( 69)
           0.1469 ( 71)  0.1451 ( 73)
 CRD 13=  -0.4325 ( 14)  0.4324 ( 17) -0.1249 ( 29)  0.1251 ( 36) -0.3461 ( 52)
           0.3453 ( 56) -0.1298 ( 58) -0.1312 ( 59)  0.1313 ( 60)  0.1298 ( 61)
           0.1704 ( 68)  0.1711 ( 69) -0.1708 ( 71) -0.1703 ( 73)
 CRD 14=  -0.1994 (  2)  0.2965 (  3)  0.2965 (  6) -0.3124 ( 10) -0.3125 ( 13)
          -0.1370 ( 14) -0.1383 ( 17) -0.1207 ( 48) -0.1218 ( 49) -0.2975 ( 52)
          -0.1220 ( 53) -0.1209 ( 54) -0.2987 ( 56)
 CRD 15=   0.1767 (  3) -0.1772 (  6)  0.4087 ( 10) -0.4085 ( 13) -0.1148 ( 14)
           0.1145 ( 17)  0.1190 ( 48)  0.1170 ( 49) -0.1723 ( 50) -0.1685 ( 51)
           0.2401 ( 52) -0.1170 ( 53) -0.1189 ( 54)  0.1691 ( 55) -0.2404 ( 56)
           0.1721 ( 57)  0.1578 ( 70) -0.1578 ( 72)
 CRD 16=  -0.4310 (  2)  0.2171 (  3)  0.2167 (  6)  0.2284 ( 10)  0.2280 ( 13)
          -0.1712 ( 14) -0.1710 ( 17) -0.1026 ( 27) -0.1026 ( 33)  0.1077 ( 38)
           0.1013 ( 42)  0.1012 ( 46)  0.1076 ( 47) -0.1787 ( 50) -0.1767 ( 51)
           0.1974 ( 52) -0.1771 ( 55)  0.1975 ( 56) -0.1785 ( 57)  0.1681 ( 70)
           0.1679 ( 72)
 CRD 17=  -0.1663 ( 27)  0.1722 ( 28) -0.1662 ( 33)  0.1721 ( 37)  0.1060 ( 38)
           0.2323 ( 39) -0.2334 ( 41) -0.1118 ( 42)  0.2325 ( 43) -0.2336 ( 44)
          -0.1116 ( 46)  0.1056 ( 47)  0.1317 ( 50) -0.1211 ( 51) -0.1215 ( 55)
           0.1324 ( 57)  0.1686 ( 58) -0.1660 ( 59) -0.1662 ( 60)  0.1689 ( 61)
           0.1486 ( 77)  0.1477 ( 78)  0.1477 ( 81)  0.1486 ( 82) -0.1887 ( 86)
          -0.1861 ( 87) -0.1852 ( 88) -0.1853 ( 93) -0.1889 ( 94) -0.1862 ( 95)
 CRD 18=   0.1001 ( 20)  0.1595 ( 26) -0.1529 ( 31)  0.1529 ( 34) -0.1597 ( 35)
           0.1008 ( 38) -0.1064 ( 42)  0.1064 ( 46) -0.1010 ( 47) -0.3325 ( 50)
           0.3433 ( 51) -0.3428 ( 55)  0.3324 ( 57)  0.1432 ( 68) -0.1421 ( 69)
           0.1420 ( 71) -0.1430 ( 73) -0.1642 ( 74) -0.1275 ( 75) -0.1649 ( 79)
           0.1641 ( 83)  0.1649 ( 84)  0.1275 ( 85)  0.1044 ( 89)  0.1080 ( 91)
          -0.1043 ( 92) -0.1080 ( 96)
 CRD 19=   0.4413 (  3) -0.4415 (  6)  0.1341 ( 14) -0.1339 ( 17)  0.1014 ( 26)
           0.1146 ( 31) -0.1147 ( 34) -0.1015 ( 35) -0.1016 ( 38)  0.1014 ( 47)
           0.1715 ( 50)  0.1576 ( 51) -0.1993 ( 52) -0.1576 ( 55)  0.1991 ( 56)
          -0.1712 ( 57) -0.1530 ( 70)  0.1528 ( 72) -0.1177 (108)  0.1177 (112)
 CRD 20=  -0.1456 ( 26)  0.1405 ( 31) -0.1398 ( 34)  0.1450 ( 35) -0.2038 ( 39)
           0.2024 ( 41)  0.2040 ( 43) -0.2026 ( 44) -0.1423 ( 48)  0.1405 ( 49)
          -0.1403 ( 50)  0.1345 ( 51) -0.1412 ( 53)  0.1430 ( 54) -0.1342 ( 55)
           0.1402 ( 57) -0.2122 ( 58)  0.2106 ( 59) -0.2109 ( 60)  0.2125 ( 61)
          -0.1277 ( 76)  0.1277 ( 80)  0.1074 ( 86)  0.1201 ( 87)  0.1196 ( 88)
          -0.1196 ( 93) -0.1074 ( 94) -0.1201 ( 95)  0.1366 (101)  0.1339 (102)
          -0.1341 (103) -0.1368 (104)
 CRD 21=  -0.1255 (  1) -0.3908 (  2) -0.1438 (  3) -0.1450 (  4) -0.1440 (  5)
          -0.1435 (  6) -0.1263 (  7)  0.2297 ( 10)  0.2302 ( 13)  0.1003 ( 15)
           0.1144 ( 16)  0.1015 ( 18)  0.1135 ( 19) -0.1164 ( 28)  0.1601 ( 30)
           0.1601 ( 32) -0.1066 ( 37)  0.1056 ( 39) -0.1292 ( 40)  0.1055 ( 43)
          -0.1294 ( 45)  0.1568 ( 50)  0.1648 ( 51) -0.2251 ( 52)  0.1645 ( 55)
          -0.2253 ( 56)  0.1576 ( 57)  0.1044 ( 62)  0.1044 ( 63) -0.1522 ( 70)
          -0.1523 ( 72)
 CRD 22=  -0.1153 ( 26) -0.2621 ( 27)  0.2584 ( 28)  0.1163 ( 31)  0.2544 ( 33)
          -0.1242 ( 34)  0.1195 ( 35) -0.2591 ( 37)  0.2742 ( 38) -0.2777 ( 42)
           0.2738 ( 46) -0.2729 ( 47) -0.1520 ( 48)  0.1555 ( 49) -0.1479 ( 53)
           0.1481 ( 54)  0.1443 ( 77)  0.1469 ( 78) -0.1433 ( 81) -0.1433 ( 82)
           0.1709 ( 89)  0.1722 ( 91) -0.1697 ( 92) -0.1713 ( 96) -0.1058 ( 97)
          -0.1076 ( 98)  0.1024 ( 99)  0.1043 (100)
 CRD 23=   0.2311 ( 26) -0.1372 ( 27)  0.1157 ( 28) -0.2382 ( 31) -0.1450 ( 33)
          -0.2350 ( 34)  0.2280 ( 35)  0.1236 ( 37) -0.1277 ( 39)  0.1453 ( 41)
          -0.1272 ( 43)  0.1449 ( 44) -0.1023 ( 46) -0.2152 ( 48)  0.2237 ( 49)
           0.2279 ( 53) -0.2193 ( 54) -0.1458 ( 58)  0.1472 ( 59)  0.1474 ( 60)
          -0.1460 ( 61) -0.1464 ( 74) -0.1479 ( 79) -0.1450 ( 83) -0.1466 ( 84)
          -0.1203 ( 97) -0.1303 ( 98) -0.1332 ( 99) -0.1232 (100)
 CRD 24=   0.1962 (  3) -0.1959 (  6) -0.1420 (  8) -0.1420 (  9) -0.2846 ( 10)
           0.1421 ( 11)  0.1419 ( 12)  0.2843 ( 13) -0.1353 ( 15) -0.1368 ( 16)
           0.1353 ( 18)  0.1365 ( 19) -0.1784 ( 29)  0.1784 ( 36) -0.1180 ( 39)
           0.1950 ( 40) -0.1185 ( 41)  0.1179 ( 43)  0.1185 ( 44) -0.1948 ( 45)
          -0.1407 ( 50) -0.1413 ( 51)  0.2043 ( 52)  0.1411 ( 55) -0.2040 ( 56)
           0.1406 ( 57)  0.1090 ( 64) -0.1090 ( 65)  0.1104 ( 66) -0.1103 ( 67)
           0.1394 ( 70) -0.1391 ( 72)
 CRD 25=   0.1554 (  1)  0.2319 (  2)  0.2296 (  3)  0.1542 (  4)  0.1541 (  5)
           0.2292 (  6)  0.1553 (  7)  0.1437 (  8)  0.1430 (  9)  0.1946 ( 10)
           0.1431 ( 11)  0.1438 ( 12)  0.1945 ( 13)  0.1012 ( 16)  0.1011 ( 19)
          -0.1951 ( 29) -0.2226 ( 30) -0.2226 ( 32) -0.1951 ( 36) -0.1453 ( 40)
          -0.1453 ( 45) -0.1232 ( 52) -0.1231 ( 56) -0.1232 ( 62) -0.1232 ( 63)
          -0.1116 ( 64) -0.1116 ( 65)
 CRD 26=   0.1573 (  1) -0.1535 (  4) -0.1535 (  5)  0.1573 (  7)  0.1248 (  8)
          -0.1304 (  9) -0.1302 ( 11)  0.1249 ( 12) -0.1818 ( 15)  0.1770 ( 16)
          -0.1818 ( 18)  0.1772 ( 19)  0.1248 ( 20) -0.1248 ( 21) -0.1248 ( 23)
           0.1248 ( 25) -0.1963 ( 50)  0.1943 ( 51)  0.1943 ( 55) -0.1963 ( 57)
           0.1168 ( 68) -0.1165 ( 69) -0.1165 ( 71)  0.1167 ( 73)  0.1873 ( 75)
           0.1005 ( 77)  0.1005 ( 82)  0.1872 ( 85) -0.1039 ( 86) -0.1073 ( 89)
          -0.1801 ( 90) -0.1072 ( 91) -0.1074 ( 92) -0.1039 ( 94) -0.1073 ( 96)
           0.1405 (101)  0.1409 (102)  0.1409 (103)  0.1406 (104)
 CRD 27=  -0.2274 (  1)  0.2301 (  4) -0.2301 (  5)  0.2273 (  7) -0.2706 ( 15)
           0.2704 ( 16)  0.2702 ( 18) -0.2701 ( 19)  0.1135 ( 76)  0.1159 ( 77)
           0.1153 ( 78) -0.1135 ( 80) -0.1152 ( 81) -0.1158 ( 82) -0.1278 ( 86)
          -0.1041 ( 87) -0.1042 ( 88)  0.1041 ( 93)  0.1276 ( 94)  0.1040 ( 95)
           0.1325 (101)  0.1331 (102) -0.1330 (103) -0.1324 (104)
 CRD 28=   0.1221 (  1) -0.1191 (  4) -0.1193 (  5)  0.1224 (  7)  0.2877 (  8)
          -0.2870 (  9) -0.2873 ( 11)  0.2880 ( 12)  0.2550 ( 15) -0.2564 ( 16)
           0.2553 ( 18) -0.2568 ( 19) -0.1152 ( 97) -0.1147 ( 98) -0.1147 ( 99)
          -0.1152 (100)
 CRD 29=  -0.1762 ( 14) -0.5066 ( 20) -0.5070 ( 21) -0.4814 ( 22)  0.1754 ( 50)
           0.1754 ( 51)  0.1907 ( 52) -0.1919 ( 68) -0.1918 ( 69) -0.1830 ( 70)
 CRD 30=  -0.1762 ( 17) -0.5070 ( 23) -0.4815 ( 24) -0.5066 ( 25)  0.1753 ( 55)
           0.1907 ( 56)  0.1753 ( 57) -0.1917 ( 71) -0.1828 ( 72) -0.1919 ( 73)
 CRD 31=  -0.3023 (  1)  0.3025 (  4) -0.3025 (  5)  0.3025 (  7)  0.2692 (  8)
          -0.2704 (  9)  0.2702 ( 11) -0.2691 ( 12)  0.1810 ( 15) -0.1823 ( 16)
          -0.1809 ( 18)  0.1822 ( 19)
 CRD 32=  -0.1005 ( 15)  0.1008 ( 16) -0.1004 ( 18)  0.1005 ( 19) -0.1033 ( 26)
          -0.1251 ( 27)  0.1252 ( 28)  0.1033 ( 31) -0.1251 ( 33)  0.1035 ( 34)
          -0.1034 ( 35)  0.1251 ( 37)  0.1330 ( 38) -0.1329 ( 42) -0.1330 ( 46)
           0.1331 ( 47)  0.1263 ( 48) -0.1261 ( 49) -0.1259 ( 53)  0.1260 ( 54)
          -0.1056 ( 58)  0.1057 ( 59)  0.1055 ( 60) -0.1054 ( 61) -0.1564 (105)
          -0.1659 (106) -0.1562 (107) -0.1657 (108) -0.1655 (109) -0.1565 (110)
          -0.1564 (111) -0.1657 (112) -0.1567 (113) -0.1565 (114) -0.1568 (115)
          -0.1567 (116) -0.1299 (117) -0.1300 (118) -0.1300 (119) -0.1301 (120)
          -0.1297 (121) -0.1299 (122) -0.1298 (123) -0.1300 (124)
 CRD 33=  -0.1585 (  1)  0.1593 (  4) -0.1592 (  5)  0.1585 (  7)  0.1119 ( 26)
          -0.1123 ( 31)  0.1121 ( 34) -0.1117 ( 35) -0.1238 ( 58)  0.1238 ( 59)
          -0.1241 ( 60)  0.1239 ( 61)  0.1003 ( 74)  0.1001 ( 79) -0.1001 ( 83)
           0.1241 (105)  0.1238 (107)  0.1242 (110)  0.1239 (111) -0.1240 (113)
          -0.1237 (114) -0.1241 (115) -0.1238 (116) -0.1799 (117) -0.1800 (118)
          -0.1803 (119) -0.1804 (120)  0.1803 (121)  0.1805 (122)  0.1806 (123)
           0.1808 (124) -0.1154 (125) -0.1054 (126) -0.1050 (127) -0.1156 (128)
          -0.1056 (129) -0.1052 (130)  0.1053 (131)  0.1154 (132)  0.1058 (133)
           0.1056 (134)  0.1156 (135)  0.1061 (136)
 CRD 34=   0.1836 ( 15)  0.1836 ( 16)  0.2887 ( 20)  0.2906 ( 21) -0.6338 ( 22)
          -0.1573 ( 68) -0.1584 ( 69)  0.3270 ( 70) -0.1690 ( 87)  0.1694 ( 88)
           0.1513 (126) -0.1872 (127)  0.1874 (129) -0.1511 (130)
 CRD 35=  -0.1839 ( 18) -0.1839 ( 19) -0.2900 ( 23)  0.6336 ( 24) -0.2893 ( 25)
           0.1581 ( 71) -0.3270 ( 72)  0.1577 ( 73) -0.1693 ( 93)  0.1692 ( 95)
           0.1874 (131) -0.1511 (133)  0.1511 (134) -0.1873 (136)
 CRD 36=  -0.4429 ( 20)  0.4416 ( 21)  0.3229 ( 23) -0.3233 ( 25)  0.2397 ( 68)
          -0.2392 ( 69) -0.1746 ( 71)  0.1747 ( 73) -0.1854 ( 86) -0.1374 ( 94)
          -0.1794 (125) -0.1792 (128) -0.1341 (132) -0.1340 (135)
 CRD 37=  -0.3229 ( 20)  0.3217 ( 21) -0.4413 ( 23)  0.4424 ( 25)  0.1755 ( 68)
          -0.1749 ( 69)  0.2396 ( 71) -0.2400 ( 73) -0.1289 ( 86)  0.1792 ( 94)
          -0.1209 (125) -0.1208 (128)  0.1696 (132)  0.1695 (135)
 CRD 38=   0.3424 (  1)  0.3424 (  4) -0.3418 (  5) -0.3417 (  7)  0.2666 (  8)
           0.2659 (  9) -0.2656 ( 11) -0.2663 ( 12) -0.1325 ( 15) -0.1318 ( 16)
           0.1327 ( 18)  0.1320 ( 19)  0.1107 ( 62) -0.1104 ( 63)  0.1041 (108)
          -0.1041 (112)
 CRD 39=   0.1512 (  1)  0.1523 (  4)  0.1521 (  5)  0.1508 (  7) -0.3341 (  8)
          -0.3341 (  9) -0.3332 ( 11) -0.3332 ( 12)  0.2453 ( 15)  0.2442 ( 16)
           0.2458 ( 18)  0.2446 ( 19) -0.1160 ( 64) -0.1157 ( 65)
 CRD 40=   0.2556 (  1)  0.2543 (  4) -0.2523 (  5) -0.2536 (  7) -0.1553 (  8)
          -0.1566 (  9)  0.1555 ( 11)  0.1543 ( 12)  0.3079 ( 15)  0.3070 ( 16)
          -0.3104 ( 18) -0.3095 ( 19)  0.1144 ( 66) -0.1155 ( 67)
 CRD 41=   0.2560 (  1)  0.2572 (  4)  0.2596 (  5)  0.2584 (  7) -0.1284 (  8)
          -0.1269 (  9) -0.1287 ( 11) -0.1301 ( 12) -0.3072 ( 15) -0.3072 ( 16)
          -0.3051 ( 18) -0.3051 ( 19)  0.1085 ( 62)  0.1095 ( 63) -0.1276 ( 66)
          -0.1268 ( 67)
 CRD 42=   0.1350 (  1)  0.1330 (  4) -0.1324 (  5) -0.1344 (  7) -0.3050 (  8)
          -0.3045 (  9)  0.3055 ( 11)  0.3061 ( 12) -0.2456 ( 15) -0.2464 ( 16)
           0.2447 ( 18)  0.2455 ( 19) -0.1408 ( 64)  0.1413 ( 65) -0.1127 ( 66)
           0.1124 ( 67)
 CRD 43=  -0.2964 (  1) -0.2965 (  4) -0.2973 (  5) -0.2973 (  7) -0.2445 (  8)
          -0.2451 (  9) -0.2450 ( 11) -0.2445 ( 12) -0.1391 ( 15) -0.1398 ( 16)
          -0.1384 ( 18) -0.1390 ( 19) -0.1467 ( 62) -0.1470 ( 63) -0.1208 ( 64)
          -0.1208 ( 65) -0.1112 (106)  0.1011 (107)  0.1112 (109) -0.1009 (110)
           0.1013 (114) -0.1011 (115)
 CRD 44=  -0.1522 (  8)  0.1522 (  9)  0.1522 ( 11) -0.1518 ( 12)  0.1016 ( 87)
           0.1015 ( 88) -0.1169 ( 89) -0.1169 ( 91) -0.1168 ( 92)  0.1012 ( 93)
           0.1014 ( 95) -0.1168 ( 96) -0.1884 (106) -0.1884 (108) -0.1884 (109)
          -0.1884 (112)  0.1457 (117)  0.1459 (118)  0.1456 (119)  0.1458 (120)
           0.1453 (121)  0.1455 (122)  0.1452 (123)  0.1454 (124)  0.1256 (125)
           0.1469 (126)  0.1471 (127)  0.1257 (128)  0.1470 (129)  0.1472 (130)
           0.1468 (131)  0.1255 (132)  0.1466 (133)  0.1469 (134)  0.1256 (135)
           0.1467 (136)
 CRD 45=  -0.1412 (  1)  0.1411 (  4) -0.1450 (  5)  0.1450 (  7) -0.2054 (  8)
           0.2054 (  9) -0.2027 ( 11)  0.2025 ( 12) -0.1398 ( 77) -0.1398 ( 78)
           0.1392 ( 81)  0.1392 ( 82) -0.1239 ( 97) -0.1235 ( 98)  0.1228 ( 99)
           0.1231 (100)  0.1961 (105)  0.1961 (107)  0.1964 (110)  0.1964 (111)
          -0.1973 (113) -0.1973 (114) -0.1976 (115) -0.1976 (116)  0.1095 (125)
           0.1212 (126)  0.1213 (127)  0.1097 (128)  0.1214 (129)  0.1215 (130)
          -0.1216 (131) -0.1099 (132) -0.1216 (133) -0.1218 (134) -0.1101 (135)
          -0.1218 (136)
 CRD 46=  -0.3141 (  1)  0.3140 (  4)  0.3122 (  5) -0.3123 (  7)  0.2326 (  8)
          -0.2326 (  9) -0.2352 ( 11)  0.2351 ( 12) -0.1290 ( 15)  0.1290 ( 16)
          -0.1292 ( 18)  0.1292 ( 19)  0.1176 (105) -0.1442 (106)  0.1174 (107)
          -0.1442 (108) -0.1443 (109)  0.1174 (110)  0.1172 (111) -0.1442 (112)
           0.1151 (113)  0.1150 (114)  0.1149 (115)  0.1147 (116)
 CRD 47=  -0.1868 (  8)  0.1868 (  9) -0.1870 ( 11)  0.1869 ( 12)  0.2662 ( 15)
          -0.2664 ( 16) -0.2669 ( 18)  0.2673 ( 19) -0.1094 ( 86)  0.1099 ( 94)
           0.1060 (117)  0.1060 (118)  0.1063 (119)  0.1063 (120) -0.1064 (121)
          -0.1064 (122) -0.1067 (123) -0.1067 (124) -0.1710 (125) -0.1594 (126)
          -0.1593 (127) -0.1710 (128) -0.1593 (129) -0.1593 (130)  0.1600 (131)
           0.1717 (132)  0.1600 (133)  0.1599 (134)  0.1717 (135)  0.1599 (136)
 CRD 48=  -0.1207 (  1)  0.1207 (  4)  0.1205 (  5) -0.1205 (  7)  0.2278 ( 15)
          -0.2280 ( 16)  0.2266 ( 18) -0.2271 ( 19) -0.1235 ( 86) -0.1110 ( 87)
          -0.1111 ( 88) -0.1107 ( 93) -0.1231 ( 94) -0.1106 ( 95) -0.1202 (106)
          -0.1199 (108) -0.1196 (109) -0.1199 (112)  0.1000 (117)  0.1006 (119)
           0.1005 (120)  0.1002 (123)  0.1001 (124) -0.1774 (125) -0.1650 (126)
          -0.1649 (127) -0.1775 (128) -0.1651 (129) -0.1650 (130) -0.1643 (131)
          -0.1768 (132) -0.1644 (133) -0.1644 (134) -0.1769 (135) -0.1644 (136)
 CRD 49=   0.1353 ( 22) -0.1354 ( 24) -0.1309 ( 26)  0.1468 ( 27)  0.1473 ( 28)
          -0.1312 ( 31) -0.1467 ( 33)  0.1312 ( 34)  0.1309 ( 35) -0.1473 ( 37)
          -0.1499 ( 38) -0.1495 ( 42)  0.1494 ( 46)  0.1498 ( 47) -0.1365 ( 48)
          -0.1360 ( 49)  0.1361 ( 53)  0.1364 ( 54) -0.1248 ( 58) -0.1249 ( 59)
           0.1249 ( 60)  0.1248 ( 61) -0.1031 ( 68) -0.1031 ( 69)  0.1032 ( 71)
           0.1032 ( 73) -0.1639 (105) -0.1735 (108)  0.1638 (111)  0.1735 (112)
           0.1638 (113) -0.1637 (116)  0.1530 (118) -0.1535 (119) -0.1530 (122)
           0.1535 (123)
 CRD 50=  -0.1162 (  2)  0.1198 ( 20)  0.1197 ( 21)  0.2096 ( 22)  0.1198 ( 23)
           0.2098 ( 24)  0.1199 ( 25)  0.1130 ( 26)  0.1136 ( 31)  0.1137 ( 34)
           0.1131 ( 35)  0.1282 ( 39)  0.1284 ( 41)  0.1283 ( 43)  0.1285 ( 44)
           0.1311 ( 50)  0.1313 ( 51)  0.1631 ( 52)  0.1314 ( 55)  0.1633 ( 56)
           0.1313 ( 57) -0.1553 ( 58) -0.1555 ( 59) -0.1555 ( 60) -0.1554 ( 61)
          -0.1726 ( 68) -0.1728 ( 69) -0.1003 ( 70) -0.1729 ( 71) -0.1004 ( 72)
          -0.1729 ( 73)  0.1012 ( 74) -0.1008 ( 79)  0.1011 ( 83) -0.1007 ( 84)
           0.1638 (118) -0.1641 (119)  0.1638 (122) -0.1641 (123)
 CRD 51=   0.1214 (  3) -0.1217 (  6) -0.1409 ( 10)  0.1408 ( 13) -0.1974 ( 14)
           0.1975 ( 17)  0.1496 ( 20)  0.1495 ( 21)  0.1843 ( 22) -0.1493 ( 23)
          -0.1841 ( 24) -0.1494 ( 25) -0.1109 ( 27) -0.1114 ( 28)  0.1110 ( 33)
           0.1114 ( 37)  0.1239 ( 38)  0.1235 ( 42) -0.1235 ( 46) -0.1238 ( 47)
           0.1564 ( 50)  0.1565 ( 51)  0.1678 ( 52) -0.1563 ( 55) -0.1677 ( 56)
          -0.1563 ( 57) -0.1768 ( 68) -0.1769 ( 69) -0.1496 ( 70)  0.1767 ( 71)
           0.1494 ( 72)  0.1767 ( 73)  0.1373 (108) -0.1373 (112)
 CRD 52=   0.2064 (  2) -0.3028 ( 14) -0.3030 ( 17)  0.1521 ( 20)  0.1523 ( 21)
           0.1523 ( 23)  0.1521 ( 25) -0.1222 ( 26) -0.1225 ( 31) -0.1224 ( 34)
          -0.1222 ( 35)  0.1370 ( 48)  0.1364 ( 49)  0.1349 ( 50)  0.1349 ( 51)
           0.1263 ( 52)  0.1365 ( 53)  0.1371 ( 54)  0.1349 ( 55)  0.1263 ( 56)
           0.1349 ( 57) -0.1182 ( 68) -0.1180 ( 69) -0.1780 ( 70) -0.1180 ( 71)
          -0.1780 ( 72) -0.1182 ( 73) -0.1239 (105)  0.1239 (111) -0.1238 (113)
           0.1239 (116)
 CRD 53=   0.2224 (  3) -0.2226 (  6) -0.1103 ( 10)  0.1105 ( 13)  0.2877 ( 14)
          -0.2875 ( 17) -0.1421 ( 20) -0.1425 ( 21)  0.1424 ( 23)  0.1419 ( 25)
           0.1112 ( 38)  0.1219 ( 39)  0.1222 ( 41)  0.1103 ( 42) -0.1219 ( 43)
          -0.1222 ( 44) -0.1103 ( 46) -0.1111 ( 47)  0.1889 ( 70) -0.1887 ( 72)
           0.1244 (108) -0.1243 (112)  0.1634 (126) -0.1642 (130) -0.1634 (133)
           0.1641 (134)
 CRD 54=  -0.1636 (  8)  0.1625 (  9) -0.1623 ( 11)  0.1636 ( 12)  0.1961 ( 15)
          -0.1955 ( 16) -0.1958 ( 18)  0.1950 ( 19)  0.1383 ( 20) -0.1388 ( 21)
           0.1385 ( 23) -0.1376 ( 25)  0.1052 ( 68) -0.1047 ( 69)  0.1045 ( 71)
          -0.1048 ( 73) -0.1065 (105) -0.1060 (107) -0.1053 (110) -0.1048 (111)
           0.1064 (113)  0.1060 (114)  0.1051 (115)  0.1046 (116) -0.1656 (117)
          -0.1654 (118) -0.1644 (119) -0.1642 (120)  0.1654 (121)  0.1653 (122)
           0.1641 (123)  0.1640 (124)  0.1445 (126)  0.1444 (127)  0.1436 (129)
           0.1435 (130) -0.1440 (131) -0.1445 (133) -0.1428 (134) -0.1432 (136)
 CRD 55=  -0.2129 ( 15)  0.2103 ( 16) -0.2135 ( 18)  0.2107 ( 19) -0.1912 ( 20)
           0.1928 ( 21)  0.1930 ( 23) -0.1913 ( 25) -0.1460 ( 68)  0.1467 ( 69)
           0.1471 ( 71) -0.1461 ( 73)  0.1678 ( 86)  0.1679 ( 94)  0.1319 (117)
           0.1326 (118)  0.1288 (119)  0.1295 (120)  0.1323 (121)  0.1331 (122)
           0.1290 (123)  0.1298 (124) -0.1646 (126) -0.1633 (127) -0.1616 (129)
          -0.1603 (130) -0.1635 (131) -0.1650 (133) -0.1604 (134) -0.1619 (136)
 CRD 56=  -0.2330 (  1)  0.2292 (  4)  0.2291 (  5) -0.2331 (  7)  0.1232 (  8)
          -0.1319 (  9) -0.1318 ( 11)  0.1232 ( 12)  0.1077 ( 42)  0.1078 ( 46)
          -0.1866 (105)  0.1831 (106) -0.1766 (107)  0.2122 (108)  0.2413 (109)
          -0.1591 (110) -0.1492 (111)  0.2123 (112) -0.1866 (113) -0.1767 (114)
          -0.1591 (115) -0.1493 (116)
 CRD 57=   0.2079 (  2) -0.2534 ( 10) -0.2535 ( 13)  0.1127 ( 14)  0.1126 ( 17)
          -0.1296 ( 20) -0.1056 ( 21)  0.1735 ( 22) -0.1053 ( 23)  0.1737 ( 24)
          -0.1300 ( 25) -0.1027 ( 28) -0.1025 ( 37)  0.1068 ( 39)  0.1280 ( 41)
           0.1068 ( 43)  0.1281 ( 44) -0.1254 ( 66) -0.1255 ( 67)  0.1723 ( 70)
           0.1724 ( 72)  0.1087 ( 88)  0.1086 ( 93) -0.1559 (106)  0.1150 (111)
           0.1152 (116)  0.1162 (125)  0.2014 (126) -0.2027 (130)  0.1163 (132)
           0.2013 (133) -0.2031 (134)
 CRD 58=  -0.1289 (  3)  0.1291 (  6) -0.1033 (  8) -0.1050 (  9)  0.1052 ( 11)
           0.1032 ( 12) -0.1360 ( 14)  0.1362 ( 17)  0.1506 ( 22) -0.1504 ( 24)
           0.1546 ( 62) -0.1546 ( 63)  0.1718 ( 64) -0.1719 ( 65) -0.1546 ( 66)
           0.1544 ( 67) -0.1109 (101)  0.1114 (102) -0.1114 (103)  0.1108 (104)
          -0.1428 (105)  0.1081 (108)  0.1443 (111) -0.1082 (112)  0.1427 (113)
          -0.1440 (116) -0.1834 (118)  0.1847 (119)  0.1832 (122) -0.1848 (123)
           0.1331 (126) -0.1340 (130) -0.1327 (133)  0.1338 (134)
 CRD 59=  -0.1300 (  1)  0.2268 (  3) -0.1251 (  4)  0.1252 (  5) -0.2266 (  6)
           0.1302 (  7)  0.2106 ( 10) -0.2103 ( 13) -0.1546 ( 22)  0.1548 ( 24)
           0.2077 ( 62) -0.2078 ( 63) -0.1170 ( 70)  0.1171 ( 72)  0.1193 ( 89)
          -0.1160 ( 91) -0.1194 ( 92)  0.1161 ( 96) -0.1535 (105)  0.2354 (108)
           0.1486 (111) -0.2354 (112)  0.1539 (113) -0.1489 (116) -0.1274 (126)
           0.1229 (130)  0.1274 (133) -0.1231 (134)
 CRD 60=   0.2622 (  2) -0.1378 (  3) -0.1383 (  6)  0.1183 (  8)  0.1170 (  9)
          -0.1069 ( 10)  0.1171 ( 11)  0.1186 ( 12) -0.1074 ( 13)  0.2270 ( 14)
           0.2271 ( 17) -0.1056 ( 22) -0.1053 ( 24) -0.1905 ( 64) -0.1907 ( 65)
           0.1469 ( 66)  0.1467 ( 67)  0.1023 ( 74) -0.1027 ( 79)  0.1024 ( 83)
          -0.1026 ( 84) -0.1619 (105)  0.1607 (111) -0.1615 (113)  0.1604 (116)
           0.1875 (118) -0.1874 (119)  0.1874 (122) -0.1874 (123)
 CRD 61=  -0.1139 (  1)  0.1160 (  4) -0.1158 (  5)  0.1139 (  7) -0.1582 (  8)
           0.1633 (  9) -0.1631 ( 11)  0.1580 ( 12) -0.1995 ( 20)  0.1937 ( 21)
          -0.1937 ( 23)  0.1992 ( 25) -0.1510 ( 68)  0.1484 ( 69) -0.1486 ( 71)
           0.1508 ( 73) -0.1613 ( 76)  0.1613 ( 80)  0.2149 ( 86) -0.2149 ( 94)
          -0.1019 (105) -0.1101 (107) -0.1008 (110) -0.1090 (111)  0.1021 (113)
           0.1103 (114)  0.1007 (115)  0.1090 (116)  0.1556 (125)  0.1553 (128)
          -0.1555 (132) -0.1552 (135)
 CRD 62=   0.1364 (  2) -0.1161 (  3) -0.1185 (  6) -0.1676 ( 22) -0.1695 ( 24)
          -0.1024 ( 27) -0.1033 ( 28) -0.1014 ( 33) -0.1021 ( 37)  0.1203 ( 38)
           0.1219 ( 42)  0.1210 ( 46)  0.1193 ( 47)  0.1526 ( 64)  0.1519 ( 65)
          -0.1104 ( 70) -0.1109 ( 72)  0.1039 ( 87) -0.1071 ( 88) -0.1185 ( 89)
           0.1179 ( 91) -0.1181 ( 92) -0.1079 ( 93)  0.1049 ( 95)  0.1174 ( 96)
          -0.2354 (106) -0.1050 (107)  0.2364 (109)  0.1066 (110) -0.1082 (114)
           0.1100 (115) -0.1105 (117)  0.1075 (120) -0.1135 (121)  0.1108 (124)
           0.1448 (127) -0.1476 (129)  0.1459 (131) -0.1486 (136)
 CRD 63=  -0.1272 (  3)  0.1253 (  6) -0.2253 ( 10)  0.2256 ( 13)  0.2296 ( 14)
          -0.2277 ( 17)  0.1128 ( 26)  0.1156 ( 31) -0.1157 ( 34) -0.1131 ( 35)
           0.1308 ( 48)  0.1275 ( 49) -0.1278 ( 53) -0.1311 ( 54) -0.1138 ( 58)
          -0.1163 ( 59)  0.1147 ( 60)  0.1121 ( 61) -0.1115 ( 74)  0.1144 ( 79)
           0.1125 ( 83) -0.1153 ( 84) -0.1735 (107)  0.1768 (110)  0.1717 (114)
          -0.1752 (115) -0.1702 (117)  0.1728 (120)  0.1677 (121) -0.1704 (124)
 CRD 64=   0.2973 (  2) -0.2612 (  3) -0.2597 (  6)  0.1970 ( 10)  0.1978 ( 13)
          -0.1549 ( 14) -0.1554 ( 17)  0.1206 ( 26) -0.1117 ( 27) -0.1132 ( 28)
           0.1166 ( 31) -0.1117 ( 33)  0.1163 ( 34)  0.1202 ( 35) -0.1131 ( 37)
           0.1078 ( 38)  0.1023 ( 42)  0.1023 ( 46)  0.1079 ( 47) -0.1079 ( 48)
          -0.1089 ( 49) -0.1092 ( 53) -0.1080 ( 54) -0.1303 (107)  0.1307 (110)
          -0.1312 (114)  0.1317 (115)  0.1588 (117) -0.1555 (120)  0.1598 (121)
          -0.1564 (124)
 CRD 65=   0.1350 (  3) -0.1373 (  6)  0.1684 ( 22) -0.1677 ( 24) -0.1186 ( 52)
           0.1183 ( 56)  0.1174 ( 62) -0.1172 ( 63) -0.1407 ( 64)  0.1402 ( 65)
           0.1009 ( 66) -0.1013 ( 67)  0.1243 ( 70) -0.1240 ( 72) -0.1185 ( 87)
           0.1216 ( 88) -0.1216 ( 93)  0.1176 ( 95) -0.1591 (107)  0.1021 (108)
           0.1596 (110) -0.1017 (112)  0.1581 (114) -0.1586 (115) -0.1010 (125)
          -0.2169 (127)  0.2182 (129)  0.2161 (131)  0.1017 (132) -0.2176 (136)
 CRD 66=  -0.1019 (  1)  0.1032 (  4)  0.1027 (  5) -0.1024 (  7) -0.1195 (  8)
           0.1239 (  9)  0.1245 ( 11) -0.1191 ( 12) -0.1762 ( 20)  0.1690 ( 21)
           0.1688 ( 23) -0.1767 ( 25) -0.1061 ( 50)  0.1121 ( 51)  0.1124 ( 55)
          -0.1058 ( 57)  0.1005 ( 59)  0.1008 ( 60) -0.1329 ( 68)  0.1265 ( 69)
           0.1264 ( 71) -0.1333 ( 73)  0.1871 ( 75)  0.1870 ( 85)  0.1370 ( 86)
          -0.1010 ( 87) -0.1749 ( 90)  0.1372 ( 94) -0.1015 ( 95)  0.2026 (125)
           0.2103 (128)  0.2022 (132)  0.2109 (135)
 CRD 67=   0.1372 (  2) -0.1112 ( 10) -0.1115 ( 13)  0.1123 ( 15)  0.1064 ( 16)
           0.1126 ( 18)  0.1066 ( 19) -0.1128 ( 22) -0.1129 ( 24) -0.1196 ( 30)
          -0.1195 ( 32)  0.1363 ( 40)  0.1367 ( 45)  0.1165 ( 52)  0.1167 ( 56)
           0.1524 ( 62)  0.1525 ( 63) -0.1715 ( 66) -0.1719 ( 67)  0.1006 ( 89)
          -0.1022 ( 91)  0.1006 ( 92) -0.1024 ( 96)  0.2041 (106) -0.2016 (109)
           0.1148 (117) -0.1180 (120)  0.1154 (121) -0.1186 (124)  0.1179 (125)
           0.2052 (127) -0.1067 (128) -0.2060 (129)  0.2054 (131)  0.1181 (132)
          -0.1069 (135) -0.2062 (136)
 CRD 68=  -0.1094 (  3)  0.1096 (  6)  0.1705 ( 10) -0.1702 ( 13)  0.1015 ( 14)
          -0.1007 ( 15) -0.1109 ( 16) -0.1012 ( 17)  0.1004 ( 18)  0.1106 ( 19)
           0.1456 ( 29) -0.1457 ( 36) -0.1570 ( 40)  0.1566 ( 45)  0.1537 ( 64)
          -0.1535 ( 65)  0.1641 ( 66) -0.1636 ( 67) -0.1011 ( 74)  0.1031 ( 79)
           0.1013 ( 83) -0.1035 ( 84)  0.1040 (102) -0.1037 (103)  0.1412 (107)
          -0.1372 (110) -0.1410 (114)  0.1370 (115) -0.2029 (117)  0.1994 (120)
           0.2024 (121) -0.1989 (124) -0.1636 (127)  0.1048 (128)  0.1645 (129)
           0.1630 (131) -0.1045 (135) -0.1639 (136)
 CRD 69=   0.1160 (  1) -0.1215 (  4)  0.1206 (  5) -0.1169 (  7)  0.1438 ( 15)
          -0.1381 ( 16) -0.1443 ( 18)  0.1376 ( 19) -0.1146 ( 20)  0.1160 ( 21)
          -0.1162 ( 23)  0.1143 ( 25) -0.1051 ( 50)  0.1041 ( 51) -0.1039 ( 55)
           0.1052 ( 57) -0.1084 ( 58)  0.1087 ( 59) -0.1087 ( 60)  0.1083 ( 61)
          -0.1411 ( 75)  0.1644 ( 76)  0.1011 ( 77)  0.1093 ( 78) -0.1643 ( 80)
          -0.1100 ( 81) -0.1003 ( 82)  0.1412 ( 85) -0.1628 ( 87) -0.1647 ( 88)
          -0.1280 ( 89) -0.1324 ( 91)  0.1289 ( 92)  0.1651 ( 93)  0.1624 ( 95)
           0.1314 ( 96)  0.1546 (101)  0.1462 (102) -0.1455 (103) -0.1552 (104)
           0.1896 (125)  0.1844 (128) -0.1900 (132) -0.1840 (135)
 CRD 70=   0.1045 (  1) -0.1730 (  2) -0.1608 (  3)  0.1043 (  4)  0.1052 (  5)
          -0.1607 (  6)  0.1034 (  7) -0.1304 ( 10) -0.1305 ( 13)  0.1480 ( 29)
           0.1712 ( 30)  0.1714 ( 32)  0.1479 ( 36)  0.1053 ( 40)  0.1053 ( 45)
          -0.1605 ( 62) -0.1602 ( 63) -0.1390 ( 64) -0.1391 ( 65) -0.1030 ( 89)
           0.1005 ( 91) -0.1018 ( 92)  0.1016 ( 96) -0.1003 ( 97) -0.1006 (100)
          -0.2031 (106)  0.1908 (107)  0.2037 (109) -0.1902 (110)  0.1899 (114)
          -0.1903 (115)  0.1502 (117) -0.1505 (120)  0.1506 (121) -0.1502 (124)
 CRD 71=  -0.1290 (  8)  0.1283 (  9)  0.1284 ( 11) -0.1290 ( 12) -0.1215 ( 15)
           0.1223 ( 16) -0.1214 ( 18)  0.1223 ( 19) -0.1074 ( 39)  0.1070 ( 41)
          -0.1074 ( 43)  0.1070 ( 44) -0.1069 ( 48)  0.1073 ( 49)  0.1073 ( 53)
          -0.1069 ( 54)  0.1762 ( 74) -0.1041 ( 76)  0.1773 ( 79) -0.1041 ( 80)
           0.1762 ( 83)  0.1772 ( 84)  0.1677 ( 87)  0.1667 ( 88) -0.1517 ( 90)
           0.1667 ( 93)  0.1677 ( 95) -0.1629 ( 97) -0.1655 ( 98) -0.1655 ( 99)
          -0.1630 (100) -0.1798 (101) -0.1788 (102) -0.1789 (103) -0.1797 (104)
          -0.1262 (125) -0.1267 (128) -0.1261 (132) -0.1268 (135)
 CRD 72=  -0.1278 (  1)  0.1280 (  4) -0.1280 (  5)  0.1279 (  7)  0.1056 (  8)
          -0.1064 (  9)  0.1064 ( 11) -0.1056 ( 12)  0.1108 ( 27) -0.1098 ( 28)
          -0.1107 ( 33)  0.1098 ( 37)  0.1025 ( 38) -0.1034 ( 42)  0.1034 ( 46)
          -0.1026 ( 47)  0.1615 ( 74) -0.1994 ( 77) -0.2007 ( 78)  0.1626 ( 79)
           0.2007 ( 81)  0.1993 ( 82) -0.1615 ( 83) -0.1626 ( 84) -0.1026 ( 87)
          -0.1020 ( 88)  0.2034 ( 89)  0.2042 ( 91) -0.2034 ( 92)  0.1020 ( 93)
           0.1026 ( 95) -0.2042 ( 96)  0.1724 ( 97)  0.1728 ( 98) -0.1727 ( 99)
          -0.1724 (100)  0.1165 (101)  0.1168 (102) -0.1168 (103) -0.1165 (104)

 THE DETERMINANT OF THE G MATRIX IS 10**(   -23)


                     --------------------
                     INTERNAL COORDINATES
                     --------------------

                 - - ATOMS - -         COORDINATE      COORDINATE
 NO.   TYPE    I  J  K  L  M  N        (BOHR,RAD)       (ANG,DEG)
 ----------------------------------------------------------------
   1 STRETCH   1 10                     2.0726963       1.0968237
   2 STRETCH   1  2                     2.8904345       1.5295522
   3 STRETCH   1  4                     2.8901532       1.5294033
   4 STRETCH   1  9                     2.0724579       1.0966976
   5 STRETCH   2 11                     2.0728265       1.0968926
   6 STRETCH   2  3                     2.8907809       1.5297355
   7 STRETCH   2 12                     2.0729629       1.0969648
   8 STRETCH   3 14                     2.0727770       1.0968664
   9 STRETCH   3 13                     2.0726931       1.0968220
  10 STRETCH   3  5                     2.8882645       1.5284039
  11 STRETCH   4 15                     2.0727506       1.0968525
  12 STRETCH   4 16                     2.0727177       1.0968350
  13 STRETCH   4  6                     2.8882993       1.5284223
  14 STRETCH   5  7                     2.8727395       1.5201884
  15 STRETCH   5 18                     2.0715692       1.0962273
  16 STRETCH   5 17                     2.0713832       1.0961289
  17 STRETCH   6  8                     2.8731309       1.5203955
  18 STRETCH   6 20                     2.0715638       1.0962244
  19 STRETCH   6 19                     2.0718402       1.0963707
  20 STRETCH   7 23                     2.0688152       1.0947699
  21 STRETCH   7 22                     2.0688777       1.0948030
  22 STRETCH   7 21                     2.0686545       1.0946849
  23 STRETCH   8 26                     2.0687835       1.0947531
  24 STRETCH   8 25                     2.0682436       1.0944675
  25 STRETCH   8 24                     2.0687827       1.0947527
  26 BEND      1  4 15                  1.9119867     109.5487657
  27 BEND      1  2 11                  1.9118242     109.5394589
  28 BEND      1  2 12                  1.9132205     109.6194613
  29 BEND      1  4  6                  1.9430282     111.3273162
  30 BEND      1  2  3                  1.9433983     111.3485201
  31 BEND      1  4 16                  1.9132407     109.6206166
  32 BEND      2  1  4                  1.9428231     111.3155621
  33 BEND      2  1  9                  1.9115077     109.5213228
  34 BEND      2  3 14                  1.9129569     109.6043596
  35 BEND      2  3 13                  1.9117479     109.5350890
  36 BEND      2  3  5                  1.9431018     111.3315318
  37 BEND      2  1 10                  1.9128943     109.6007675
  38 BEND      3  2 11                  1.9125802     109.5827731
  39 BEND      3  5 17                  1.9170359     109.8380669
  40 BEND      3  5  7                  1.9459177     111.4928718
  41 BEND      3  5 18                  1.9181466     109.9017050
  42 BEND      3  2 12                  1.9114766     109.5195418
  43 BEND      4  6 19                  1.9169720     109.8344025
  44 BEND      4  6 20                  1.9182365     109.9068584
  45 BEND      4  6  8                  1.9459683     111.4957691
  46 BEND      4  1 10                  1.9119452     109.5463904
  47 BEND      4  1  9                  1.9130163     109.6077601
  48 BEND      5  3 13                  1.9129730     109.6052770
  49 BEND      5  3 14                  1.9118386     109.5402850
  50 BEND      5  7 22                  1.9379603     111.0369475
  51 BEND      5  7 23                  1.9373442     111.0016483
  52 BEND      5  7 21                  1.9244573     110.2632783
  53 BEND      6  4 16                  1.9118357     109.5401152
  54 BEND      6  4 15                  1.9126373     109.5860430
  55 BEND      6  8 24                  1.9370382     110.9841120
  56 BEND      6  8 25                  1.9245483     110.2684978
  57 BEND      6  8 26                  1.9376469     111.0189913
  58 BEND      7  5 18                  1.9048560     109.1402078
  59 BEND      7  5 17                  1.9048768     109.1414036
  60 BEND      8  6 19                  1.9048063     109.1373609
  61 BEND      8  6 20                  1.9048869     109.1419818
  62 BEND      9  1 10                  1.8702237     107.1559249
  63 BEND     11  2 12                  1.8698740     107.1358883
  64 BEND     13  3 14                  1.8697637     107.1295699
  65 BEND     15  4 16                  1.8696523     107.1231849
  66 BEND     17  5 18                  1.8714191     107.2244149
  67 BEND     19  6 20                  1.8713780     107.2220620
  68 BEND     21  7 22                  1.8860964     108.0653652
  69 BEND     21  7 23                  1.8859552     108.0572760
  70 BEND     22  7 23                  1.8903333     108.3081174
  71 BEND     24  8 25                  1.8861970     108.0711291
  72 BEND     24  8 26                  1.8903040     108.3064430
  73 BEND     25  8 26                  1.8864415     108.0851383
  74 TORSION   1  4  6 19               1.0367673      59.4023924
  75 TORSION   1  4  6  8              -3.1327298    -179.4921955
  76 TORSION   1  2  3  5              -3.1279551    -179.2186233
  77 TORSION   1  2  3 13               1.0366733      59.3970036
  78 TORSION   1  2  3 14              -1.0100093     -57.8692699
  79 TORSION   1  4  6 20              -1.0180820     -58.3318013
  80 TORSION   2  1  4  6              -3.1288689    -179.2709827
  81 TORSION   2  1  4 16              -1.0107837     -57.9136418
  82 TORSION   2  1  4 15               1.0360687      59.3623619
  83 TORSION   2  3  5 17               1.0367329      59.4004177
  84 TORSION   2  3  5 18              -1.0181511     -58.3357594
  85 TORSION   2  3  5  7              -3.1326653    -179.4884998
  86 TORSION   3  5  7 21              -3.1356339    -179.6585905
  87 TORSION   3  5  7 22              -1.0456737     -59.9126886
  88 TORSION   3  5  7 23               1.0581647      60.6283740
  89 TORSION   3  2  1  9               1.0342483      59.2580639
  90 TORSION   3  2  1  4              -3.1306695    -179.3741497
  91 TORSION   3  2  1 10              -1.0128145     -58.0299970
  92 TORSION   4  1  2 11               1.0342073      59.2557120
  93 TORSION   4  6  8 24               1.0574857      60.5894695
  94 TORSION   4  6  8 25              -3.1361485    -179.6880706
  95 TORSION   4  6  8 26              -1.0458992     -59.9256112
  96 TORSION   4  1  2 12              -1.0128070     -58.0295689
  97 TORSION   5  3  2 12               1.0363511      59.3785450
  98 TORSION   5  3  2 11              -1.0100873     -57.8737407
  99 TORSION   6  4  1  9              -1.0114817     -57.9536352
 100 TORSION   6  4  1 10               1.0359077      59.3531397
 101 TORSION   7  5  3 13              -1.0148228     -58.1450620
 102 TORSION   7  5  3 14               1.0319221      59.1247785
 103 TORSION   8  6  4 16               1.0315510      59.1035180
 104 TORSION   8  6  4 15              -1.0148616     -58.1472847
 105 TORSION   9  1  4 15              -3.1297295    -179.3202906
 106 TORSION   9  1  2 11              -1.0840602     -62.1120744
 107 TORSION   9  1  4 16               1.1066034      63.4037057
 108 TORSION   9  1  2 12              -3.1310745    -179.3973553
 109 TORSION  10  1  2 12               1.1050480      63.3145839
 110 TORSION  10  1  4 15              -1.0823400     -62.0135157
 111 TORSION  10  1  4 16              -3.1291924    -179.2895194
 112 TORSION  10  1  2 11              -3.1311230    -179.4001352
 113 TORSION  11  2  3 13              -3.1286443    -179.2581137
 114 TORSION  11  2  3 14               1.1078584      63.4756128
 115 TORSION  12  2  3 13              -1.0822059     -62.0058281
 116 TORSION  12  2  3 14              -3.1288884    -179.2721016
 117 TORSION  13  3  5 18               1.0996914      63.0076783
 118 TORSION  13  3  5 17              -3.1286099    -179.2561446
 119 TORSION  14  3  5 18              -3.1367490    -179.7224811
 120 TORSION  14  3  5 17              -1.0818651     -61.9863040
 121 TORSION  15  4  6 20               1.0997862      63.0131095
 122 TORSION  15  4  6 19              -3.1285498    -179.2526968
 123 TORSION  16  4  6 20              -3.1369865    -179.7360879
 124 TORSION  16  4  6 19              -1.0821372     -62.0018941
 125 TORSION  17  5  7 21              -1.0147729     -58.1422020
 126 TORSION  17  5  7 23              -3.1041595    -177.8552375
 127 TORSION  17  5  7 22               1.0751874      61.6036999
 128 TORSION  18  5  7 21               1.0253098      58.7459270
 129 TORSION  18  5  7 23              -1.0640768     -60.9671084
 130 TORSION  18  5  7 22               3.1152701     178.4918289
 131 TORSION  19  6  8 26               1.0748668      61.5853288
 132 TORSION  19  6  8 25              -1.0153825     -58.1771305
 133 TORSION  19  6  8 24              -3.1049336    -177.8995904
 134 TORSION  20  6  8 26               3.1148778     178.4693526
 135 TORSION  20  6  8 25               1.0246286      58.7068932
 136 TORSION  20  6  8 24              -1.0649225     -61.0155667

     ------------------------------------------
     THE POINT GROUP IS C1 , NAXIS= 1, ORDER= 1
     ------------------------------------------

     DIMENSIONS OF THE SYMMETRY SUBSPACES ARE
 A   =  260

 ..... DONE SETTING UP THE RUN .....
 STEP CPU TIME =     0.02 TOTAL CPU TIME =        0.0 (    0.0 MIN)
 TOTAL WALL CLOCK TIME=        0.0 SECONDS, CPU UTILIZATION IS  66.67%


          -----------------------------
          STATIONARY POINT LOCATION RUN
          -----------------------------

 OBTAINING INITIAL HESSIAN, HESS=GUESS   
 DIAGONAL GUESS HESSIAN IN INTERNAL COORDS IS
     1  0.3418     2  0.3675     3  0.3676     4  0.3419     5  0.3418
     6  0.3674     7  0.3417     8  0.3418     9  0.3418    10  0.3683
    11  0.3418    12  0.3418    13  0.3683    14  0.3742    15  0.3422
    16  0.3423    17  0.3741    18  0.3422    19  0.3421    20  0.3432
    21  0.3431    22  0.3432    23  0.3432    24  0.3434    25  0.3432
    26  0.2237    27  0.2237    28  0.2237    29  0.2486    30  0.2485
    31  0.2237    32  0.2486    33  0.2237    34  0.2237    35  0.2237
    36  0.2486    37  0.2237    38  0.2237    39  0.2238    40  0.2493
    41  0.2238    42  0.2237    43  0.2238    44  0.2238    45  0.2493
    46  0.2237    47  0.2237    48  0.2238    49  0.2238    50  0.2244
    51  0.2244    52  0.2244    53  0.2238    54  0.2238    55  0.2244
    56  0.2244    57  0.2244    58  0.2243    59  0.2243    60  0.2243
    61  0.2243    62  0.2027    63  0.2027    64  0.2027    65  0.2027
    66  0.2028    67  0.2028    68  0.2029    69  0.2029    70  0.2029
    71  0.2029    72  0.2029    73  0.2029    74  0.2500    75  0.2500
    76  0.2500    77  0.2500    78  0.2500    79  0.2500    80  0.2500
    81  0.2500    82  0.2500    83  0.2500    84  0.2500    85  0.2500
    86  0.2500    87  0.2500    88  0.2500    89  0.2500    90  0.2500
    91  0.2500    92  0.2500    93  0.2500    94  0.2500    95  0.2500
    96  0.2500    97  0.2500    98  0.2500    99  0.2500   100  0.2500
   101  0.2500   102  0.2500   103  0.2500   104  0.2500   105  0.2500
   106  0.2500   107  0.2500   108  0.2500   109  0.2500   110  0.2500
   111  0.2500   112  0.2500   113  0.2500   114  0.2500   115  0.2500
   116  0.2500   117  0.2500   118  0.2500   119  0.2500   120  0.2500
   121  0.2500   122  0.2500   123  0.2500   124  0.2500   125  0.2500
   126  0.2500   127  0.2500   128  0.2500   129  0.2500   130  0.2500
   131  0.2500   132  0.2500   133  0.2500   134  0.2500   135  0.2500
   136  0.2500
 TRANSFORMING HESSIAN TO SYMMETRY COORDINATES

          PARAMETERS CONTROLLING GEOMETRY SEARCH ARE
          METHOD =QA                  UPHESS =BFGS    
          NNEG   =         0          NFRZ   =         3
          NSTEP  =        50          IFOLOW =         1
          HESS   =GUESS               RESTAR =         F
          IHREP  =         0          HSSEND =         F
          NPRT   =         0          NPUN   =         0
          OPTTOL = 5.000E-04          RMIN   = 1.500E-03
          RMAX   = 1.000E-01          RLIM   = 7.000E-02
          DXMAX  = 3.000E-01          PURIFY =         F
          MOVIE  =         F          TRUPD  =         T
          TRMAX  = 5.000E-01          TRMIN  = 5.000E-02
          ITBMAT =         5          STPT   =         F
          STSTEP = 1.000E-02          PROJCT=          F
          FROZEN COORD(S)=   1   2   3


      ***** EQUILIBRIUM GEOMETRY LOCATED *****
            (SUBJECT TO   3 CONSTRAINT(S))
 COORDINATES OF ALL ATOMS ARE (ANGS)
   ATOM   CHARGE       X              Y              Z
 ------------------------------------------------------------
 C           6.0   3.8430110977   2.3741018275   1.6690467740
 C           6.0   2.8445266308   3.0414124003   2.6152716780
 C           6.0   1.3919341645   2.7460933558   2.2497186513
 C           6.0   5.2956685660   2.6594484522   2.0423087138
 C           6.0   0.3701730041   3.4151426726   3.1684259155
 C           6.0   6.3174995284   2.0188034855   1.1036785129
 C           6.0  -1.0678038091   3.0841094996   2.7716965385
 C           6.0   7.7556159577   2.3225991290   1.5211305078
 H           1.0   3.6559499943   2.7161681427   0.6515061860
 H           1.0   3.6727808403   1.2977956435   1.6689096101
 H           1.0   3.0087982748   4.1186061692   2.6076306810
 H           1.0   3.0377663391   2.7070993699   3.6342435563
 H           1.0   1.2317355367   1.6684971277   2.2672478300
 H           1.0   1.2100946268   3.0677754372   1.2247010362
 H           1.0   5.4785068632   2.3084676048   3.0574758513
 H           1.0   5.4547475887   3.7372772843   2.0558538785
 H           1.0   0.5151262403   4.4940590750   3.1458432430
 H           1.0   0.5465274456   3.1011040550   4.1960013971
 H           1.0   6.1497825739   2.3752575613   0.0885926745
 H           1.0   6.1638898126   0.9410420114   1.0820663610
 H           1.0  -1.7852094603   3.5691720348   3.4272988140
 H           1.0  -1.2715169516   3.4089267659   1.7540196887
 H           1.0  -1.2437058667   2.0119345377   2.8176087792
 H           1.0   7.9543381454   1.9472666221   2.5222465882
 H           1.0   8.4730661197   1.8671812717   0.8446418086
 H           1.0   7.9366132209   3.3949124736   1.5285103491


                     --------------------
                     INTERNAL COORDINATES
                     --------------------

                 - - ATOMS - -         COORDINATE      COORDINATE
 NO.   TYPE    I  J  K  L  M  N        (BOHR,RAD)       (ANG,DEG)
 ----------------------------------------------------------------
   1 STRETCH   1 10                     2.0592060       1.0896850
   2 STRETCH   1  2                     2.8892521       1.5289265
   3 STRETCH   1  4                     2.8851363       1.5267485
   4 STRETCH   1  9                     2.0591858       1.0896743
   5 STRETCH   2 11                     2.0591858       1.0896743
   6 STRETCH   2  3                     2.8850783       1.5267178
   7 STRETCH   2 12                     2.0592035       1.0896837
   8 STRETCH   3 14                     2.0590263       1.0895899
   9 STRETCH   3 13                     2.0590076       1.0895800
  10 STRETCH   3  5                     2.8880342       1.5282820
  11 STRETCH   4 15                     2.0590052       1.0895787
  12 STRETCH   4 16                     2.0590250       1.0895892
  13 STRETCH   4  6                     2.8880004       1.5282641
  14 STRETCH   5  7                     2.8874831       1.5279903
  15 STRETCH   5 18                     2.0576613       1.0888675
  16 STRETCH   5 17                     2.0576175       1.0888444
  17 STRETCH   6  8                     2.8874721       1.5279846
  18 STRETCH   6 20                     2.0576616       1.0888677
  19 STRETCH   6 19                     2.0576224       1.0888470
  20 STRETCH   7 23                     2.0550356       1.0874781
  21 STRETCH   7 22                     2.0550902       1.0875070
  22 STRETCH   7 21                     2.0525686       1.0861726
  23 STRETCH   8 26                     2.0550893       1.0875065
  24 STRETCH   8 25                     2.0525740       1.0861755
  25 STRETCH   8 24                     2.0550268       1.0874734
  26 BEND      1  4 15                  1.9041812     109.1015446
  27 BEND      1  2 11                  1.9056884     109.1878995
  28 BEND      1  2 12                  1.9060470     109.2084513
  29 BEND      1  4  6                  1.9906989     114.0586432
  30 BEND      1  2  3                  1.9700664     112.8764926
  31 BEND      1  4 16                  1.9037482     109.0767364
  32 BEND      2  1  4                  1.9697907     112.8606957
  33 BEND      2  1  9                  1.9058219     109.1955518
  34 BEND      2  3 14                  1.9038441     109.0822297
  35 BEND      2  3 13                  1.9042874     109.1076315
  36 BEND      2  3  5                  1.9905026     114.0473954
  37 BEND      2  1 10                  1.9062048     109.2174922
  38 BEND      3  2 11                  1.9102512     109.4493303
  39 BEND      3  5 17                  1.9095542     109.4093952
  40 BEND      3  5  7                  1.9587124     112.2259545
  41 BEND      3  5 18                  1.9100232     109.4362657
  42 BEND      3  2 12                  1.9105767     109.4679811
  43 BEND      4  6 19                  1.9095941     109.4116825
  44 BEND      4  6 20                  1.9100550     109.4380883
  45 BEND      4  6  8                  1.9585987     112.2194398
  46 BEND      4  1 10                  1.9105692     109.4675494
  47 BEND      4  1  9                  1.9102409     109.4487409
  48 BEND      5  3 13                  1.9018022     108.9652412
  49 BEND      5  3 14                  1.9014799     108.9467727
  50 BEND      5  7 22                  1.9332265     110.7657194
  51 BEND      5  7 23                  1.9335597     110.7848115
  52 BEND      5  7 21                  1.9477759     111.5993383
  53 BEND      6  4 16                  1.9014805     108.9468072
  54 BEND      6  4 15                  1.9018108     108.9657312
  55 BEND      6  8 24                  1.9335791     110.7859222
  56 BEND      6  8 25                  1.9478263     111.6022278
  57 BEND      6  8 26                  1.9332205     110.7653765
  58 BEND      7  5 18                  1.9123631     109.5703373
  59 BEND      7  5 17                  1.9119443     109.5463405
  60 BEND      8  6 19                  1.9119573     109.5470852
  61 BEND      8  6 20                  1.9123926     109.5720254
  62 BEND      9  1 10                  1.8578489     106.4469015
  63 BEND     11  2 12                  1.8578291     106.4457660
  64 BEND     13  3 14                  1.8572816     106.4143998
  65 BEND     15  4 16                  1.8572648     106.4134372
  66 BEND     17  5 18                  1.8585408     106.4865439
  67 BEND     19  6 20                  1.8585468     106.4868866
  68 BEND     21  7 22                  1.8835962     107.9221104
  69 BEND     21  7 23                  1.8838619     107.9373366
  70 BEND     22  7 23                  1.8793553     107.6791269
  71 BEND     24  8 25                  1.8838257     107.9352628
  72 BEND     24  8 26                  1.8793272     107.6775160
  73 BEND     25  8 26                  1.8835927     107.9219118
  74 TORSION   1  4  6 19               1.0226566      58.5939061
  75 TORSION   1  4  6  8              -3.1344917    -179.5931468
  76 TORSION   1  2  3  5              -3.1287193    -179.2624084
  77 TORSION   1  2  3 13               1.0236339      58.6499013
  78 TORSION   1  2  3 14              -0.9986335     -57.2174873
  79 TORSION   1  4  6 20              -1.0075792     -57.7300352
  80 TORSION   2  1  4  6              -3.1294067    -179.3017974
  81 TORSION   2  1  4 16              -0.9992565     -57.2531813
  82 TORSION   2  1  4 15               1.0228792      58.6066609
  83 TORSION   2  3  5 17               1.0227192      58.5974949
  84 TORSION   2  3  5 18              -1.0074686     -57.7237001
  85 TORSION   2  3  5  7              -3.1343976    -179.5877511
  86 TORSION   3  5  7 21              -3.1357749    -179.6666651
  87 TORSION   3  5  7 22              -1.0366615     -59.3963303
  88 TORSION   3  5  7 23               1.0477337      60.0307181
  89 TORSION   3  2  1  9               1.0218560      58.5480332
  90 TORSION   3  2  1  4              -3.1326373    -179.4868959
  91 TORSION   3  2  1 10              -1.0032522     -57.4821178
  92 TORSION   4  1  2 11               1.0217525      58.5421077
  93 TORSION   4  6  8 24               1.0472012      60.0002065
  94 TORSION   4  6  8 25              -3.1363062    -179.6971109
  95 TORSION   4  6  8 26              -1.0371676     -59.4253246
  96 TORSION   4  1  2 12              -1.0031695     -57.4773759
  97 TORSION   5  3  2 12               1.0275485      58.8741912
  98 TORSION   5  3  2 11              -1.0024938     -57.4386645
  99 TORSION   6  4  1  9              -1.0032045     -57.4793852
 100 TORSION   6  4  1 10               1.0268515      58.8342562
 101 TORSION   7  5  3 13              -1.0021999     -57.4218218
 102 TORSION   7  5  3 14               1.0174024      58.2928621
 103 TORSION   8  6  4 16               1.0172970      58.2868272
 104 TORSION   8  6  4 15              -1.0022902     -57.4269976
 105 TORSION   9  1  4 15              -3.1341039    -179.5709269
 106 TORSION   9  1  2 11              -1.1069395     -63.4229631
 107 TORSION   9  1  4 16               1.1269457      64.5692309
 108 TORSION   9  1  2 12              -3.1318615    -179.4424467
 109 TORSION  10  1  2 12               1.1262156      64.5274023
 110 TORSION  10  1  4 15              -1.1040479     -63.2572855
 111 TORSION  10  1  4 16              -3.1261836    -179.1171276
 112 TORSION  10  1  2 11              -3.1320477    -179.4531142
 113 TORSION  11  2  3 13              -3.1333260    -179.5263548
 114 TORSION  11  2  3 14               1.1275919      64.6062566
 115 TORSION  12  2  3 13              -1.1032837     -63.2134991
 116 TORSION  12  2  3 14              -3.1255511    -179.0808877
 117 TORSION  13  3  5 18               1.1247291      64.4422292
 118 TORSION  13  3  5 17              -3.1282684    -179.2365759
 119 TORSION  14  3  5 18              -3.1388540    -179.8430869
 120 TORSION  14  3  5 17              -1.1086662     -63.5218919
 121 TORSION  15  4  6 20               1.1246223      64.4361141
 122 TORSION  15  4  6 19              -3.1283272    -179.2399447
 123 TORSION  16  4  6 20              -3.1389757    -179.8500611
 124 TORSION  16  4  6 19              -1.1087400     -63.5261199
 125 TORSION  17  5  7 21              -1.0110710     -57.9301035
 126 TORSION  17  5  7 23              -3.1107478    -178.2327203
 127 TORSION  17  5  7 22               1.0880423      62.3402313
 128 TORSION  18  5  7 21               1.0218169      58.5457939
 129 TORSION  18  5  7 23              -1.0778599     -61.7568229
 130 TORSION  18  5  7 22               3.1209302     178.8161288
 131 TORSION  19  6  8 26               1.0875199      62.3103002
 132 TORSION  19  6  8 25              -1.0116188     -57.9614861
 133 TORSION  19  6  8 24              -3.1112967    -178.2641686
 134 TORSION  20  6  8 26               3.1204394     178.7880072
 135 TORSION  20  6  8 25               1.0213007      58.5162208
 136 TORSION  20  6  8 24              -1.0783772     -61.7864617

          INTERNUCLEAR DISTANCES (ANGS.)


 =====================================================
   GAMESS/COSab RESULTS
 =====================================================

   Dielectric Constant                  = INFTY
   Basic Grid Size                      =                 1082
   Number of Segments                   =                   92
   Number of Segments located on spheres=                  298
   Number of Segments of the cavity     =                  914
   Solvent Radius (rsolv)               = 1.40
   Outlying Charge Error Method         = double cavity

 =====================================================

  Total solvated Energy (a.u.)          =  -313.5169109839
  Total Energy corrected (a.u.)         =  -313.5167996141

  Outlying charge effect (a.u.)         =     0.0001113697
  Outlying charge effect (kcal/mol)     =     0.0698856212

  Dielectric Energy (a.u.)              =    -0.0014259038
  Dielectric energy corr. (a.u.)        =    -0.0013145341

  Sum of polarization charges           =     0.0341356174
  Sum of polarization charges(cor.)     =    -0.0341356174

  Total surface area of cavity (A**2)   =  195.24
  Total volume of cavity (A**3)         =  188.88

 =====================================================
 NPS=                   914
NR.  ATOM  (X, Y, Z)(a.u.)                  CHARGE(e)  AREA(A**2) SIGMA(e/A**2)
   1   1   5.304969   2.327125   0.747608   0.001531   0.325193   0.004707
   2   1   7.510874   1.897428   5.896236   0.000209   0.092912   0.002246
   3   1   7.862742   1.575554   5.488696   0.000078   0.046456   0.001689
   4   1   5.593575   2.873166   0.171199   0.001277   0.232280   0.005499
   5   1   7.082742   7.866748   1.473183   0.000316   0.139368   0.002266
   6   1   7.380660   2.054803   0.263083   0.001223   0.232280   0.005266
   7   1   6.422597   2.199458   0.264540   0.002008   0.325193   0.006174
   8   1   7.146204   1.781684   5.791327   0.000110   0.046456   0.002368
   9   1   7.082583   2.738119  -0.191937   0.000700   0.139368   0.005026
  10   1   7.623086   7.784961   1.344745   0.000118   0.046456   0.002540
  11   2   7.341809   7.394577   7.717804   0.001528   0.325193   0.004700
  12   2   5.223811   2.326206   6.541058   0.000209   0.092912   0.002245
  13   2   4.872790   2.604497   6.980195   0.000078   0.046456   0.001689
  14   2   7.032878   8.107099   7.385275   0.001277   0.232280   0.005498
  15   2   5.456953   8.408372   2.259425   0.000316   0.139368   0.002267
  16   2   5.265331   7.725122   8.160972   0.001223   0.232280   0.005266
  17   2   6.219988   7.789395   8.008289   0.002008   0.325193   0.006174
  18   2   5.589247   2.397122   6.678223   0.000110   0.046456   0.002368
  19   2   5.541778   8.377927   7.650839   0.000700   0.139368   0.005024
  20   2   4.916603   8.493186   2.385858   0.000118   0.046456   0.002541
  21   3   2.645772   3.208270   1.032767   0.001519   0.325193   0.004672
  22   3   2.773728   8.595595   2.620026   0.000209   0.092912   0.002251
  23   3   2.204454   8.455049   2.397145   0.000076   0.046456   0.001633
  24   3   2.324280   2.596502   1.518652   0.001287   0.232280   0.005539
  25   3   3.111332   2.468629   6.830228   0.000316   0.139368   0.002268
  26   3   0.583180   3.512599   1.552881   0.001095   0.232280   0.004713
  27   3   1.448280   3.168788   1.284164   0.002008   0.325193   0.006174
  28   3   3.007053   8.430819   2.344716   0.000109   0.046456   0.002338
  29   3   0.856525   2.780037   1.942044   0.000653   0.139368   0.004683
  30   3   2.570121   2.549604   6.955490   0.000118   0.046456   0.002539
  31   4   9.982975   7.459973   6.750372   0.001518   0.325193   0.004668
  32   4   9.767684   7.638958   1.139610   0.000209   0.092912   0.002250
  33   4  10.336214   7.818651   1.334510   0.000076   0.046456   0.001633
  34   4  10.324674   6.813798   7.173930   0.001287   0.232280   0.005539
  35   4   9.623422   1.714280   5.640372   0.000316   0.139368   0.002269
  36   4  12.046648   7.105607   6.267572   0.001095   0.232280   0.004714
  37   4  11.184805   7.234489   6.691163   0.002008   0.325193   0.006175
  38   4   9.533573   7.843701   1.385901   0.000109   0.046456   0.002339
  39   4  11.794717   6.500698   6.845006   0.000653   0.139368   0.004683
  40   4  10.164718   1.632292   5.516143   0.000118   0.046456   0.002540
  41   5  -0.888054   8.586588   8.673462   0.000815   0.278737   0.002923
  42   5   2.574304   8.182995   8.776540   0.001517   0.325193   0.004664
  43   5   0.574014   3.057645   7.641350   0.000192   0.092912   0.002069
  44   5   0.208444   3.336812   8.067879   0.000077   0.046456   0.001653
  45   5   2.370147   8.909037   8.325100   0.001399   0.278737   0.005018
  46   5  -0.498746   9.330894   8.125244   0.000843   0.278737   0.003025
  47   5   0.792647   9.070195   3.261747   0.000290   0.139368   0.002084
  48   5   0.068734   8.506505   9.097495   0.001660   0.371649   0.004466
  49   5   1.496284   8.517337   9.051902   0.001639   0.278737   0.005880
  50   5  -0.642812   7.618767   9.322874   0.000849   0.278737   0.003046
  51   5   0.935001   3.137533   7.785204   0.000103   0.046456   0.002210
  52   5   0.745018   8.964081   8.812374   0.001390   0.278737   0.004987
  53   5   0.248202   9.147222   3.374898   0.000112   0.046456   0.002407
  54   6  13.523163   1.967402  -0.805564   0.000815   0.278737   0.002922
  55   6  10.072003   1.668832  -0.403337   0.001517   0.325193   0.004665
  56   6  12.160491   1.183221   4.789103   0.000192   0.092912   0.002069
  57   6  12.526822   0.873607   4.384822   0.000077   0.046456   0.001651
  58   6  10.253887   2.329331  -0.954040   0.001399   0.278737   0.005018
  59   6  13.109883   2.712783  -1.334435   0.000843   0.278737   0.003025
  60   6  11.747990   7.220718   0.458057   0.000290   0.139368   0.002084
  61   6  12.575026   1.519223  -0.848361   0.001659   0.371649   0.004465
  62   6  11.147020   1.535299  -0.823150   0.001639   0.278737   0.005879
  63   6  13.308350   1.042300  -0.086815   0.000848   0.278737   0.003043
  64   6  11.800223   1.063945   4.673485   0.000103   0.046456   0.002210
  65   6  11.884968   1.918813  -1.183293   0.001390   0.278737   0.004986
  66   6  12.292423   7.149105   0.341348   0.000112   0.046456   0.002407
  67   7  -3.686226   3.824134   2.501897   0.002334   0.418105   0.005583
  68   7  -2.688982   4.500296   8.712042   0.000919   0.278737   0.003298
  69   7  -2.564339   9.522923   4.659827   0.000561   0.185824   0.003019
  70   7  -5.192213   7.244292   3.753784   0.001896   0.418105   0.004535
  71   7  -5.201881   3.901171   5.895865   0.001494   0.371649   0.004020
  72   7  -1.884778   3.514776   2.251941   0.001815   0.371649   0.004883
  73   7  -5.342168   4.697505   6.635929   0.001594   0.371649   0.004288
  74   7  -5.318668   7.573726   4.653182   0.001181   0.278737   0.004235
  75   7  -3.396555   9.346903   5.198321   0.001228   0.325193   0.003776
  76   7  -3.380878   5.082845   8.683175   0.000614   0.185824   0.003303
  77   7  -2.592098   3.990344   1.985497   0.001052   0.232280   0.004528
  78   7  -2.796009   3.281917   2.555279   0.000919   0.185824   0.004944
  79   7  -2.685071   9.497252   5.851331   0.000749   0.232280   0.003224
  80   7  -3.431570   9.123045   4.042302   0.001435   0.325193   0.004414
  81   7  -4.532146   8.345512   3.962874   0.001794   0.325193   0.005516
  82   7  -5.696087   6.207811   4.456281   0.001511   0.464561   0.003254
  83   7  -5.657057   4.809998   5.175321   0.001396   0.464561   0.003006
  84   7  -4.619284   3.912621   7.199302   0.001949   0.371649   0.005244
  85   7  -3.305017   4.058578   8.319337   0.000927   0.232280   0.003991
  86   7  -2.212232   3.545350   8.243650   0.001256   0.371649   0.003379
  87   7  -2.326438   9.353211   3.910073   0.000847   0.278737   0.003039
  88   7  -5.238773   5.925569   3.262791   0.001296   0.418105   0.003100
  89   7  -4.695047   4.646912   2.845746   0.001541   0.418105   0.003685
  90   7  -4.534077   3.661328   3.432772   0.001721   0.464561   0.003705
  91   7  -5.136361   3.762236   4.697999   0.000965   0.325193   0.002966
  92   7  -5.790123   5.745285   5.455414   0.000798   0.278737   0.002862
  93   7  -4.203430   8.853422   4.641915   0.001350   0.278737   0.004842
  94   7  -2.385358   9.299471   6.686491   0.000110   0.092912   0.001181
  95   7  -2.637805   5.534015   8.954385   0.000681   0.232280   0.002933
  96   7  -4.222430   4.540159   8.024368   0.001510   0.325193   0.004643
[...]
 655  20  13.696909   0.570649   1.134869   0.000014   0.027898   0.000499
 656   6  13.197705   1.312383   4.781767   0.000034   0.026227   0.001291
 657   8  13.664694   1.376240   4.943040   0.000012   0.026227   0.000459
 658  24  13.816955   1.479493   5.184315  -0.000025   0.026227  -0.000957
 659   6  14.414887   1.144936   0.721110   0.000090   0.024986   0.003614
 660   8  14.895286   1.206542   0.837535   0.000038   0.024986   0.001531
 661  25  15.161704   1.290806   0.721016  -0.000002   0.024986  -0.000090
 662   6  14.385867   3.543513  -0.924396   0.000054   0.024986   0.002170
 663   8  14.865870   3.637860  -0.830432   0.000029   0.024986   0.001175
 664  25  15.134936   3.503225  -0.796780   0.000002   0.024986   0.000089
 665   6  13.127042   7.249641   0.704296   0.000045   0.026259   0.001726
 666   8  13.593187   7.384761   0.816626   0.000011   0.026259   0.000425
 667  26  13.744190   7.575396   0.998084  -0.000023   0.026259  -0.000882
 668   8  13.616581   7.169562   0.454386   0.000170   0.087617   0.001939
 669   6  12.908921   7.083441   0.340998   0.000199   0.087617   0.002274
 670   8  13.648957   1.177170   4.703601   0.000159   0.082622   0.001929
 671   6  13.010325   0.982372   4.431506   0.000174   0.082622   0.002100
 672   8  14.742675   1.015711   1.053370   0.000170   0.060153   0.002829
 673   6  14.081317   0.908470   0.795848   0.000184   0.060153   0.003053
 674   8  14.722461   3.820118  -0.917798   0.000137   0.053916   0.002548
 675   6  14.039619   3.741342  -1.122028   0.000135   0.053916   0.002508
 676   6   9.389857   3.300395  -0.751740   0.000137   0.089941   0.001528
 677   9   8.476648   3.707167  -0.626604   0.000251   0.089941   0.002786
 678  19   9.499817   3.519538  -0.937031  -0.000069   0.089941  -0.000762
 679   9   7.871615   3.658923  -0.698487   0.000052   0.016704   0.003098
 680   6   9.242633   3.091954  -0.794046   0.000134   0.023751   0.005653
 681   6  12.403771   1.908982   5.405982   0.000110   0.167426   0.000655
 682  15  12.020664   2.249280   5.957896  -0.000063   0.167426  -0.000379
 683  24  13.065983   2.097844   5.731266  -0.000062   0.167426  -0.000370
 684  15  11.185549   2.011851   6.073041  -0.000110   0.138822  -0.000792
 685   6  11.827687   1.570064   5.265956   0.000363   0.195748   0.001856
 686   6  12.351843   7.597171   1.455512   0.000111   0.167382   0.000666
 687  16  11.963281   7.990372   1.966820  -0.000014   0.167382  -0.000081
 688  26  13.011194   7.844836   1.744939  -0.000113   0.167382  -0.000673
 689  16  11.230356   8.189894   1.843631  -0.000158   0.149422  -0.001054
 690   6  11.633247   7.544618   1.017575   0.000417   0.210678   0.001978
 691  19  11.416192   6.905712  -0.211793  -0.000072   0.071323  -0.001014
 692  19  12.278226   6.786279  -0.396163  -0.000061   0.071323  -0.000860
 693   6  11.945273   6.959431   0.081045  -0.000180   0.155613  -0.001154
 694  19  13.244221   3.882398  -1.575474  -0.000049   0.068399  -0.000709
 695  19  12.410830   3.174713  -1.686281  -0.000162   0.151294  -0.001071
 696  19  11.114936   2.901899  -1.567965  -0.000026   0.151294  -0.000174
 697  19  10.101080   3.220697  -1.288502  -0.000050   0.068399  -0.000728
 698   6  13.178495   3.316590  -1.401905  -0.000038   0.150500  -0.000251
 699   6  11.874328   2.589301  -1.441812   0.000235   0.150500   0.001562
 700   6  10.416653   2.735162  -1.149747   0.000173   0.150500   0.001147
 701  20  12.341796   0.451952   3.990865  -0.000058   0.071564  -0.000812
 702  20  11.476962   0.571511   4.176008  -0.000073   0.071564  -0.001014
 703   6  12.005342   0.833640   4.323820  -0.000161   0.156032  -0.001035
 704  20  10.115418   0.841908   0.367912   0.000007   0.068632   0.000097
 705  20  11.128852   0.705713  -0.043992  -0.000068   0.151911  -0.000450
 706  20  12.433741   0.515733   0.154910  -0.000185   0.151911  -0.001218
 707  20  13.278691   0.381363   0.850084  -0.000066   0.068632  -0.000958
 708   6  10.422543   1.146762  -0.042476   0.000176   0.150914   0.001164
 709   6  11.884169   0.943618  -0.301469   0.000214   0.150914   0.001419
 710   6  13.202475   0.742028   0.381264  -0.000042   0.150914  -0.000281
 711  24  13.700190   1.716480   5.598266  -0.000193   0.140302  -0.001377
 712   6  12.816753   1.360573   4.982811   0.000391   0.197719   0.001979
 713  25  15.308205   1.485916   0.345533  -0.000198   0.195527  -0.001012
 714  25  15.284632   2.601469  -0.503621  -0.000945   0.399454  -0.002366
 715   6  14.191607   1.713534  -0.140826   0.000895   0.536302   0.001670
 716   6  14.184458   3.063121  -0.990299   0.000713   0.275334   0.002590
 717  26  13.706100   7.818601   1.247653  -0.000166   0.132415  -0.001254
 718   6  12.689636   7.454227   0.904218   0.000353   0.186618   0.001894
 719   7  -1.115835   2.690099   3.206687   0.000109   0.087702   0.001238
 720  13  -0.168811   2.400887   3.238393   0.000224   0.087702   0.002553
 721  23  -1.228342   2.488098   3.407903  -0.000089   0.087702  -0.001013
 722  13   0.319520   2.199378   2.924443   0.000080   0.040760   0.001968
 723   7  -1.048452   2.716577   2.913923   0.000262   0.057855   0.004536
 724   7  -1.136698   4.744570   1.654408   0.000102   0.088068   0.001163
 725  14  -0.197885   4.890386   1.364306   0.000207   0.088068   0.002346
 726  22  -1.259836   4.988375   1.515218  -0.000018   0.088068  -0.000207
 727  14   0.290033   4.673873   1.068895   0.000026   0.019459   0.001361
 728   7  -1.077564   4.515661   1.573179   0.000139   0.027628   0.005044
 729  17  -0.374422   9.845522   4.356933  -0.000141   0.215281  -0.000656
 730  17  -0.856657   9.999125   5.818283  -0.001039   0.443022  -0.002345
 731   7  -1.558637   9.512924   4.582305   0.000981   0.587452   0.001670
 732   7  -1.997987   9.554529   6.284276   0.000754   0.303254   0.002488
 733  18  -0.876823   5.845616   9.517516  -0.000156   0.215107  -0.000727
 734  18  -0.470369   4.422435   9.073827  -0.001053   0.442628  -0.002379
 735   7  -1.762954   5.175895   8.943194   0.001036   0.587007   0.001765
 736   7  -1.196278   3.634550   8.319317   0.000745   0.303007   0.002458
 737  21  -3.036026   9.107039   7.057582  -0.000085   0.069801  -0.001221
 738  21  -3.798720   9.095421   6.231583  -0.000296   0.155315  -0.001903
 739  21  -4.813523   8.453010   5.596426  -0.000137   0.155315  -0.000880
 740  21  -5.549881   7.311857   5.634976  -0.000267   0.155315  -0.001721
 741  21  -5.696584   6.154251   6.330942  -0.000300   0.155315  -0.001931
 742  21  -5.191631   5.469438   7.390183  -0.000184   0.155315  -0.001187
 743  21  -4.248432   5.546841   8.365029  -0.000220   0.155315  -0.001418
 744  21  -3.265615   6.353749   8.843476  -0.000322   0.155315  -0.002070
 745   7  -2.997325   9.212174   6.467260  -0.000152   0.152689  -0.000997
 746   7  -4.113348   8.906571   5.472139   0.000082   0.152689   0.000540
 747   7  -5.153353   7.847322   5.117818   0.000088   0.152689   0.000575
 748   7  -5.677799   6.482100   5.554043  -0.000055   0.152689  -0.000362
 749   7  -5.465037   5.387897   6.596452  -0.000024   0.152689  -0.000160
 750   7  -4.604986   5.027159   7.804486   0.000101   0.152689   0.000662
 751   7  -3.461135   5.552347   8.667589  -0.000112   0.152689  -0.000736
 752   7  -2.631676   6.440663   8.917988   0.000052   0.085278   0.000609
 753  22  -1.997900   4.867912   1.470686  -0.000034   0.067226  -0.000508
 754  22  -3.061989   4.815173   1.666860  -0.000096   0.148306  -0.000644
 755  22  -4.172255   5.384540   2.070841  -0.000201   0.148306  -0.001352
 756  22  -4.677817   6.504417   2.529483  -0.000240   0.148306  -0.001617
 757  22  -4.381247   7.737474   2.863679  -0.000122   0.148306  -0.000823
 758  22  -3.398359   8.602183   2.942921  -0.000179   0.148306  -0.001204
 759  22  -2.112986   8.760862   2.736264  -0.000300   0.148306  -0.002021
 760   7  -2.321344   4.473331   1.768454   0.000078   0.148286   0.000525
 761   7  -3.735822   4.689719   2.120669   0.000048   0.148286   0.000322
 762   7  -4.691458   5.688775   2.630842  -0.000000   0.148286  -0.000002
 763   7  -4.815061   7.080350   3.099744   0.000023   0.148286   0.000152
 764   7  -4.058362   8.321014   3.344260   0.000056   0.148286   0.000378
 765   7  -2.716863   8.926268   3.268904   0.000051   0.148286   0.000345
 766   7  -1.551616   8.850622   3.011502   0.000008   0.082131   0.000099
 767  23  -1.584154   2.564682   7.305445  -0.000099   0.067087  -0.001478
 768  23  -2.637821   2.744532   7.468429  -0.000233   0.147943  -0.001577
 769  23  -3.845151   2.922317   6.994480  -0.000097   0.147943  -0.000654
 770  23  -4.545193   2.989885   5.890281  -0.000227   0.147943  -0.001534
 771  23  -4.465628   2.920950   4.585368  -0.000226   0.147943  -0.001529
 772  23  -3.637407   2.742330   3.587357  -0.000170   0.147943  -0.001148
 773  23  -2.382711   2.523507   3.284478  -0.000119   0.147943  -0.000804
 774   7  -1.865001   2.965563   7.635217  -0.000102   0.148035  -0.000690
 775   7  -3.315056   3.200092   7.556409   0.000011   0.148035   0.000074
 776   7  -4.442896   3.345171   6.623241   0.000156   0.148035   0.001052
 777   7  -4.809788   3.344362   5.198718  -0.000026   0.148035  -0.000179
 778   7  -4.273008   3.197982   3.836986  -0.000051   0.148035  -0.000346
 779   7  -3.041368   2.962971   3.067763   0.000193   0.148035   0.001304
 780   7  -1.864933   2.767885   3.019344   0.000182   0.081962   0.002218
 781   8  13.787324   5.316217   6.503844   0.000108   0.087704   0.001229
 782  15  12.847245   5.174948   6.782627   0.000224   0.087704   0.002556
 783  24  13.907128   5.064362   6.630992  -0.000089   0.087704  -0.001013
 784  15  12.358515   5.398711   7.079767   0.000080   0.040257   0.001982
 785   8  13.715083   5.599943   6.571838   0.000260   0.057141   0.004549
 786   8  13.741996   7.433513   5.039400   0.000100   0.088057   0.001141
 787  16  12.795943   7.734355   5.006069   0.000207   0.088057   0.002353
 788  26  13.857826   7.644602   4.849652  -0.000013   0.088057  -0.000145
 789  16  12.307871   7.935854   5.312367   0.000027   0.019959   0.001354
 790   8  13.686205   7.437156   5.283700   0.000141   0.028337   0.004966
 791  19  12.915670   6.449028  -0.638907  -0.000142   0.215277  -0.000658
 792  19  13.417560   5.120183  -1.250349  -0.001045   0.443011  -0.002359
 793   8  14.109950   6.156283  -0.411380   0.000985   0.587441   0.001677
 794   8  14.575094   4.562983  -0.991352   0.000810   0.303248   0.002672
 795  20  13.582335   0.306853   1.532292  -0.000157   0.215093  -0.000729
 796  20  13.198639   0.273395   3.028570  -0.001055   0.442596  -0.002384
 797   8  14.473060   0.661273   2.335144   0.000959   0.586970   0.001634
 798   8  13.928834   0.758398   4.002497   0.000725   0.302987   0.002391
 799  24  14.322176   1.395319   5.332062  -0.000098   0.067089  -0.001456
 800  24  15.374339   1.319281   5.094688  -0.000252   0.147947  -0.001706
 801  24  16.570205   1.850693   5.056532  -0.000090   0.147947  -0.000611
 802  24  17.251356   2.935274   5.327946  -0.000215   0.147947  -0.001453
 803  24  17.152812   4.151101   5.803346  -0.000220   0.147947  -0.001490
 804  24  16.312906   5.025191   6.297791  -0.000155   0.147947  -0.001044
 805  24  15.058381   5.217506   6.618931  -0.000119   0.147947  -0.000807
 806   8  14.599799   1.213605   4.843960  -0.000128   0.148038  -0.000862
 807   8  16.043316   1.392726   4.624561   0.000097   0.148038   0.000652
 808   8  17.153210   2.348275   4.762489   0.000141   0.148038   0.000954
 809   8  17.497709   3.708522   5.204086  -0.000010   0.148038  -0.000067
 810   8  16.942797   4.944305   5.777561  -0.000061   0.148038  -0.000410
 811   8  15.704346   5.574878   6.259823   0.000100   0.148038   0.000673
 812   8  14.531556   5.534663   6.477557   0.000083   0.081964   0.001014
 813  25  15.634640   3.708618  -0.823990  -0.000075   0.069805  -0.001068
 814  25  16.384354   4.505687  -0.565471  -0.000227   0.155325  -0.001462
 815  25  17.402142   4.929550   0.228597  -0.000218   0.155325  -0.001401
 816  25  18.162442   4.551621   1.289355  -0.000219   0.155325  -0.001410
 817  25  18.343898   3.531642   2.168451  -0.000295   0.155325  -0.001900
 818  25  17.869813   2.300728   2.494317  -0.000166   0.155325  -0.001066
 819  25  16.940570   1.379151   2.129217  -0.000225   0.155325  -0.001449
 820  25  15.948933   1.156436   1.227470  -0.000337   0.155325  -0.002168
 821   8  15.584502   4.301242  -0.738369  -0.000148   0.152696  -0.000971
 822   8  16.690857   5.174486  -0.152895   0.000059   0.152696   0.000385
 823   8  17.746860   5.201767   0.948682   0.000045   0.152696   0.000298
 824   8  18.306167   4.371552   2.100757  -0.000033   0.152696  -0.000218
 825   8  18.132376   3.034751   2.816381   0.000000   0.152696   0.000002
 826   8  17.298942   1.756392   2.793080   0.000044   0.152696   0.000289
 827   8  16.158135   1.076799   2.040702   0.000030   0.152696   0.000198
 828   8  15.314569   1.099389   1.130852   0.000030   0.085282   0.000357
 829  26  14.597444   7.665041   4.966839  -0.000030   0.067222  -0.000452
 830  26  15.665261   7.484981   4.939536  -0.000130   0.148295  -0.000876
 831  26  16.769508   7.303282   4.255807  -0.000214   0.148295  -0.001441
 832  26  17.258722   7.229049   3.041302  -0.000240   0.148295  -0.001620
 833  26  16.941883   7.291267   1.770238  -0.000132   0.148295  -0.000889
 834  26  15.942705   7.465642   0.938915  -0.000195   0.148295  -0.001316
 835  26  14.651327   7.684088   0.871931  -0.000325   0.148295  -0.002192
 836   8  14.933634   7.265714   5.243376   0.000133   0.148280   0.000899
 837   8  16.348518   7.029196   4.906437   0.000099   0.148280   0.000668
 838   8  17.290919   6.877834   3.783789  -0.000034   0.148280  -0.000226
 839   8  17.392864   6.870728   2.313781  -0.000009   0.148280  -0.000062
 840   8  16.614549   7.010653   1.070392   0.000103   0.148280   0.000698
 841   8  15.259875   7.242974   0.539118  -0.000027   0.148280  -0.000182
 842   8  14.092628   7.438840   0.708731  -0.000003   0.082126  -0.000031
 843  14   3.835780   7.327022   0.752813   0.000162   0.253957   0.000638
 844  14   3.554010   6.421987   0.105636  -0.000249   0.507833  -0.000490
 845  14   3.339008   5.042146   0.034603   0.000129   0.507833   0.000253
 846   9   5.195135   6.788235   0.136697  -0.000128   0.507833  -0.000251
 847   9   4.890049   5.531029  -0.393952  -0.000140   0.507833  -0.000275
 848   9   4.771112   4.404324  -0.210346   0.000430   0.253957   0.001692
 849  19   9.478559   3.802977  -1.301761   0.000411   0.252965   0.001623
 850  19   9.595200   4.913761  -1.457742  -0.000140   0.505782  -0.000277
 851  19   9.885596   6.143899  -0.916237  -0.000103   0.505782  -0.000203
 852   9   8.014880   4.429016  -1.051057   0.000194   0.505782   0.000384
 853   9   8.222024   5.784958  -0.954569  -0.000165   0.505782  -0.000326
 854   9   8.489068   6.668468  -0.306591   0.000204   0.252965   0.000806
 855  13   3.326614   1.473252   2.450764   0.000438   0.253908   0.001726
 856  13   3.494807   0.954127   3.458572  -0.000120   0.507729  -0.000237
 857  13   3.843493   1.076809   4.805100  -0.000125   0.507729  -0.000246
 858  10   4.851094   1.025219   2.463496   0.000154   0.507729   0.000303
 859  10   5.121831   0.671830   3.786971  -0.000255   0.507729  -0.000502
 860  10   5.430914   1.013193   4.836446   0.000164   0.253908   0.000644
 861  20  10.093035   0.302574   3.666394   0.000189   0.252558   0.000747
 862  20   9.803274  -0.008788   2.625646  -0.000194   0.504960  -0.000384
 863  20   9.550132   0.356971   1.328707   0.000169   0.504960   0.000335
 864  10   8.480576   0.370512   3.631342  -0.000065   0.504960  -0.000129
 865  10   8.154105   0.275809   2.303050  -0.000100   0.504960  -0.000198
 866  10   7.996808   0.796239   1.318940   0.000435   0.252558   0.001721
 867  16   8.702780   8.991801   2.947667   0.000161   0.254000   0.000635
 868  16   8.993961   9.328000   4.006076  -0.000250   0.507921  -0.000493
 869  16   9.237403   8.966432   5.335081   0.000130   0.507921   0.000255
 870  11   7.346213   9.378376   3.673904  -0.000129   0.507921  -0.000253
 871  11   7.670044   9.493738   5.029660  -0.000140   0.507921  -0.000276
 872  11   7.815917   8.967851   6.039715   0.000430   0.254000   0.001692
 873  17   3.107594   9.717348   7.024122   0.000411   0.252946   0.001624
 874  17   2.965255  10.211185   6.020136  -0.000140   0.505744  -0.000277
 875  17   2.657162  10.076482   4.686635  -0.000104   0.505744  -0.000205
 876  11   4.560964   9.706167   6.328802   0.000193   0.505744   0.000381
 877  11   4.326773  10.035212   5.014200  -0.000165   0.505744  -0.000326
 878  11   4.050923   9.691245   3.976069   0.000204   0.252946   0.000808
 879  15   9.361753   5.555353   7.963046   0.000438   0.254020   0.001724
 880  15   9.220536   4.431356   8.142297  -0.000122   0.507956  -0.000240
 881  15   8.890362   3.183260   7.607700  -0.000126   0.507956  -0.000249
 882  12   7.848199   5.369260   8.407626   0.000154   0.507956   0.000302
 883  12   7.605826   3.995201   8.331640  -0.000257   0.507956  -0.000506
 884  12   7.305907   3.098881   7.681946   0.000163   0.254020   0.000641
 885  18   2.642392   3.890048   8.797014   0.000189   0.252465   0.000748
 886  18   2.923372   4.786035   9.414660  -0.000193   0.504772  -0.000383
 887  18   3.149694   6.136720   9.470988   0.000168   0.504772   0.000333
 888  12   4.252301   3.977656   8.718297  -0.000065   0.504772  -0.000130
 889  12   4.561185   5.215193   9.220129  -0.000099   0.504772  -0.000196
 890  12   4.693023   6.315572   9.033009   0.000435   0.252465   0.001723
 891  23  -1.274427   2.066486   3.582550   0.000325   0.249971   0.001298
 892  23  -1.114918   1.599722   4.591264  -0.000353   0.499810  -0.000706
 893  23  -0.798252   1.762923   5.913730  -0.000331   0.499810  -0.000663
 894  13   0.269402   1.655364   3.625294   0.000074   0.499810   0.000148
 895  13   0.520258   1.358797   4.938667  -0.000275   0.499810  -0.000550
 896  13   0.798659   1.722654   5.963808   0.000136   0.249971   0.000546
 897  22  -0.826792   7.952791   1.753683   0.000028   0.251921   0.000113
 898  22  -1.085267   7.050792   1.123218  -0.000477   0.503716  -0.000947
 899  22  -1.286567   5.688866   1.057237  -0.000007   0.503716  -0.000013
 900  14   0.564690   7.420624   1.170637  -0.000156   0.503716  -0.000310
 901  14   0.283302   6.173755   0.655024  -0.000166   0.503716  -0.000329
 902  14   0.169532   5.063868   0.836966   0.000346   0.251921   0.001374
 903  24  13.964749   4.767463   6.975968   0.000324   0.250053   0.001297
 904  24  13.831135   3.659647   7.105531  -0.000353   0.499975  -0.000707
 905  24  13.532159   2.447800   6.540386  -0.000331   0.499975  -0.000662
 906  15  12.430965   4.564413   7.375863   0.000075   0.499975   0.000149
 907  15  12.207292   3.218549   7.249491  -0.000276   0.499975  -0.000551
 908  15  11.937634   2.352851   6.586357   0.000136   0.250053   0.000545
 909  26  13.366293   8.336972   1.967383   0.000072   0.251851   0.000287
 910  26  13.633732   8.658495   3.017307  -0.000489   0.503575  -0.000971
 911  26  13.862608   8.299161   4.327764  -0.000015   0.503575  -0.000029
 912  16  11.977335   8.693893   2.676375  -0.000155   0.503575  -0.000307
 913  16  12.276752   8.798980   4.017310  -0.000165   0.503575  -0.000328
 914  16  12.416736   8.281379   5.012165   0.000346   0.251851   0.001375
 =====================================================

              6157928  WORDS OF DYNAMIC MEMORY USED
 EXECUTION OF GAMESS TERMINATED NORMALLY Fri Nov 25 04:41:46 2016
 DDI: 263640 bytes (0.3 MB / 0 MWords) used by master data server.

 ----------------------------------------
 CPU timing information for all processes
 ========================================
 0: 1040.700 + 0.312 = 1041.12
 ----------------------------------------
 ddikick.x: exited gracefully.
