----- GAMESS execution script -----

          ******************************************************
          *         GAMESS VERSION =  5 DEC 2014 (R1)          *
          *             FROM IOWA STATE UNIVERSITY             *
          * M.W.SCHMIDT, K.K.BALDRIDGE, J.A.BOATZ, S.T.ELBERT, *
          *   M.S.GORDON, J.H.JENSEN, S.KOSEKI, N.MATSUNAGA,   *
          *          K.A.NGUYEN, S.J.SU, T.L.WINDUS,           *
          *       TOGETHER WITH M.DUPUIS, J.A.MONTGOMERY       *
          *         J.COMPUT.CHEM.  14, 1347-1363(1993)        *
          **************** 64 BIT LINUX VERSION ****************

 EXECUTION OF GAMESS BEGUN Fri Nov 25 04:41:49 2016

            ECHO OF THE FIRST FEW INPUT CARDS -
 INPUT CARD>! SELECT RESTRICTED HARTREE-FOCK AS DEFAULT                                     
 INPUT CARD>$contrl scftyp=rhf $end                                                         
 INPUT CARD>                                                                                
 INPUT CARD>! THEORY: HF OR DFT                                                             
 INPUT CARD> $contrl mplevl=0 $end                                                          
 INPUT CARD>                                                                                
 INPUT CARD> $system timlim=10000 mwords=20 $end                                            
 INPUT CARD> $SCF DIRSCF=.TRUE. $end                                                        
 INPUT CARD>                                                                                
 INPUT CARD>                                                                                
 INPUT CARD>! BASIS SETS                                                                    
 INPUT CARD>! 6-311G(d,p)                                                                   
 INPUT CARD> $BASIS GBASIS=N311 NGAUSS=6 NDFUNC=1 NPFUNC=1 $END                             
 INPUT CARD>                                                                                
 INPUT CARD>! One of the following                                                          
 INPUT CARD> $guess guess=HUCKEL $end                                                       
 INPUT CARD>                                                                                
 INPUT CARD> $statpt projct=.FALSE. $end                                                    
 INPUT CARD> $STATPT IFREEZ(1)=1,2,3 $END                                                   
 INPUT CARD>                                                                                
 INPUT CARD>! Optimize the geometry with COSMO effects                                      
 INPUT CARD> $statpt opttol=0.0005 nstep=50 $end                                            
 INPUT CARD> $contrl nzvar=1 $end                                                           
 INPUT CARD> $zmat dlc=.t. auto=.t. $end                                                    
 INPUT CARD> $contrl runtyp=OPTIMIZE maxit=200 $end                                         
 INPUT CARD>                                                                                
 INPUT CARD>! Run COSMO on perfect conductor                                                
 INPUT CARD> $COSGMS PRFCND=.TRUE. $end                                                     
 INPUT CARD>                                                                                
 INPUT CARD>! Specifying RSOLV                                                              
 INPUT CARD> $COSGMS COSRAD = 1.4 $end                                                      
 INPUT CARD>                                                                                
 INPUT CARD>! available memory                                                              
 INPUT CARD> $SYSTEM MWORDS=40 $END                                                         
 INPUT CARD>                                                                                
 INPUT CARD> $DATA                                                                          
 INPUT CARD>                                                                                
 INPUT CARD>C1                                                                              
 INPUT CARD>C      6.0      2.0098000000    2.2604000000    1.8987000000                    
 INPUT CARD>C      6.0      3.2395000000    1.6474000000    1.2321000000                    
 INPUT CARD>C      6.0      4.4450000000    1.6445000000    2.1717000000                    
 INPUT CARD>C      6.0      0.8015000000    2.2321000000    0.9717000000                    
 INPUT CARD>C      6.0      5.6713000000    1.0497000000    1.4973000000                    
 INPUT CARD>O      8.0     -0.3188000000    2.8164000000    1.6199000000                    
 INPUT CARD>H      1.0      2.2183000000    3.2948000000    2.1983000000                    
 INPUT CARD>H      1.0      1.7690000000    1.7226000000    2.8250000000                    
 INPUT CARD>H      1.0      3.0152000000    0.6195000000    0.9211000000                    
 INPUT CARD>H      1.0      3.4825000000    2.2132000000    0.3245000000                    
 INPUT CARD>H      1.0      4.6709000000    2.6678000000    2.4923000000                    
 INPUT CARD>H      1.0      4.2128000000    1.0652000000    3.0727000000                    
   40000000 WORDS OF MEMORY AVAILABLE

     BASIS OPTIONS
     -------------
     GBASIS=N311         IGAUSS=       6      POLAR=POPN311 
     NDFUNC=       1     NFFUNC=       0     DIFFSP=       F
     NPFUNC=       1      DIFFS=       F     BASNAM=        


     RUN TITLE
     ---------
                                                                                 

 THE POINT GROUP OF THE MOLECULE IS C1      
 THE ORDER OF THE PRINCIPAL AXIS IS     0

 ATOM      ATOMIC                      COORDINATES (BOHR)
           CHARGE         X                   Y                   Z
 C           6.0     3.7979712901        4.2715366226        3.5880227329
 C           6.0     6.1217673372        3.1131345922        2.3283313895
 C           6.0     8.3998320154        3.1076543868        4.1039179275
 C           6.0     1.5146153792        4.2180573772        1.8362467423
 C           6.0    10.7172029942        1.9836453693        2.8294867214
 O           8.0    -0.6024446449        5.3222242718        3.0611671275
 H           1.0     4.1919791586        6.2262691843        4.1541846388
 H           1.0     3.3429252723        3.2552419864        5.3384759153
 H           1.0     5.6979017982        1.1706852494        1.7406266073
 H           1.0     6.5809707522        4.1823415560        0.6132160830
 H           1.0     8.8267211161        5.0414109900        4.7097640792
 H           1.0     7.9610376411        2.0129361221        5.8065610425
 H           1.0     1.0183733348        2.2722065276        1.3377370267
 H           1.0     1.8819781112        5.2600522868        0.0891950666
 H           1.0    10.3683595768        0.0298576706        2.2470731720
 H           1.0    11.2434916817        3.0764739080        1.1540556607
 H           1.0    12.3238480289        1.9891255747        4.1307520366
 H           1.0    -0.1470206818        7.0428197836        3.5165910906

          INTERNUCLEAR DISTANCES (ANGS.)




     $CONTRL OPTIONS
     ---------------
 SCFTYP=RHF          RUNTYP=OPTIMIZE     EXETYP=RUN     
 MPLEVL=       0     CITYP =NONE         CCTYP =NONE         VBTYP =NONE    
 DFTTYP=NONE         TDDFT =NONE    
 MULT  =       1     ICHARG=       0     NZVAR =       1     COORD =UNIQUE  
 PP    =NONE         RELWFN=NONE         LOCAL =NONE         NUMGRD=       F
 ISPHER=      -1     NOSYM =       0     MAXIT =     200     UNITS =ANGS    
 PLTORB=       F     MOLPLT=       F     AIMPAC=       F     FRIEND=        
 NPRINT=       7     IREST =       0     GEOM  =INPUT   
 NORMF =       0     NORMP =       0     ITOL  =      20     ICUT  =       9
 INTTYP=BEST         GRDTYP=BEST         QMTTOL= 1.0E-06

     $SYSTEM OPTIONS
     ---------------
  REPLICATED MEMORY=    40000000 WORDS (ON EVERY NODE).
 DISTRIBUTED MEMDDI=           0 MILLION WORDS IN AGGREGATE,
 MEMDDI DISTRIBUTED OVER   1 PROCESSORS IS           0 WORDS/PROCESSOR.
 TOTAL MEMORY REQUESTED ON EACH PROCESSOR=    40000000 WORDS.
 TIMLIM=       10000.00 MINUTES, OR       6.9 DAYS.
 PARALL= F  BALTYP=  DLB     KDIAG=    0  COREFL= F
 MXSEQ2=     300 MXSEQ3=     150  mem10=         0

     $COSGMS OPTIONS
     ---------------
     EPSI  =   INFTY     NSPA  =      92     COSRAD=    1.40
     DISEX =   10.00     OUTCHG=DBLCAV       COSBUG=       F
     COSWRT=       F     DCOSMO=       F

     SYMMETRY COORDINATES WILL NOT BE USED FOR 
     THE COSMO CALCULATION, EVEN IF SPECIFIED:
         -- SWITCHING TO C1 POINT GROUP --


     DEFINITION OF CAVITY
     ---------------------------
     ATOM         COORDINATES           RADIUS 
     1    3.7980    4.2715    3.5880    2.0000
     2    6.1218    3.1131    2.3283    2.0000
     3    8.3998    3.1077    4.1039    2.0000
     4    1.5146    4.2181    1.8362    2.0000
     5   10.7172    1.9836    2.8295    2.0000
     6   -0.6024    5.3222    3.0612    1.7200
     7    4.1920    6.2263    4.1542    1.3000
     8    3.3429    3.2552    5.3385    1.3000
     9    5.6979    1.1707    1.7406    1.3000
    10    6.5810    4.1823    0.6132    1.3000
    11    8.8267    5.0414    4.7098    1.3000
    12    7.9610    2.0129    5.8066    1.3000
    13    1.0184    2.2722    1.3377    1.3000
    14    1.8820    5.2601    0.0892    1.3000
    15   10.3684    0.0299    2.2471    1.3000
    16   11.2435    3.0765    1.1541    1.3000
    17   12.3238    1.9891    4.1308    1.3000
    18   -0.1470    7.0428    3.5166    1.3000

          ----------------
          PROPERTIES INPUT
          ----------------

     MOMENTS            FIELD           POTENTIAL          DENSITY
 IEMOM =       1   IEFLD =       0   IEPOT =       0   IEDEN =       0
 WHERE =COMASS     WHERE =NUCLEI     WHERE =NUCLEI     WHERE =NUCLEI  
 OUTPUT=BOTH       OUTPUT=BOTH       OUTPUT=BOTH       OUTPUT=BOTH    
 IEMINT=       0   IEFINT=       0                     IEDINT=       0
                                                       MORB  =       0
          EXTRAPOLATION IN EFFECT
          SOSCF IN EFFECT
 ORBITAL PRINTING OPTION: NPREO=     1   186     2     1

     -------------------------------
     INTEGRAL TRANSFORMATION OPTIONS
     -------------------------------
     NWORD  =            0
     CUTOFF = 1.0E-09     MPTRAN =       0
     DIRTRF =       T     AOINTS =DUP     

          ----------------------
          INTEGRAL INPUT OPTIONS
          ----------------------
 NOPK  =       1 NORDER=       0 SCHWRZ=       T


 -----------------------------------------------
  STATISTICS ON AUTOMATIC COORDINATE GENERATION 
 -----------------------------------------------
  NUMBER OF USER SPECIFIED BONDS                             0
  NUMBER OF BONDS                                           17
  NUMBER OF ANGLES                                          31
  NUMBER OF TORSIONS                                        39
  NUMBER OF EXTRA COORD.                                     0
  NUMBER OF EXTRA COORD. FOR CONSTRAINTS                     0
  NUMBER OF CONSTRAINED COORD.                               0

  TOTAL NUMBER OF PRIMITIVES                                87
 -----------------------------------------------

   --- ENCODED Z MATRIX ---
 COORD  TYPE   I   J   K   L   M   N
    1      1    1   4
    2      1    1   7
    3      1    1   8
    4      1    1   2
    5      1    2   9
    6      1    2   3
    7      1    2  10
    8      1    3  11
    9      1    3   5
   10      1    3  12
   11      1    4  14
   12      1    4  13
   13      1    4   6
   14      1    5  16
   15      1    5  15
   16      1    5  17
   17      1    6  18
   18      2    1   4  13
   19      2    1   2   3
   20      2    1   2   9
   21      2    1   4  14
   22      2    1   4   6
   23      2    1   2  10
   24      2    2   1   4
   25      2    2   1   8
   26      2    2   3  12
   27      2    2   3  11
   28      2    2   1   7
   29      2    2   3   5
   30      2    3   2  10
   31      2    3   2   9
   32      2    3   5  17
   33      2    3   5  16
   34      2    3   5  15
   35      2    4   1   7
   36      2    4   1   8
   37      2    4   6  18
   38      2    5   3  12
   39      2    5   3  11
   40      2    6   4  13
   41      2    6   4  14
   42      2    7   1   8
   43      2    9   2  10
   44      2   11   3  12
   45      2   13   4  14
   46      2   15   5  17
   47      2   15   5  16
   48      2   16   5  17
   49      3    1   2   3  11
   50      3    1   4   6  18
   51      3    1   2   3  12
   52      3    1   2   3   5
   53      3    2   1   4  14
   54      3    2   1   4  13
   55      3    2   3   5  17
   56      3    2   3   5  15
   57      3    2   3   5  16
   58      3    2   1   4   6
   59      3    3   2   1   8
   60      3    3   2   1   7
   61      3    3   2   1   4
   62      3    4   1   2   9
   63      3    4   1   2  10
   64      3    5   3   2  10
   65      3    5   3   2   9
   66      3    6   4   1   8
   67      3    6   4   1   7
   68      3    7   1   4  14
   69      3    7   1   2   9
   70      3    7   1   2  10
   71      3    7   1   4  13
   72      3    8   1   4  14
   73      3    8   1   2   9
   74      3    8   1   2  10
   75      3    8   1   4  13
   76      3    9   2   3  11
   77      3    9   2   3  12
   78      3   10   2   3  11
   79      3   10   2   3  12
   80      3   11   3   5  15
   81      3   11   3   5  16
   82      3   11   3   5  17
   83      3   12   3   5  15
   84      3   12   3   5  16
   85      3   12   3   5  17
   86      3   13   4   6  18
   87      3   14   4   6  18

          INDEP./SYM. INTERNAL COORDINATES
          --------------------------------
 CRD  1=  -0.5114 ( 19)  0.1551 ( 20) -0.2070 ( 22)  0.1585 ( 23)  0.4591 ( 24)
          -0.1501 ( 25) -0.1265 ( 26) -0.1339 ( 27) -0.1442 ( 28)  0.3900 ( 29)
           0.1494 ( 30)  0.1600 ( 31) -0.1429 ( 35) -0.1281 ( 36) -0.1051 ( 38)
          -0.1048 ( 39)
 CRD  2=  -0.2571 (  1) -0.3594 (  4) -0.3033 (  6) -0.2510 (  9) -0.1455 ( 13)
          -0.2702 ( 19)  0.1116 ( 20) -0.3312 ( 22) -0.3895 ( 29) -0.1232 ( 33)
          -0.1957 ( 37)  0.1651 ( 38)  0.1273 ( 39)  0.1531 ( 40)  0.1210 ( 41)
 CRD  3=  -0.1829 (  1) -0.1764 (  4) -0.1915 (  6) -0.1797 ( 18) -0.3181 ( 19)
          -0.1044 ( 21)  0.2630 ( 22)  0.1116 ( 23) -0.4613 ( 24) -0.1325 ( 26)
          -0.1066 ( 27)  0.1569 ( 28)  0.2767 ( 29)  0.1611 ( 30)  0.1097 ( 31)
          -0.1209 ( 32)  0.2051 ( 35)  0.1513 ( 36) -0.1062 ( 51) -0.1374 ( 52)
          -0.1095 ( 54) -0.1131 ( 58)  0.1187 ( 61)  0.1009 ( 72)
 CRD  4=  -0.1259 ( 20)  0.1921 ( 23)  0.2117 ( 24) -0.2153 ( 25) -0.2655 ( 29)
           0.1127 ( 33) -0.2349 ( 34)  0.1561 ( 37)  0.2070 ( 39) -0.2274 ( 49)
          -0.1939 ( 51) -0.3693 ( 52) -0.1901 ( 53) -0.1736 ( 54)  0.1106 ( 55)
          -0.2875 ( 58)  0.1890 ( 61) -0.1429 ( 64) -0.1785 ( 65) -0.1055 ( 66)
 CRD  5=  -0.1566 (  1)  0.1438 (  9) -0.1278 ( 13)  0.2163 ( 18)  0.1956 ( 19)
          -0.2261 ( 20) -0.3535 ( 22) -0.1777 ( 24) -0.1754 ( 27)  0.2113 ( 28)
           0.2275 ( 29) -0.1583 ( 30)  0.1208 ( 31)  0.1580 ( 33) -0.1244 ( 35)
           0.1352 ( 36) -0.1495 ( 37) -0.1689 ( 38)  0.1869 ( 41) -0.1714 ( 50)
          -0.1057 ( 51) -0.1356 ( 52) -0.1178 ( 56) -0.1693 ( 59) -0.2226 ( 61)
          -0.1612 ( 63) -0.1079 ( 74)
 CRD  6=  -0.1157 (  1) -0.1761 ( 13)  0.1596 ( 19)  0.2251 ( 21) -0.3530 ( 22)
          -0.1408 ( 23)  0.1394 ( 25) -0.1764 ( 26)  0.1088 ( 27)  0.1353 ( 29)
           0.1519 ( 30) -0.1913 ( 31)  0.1324 ( 35) -0.1737 ( 36) -0.2608 ( 37)
           0.1678 ( 40)  0.1687 ( 55)  0.1426 ( 56)  0.1615 ( 57)  0.1740 ( 59)
           0.2301 ( 60)  0.3444 ( 61)  0.1918 ( 62)  0.1443 ( 63)
 CRD  7=   0.2540 (  1)  0.1017 (  3) -0.1968 ( 13)  0.1067 ( 21)  0.1643 ( 22)
           0.1009 ( 26) -0.1479 ( 28)  0.2938 ( 33) -0.3464 ( 34)  0.1006 ( 35)
          -0.3915 ( 37) -0.1620 ( 38)  0.1297 ( 39) -0.2707 ( 41)  0.1218 ( 46)
          -0.1327 ( 52)  0.1298 ( 54)  0.2383 ( 58) -0.1533 ( 64) -0.1374 ( 65)
           0.1788 ( 66)  0.1305 ( 67)  0.1539 ( 86)
 CRD  8=   0.1560 (  1) -0.6007 (  9)  0.1411 ( 19)  0.1131 ( 27)  0.1177 ( 29)
          -0.4361 ( 32) -0.1292 ( 33) -0.1538 ( 38) -0.2167 ( 39)  0.1979 ( 46)
           0.2557 ( 48) -0.1042 ( 49)  0.1044 ( 77)  0.1075 ( 84)
 CRD  9=  -0.2493 (  1)  0.3687 (  4) -0.4138 (  6)  0.1103 ( 13) -0.1053 ( 16)
           0.1290 ( 20)  0.1472 ( 25) -0.1508 ( 30) -0.1654 ( 31) -0.3420 ( 32)
           0.3086 ( 33) -0.1510 ( 36)  0.1560 ( 46) -0.1098 ( 47) -0.1238 ( 65)
           0.1246 ( 70) -0.1165 ( 73)
 CRD 10=   0.1988 (  1) -0.3086 (  6)  0.1316 (  9) -0.1891 ( 13)  0.1284 ( 15)
          -0.1121 ( 18)  0.2695 ( 21)  0.1521 ( 23) -0.1056 ( 25) -0.1335 ( 27)
          -0.1536 ( 30) -0.1705 ( 32) -0.1690 ( 33)  0.4577 ( 34) -0.2522 ( 37)
          -0.1802 ( 41) -0.1195 ( 46) -0.1364 ( 47)  0.1318 ( 48)  0.1388 ( 50)
          -0.1142 ( 51) -0.1368 ( 53) -0.1330 ( 55)  0.1133 ( 63)
 CRD 11=  -0.3266 (  1)  0.2356 (  6) -0.1410 (  9)  0.1011 ( 17) -0.3825 ( 18)
           0.2018 ( 21)  0.1089 ( 25)  0.2365 ( 26) -0.1504 ( 27)  0.1251 ( 31)
           0.1313 ( 32) -0.2264 ( 33) -0.1869 ( 36) -0.1826 ( 38)  0.2316 ( 40)
           0.1245 ( 47)  0.2031 ( 50) -0.1656 ( 55) -0.1525 ( 56) -0.1696 ( 57)
          -0.1361 ( 59)  0.1356 ( 62) -0.1348 ( 86)
 CRD 12=  -0.1402 (  1)  0.4417 (  4)  0.1058 (  7) -0.1555 (  9) -0.1124 ( 11)
          -0.2314 ( 13) -0.1227 ( 17) -0.1476 ( 21)  0.1368 ( 22)  0.1609 ( 23)
          -0.1196 ( 26)  0.1280 ( 27)  0.2068 ( 28)  0.1989 ( 32) -0.2645 ( 33)
          -0.1642 ( 35) -0.3554 ( 37) -0.1262 ( 39)  0.1607 ( 47) -0.1001 ( 49)
           0.1081 ( 56)  0.1071 ( 67)
 CRD 13=   0.1944 (  1)  0.1745 (  2)  0.1817 (  4) -0.1237 (  6)  0.1025 (  7)
          -0.1016 ( 14)  0.2872 ( 18)  0.1713 ( 20) -0.1204 ( 21) -0.1125 ( 24)
           0.1987 ( 25)  0.1553 ( 26) -0.2588 ( 27) -0.1023 ( 28) -0.1186 ( 31)
           0.1606 ( 32) -0.2159 ( 33)  0.1869 ( 35) -0.2083 ( 38)  0.1905 ( 39)
          -0.1845 ( 40)  0.1824 ( 41)  0.1103 ( 47) -0.1413 ( 50) -0.1202 ( 55)
          -0.1224 ( 56) -0.1412 ( 57)  0.1222 ( 61)  0.1073 ( 63) -0.1409 ( 65)
          -0.1210 ( 66)
 CRD 14=   0.1114 ( 18) -0.2887 ( 20) -0.1252 ( 21)  0.2820 ( 23)  0.2420 ( 25)
          -0.1215 ( 26)  0.1255 ( 27) -0.2488 ( 28) -0.2778 ( 30)  0.2833 ( 31)
           0.2598 ( 35) -0.2604 ( 36)  0.1363 ( 38) -0.1374 ( 39)  0.1054 ( 41)
          -0.1781 ( 49) -0.1773 ( 51)  0.1439 ( 53)  0.1362 ( 54) -0.1595 ( 59)
          -0.1587 ( 60)  0.1631 ( 62)  0.1596 ( 63)
 CRD 15=  -0.2751 (  1) -0.1521 (  3) -0.1241 (  4)  0.2357 (  6)  0.1067 (  7)
           0.1306 (  8) -0.1736 ( 11) -0.1468 ( 13)  0.1148 ( 15) -0.1316 ( 17)
          -0.3165 ( 21)  0.2230 ( 22)  0.1467 ( 24)  0.1858 ( 26) -0.1423 ( 29)
           0.1243 ( 30) -0.2344 ( 32)  0.2944 ( 34) -0.1015 ( 36) -0.1875 ( 37)
           0.1283 ( 39) -0.1697 ( 40)  0.1511 ( 45) -0.1597 ( 47) -0.1016 ( 50)
          -0.1030 ( 64)  0.1185 ( 87)
 CRD 16=  -0.1475 (  1) -0.1853 (  2) -0.1253 (  3) -0.3082 (  4) -0.2391 (  5)
          -0.3178 (  6) -0.1583 (  7) -0.1125 (  8) -0.1983 ( 10) -0.1016 ( 11)
           0.2580 ( 19) -0.1047 ( 20) -0.1221 ( 21)  0.1366 ( 22) -0.1042 ( 23)
           0.2188 ( 24) -0.1200 ( 25) -0.1353 ( 26) -0.1279 ( 27)  0.2258 ( 29)
          -0.1282 ( 31)  0.2099 ( 32) -0.2135 ( 33)  0.1221 ( 42)  0.1526 ( 43)
           0.1258 ( 44)  0.1444 ( 47)
 CRD 17=  -0.1122 (  2)  0.1961 (  3)  0.1659 (  7)  0.1961 (  8) -0.1459 ( 10)
           0.2421 ( 12)  0.2579 ( 13) -0.1253 ( 14)  0.1355 ( 15)  0.2982 ( 17)
          -0.1942 ( 33)  0.2326 ( 34)  0.1468 ( 36)  0.1170 ( 37)  0.1830 ( 40)
          -0.1207 ( 46)  0.1282 ( 48) -0.1996 ( 52)  0.1008 ( 55)  0.2295 ( 58)
           0.1083 ( 59) -0.1038 ( 62) -0.1162 ( 63) -0.1352 ( 64) -0.1439 ( 65)
           0.2025 ( 66)  0.2015 ( 67)
 CRD 18=  -0.1855 (  2)  0.1945 (  3)  0.1690 (  5) -0.1572 (  7)  0.3247 (  8)
          -0.3237 ( 10)  0.2439 ( 11) -0.3350 ( 12) -0.1246 ( 13) -0.1563 ( 17)
           0.1068 ( 20)  0.1397 ( 21) -0.1054 ( 23)  0.1366 ( 25) -0.1180 ( 28)
           0.1457 ( 55)  0.1195 ( 56)  0.1196 ( 57) -0.1188 ( 61) -0.1093 ( 62)
          -0.1119 ( 63) -0.1531 ( 64) -0.1536 ( 65) -0.1762 ( 66) -0.1650 ( 67)
 CRD 19=  -0.1763 (  9) -0.5069 ( 14) -0.5070 ( 15) -0.4818 ( 16)  0.1907 ( 32)
           0.1752 ( 33)  0.1753 ( 34) -0.1918 ( 46) -0.1826 ( 47) -0.1916 ( 48)
 CRD 20=   0.3542 (  2) -0.3544 (  3)  0.3783 (  5) -0.3848 (  7)  0.2639 (  8)
          -0.2675 ( 10) -0.1793 ( 11)  0.2558 ( 12)  0.1220 ( 49)  0.1229 ( 51)
          -0.1090 ( 54)  0.1070 ( 62)  0.1095 ( 63)
 CRD 21=   0.5776 ( 11)  0.4801 ( 12)  0.1389 ( 13) -0.1999 ( 18) -0.1811 ( 21)
          -0.2536 ( 37)  0.2787 ( 45) -0.1048 ( 68) -0.2248 ( 86)  0.1489 ( 87)
 CRD 22=  -0.1248 (  2)  0.1415 (  3)  0.3613 ( 11) -0.1436 ( 20)  0.1459 ( 23)
           0.1106 ( 26) -0.1099 ( 27) -0.1431 ( 30)  0.1385 ( 31) -0.1329 ( 35)
           0.1303 ( 36) -0.1485 ( 38)  0.1473 ( 39)  0.1061 ( 41)  0.1169 ( 49)
           0.1176 ( 51)  0.1201 ( 54)  0.1147 ( 59)  0.1133 ( 60)  0.1911 ( 69)
           0.1935 ( 70)  0.1418 ( 71)  0.1042 ( 72)  0.1926 ( 73)  0.1949 ( 74)
           0.1466 ( 75)  0.2027 ( 76)  0.2034 ( 77)  0.2045 ( 78)  0.2052 ( 79)
           0.1108 ( 80)  0.1109 ( 81)  0.1117 ( 82)  0.1113 ( 83)  0.1114 ( 84)
           0.1122 ( 85)
 CRD 23=  -0.1852 (  8) -0.1852 ( 10) -0.2885 ( 14) -0.2903 ( 15)  0.6334 ( 16)
           0.1573 ( 46) -0.3271 ( 47)  0.1584 ( 48)  0.1690 ( 56) -0.1693 ( 57)
           0.1507 ( 80) -0.1876 ( 81)  0.1873 ( 83) -0.1510 ( 84)
 CRD 24=   0.5490 ( 14) -0.5473 ( 15) -0.2970 ( 46)  0.2963 ( 48)  0.2283 ( 55)
           0.2200 ( 82)  0.2201 ( 85)
 CRD 25=  -0.2299 (  2) -0.2336 (  3)  0.4665 (  5)  0.4659 (  7) -0.3476 (  8)
          -0.3455 ( 10) -0.1110 ( 16)  0.1610 ( 43) -0.1162 ( 44) -0.1113 ( 69)
           0.1107 ( 74)  0.1307 ( 76) -0.1314 ( 79)
 CRD 26=  -0.3870 (  2) -0.3898 (  3)  0.1661 (  5)  0.1628 (  7)  0.4281 (  8)
           0.4279 ( 10) -0.1007 ( 14) -0.1007 ( 15)  0.1111 ( 16) -0.1478 ( 42)
           0.1772 ( 44) -0.1049 ( 69)  0.1049 ( 74)  0.1176 ( 80) -0.1173 ( 84)
 CRD 27=   0.4141 (  2)  0.4126 (  3) -0.1147 (  4)  0.3622 (  5)  0.3622 (  7)
           0.2053 (  8)  0.2068 ( 10)  0.1855 ( 42)  0.1761 ( 43)  0.1005 ( 44)
           0.1314 ( 70) -0.1322 ( 73)  0.1016 ( 77) -0.1042 ( 78)
 CRD 28=  -0.1240 (  2)  0.1149 (  3) -0.1589 (  5)  0.1564 (  7) -0.1829 ( 11)
           0.3357 ( 12) -0.1834 ( 13)  0.1427 ( 37) -0.1855 ( 41) -0.1986 ( 53)
          -0.1015 ( 54)  0.1101 ( 56)  0.1097 ( 57) -0.1053 ( 66) -0.2637 ( 68)
          -0.1666 ( 71) -0.2834 ( 72) -0.1863 ( 75)  0.1482 ( 76)  0.1469 ( 77)
           0.1463 ( 78)  0.1449 ( 79)  0.1606 ( 80)  0.1601 ( 81)  0.1384 ( 82)
           0.1599 ( 83)  0.1594 ( 84)  0.1377 ( 85)
 CRD 29=   0.1231 (  1)  0.1041 (  7) -0.1165 ( 11) -0.3155 ( 12)  0.4946 ( 13)
          -0.1095 ( 18) -0.1019 ( 21) -0.4570 ( 37)  0.1753 ( 40)  0.1610 ( 41)
          -0.1066 ( 45) -0.1887 ( 54) -0.1087 ( 69) -0.2418 ( 71)  0.1040 ( 72)
          -0.1733 ( 75) -0.1070 ( 86)
 CRD 30=   0.3577 (  2) -0.3559 (  3) -0.3192 (  5)  0.3194 (  7)  0.1348 (  8)
          -0.1347 ( 10)  0.2038 ( 11) -0.1372 ( 12)  0.1067 ( 37)  0.1006 ( 54)
          -0.1348 ( 59) -0.1178 ( 60) -0.1195 ( 62) -0.1269 ( 63)  0.1078 ( 67)
           0.1213 ( 68) -0.1849 ( 69) -0.1923 ( 70)  0.1792 ( 71)  0.1039 ( 72)
          -0.2019 ( 73) -0.2093 ( 74)  0.1617 ( 75)
 CRD 31=   0.1617 (  5) -0.1614 (  7) -0.3474 (  8)  0.3483 ( 10) -0.1172 ( 49)
          -0.1184 ( 51)  0.1734 ( 55)  0.1584 ( 56)  0.1581 ( 57) -0.1365 ( 76)
          -0.1376 ( 77) -0.1380 ( 78) -0.1392 ( 79)  0.2448 ( 80)  0.2445 ( 81)
           0.2597 ( 82)  0.2438 ( 83)  0.2436 ( 84)  0.2588 ( 85)
 CRD 32=   0.1910 ( 12)  0.2960 ( 13) -0.7242 ( 17)  0.1024 ( 21) -0.1079 ( 35)
          -0.1314 ( 45)  0.2085 ( 50)  0.1060 ( 67)  0.1032 ( 68) -0.1163 ( 74)
           0.2868 ( 86)  0.1330 ( 87)
 CRD 33=   0.1172 ( 11)  0.1089 ( 13) -0.1056 ( 14) -0.1041 ( 15) -0.2014 ( 16)
           0.4160 ( 17)  0.1022 ( 18) -0.1603 ( 20) -0.1410 ( 23)  0.1288 ( 25)
          -0.1337 ( 26) -0.1359 ( 27)  0.1483 ( 30)  0.1387 ( 31) -0.1517 ( 32)
          -0.1167 ( 33) -0.1137 ( 34) -0.1038 ( 35) -0.1582 ( 36) -0.1712 ( 37)
           0.1612 ( 38)  0.1735 ( 39) -0.1364 ( 40)  0.1592 ( 46)  0.1599 ( 48)
           0.1070 ( 49) -0.1013 ( 51)  0.1062 ( 62) -0.1375 ( 66)  0.1598 ( 69)
          -0.1510 ( 72) -0.1573 ( 74)  0.2093 ( 76) -0.1729 ( 79) -0.1087 ( 84)
           0.1185 ( 86)
 CRD 34=   0.1366 (  1)  0.1024 (  4) -0.1671 ( 11) -0.1332 ( 13) -0.1105 ( 14)
          -0.1066 ( 15) -0.1703 ( 16) -0.2577 ( 17) -0.1883 ( 18) -0.1387 ( 32)
          -0.1157 ( 33) -0.1203 ( 34)  0.1540 ( 37)  0.1181 ( 38)  0.1218 ( 40)
           0.1097 ( 45)  0.1450 ( 46)  0.1494 ( 48) -0.3232 ( 50)  0.1052 ( 58)
          -0.1349 ( 79) -0.4763 ( 86) -0.2869 ( 87)
 CRD 35=  -0.1680 (  6) -0.2756 (  9)  0.1685 ( 13)  0.1676 ( 14)  0.1746 ( 15)
           0.1677 ( 16)  0.1159 ( 22)  0.1421 ( 25)  0.1263 ( 28)  0.1097 ( 30)
           0.1344 ( 31)  0.1739 ( 32)  0.1731 ( 33)  0.1702 ( 34) -0.1694 ( 35)
          -0.1236 ( 36) -0.1658 ( 41) -0.1825 ( 46) -0.1821 ( 47) -0.1762 ( 48)
          -0.2536 ( 50)  0.1009 ( 60)  0.1055 ( 67)  0.1837 ( 69)  0.1183 ( 71)
          -0.1181 ( 72) -0.1243 ( 74) -0.1163 ( 78) -0.2108 ( 86) -0.3298 ( 87)
 CRD 36=   0.2122 (  1)  0.2092 (  4) -0.3432 (  9) -0.1457 ( 11) -0.2175 ( 13)
           0.1681 ( 14)  0.1526 ( 15) -0.1528 ( 18) -0.1262 ( 20) -0.1706 ( 21)
          -0.1283 ( 22) -0.1322 ( 23) -0.1122 ( 27)  0.1223 ( 30)  0.1061 ( 32)
           0.1118 ( 33)  0.1168 ( 34)  0.1303 ( 40)  0.2188 ( 41)  0.1224 ( 45)
          -0.2034 ( 47)  0.1746 ( 50) -0.1552 ( 70)  0.1066 ( 76)  0.1430 ( 80)
          -0.1410 ( 84)  0.3253 ( 87)
 CRD 37=   0.1830 (  1) -0.1574 (  2)  0.2441 (  3)  0.1395 (  5) -0.1502 (  6)
          -0.1753 (  7)  0.1230 (  9)  0.1379 ( 10) -0.2673 ( 11) -0.1252 ( 14)
           0.1034 ( 16)  0.1467 ( 28) -0.1138 ( 36)  0.1184 ( 41)  0.1368 ( 45)
           0.1277 ( 47)  0.1945 ( 68) -0.1734 ( 69) -0.1543 ( 70)  0.2853 ( 71)
          -0.1891 ( 73) -0.1700 ( 74)  0.1335 ( 75)  0.1479 ( 76)  0.1580 ( 77)
          -0.2054 ( 80) -0.1156 ( 82) -0.1289 ( 86)
 CRD 38=   0.1424 (  5) -0.1184 (  7) -0.3027 (  8)  0.2520 ( 10)  0.1565 ( 11)
          -0.1982 ( 14)  0.2804 ( 15)  0.1074 ( 23) -0.1456 ( 26) -0.1066 ( 28)
          -0.1713 ( 46)  0.1939 ( 48)  0.2029 ( 55)  0.1309 ( 58) -0.1098 ( 71)
           0.1628 ( 76)  0.1613 ( 77)  0.2002 ( 78)  0.1988 ( 79) -0.1417 ( 80)
          -0.2036 ( 81) -0.2169 ( 83) -0.2787 ( 84)
 CRD 39=  -0.2225 (  1) -0.2364 (  2)  0.1138 (  3)  0.1109 (  5)  0.1743 (  6)
          -0.1050 ( 10)  0.2962 ( 12)  0.1597 ( 14) -0.1362 ( 16)  0.1364 ( 21)
          -0.1460 ( 25) -0.1386 ( 27) -0.1463 ( 37) -0.1703 ( 40)  0.1044 ( 42)
           0.1103 ( 44) -0.1747 ( 45) -0.1318 ( 47) -0.1132 ( 58)  0.1025 ( 64)
           0.1047 ( 68) -0.1035 ( 70)  0.2742 ( 72) -0.1273 ( 73) -0.1398 ( 74)
           0.1957 ( 75)  0.1977 ( 80) -0.1274 ( 84) -0.1298 ( 85) -0.2958 ( 87)
 CRD 40=   0.1443 (  2)  0.1319 (  3) -0.2615 (  4)  0.2748 (  6) -0.1352 ( 11)
          -0.1388 ( 12)  0.2527 ( 13)  0.1097 ( 15) -0.2066 ( 16) -0.1064 ( 30)
          -0.2204 ( 42)  0.1126 ( 44)  0.2141 ( 45) -0.1578 ( 47) -0.1426 ( 53)
           0.1406 ( 54)  0.1157 ( 56) -0.1158 ( 57) -0.1171 ( 66)  0.1137 ( 67)
          -0.1590 ( 69)  0.2522 ( 71) -0.2617 ( 72)  0.1705 ( 74)  0.1772 ( 80)
          -0.1822 ( 84)  0.1009 ( 87)
 CRD 41=  -0.3075 (  1)  0.1956 (  4) -0.1486 (  5)  0.1111 (  6) -0.1659 (  7)
           0.1220 (  8) -0.2916 (  9)  0.1224 ( 10)  0.1526 ( 16)  0.1117 ( 35)
           0.1034 ( 36)  0.1149 ( 38)  0.1180 ( 39) -0.1279 ( 42)  0.2552 ( 43)
          -0.2000 ( 44)  0.1320 ( 49) -0.1337 ( 51)  0.1012 ( 59) -0.1069 ( 60)
          -0.1141 ( 62)  0.1099 ( 63) -0.1191 ( 64)  0.1258 ( 65) -0.2252 ( 69)
           0.2069 ( 74)  0.2593 ( 76) -0.2512 ( 79) -0.1143 ( 80)  0.1161 ( 84)
          -0.1133 ( 87)
 CRD 42=   0.2015 (  5) -0.2033 (  7)  0.2032 ( 11) -0.2164 ( 12)  0.2353 ( 14)
          -0.2306 ( 15)  0.1030 ( 18) -0.1145 ( 21) -0.1132 ( 33)  0.1118 ( 34)
           0.1210 ( 37)  0.1370 ( 40) -0.1272 ( 41)  0.1780 ( 46) -0.1754 ( 48)
          -0.1769 ( 50) -0.1601 ( 52) -0.2368 ( 55)  0.1816 ( 58)  0.1622 ( 61)
           0.1738 ( 66)  0.1796 ( 67) -0.2245 ( 82) -0.2234 ( 85)
 CRD 43=  -0.1304 (  5) -0.1265 (  7)  0.1052 ( 11)  0.1034 ( 12) -0.2288 ( 13)
           0.1021 ( 15) -0.2206 ( 16) -0.1302 ( 19)  0.1192 ( 22)  0.1028 ( 25)
           0.1039 ( 28)  0.1224 ( 32) -0.1080 ( 35) -0.1085 ( 36)  0.2070 ( 43)
          -0.1647 ( 45) -0.1506 ( 47)  0.1516 ( 53) -0.1500 ( 54)  0.1437 ( 56)
          -0.1477 ( 57) -0.1203 ( 62)  0.1215 ( 63) -0.1101 ( 64)  0.1122 ( 65)
           0.2244 ( 68)  0.1710 ( 70) -0.1712 ( 73) -0.2208 ( 75)  0.1383 ( 77)
          -0.1407 ( 78) -0.2308 ( 81)  0.2283 ( 83)
 CRD 44=  -0.2563 (  1)  0.2960 (  4) -0.2908 (  6)  0.2570 (  9)  0.1050 ( 13)
          -0.1215 ( 16) -0.1702 ( 20) -0.1645 ( 23) -0.1224 ( 25)  0.1283 ( 26)
           0.1277 ( 27) -0.1213 ( 28)  0.1682 ( 30)  0.1627 ( 31)  0.1341 ( 35)
           0.1297 ( 36) -0.1420 ( 38) -0.1370 ( 39) -0.1308 ( 49)  0.1254 ( 51)
           0.1262 ( 59) -0.1218 ( 60) -0.1030 ( 64)  0.1027 ( 65) -0.2175 ( 70)
           0.2111 ( 73)  0.2336 ( 77) -0.2283 ( 78)
 CRD 45=  -0.1054 (  1)  0.1278 (  2)  0.1332 (  3) -0.1268 (  4)  0.1406 (  6)
          -0.1353 (  8) -0.1322 ( 10) -0.1530 ( 13)  0.1460 ( 16)  0.1471 ( 22)
           0.1566 ( 24) -0.1626 ( 29) -0.1469 ( 32) -0.1999 ( 42)  0.2101 ( 44)
          -0.1437 ( 45)  0.1259 ( 47) -0.1029 ( 49)  0.1030 ( 51)  0.1266 ( 53)
          -0.1272 ( 54) -0.1174 ( 56)  0.1211 ( 57) -0.1347 ( 66)  0.1395 ( 67)
           0.2663 ( 68) -0.1092 ( 70)  0.1066 ( 73) -0.2616 ( 75)  0.1260 ( 77)
          -0.1243 ( 78)  0.2603 ( 81)  0.1379 ( 82) -0.2599 ( 83) -0.1439 ( 85)
 CRD 46=  -0.1736 (  2)  0.1440 (  3)  0.1529 (  8) -0.1829 ( 10)  0.1343 ( 11)
          -0.1518 ( 12) -0.1557 ( 14)  0.1424 ( 15)  0.1302 ( 18) -0.1201 ( 21)
           0.1347 ( 33) -0.1248 ( 34)  0.1266 ( 35) -0.1263 ( 36)  0.1325 ( 38)
          -0.1334 ( 39) -0.1140 ( 46)  0.1078 ( 48) -0.1808 ( 50)  0.1881 ( 52)
          -0.1867 ( 53) -0.1621 ( 54) -0.2008 ( 56) -0.1818 ( 57)  0.1945 ( 61)
           0.1358 ( 62)  0.1637 ( 63)  0.1553 ( 64)  0.1846 ( 65)  0.2148 ( 66)
           0.1883 ( 67)  0.2473 ( 82)  0.2199 ( 85)
 CRD 47=  -0.1189 (  1)  0.1360 (  3) -0.2037 (  4)  0.1363 (  5) -0.2037 (  6)
           0.1316 (  7)  0.1318 (  8) -0.1098 (  9)  0.2082 ( 19)  0.1792 ( 24)
           0.1739 ( 29) -0.1741 ( 42) -0.2061 ( 43) -0.1707 ( 44)  0.1057 ( 49)
          -0.1185 ( 51)  0.1129 ( 59) -0.1180 ( 60)  0.1465 ( 62) -0.1095 ( 63)
           0.1489 ( 64) -0.1048 ( 65)  0.1276 ( 67)  0.1739 ( 68) -0.2522 ( 70)
           0.2347 ( 73) -0.1681 ( 75) -0.2460 ( 77)  0.2319 ( 78) -0.1614 ( 81)
           0.1647 ( 83)  0.1286 ( 85)
 CRD 48=  -0.1376 (  2)  0.1356 (  3) -0.1673 (  5)  0.1685 (  7) -0.1256 (  8)
           0.1275 ( 10)  0.1330 ( 20) -0.1345 ( 23) -0.1281 ( 25) -0.1241 ( 26)
           0.1229 ( 27)  0.1296 ( 28) -0.1293 ( 30)  0.1304 ( 31)  0.2434 ( 49)
          -0.1093 ( 50)  0.2408 ( 51) -0.1984 ( 53) -0.1951 ( 54)  0.1849 ( 56)
           0.1838 ( 57) -0.2471 ( 59) -0.2442 ( 60)  0.2162 ( 62)  0.2140 ( 63)
          -0.2040 ( 64) -0.2043 ( 65)  0.1302 ( 66)  0.1293 ( 67) -0.1248 ( 82)
          -0.1234 ( 85)

 THE DETERMINANT OF THE G MATRIX IS 10**(   -16)


                     --------------------
                     INTERNAL COORDINATES
                     --------------------

                 - - ATOMS - -         COORDINATE      COORDINATE
 NO.   TYPE    I  J  K  L  M  N        (BOHR,RAD)       (ANG,DEG)
 ----------------------------------------------------------------
   1 STRETCH   1  4                     2.8784186       1.5231936
   2 STRETCH   1  7                     2.0728630       1.0969119
   3 STRETCH   1  8                     2.0746103       1.0978366
   4 STRETCH   1  2                     2.8859566       1.5271826
   5 STRETCH   2  9                     2.0732024       1.0970916
   6 STRETCH   2  3                     2.8883068       1.5284263
   7 STRETCH   2 10                     2.0726051       1.0967755
   8 STRETCH   3 11                     2.0709173       1.0958823
   9 STRETCH   3  5                     2.8736352       1.5206624
  10 STRETCH   3 12                     2.0712176       1.0960412
  11 STRETCH   4 14                     2.0670990       1.0938618
  12 STRETCH   4 13                     2.0690828       1.0949115
  13 STRETCH   4  6                     2.6835718       1.4200851
  14 STRETCH   5 16                     2.0684108       1.0945559
  15 STRETCH   5 15                     2.0683771       1.0945381
  16 STRETCH   5 17                     2.0675178       1.0940834
  17 STRETCH   6 18                     1.8371910       0.9721997
  18 BEND      1  4 13                  1.9330223     110.7540215
  19 BEND      1  2  3                  1.9471298     111.5623192
  20 BEND      1  2  9                  1.9126010     109.5839631
  21 BEND      1  4 14                  1.9433745     111.3471591
  22 BEND      1  4  6                  1.9181062     109.8993926
  23 BEND      1  2 10                  1.9097863     109.4226972
  24 BEND      2  1  4                  1.9451215     111.4472541
  25 BEND      2  1  8                  1.9265235     110.3816658
  26 BEND      2  3 12                  1.9169315     109.8320850
  27 BEND      2  3 11                  1.9184110     109.9168553
  28 BEND      2  1  7                  1.9226976     110.1624604
  29 BEND      2  3  5                  1.9435156     111.3552420
  30 BEND      3  2 10                  1.9123454     109.5693184
  31 BEND      3  2  9                  1.9110679     109.4961264
  32 BEND      3  5 17                  1.9246341     110.2734089
  33 BEND      3  5 16                  1.9366651     110.9627342
  34 BEND      3  5 15                  1.9372917     110.9986358
  35 BEND      4  1  7                  1.9119012     109.5438675
  36 BEND      4  1  8                  1.9075243     109.2930920
  37 BEND      4  6 18                  1.8785634     107.6337568
  38 BEND      5  3 12                  1.9057018     109.1886701
  39 BEND      5  3 11                  1.9057756     109.1928968
  40 BEND      6  4 13                  1.8835883     107.9216571
  41 BEND      6  4 14                  1.8950202     108.5766587
  42 BEND      7  1  8                  1.8475074     105.8543785
  43 BEND      9  2 10                  1.8692644     107.1009589
  44 BEND     11  3 12                  1.8720447     107.2602617
  45 BEND     13  4 14                  1.8892067     108.2435677
  46 BEND     15  5 17                  1.8868167     108.1066336
  47 BEND     15  5 16                  1.8900966     108.2945587
  48 BEND     16  5 17                  1.8867088     108.1004507
  49 TORSION   1  2  3 11              -1.0145020     -58.1266848
  50 TORSION   1  4  6 18               1.0212776      58.5148961
  51 TORSION   1  2  3 12               1.0412410      59.6587156
  52 TORSION   1  2  3  5              -3.1287688    -179.2652472
  53 TORSION   2  1  4 14              -1.0347307     -59.2857007
  54 TORSION   2  1  4 13               1.0684000      61.2148111
  55 TORSION   2  3  5 17              -3.1376395    -179.7734990
  56 TORSION   2  3  5 15              -1.0470943     -59.9940823
  57 TORSION   2  3  5 16               1.0555396      60.4779638
  58 TORSION   2  1  4  6              -3.1351800    -179.6325818
  59 TORSION   3  2  1  8              -0.9950992     -57.0149865
  60 TORSION   3  2  1  7               1.0389784      59.5290785
  61 TORSION   3  2  1  4              -3.1181942    -178.6593658
  62 TORSION   4  1  2  9              -0.9988148     -57.2278745
  63 TORSION   4  1  2 10               1.0459149      59.9265099
  64 TORSION   5  3  2 10              -1.0111785     -57.9362599
  65 TORSION   5  3  2  9               1.0341478      59.2523047
  66 TORSION   6  4  1  8               1.0139238      58.0935550
  67 TORSION   6  4  1  7              -1.0029263     -57.4634458
  68 TORSION   7  1  4 14               1.0975230      62.8834353
  69 TORSION   7  1  2  9              -3.1248275    -179.0394301
  70 TORSION   7  1  2 10              -1.0800978     -61.8850457
  71 TORSION   7  1  4 13              -3.0825316    -176.6160530
  72 TORSION   8  1  4 14               3.1143731     178.4404361
  73 TORSION   8  1  2  9               1.1242801      64.4165049
  74 TORSION   8  1  2 10              -3.1141755    -178.4291107
  75 TORSION   8  1  4 13              -1.0656815     -61.0590521
  76 TORSION   9  2  3 11              -3.1347707    -179.6091329
  77 TORSION   9  2  3 12              -1.0790277     -61.8237325
  78 TORSION  10  2  3 11               1.1030883      63.2023025
  79 TORSION  10  2  3 12              -3.1243540    -179.0122971
  80 TORSION  11  3  5 15               3.1144570     178.4452418
  81 TORSION  11  3  5 16              -1.0660944     -61.0827121
  82 TORSION  11  3  5 17               1.0239118      58.6658251
  83 TORSION  12  3  5 15               1.0726348      61.4574472
  84 TORSION  12  3  5 16              -3.1079166    -178.0705067
  85 TORSION  12  3  5 17              -1.0179104     -58.3219695
  86 TORSION  13  4  6 18               3.1309189     179.3884418
  87 TORSION  14  4  6 18              -1.1082001     -63.4951908

     ------------------------------------------
     THE POINT GROUP IS C1 , NAXIS= 1, ORDER= 1
     ------------------------------------------

     DIMENSIONS OF THE SYMMETRY SUBSPACES ARE
 A   =  186

 ..... DONE SETTING UP THE RUN .....
 STEP CPU TIME =     0.01 TOTAL CPU TIME =        0.0 (    0.0 MIN)
 TOTAL WALL CLOCK TIME=        0.0 SECONDS, CPU UTILIZATION IS  50.00%


          -----------------------------
          STATIONARY POINT LOCATION RUN
          -----------------------------

 OBTAINING INITIAL HESSIAN, HESS=GUESS   
 DIAGONAL GUESS HESSIAN IN INTERNAL COORDS IS
     1  0.3721     2  0.3417     3  0.3411     4  0.3692     5  0.3416
     6  0.3683     7  0.3418     8  0.3424     9  0.3739    10  0.3423
    11  0.3438    12  0.3431    13  0.3671    14  0.3433    15  0.3433
    16  0.3436    17  0.3517    18  0.2242    19  0.2488    20  0.2238
    21  0.2243    22  0.2441    23  0.2238    24  0.2492    25  0.2238
    26  0.2238    27  0.2238    28  0.2238    29  0.2493    30  0.2238
    31  0.2237    32  0.2244    33  0.2244    34  0.2244    35  0.2241
    36  0.2240    37  0.2145    38  0.2243    39  0.2243    40  0.2196
    41  0.2197    42  0.2027    43  0.2027    44  0.2028    45  0.2030
    46  0.2030    47  0.2029    48  0.2030    49  0.2500    50  0.2500
    51  0.2500    52  0.2500    53  0.2500    54  0.2500    55  0.2500
    56  0.2500    57  0.2500    58  0.2500    59  0.2500    60  0.2500
    61  0.2500    62  0.2500    63  0.2500    64  0.2500    65  0.2500
    66  0.2500    67  0.2500    68  0.2500    69  0.2500    70  0.2500
    71  0.2500    72  0.2500    73  0.2500    74  0.2500    75  0.2500
    76  0.2500    77  0.2500    78  0.2500    79  0.2500    80  0.2500
    81  0.2500    82  0.2500    83  0.2500    84  0.2500    85  0.2500
    86  0.2500    87  0.2500
 TRANSFORMING HESSIAN TO SYMMETRY COORDINATES

          PARAMETERS CONTROLLING GEOMETRY SEARCH ARE
          METHOD =QA                  UPHESS =BFGS    
          NNEG   =         0          NFRZ   =         3
          NSTEP  =        50          IFOLOW =         1
          HESS   =GUESS               RESTAR =         F
          IHREP  =         0          HSSEND =         F
          NPRT   =         0          NPUN   =         0
          OPTTOL = 5.000E-04          RMIN   = 1.500E-03
          RMAX   = 1.000E-01          RLIM   = 7.000E-02
          DXMAX  = 3.000E-01          PURIFY =         F
          MOVIE  =         F          TRUPD  =         T
          TRMAX  = 5.000E-01          TRMIN  = 5.000E-02
          ITBMAT =         5          STPT   =         F
          STSTEP = 1.000E-02          PROJCT=          F
          FROZEN COORD(S)=   1   2   3


      ***** EQUILIBRIUM GEOMETRY LOCATED *****
            (SUBJECT TO   3 CONSTRAINT(S))
 COORDINATES OF ALL ATOMS ARE (ANGS)
   ATOM   CHARGE       X              Y              Z
 ------------------------------------------------------------
 C           6.0   2.0073088100   2.2395253661   1.9077213245
 C           6.0   3.2326148307   1.6278485390   1.2438000375
 C           6.0   4.4468452570   1.6403595170   2.1633253470
 C           6.0   0.8017496327   2.2455487250   0.9894480820
 C           6.0   5.6874889782   1.0648971586   1.4920217537
 O           8.0  -0.3260945246   2.8319859961   1.6000234875
 H           1.0   2.2319158573   3.2635273004   2.2045400307
 H           1.0   1.7637347550   1.6912655299   2.8156183090
 H           1.0   3.0131024125   0.6040943771   0.9422296794
 H           1.0   3.4634792334   2.1756872201   0.3308620352
 H           1.0   4.6394487138   2.6633035374   2.4818270036
 H           1.0   4.2166117228   1.0752411244   3.0647252215
 H           1.0   0.5207850106   1.2307413392   0.7317652878
 H           1.0   1.0452687198   2.7675972368   0.0663868506
 H           1.0   5.5151758789   0.0349628319   1.1897332317
 H           1.0   5.9398195424   1.6372819318   0.6029025535
 H           1.0   6.5426975653   1.0827641831   2.1601505414
 H           1.0  -0.0986302257   3.7080373683   1.8648274978


                     --------------------
                     INTERNAL COORDINATES
                     --------------------

                 - - ATOMS - -         COORDINATE      COORDINATE
 NO.   TYPE    I  J  K  L  M  N        (BOHR,RAD)       (ANG,DEG)
 ----------------------------------------------------------------
   1 STRETCH   1  4                     2.8638141       1.5154653
   2 STRETCH   1  7                     2.0589600       1.0895548
   3 STRETCH   1  8                     2.0564127       1.0882068
   4 STRETCH   1  2                     2.8760579       1.5219444
   5 STRETCH   2  9                     2.0590236       1.0895884
   6 STRETCH   2  3                     2.8783690       1.5231674
   7 STRETCH   2 10                     2.0587447       1.0894409
   8 STRETCH   3 11                     2.0570723       1.0885559
   9 STRETCH   3  5                     2.8789666       1.5234836
  10 STRETCH   3 12                     2.0570151       1.0885256
  11 STRETCH   4 14                     2.0561384       1.0880617
  12 STRETCH   4 13                     2.0485672       1.0840552
  13 STRETCH   4  6                     2.6649448       1.4102282
  14 STRETCH   5 16                     2.0543573       1.0871191
  15 STRETCH   5 15                     2.0543632       1.0871223
  16 STRETCH   5 17                     2.0511120       1.0854018
  17 STRETCH   6 18                     1.7820899       0.9430415
  18 BEND      1  4 13                  1.9246229     110.2727688
  19 BEND      1  2  3                  1.9553526     112.0334503
  20 BEND      1  2  9                  1.9136355     109.6432389
  21 BEND      1  4 14                  1.9154942     109.7497311
  22 BEND      1  4  6                  1.9557525     112.0563661
  23 BEND      1  2 10                  1.9114066     109.5155317
  24 BEND      2  1  4                  1.9581329     112.1927493
  25 BEND      2  1  8                  1.9194873     109.9785235
  26 BEND      2  3 12                  1.9039652     109.0891676
  27 BEND      2  3 11                  1.9022329     108.9899191
  28 BEND      2  1  7                  1.9077326     109.3050284
  29 BEND      2  3  5                  1.9606622     112.3376685
  30 BEND      3  2 10                  1.9100960     109.4404397
  31 BEND      3  2  9                  1.9128325     109.5972295
  32 BEND      3  5 17                  1.9435518     111.3573147
  33 BEND      3  5 16                  1.9289234     110.5191708
  34 BEND      3  5 15                  1.9297614     110.5671829
  35 BEND      4  1  7                  1.9021510     108.9852261
  36 BEND      4  1  8                  1.9065481     109.2371580
  37 BEND      4  6 18                  1.8912277     108.3593647
  38 BEND      5  3 12                  1.9188080     109.9396024
  39 BEND      5  3 11                  1.9175015     109.8647451
  40 BEND      6  4 13                  1.8597163     106.5538943
  41 BEND      6  4 14                  1.9249300     110.2903661
  42 BEND      7  1  8                  1.8674962     106.9996492
  43 BEND      9  2 10                  1.8579644     106.4535161
  44 BEND     11  3 12                  1.8577153     106.4392491
  45 BEND     13  4 14                  1.8812589     107.7881925
  46 BEND     15  5 17                  1.8877229     108.1585543
  47 BEND     15  5 16                  1.8840857     107.9501562
  48 BEND     16  5 17                  1.8879833     108.1734746
  49 TORSION   1  2  3 11              -0.9845212     -56.4089097
  50 TORSION   1  4  6 18               0.9981901      57.1920819
  51 TORSION   1  2  3 12               1.0371969      59.4270026
  52 TORSION   1  2  3  5              -3.1138183    -178.4086478
  53 TORSION   2  1  4 14              -0.9804800     -56.1773684
  54 TORSION   2  1  4 13               1.0894251      62.4194625
  55 TORSION   2  3  5 17               3.1401740     179.9187191
  56 TORSION   2  3  5 15              -1.0438364     -59.8074191
  57 TORSION   2  3  5 16               1.0412333      59.6582736
  58 TORSION   2  1  4  6              -3.1252994    -179.0664656
  59 TORSION   3  2  1  8              -1.0289693     -58.9556004
  60 TORSION   3  2  1  7               1.0164110      58.2360625
  61 TORSION   3  2  1  4               3.1284326     179.2459846
  62 TORSION   4  1  2  9              -1.0269539     -58.8401215
  63 TORSION   4  1  2 10               1.0056594      57.6200407
  64 TORSION   5  3  2 10              -0.9902931     -56.7396129
  65 TORSION   5  3  2  9               1.0411087      59.6511359
  66 TORSION   6  4  1  8               1.0247286      58.7126213
  67 TORSION   6  4  1  7              -1.0100659     -57.8725112
  68 TORSION   7  1  4 14               1.1347535      65.0165859
  69 TORSION   7  1  2  9              -3.1389754    -179.8500436
  70 TORSION   7  1  2 10              -1.1063621     -63.3898814
  71 TORSION   7  1  4 13              -3.0785266    -176.3865832
  72 TORSION   8  1  4 14              -3.1136374    -178.3982815
  73 TORSION   8  1  2  9               1.0988295      62.9582935
  74 TORSION   8  1  2 10               3.1314428     179.4184557
  75 TORSION   8  1  4 13              -1.0437322     -59.8014506
  76 TORSION   9  2  3 11              -3.1127795    -178.3491261
  77 TORSION   9  2  3 12              -1.0910614     -62.5132137
  78 TORSION  10  2  3 11               1.1390041      65.2601251
  79 TORSION  10  2  3 12              -3.1224632    -178.9039625
  80 TORSION  11  3  5 15               3.1187540     178.6914424
  81 TORSION  11  3  5 16              -1.0793616     -61.8428649
  82 TORSION  11  3  5 17               1.0195791      58.4175806
  83 TORSION  12  3  5 15               1.0798899      61.8731357
  84 TORSION  12  3  5 16              -3.1182257    -178.6611715
  85 TORSION  12  3  5 17              -1.0192850     -58.4007260
  86 TORSION  13  4  6 18               3.1046913     177.8857059
  87 TORSION  14  4  6 18              -1.1412812     -65.3905936

          INTERNUCLEAR DISTANCES (ANGS.)


 =====================================================
   GAMESS/COSab RESULTS
 =====================================================

   Dielectric Constant                  = INFTY
   Basic Grid Size                      =                 1082
   Number of Segments                   =                   92
   Number of Segments located on spheres=                  238
   Number of Segments of the cavity     =                  647
   Solvent Radius (rsolv)               = 1.40
   Outlying Charge Error Method         = double cavity

 =====================================================

  Total solvated Energy (a.u.)          =  -271.2671013257
  Total Energy corrected (a.u.)         =  -271.2669276697

  Outlying charge effect (a.u.)         =     0.0001736560
  Outlying charge effect (kcal/mol)     =     0.1089708956

  Dielectric Energy (a.u.)              =    -0.0107564061
  Dielectric energy corr. (a.u.)        =    -0.0105827500

  Sum of polarization charges           =     0.0245719832
  Sum of polarization charges(cor.)     =    -0.0245719832

  Total surface area of cavity (A**2)   =  145.59
  Total volume of cavity (A**3)         =  133.89

 =====================================================
 NPS=                   647
NR.  ATOM  (X, Y, Z)(a.u.)                  CHARGE(e)  AREA(A**2) SIGMA(e/A**2)
   1   1   4.623636   5.034018   7.203902   0.001311   0.325193   0.004033
   2   1   2.804975   0.636150   4.218895   0.000073   0.092912   0.000786
   3   1   4.516605   5.833068   6.951386   0.001019   0.232280   0.004388
   4   1   2.557099   6.427828   6.421947   0.000330   0.139368   0.002366
   5   1   5.090451   7.298117   1.815924   0.000087   0.139368   0.000627
   6   1   2.244345   5.412770   6.844053   0.000996   0.278737   0.003572
   7   1   3.549199   5.474352   7.166164   0.001495   0.278737   0.005365
   8   1   3.091662   0.626020   4.492930   0.000056   0.046456   0.001212
   9   1   3.020775   6.007660   6.850802   0.001010   0.232280   0.004347
  10   1   4.550466   7.437079   1.750631   0.000011   0.046456   0.000239
  11   2   7.197706   1.814072  -1.041544   0.001350   0.325193   0.004152
  12   2   7.050521   6.686851   1.750120   0.000132   0.092912   0.001424
  13   2   6.597139   6.678548   1.316670   0.000030   0.046456   0.000649
  14   2   6.782307   1.081904  -0.788585   0.001263   0.278737   0.004530
  15   2   5.435362  -0.154700   4.192235   0.000230   0.139368   0.001648
  16   2   5.111503   2.300162  -1.211521   0.000938   0.232280   0.004039
  17   2   5.992306   1.897338  -1.238579   0.001759   0.325193   0.005410
  18   2   7.358969   6.549929   1.541556   0.000073   0.046456   0.001571
  19   2   5.176663   1.471880  -0.942234   0.000580   0.139368   0.004164
  20   2   4.892180  -0.023775   4.137749   0.000080   0.046456   0.001715
  21   3   9.280293   3.816489   7.693863   0.001734   0.371649   0.004667
  22   3   7.519150  -0.535562   4.623354   0.000163   0.092912   0.001749
  23   3   7.035172  -0.314783   4.955807   0.000052   0.046456   0.001111
  24   3   9.203570   4.684343   7.424732   0.001304   0.278737   0.004678
  25   3   9.617397   6.238879   2.368628   0.000258   0.139368   0.001851
  26   3   7.120761   4.343045   7.418819   0.001000   0.232280   0.004306
  27   3   8.061257   4.315817   7.650204   0.001787   0.325193   0.005496
  28   3  10.324006   4.063696   7.197138   0.001246   0.371649   0.003354
  29   3  10.959488   4.040369   6.708325   0.000303   0.139368   0.002176
  30   3  10.200997   2.829837   7.401659   0.001012   0.325193   0.003111
  31   3   7.804732  -0.542841   4.898631   0.000093   0.046456   0.002011
  32   3  10.859495   4.768062   6.426557   0.000397   0.185824   0.002137
  33   3   7.597089   5.048797   7.224298   0.000563   0.139368   0.004037
  34   3   9.073842   6.363146   2.303339   0.000088   0.046456   0.001903
  35   4  -1.028056   3.846427  -0.897710   0.000236   0.278737   0.000847
  36   4   2.470930   2.867075  -1.517848   0.000515   0.371649   0.001386
  37   4   2.275250   7.870442   1.127169  -0.000364   0.139368  -0.002611
  38   4   1.713136   7.864432   0.805049   0.000081   0.046456   0.001751
  39   4   2.003321   2.105106  -1.208071   0.000107   0.278737   0.000383
  40   4  -0.666134   2.939529  -0.927758   0.000522   0.418105   0.001248
  41   4   0.709861   1.122168   3.842951  -0.000068   0.139368  -0.000489
  42   4  -0.082462   1.732413   4.199325   0.000242   0.139368   0.001733
  43   4  -1.542126   3.317030  -0.149974   0.000406   0.232280   0.001749
  44   4   0.052674   3.769868  -1.582932   0.000755   0.371649   0.002032
  45   4   1.285278   3.064104  -1.713574   0.001002   0.325193   0.003081
  46   4  -1.187827   4.610091  -0.746339   0.000427   0.232280   0.001837
  47   4  -0.519556   4.899736  -1.246908   0.000345   0.278737   0.001239
  48   4   2.863731   7.685440   1.083504  -0.000147   0.092912  -0.001579
  49   4   0.463367   2.776743  -1.450877   0.000683   0.278737   0.002449
  50   4  -1.473934   2.602889   0.239289  -0.000027   0.139368  -0.000195
  51   4  -0.305124   1.487752   3.707492  -0.000218   0.185824  -0.001172
  52   4  -0.617012   5.881940  -0.786118   0.000769   0.185824   0.004139
  53   5  14.170510   3.259720   1.812835   0.002194   0.418105   0.005247
  54   5  10.848389  -0.549686   5.596200   0.000802   0.278737   0.002877
  55   5  12.108993   0.823715  -0.499896   0.001923   0.418105   0.004600
  56   5  13.765881  -0.259277   2.942038   0.001486   0.371649   0.003997
  57   5  12.488866   4.836421   4.629952   0.000679   0.278737   0.002437
  58   5  11.838787   5.602000   2.362815   0.000699   0.232280   0.003011
  59   5  12.491026   5.336339   3.262975   0.001014   0.325193   0.003117
  60   5  13.485912   4.617553   2.816016   0.001469   0.325193   0.004518
  61   5  13.000293  -1.021887   2.758125   0.001576   0.371649   0.004240
  62   5  11.616734   0.023492  -0.274601   0.001227   0.278737   0.004401
  63   5   9.429970   0.446118  -0.357660   0.000414   0.139368   0.002970
  64   5  10.833958  -1.228869   4.761467   0.000975   0.278737   0.003499
  65   5  13.599179   4.331639   1.939247   0.001053   0.232280   0.004535
  66   5  14.062698   3.826903   2.763361   0.001247   0.278737   0.004473
  67   5   9.925359   1.182639  -0.774842   0.001186   0.232280   0.005104
  68   5  10.866863   1.024935  -0.826723   0.001411   0.278737   0.005061
  69   5  12.900859   0.132473   0.346754   0.001525   0.464561   0.003282
  70   5  13.632647  -0.161220   1.707141   0.001384   0.464561   0.002979
  71   5  12.944419  -0.847570   3.950805   0.001941   0.371649   0.005222
  72   5  11.665116  -0.842742   5.119752   0.000897   0.232280   0.003860
  73   5  11.475870   0.054471   5.969241   0.001027   0.325193   0.003158
  74   5  13.272676   1.359631   0.083978   0.001284   0.418105   0.003070
  75   5  14.036133   2.219932   0.968026   0.001499   0.418105   0.003585
  76   5  14.445212   2.040605   2.036849   0.001676   0.464561   0.003609
  77   5  14.263652   0.693374   2.391440   0.000966   0.325193   0.002970
  78   5  12.686675   5.224265   2.362618   0.000813   0.232280   0.003499
  79   5  13.148379   4.760865   3.802999   0.001001   0.278737   0.003591
  80   5  12.928928  -0.599201   1.174343   0.000802   0.278737   0.002876
  81   5  10.380668   0.428900  -0.592536   0.000908   0.185824   0.004885
  82   5   9.973278  -1.104332   4.812133   0.000634   0.232280   0.002729
  83   5  11.957350  -1.296685   4.187492   0.001476   0.325193   0.004539
  84   5  11.347324   0.948414   6.396218   0.000141   0.092912   0.001515
  85   5  13.928544   0.915033   1.098196   0.001158   0.464561   0.002492
  86   5  12.339305  -0.600500   5.038578   0.001015   0.232280   0.004368
  87   6  -3.381436   5.008148   1.350217   0.006694   0.343589   0.019484
  88   6  -3.143865   3.981012   4.539152   0.006327   0.343589   0.018413
  89   6  -3.165017   7.251902   3.699929   0.001641   0.274871   0.005971
  90   6  -1.166612   5.988361   6.163078   0.003170   0.309230   0.010252
  91   6  -1.202816   7.727879   0.884854   0.002073   0.240512   0.008620
  92   6  -2.701854   3.150848   1.852655   0.002807   0.206154   0.013618
  93   6  -3.029213   3.884341   1.414556   0.005898   0.343589   0.017167
  94   6  -2.489507   2.695621   2.995662   0.003866   0.274871   0.014065
  95   6  -2.945309   3.195957   3.725620   0.005961   0.343589   0.017349
  96   6  -3.708827   4.605823   2.357177   0.007113   0.377948   0.018819
  97   6  -3.619973   4.191565   3.466580   0.006941   0.377948   0.018364
  98   6  -2.339470   3.433105   5.002008   0.007945   0.412307   0.019269
  99   6  -1.378841   3.046170   5.184075   0.005448   0.274871   0.019821
 100   6  -2.695788   4.746400   0.600031   0.005480   0.343589   0.015948
 101   6  -2.786482   7.042801   4.754120   0.000714   0.274871   0.002599
 102   6  -1.994402   6.544571   5.714742   0.001676   0.309230   0.005421
 103   6  -0.351342   5.905411   6.215439   0.002019   0.206154   0.009791
 104   6  -2.201860   7.817741   1.620412   0.002709   0.309230   0.008759
 105   6  -2.868607   7.656878   2.602344   0.002018   0.309230   0.006525
 106   6  -3.707429   5.819891   2.134868   0.006764   0.377948   0.017897
 107   6  -3.562875   6.712185   2.847851   0.004828   0.377948   0.012773
 108   6  -3.505013   6.277158   4.191072   0.005409   0.481025   0.011245
 109   6  -3.532194   5.084339   4.434362   0.006066   0.377948   0.016051
 110   6  -2.761643   4.731407   5.385176   0.007011   0.412307   0.017004
 111   6  -1.943481   5.245677   5.988690   0.005666   0.377948   0.014991
 112   6  -0.841660   4.906463   6.235386   0.004709   0.274871   0.017132
 113   6  -1.020300   3.798557   5.850107   0.005154   0.240512   0.021428
 114   6  -1.536426   7.147613   0.475561   0.003182   0.240512   0.013231
 115   6  -2.335531   7.134513   0.918813   0.003986   0.274871   0.014502
 116   6  -3.020222   6.089668   0.964281   0.007959   0.412307   0.019304
 117   6  -3.232396   3.476793   2.570769   0.005744   0.343589   0.016717
 118   6  -1.942978   2.627001   4.198532   0.006148   0.377948   0.016268
 119   6  -3.855942   5.397569   3.281917   0.006286   0.377948   0.016633
 120   6  -1.753792   4.169219   5.829367   0.005125   0.274871   0.018645
 121   6  -2.219340   6.086028   0.293143   0.006803   0.377948   0.017999
 122   6  -2.845855   5.983375   5.302703   0.004441   0.412307   0.010771
 123   6  -3.153437   6.950937   1.770782   0.005667   0.377948   0.014993
 124   7   4.875499   8.377375   5.012956  -0.001765   0.372926  -0.004733
 125   7   5.287947   8.031534   2.976933  -0.000898   0.314043  -0.002861
 126   7   4.555490   7.259440   6.340355  -0.000584   0.372926  -0.001565
 127   7   4.299988   8.466183   3.304094  -0.002047   0.490692  -0.004172
 128   7   5.428104   8.303375   4.084431  -0.001987   0.392554  -0.005061
 129   7   5.204553   7.799121   5.714507  -0.001597   0.333671  -0.004786
 130   7   3.707315   7.807277   5.922282  -0.001528   0.431809  -0.003537
 131   7   3.961434   8.555684   4.680159  -0.002351   0.412182  -0.005704
 132   8   2.593012   1.936883   7.296137  -0.002149   0.451437  -0.004761
 133   8   2.339854   0.987600   5.735104  -0.000866   0.333671  -0.002595
 134   8   1.546265   2.529316   6.869401  -0.001322   0.333671  -0.003963
 135   8   2.912225   3.810084   7.661912  -0.000780   0.412182  -0.001893
 136   8   3.270688   0.929736   6.266880  -0.001869   0.471065  -0.003969
 137   8   1.804725   1.597577   6.390589  -0.001469   0.392554  -0.003743
 138   8   2.084731   3.266173   7.435488  -0.001561   0.431809  -0.003616
 139   8   3.738816   3.140500   7.743008  -0.001640   0.471065  -0.003482
 140   8   3.592159   1.824166   7.342122  -0.001971   0.372926  -0.005286
 141   9   5.396720  -1.147020   0.938501  -0.001555   0.353299  -0.004402
 142   9   5.547409  -0.992296   2.988939  -0.000945   0.372926  -0.002535
 143   9   5.970680  -0.095393  -0.323821  -0.000538   0.392554  -0.001370
 144   9   4.521104  -0.889803   2.510647  -0.001756   0.490692  -0.003578
 145   9   5.776473  -1.310409   1.907132  -0.001870   0.392554  -0.004763
 146   9   6.108634  -0.831983   0.377643  -0.001494   0.333671  -0.004477
 147   9   4.854233  -0.181749  -0.111213  -0.001460   0.451437  -0.003234
 148   9   4.458122  -0.878403   1.126708  -0.002035   0.392554  -0.005184
 149  10   6.870182   5.191075  -1.557382  -0.001437   0.333671  -0.004308
 150  10   6.724678   6.499958   0.079464  -0.000917   0.353299  -0.002596
 151  10   6.352187   3.570280  -1.763294  -0.000512   0.372926  -0.001373
 152  10   7.695866   6.118075  -0.201903  -0.001687   0.471065  -0.003581
 153  10   6.521737   5.980270  -0.969158  -0.001870   0.392554  -0.004764
 154  10   6.165761   4.604364  -1.751383  -0.001476   0.333671  -0.004423
 155  10   7.420386   3.768052  -1.644339  -0.001339   0.431809  -0.003100
 156  10   7.771435   5.144278  -1.236037  -0.002031   0.392554  -0.005174
 157  11   9.460463   7.270103   5.431294  -0.001794   0.412182  -0.004352
 158  11   9.790916   7.019736   3.670283  -0.000783   0.392554  -0.001994
 159  11  10.683961   6.271539   5.599499  -0.000776   0.314043  -0.002471
 160  11   8.996572   6.144585   6.868670  -0.000486   0.353299  -0.001376
 161  11   8.863116   7.352027   3.885249  -0.001671   0.471065  -0.003547
 162  11  10.379297   6.886672   4.682376  -0.001288   0.471065  -0.002734
 163  11   9.754484   6.682316   6.219678  -0.001103   0.314043  -0.003512
 164  11   8.282296   6.664290   6.461552  -0.001389   0.431809  -0.003218
 165  11   8.498394   7.415045   5.226829  -0.001907   0.372926  -0.005114
 166  11  10.150926   5.904953   6.523054  -0.000329   0.274788  -0.001198
 167  12   7.699368   0.679327   7.824548  -0.001919   0.431809  -0.004445
 168  12   8.617668  -0.066492   6.891497  -0.000719   0.294415  -0.002443
 169  12   6.883206  -0.138321   6.176032  -0.000809   0.333671  -0.002426
 170  12   7.486116   2.696107   8.106990  -0.000593   0.372926  -0.001590
 171  12   9.278873   1.645784   7.833119  -0.000547   0.353299  -0.001548
 172  12   7.755923  -0.259589   6.651154  -0.001141   0.412182  -0.002769
 173  12   6.741635   0.459595   7.226190  -0.001868   0.412182  -0.004531
 174  12   6.961640   1.659753   8.001328  -0.001770   0.412182  -0.004294
 175  12   8.318273   1.977045   8.222454  -0.001153   0.451437  -0.002555
 176  12   8.937864   0.685966   7.603491  -0.001189   0.451437  -0.002633
 177  13  -0.125575   0.279788   0.596959  -0.002601   0.431809  -0.006023
 178  13  -0.707969   0.786199   2.278129  -0.001363   0.392554  -0.003471
 179  13   0.649432   0.263728   2.675524  -0.001975   0.431809  -0.004575
 180  13   1.316289   0.871159  -0.568816  -0.001786   0.392554  -0.004550
 181  13  -0.843513   1.398826   0.028009  -0.001201   0.353299  -0.003399
 182  13  -0.080332   0.143348   1.755695  -0.001786   0.333671  -0.005354
 183  13   1.042213  -0.126364   1.519908  -0.003110   0.471065  -0.006603
 184  13   1.060686   0.164177   0.218016  -0.002805   0.431809  -0.006496
 185  13   0.118587   1.099278  -0.561815  -0.001901   0.490692  -0.003873
 186  13  -1.048642   0.982829   1.067590  -0.002107   0.431809  -0.004879
 187  14   2.066959   6.447067  -2.006540  -0.002759   0.510320  -0.005407
 188  14   1.995970   7.611809  -0.475887  -0.001127   0.372926  -0.003022
 189  14   0.670307   6.449154  -1.561497  -0.001060   0.372926  -0.002842
 190  14   1.818548   4.756771  -2.280077  -0.001137   0.392554  -0.002898
 191  14   3.071843   7.234232  -0.777670  -0.002841   0.588831  -0.004825
 192  14   1.339899   7.201537  -1.195304  -0.001700   0.451437  -0.003765
 193  14   1.027025   5.500181  -2.124637  -0.001432   0.431809  -0.003316
 194  14   2.792232   4.810659  -2.153100  -0.001949   0.431809  -0.004515
 195  14   3.111700   6.136529  -1.854898  -0.002737   0.451437  -0.006062
 196  15  10.443370  -2.379366   2.014928  -0.002190   0.451437  -0.004851
 197  15  10.295431  -2.067641   3.459173  -0.000796   0.392554  -0.002027
 198  15  11.836781  -1.918687   1.940597  -0.000872   0.392554  -0.002221
 199  15  10.778702  -1.188673   0.166549  -0.000731   0.392554  -0.001862
 200  15   9.615004  -1.131637   0.261048  -0.001262   0.392554  -0.003215
 201  15   9.288191  -1.999142   2.944020  -0.001995   0.490692  -0.004066
 202  15  11.281284  -2.139928   2.904435  -0.000914   0.392554  -0.002328
 203  15  11.440375  -1.754586   0.950766  -0.001455   0.471065  -0.003089
 204  15  10.115087  -1.953573   0.883792  -0.001642   0.353299  -0.004647
 205  15   9.303993  -2.021144   1.593836  -0.002169   0.392554  -0.005525
 206  16  12.288080   4.200421  -0.779037  -0.002351   0.471065  -0.004990
 207  16  13.003834   4.691582   0.575979  -0.000814   0.392554  -0.002075
 208  16  11.215452   5.473429   0.528254  -0.001233   0.372926  -0.003306
 209  16  10.936597   2.768915  -1.278630  -0.000968   0.392554  -0.002466
 210  16  13.064312   2.977116  -0.484587  -0.000785   0.372926  -0.002106
 211  16  12.197788   5.245021   0.460160  -0.001225   0.412182  -0.002971
 212  16  11.237660   4.911833  -0.513099  -0.002286   0.431809  -0.005293
 213  16  11.120056   3.838648  -1.199423  -0.002145   0.431809  -0.004968
 214  16  12.140708   2.690051  -1.104065  -0.001277   0.490692  -0.002603
 215  16  13.250219   3.872830  -0.012027  -0.000954   0.372926  -0.002559
 216  17  14.348982   2.097972   5.528426  -0.003431   0.608459  -0.005638
 217  17  13.110917   2.951652   6.240127  -0.001229   0.353299  -0.003478
 218  17  13.999277   3.793857   4.635324  -0.000642   0.333671  -0.001923
 219  17  14.792022   2.185620   3.735899  -0.000731   0.353299  -0.002068
 220  17  14.049530   0.374622   4.714427  -0.000708   0.372926  -0.001899
 221  17  12.760106   0.915872   6.227015  -0.000676   0.353299  -0.001914
 222  17  13.584565   3.552023   5.591185  -0.001657   0.490692  -0.003377
 223  17  14.606504   3.006950   4.369554  -0.001645   0.490692  -0.003353
 224  17  14.676359   1.252779   4.323418  -0.001757   0.510320  -0.003443
 225  17  13.705133   0.711430   5.648878  -0.001738   0.490692  -0.003541
 226  17  13.116221   1.921458   6.417389  -0.001808   0.490692  -0.003685
 227  18   0.110630   9.399315   3.997921  -0.007095   0.392554  -0.018074
 228  18  -0.773985   7.938535   5.720009  -0.005210   0.392554  -0.013272
 229  18  -1.829650   8.804173   3.848985  -0.006505   0.451437  -0.014409
 230  18  -0.292619   8.924759   1.992109  -0.006839   0.490692  -0.013938
 231  18  -0.834742   9.022565   4.770194  -0.007848   0.451437  -0.017384
 232  18  -0.673335   9.405220   3.306286  -0.006947   0.412182  -0.016855
 233  18   0.731338   9.158170   2.771586  -0.010044   0.529948  -0.018952
 234  18   0.818788   9.045805   4.456080  -0.007424   0.353299  -0.021015
 235  18   0.243414   8.572194   5.368222  -0.006816   0.372926  -0.018278
 236  18  -1.688590   8.252849   5.016257  -0.005113   0.392554  -0.013026
 237  18  -1.468424   8.919134   2.666152  -0.004553   0.372926  -0.012209
 238  18   0.176169   7.578341   5.885670  -0.004359   0.294415  -0.014805
 239   1   5.685798   7.179183   2.163745  -0.000039   0.028208  -0.001380
 240   2   6.072497   6.942528   1.961993  -0.000012   0.028208  -0.000420
 241   7   5.633070   7.349198   2.410782  -0.000076   0.028208  -0.002698
 242   1   3.805814   0.619951   4.742567  -0.000015   0.027283  -0.000537
 243   2   4.214134   0.459192   4.510940   0.000008   0.027283   0.000282
 244   8   3.718623   0.696538   5.023341  -0.000044   0.027283  -0.001597
 245   1   3.814025   0.362499   3.964998   0.000003   0.027802   0.000113
 246   2   4.200415   0.125587   3.762985  -0.000008   0.027802  -0.000284
 247   9   4.256867  -0.043814   3.516356  -0.000036   0.027802  -0.001279
 248   1   5.686342   6.849732   1.444792  -0.000014   0.027947  -0.000506
 249   2   6.094656   6.688700   1.213306  -0.000021   0.027947  -0.000759
 250  10   6.176502   6.612165   0.930255  -0.000053   0.027947  -0.001890
 251   2   6.158509   6.808293   1.484993   0.000075   0.076749   0.000983
 252   1   5.635280   7.110117   1.871837   0.000042   0.076749   0.000542
 253   2   4.309652   0.212803   4.149338   0.000104   0.082784   0.001256
 254   1   3.683780   0.481883   4.376915   0.000083   0.082784   0.000997
 255   1   5.133544   4.014910   7.173512   0.000089   0.066190   0.001348
 256   3   5.939702   3.806087   7.174372   0.000176   0.066190   0.002664
 257   8   4.945128   3.785509   7.245168  -0.000065   0.066190  -0.000979
 258   1   6.161012   5.713601   6.479185   0.000157   0.067962   0.002307
 259   3   6.965102   5.559733   6.632361   0.000123   0.067962   0.001804
 260  11   7.139663   5.790934   6.534704  -0.000046   0.067962  -0.000672
 261   3   6.672027   4.850727   7.019381   0.001137   0.505055   0.002251
 262   1   5.430074   4.803137   7.018303   0.000971   0.505055   0.001922
 263   1   3.851001   7.642965   1.959481  -0.000099   0.028512  -0.003483
 264   4   3.448494   7.607424   1.675106  -0.000120   0.028512  -0.004194
 265   7   3.924070   7.781575   2.220577  -0.000099   0.028512  -0.003466
 266   1   1.871147   1.098755   4.517170  -0.000035   0.028120  -0.001251
 267   4   1.491210   1.137643   4.203690  -0.000025   0.028120  -0.000878
 268   8   1.918502   1.141612   4.814233  -0.000068   0.028120  -0.002424
 269   1   1.788241   0.915255   3.886932  -0.000049   0.026536  -0.001851
 270   4   1.384952   0.879536   3.603781  -0.000085   0.026536  -0.003187
 271  13   1.294033   0.741275   3.351388  -0.000135   0.026536  -0.005087
 272   1   3.885538   7.264864   1.177779  -0.000092   0.027492  -0.003363
 273   4   3.506612   7.303273   0.863049  -0.000118   0.027492  -0.004297
 274  14   3.452863   7.255328   0.567960  -0.000121   0.027492  -0.004403
 275   4   3.377358   7.525153   1.225104  -0.000157   0.092132  -0.001704
 276   1   4.000602   7.471008   1.575402  -0.000069   0.092132  -0.000753
 277   4   1.358118   0.952943   3.832984  -0.000008   0.049467  -0.000157
 278   1   1.889360   0.977528   4.304584   0.000026   0.049467   0.000532
 279   1   1.405764   4.701353   6.540103   0.000266   0.059777   0.004447
 280   6   0.647751   4.889871   6.260709   0.000869   0.059777   0.014540
 281   8   1.482410   4.427569   6.650091   0.000033   0.059777   0.000546
 282   1   1.299752   6.066282   6.120843   0.000096   0.076317   0.001264
 283   6   0.500991   6.258081   5.998019   0.000142   0.076317   0.001856
 284  18   0.555148   6.570334   5.931396  -0.000380   0.076317  -0.004985
 285   6   0.305377   5.534826   6.239150   0.002512   0.278163   0.009031
 286   1   1.486390   5.475846   6.494964   0.000955   0.307359   0.003107
 287   1   5.741432   6.072772   6.365463   0.000021   0.087752   0.000238
 288   7   5.713153   6.356614   6.250397  -0.000160   0.087752  -0.001819
 289  11   6.721302   6.070502   6.289763   0.000117   0.087752   0.001330
 290   1   2.349248   6.921041   5.931065  -0.000205   0.080651  -0.002539
 291   7   2.537474   7.147178   5.843004  -0.000308   0.080651  -0.003817
 292  18   1.566389   7.300389   5.637055  -0.001028   0.080651  -0.012741
 293   7   5.221739   7.677803   2.506879  -0.000165   0.067343  -0.002453
 294   7   4.411807   7.881968   2.415411  -0.000190   0.067343  -0.002821
 295   1   4.788268   7.521262   2.136280  -0.000404   0.148689  -0.002716
 296   7   3.213487   7.042881   6.216932  -0.000127   0.083589  -0.001516
 297   7   4.465151   6.697584   6.461031  -0.000508   0.194244  -0.002615
 298   1   3.528461   6.534998   6.492067  -0.000039   0.175860  -0.000223
 299   1   4.938210   6.188580   6.620411   0.000110   0.102122   0.001076
 300   8   4.282180   3.961865   7.449694  -0.000049   0.073557  -0.000672
 301   8   3.179308   4.370372   7.400489  -0.000213   0.165380  -0.001287
 302   8   2.048721   4.333442   7.074863  -0.000069   0.073557  -0.000941
 303   1   4.036079   4.509416   7.311055   0.000050   0.159361   0.000314
 304   1   2.485417   4.767398   7.050815   0.000041   0.159361   0.000257
 305   8   2.341509   0.959720   5.116125  -0.000149   0.071893  -0.002079
 306   8   3.207019   0.746570   5.219618  -0.000148   0.071893  -0.002062
 307   1   2.816184   0.824680   4.758667  -0.000369   0.156526  -0.002357
 308   1   2.888434   0.503337   3.244882  -0.000261   0.165752  -0.001574
 309   9   3.400896   0.154487   2.815385  -0.000369   0.165752  -0.002225
 310  13   2.348196   0.419063   2.726534  -0.000605   0.165752  -0.003650
 311   9   4.109112  -0.181533   3.210472  -0.000237   0.139386  -0.001702
 312   1   3.304086   0.371555   3.766261   0.000177   0.196526   0.000899
 313   1   4.716252   6.740535   0.822141  -0.000290   0.165085  -0.001754
 314  10   5.242966   6.451981   0.366883  -0.000333   0.165085  -0.002016
 315  14   4.223410   6.701754   0.255311  -0.000600   0.165085  -0.003635
 316  10   5.961159   6.551608   0.498521  -0.000269   0.135516  -0.001982
 317   1   5.304251   6.984281   1.299226   0.000159   0.191085   0.000830
 318  11   7.244997   6.015124   6.560714   0.000049   0.025609   0.001908
 319   1   5.796160   5.959318   6.605844   0.000168   0.036322   0.004639
 320  13   1.570589   0.453233   2.933022  -0.000721   0.171118  -0.004215
 321   1   2.217113   0.687624   3.824947   0.000058   0.241206   0.000242
 322  14   3.573541   7.169199   0.279022  -0.000385   0.112885  -0.003409
 323   1   4.343557   7.161614   1.089949   0.000003   0.159220   0.000017
 324  18   0.751294   7.052251   5.888331  -0.002079   0.241571  -0.008607
 325   1   1.979208   6.548911   6.223253   0.000180   0.340592   0.000527
 326   2   6.134391  -0.349028   3.966180  -0.000007   0.027870  -0.000263
 327   3   6.538944  -0.306352   4.251050   0.000020   0.027870   0.000716
 328   9   6.056262  -0.485411   3.705401  -0.000039   0.027870  -0.001405
 329   2   7.999899   6.221223   1.414360   0.000003   0.028051   0.000107
 330   3   8.382902   6.187888   1.728747   0.000020   0.028051   0.000718
 331  10   7.949781   6.177081   1.117348  -0.000032   0.028051  -0.001123
 332   2   7.933610   6.504849   2.235504   0.000019   0.028520   0.000655
 333   3   8.337717   6.547410   2.521061   0.000006   0.028520   0.000225
 334  11   8.407805   6.681865   2.784578  -0.000028   0.028520  -0.000987
 335   2   6.175362  -0.057604   4.647144   0.000020   0.028401   0.000716
 336   3   6.559045  -0.091198   4.960691   0.000001   0.028401   0.000019
 337  12   6.605121  -0.050684   5.258438  -0.000032   0.028401  -0.001115
 338   3   8.491746   6.389787   2.132205   0.000138   0.092816   0.001489
 339   2   7.862886   6.431483   1.782834   0.000127   0.092816   0.001366
 340   3   6.602856  -0.225399   4.716466   0.000104   0.066631   0.001567
 341   2   6.079517  -0.265115   4.228864   0.000089   0.066631   0.001342
 342   2   4.195662   1.349917  -0.467146   0.000004   0.066489   0.000054
 343   4   3.402559   1.598994  -0.481330  -0.000195   0.066489  -0.002936
 344   9   4.234819   1.072599  -0.343719  -0.000115   0.066489  -0.001726
 345   2   4.228719   3.306958  -1.181797  -0.000083   0.067342  -0.001229
 346   4   3.435353   3.494292  -1.345631  -0.000191   0.067342  -0.002834
 347  14   3.406495   3.780027  -1.449599  -0.000314   0.067342  -0.004669
 348   4   3.288372   2.681192  -1.144363  -0.000695   0.498346  -0.001395
 349   2   4.337680   2.070432  -0.893358   0.000440   0.498346   0.000883
 350   2   7.538329   0.531886  -0.111454   0.000111   0.066429   0.001668
 351   5   8.347690   0.394722   0.039899   0.000187   0.066429   0.002815
 352   9   7.352369   0.310239  -0.011696  -0.000082   0.066429  -0.001234
 353   2   8.059474   2.443100  -0.871856   0.000113   0.067712   0.001675
 354   5   8.860186   2.272055  -0.708943   0.000205   0.067712   0.003026
 355  10   8.022603   2.730503  -0.970533  -0.000053   0.067712  -0.000789
 356   5   8.988623   0.987401  -0.413215   0.001282   0.526564   0.002435
 357   2   7.924424   1.592135  -0.665648   0.001106   0.526564   0.002101
 358   2   6.995709   6.814926   2.702906  -0.000040   0.164562  -0.000242
 359   7   6.488209   7.170108   3.130284  -0.000246   0.164562  -0.001497
 360  11   7.503193   6.917262   3.247091  -0.000198   0.164562  -0.001203
 361   7   5.883284   7.483806   2.827156  -0.000341   0.141818  -0.002407
 362   2   6.502021   6.939266   2.066447   0.000246   0.199976   0.001228
 363   2   5.184301   0.567253   5.129261   0.000009   0.165597   0.000055
 364   8   4.653125   0.858435   5.580831  -0.000213   0.165597  -0.001287
 365  12   5.688095   0.597935   5.686123  -0.000119   0.165597  -0.000719
 366   8   3.829166   0.732846   5.362661  -0.000238   0.135355  -0.001760
 367   2   4.684447   0.348680   4.740613   0.000259   0.190831   0.001355
 368   9   5.549831  -0.588957   3.515973  -0.000113   0.071833  -0.001575
 369   9   4.685338  -0.376811   3.425066  -0.000120   0.071833  -0.001674
 370   2   5.147093  -0.224802   3.792178  -0.000285   0.156573  -0.001817
 371   9   4.889720   0.733513  -0.492963  -0.000065   0.083500  -0.000775
 372   9   6.174845   0.439417  -0.430039  -0.000415   0.193971  -0.002139
 373   2   5.457846   1.019810  -0.659151   0.000045   0.175724   0.000255
 374   2   6.852460   0.658747  -0.448590   0.000110   0.102014   0.001078
 375   2   4.768909   3.385128  -1.243158  -0.000067   0.087977  -0.000764
 376  10   4.948362   3.618794  -1.331353  -0.000197   0.087977  -0.002239
 377  14   3.933648   3.893916  -1.361863  -0.000221   0.087977  -0.002512
 378  10   6.680648   6.561574   0.727636  -0.000118   0.070452  -0.001678
 379  10   7.529113   6.353475   0.817323  -0.000116   0.070452  -0.001649
 380   2   7.068770   6.487662   1.184019  -0.000263   0.154167  -0.001707
 381  10   7.375623   2.868355  -1.312862  -0.000039   0.081228  -0.000481
 382  10   6.122694   3.108648  -1.485513  -0.000402   0.187201  -0.002146
 383   2   6.821741   2.538440  -1.248322   0.000017   0.172114   0.000100
 384   2   5.458659   2.920183  -1.363946   0.000091   0.099238   0.000921
 385  11   8.299171   6.875258   3.043139  -0.000149   0.121881  -0.001226
 386   2   7.483164   6.723141   2.294710   0.000241   0.171909   0.001399
 387  12   6.320498   0.148429   5.674834  -0.000246   0.155750  -0.001582
 388   2   5.723850   0.026262   4.732791   0.000340   0.219608   0.001550
 389  14   3.407511   3.941853  -1.628342  -0.000018   0.020319  -0.000908
 390   2   4.630235   3.200141  -1.365354   0.000118   0.028826   0.004098
 391   3  10.259413   6.113308   2.740521   0.000020   0.027467   0.000716
 392   5  10.651392   5.887496   2.535365   0.000052   0.027467   0.001904
 393  11  10.196166   6.277182   2.988613  -0.000002   0.027467  -0.000086
 394   3  11.296413   5.033006   5.583065   0.000035   0.027467   0.001262
 395   5  11.674879   4.821273   5.340865   0.000088   0.027467   0.003218
 396  11  11.140223   5.293706   5.576386   0.000003   0.027467   0.000124
 397   3  10.345105   1.454976   6.892695   0.000031   0.027370   0.001120
 398   5  10.733479   1.280619   6.636784   0.000056   0.027370   0.002056
 399  12  10.090994   1.348505   7.021083   0.000009   0.027370   0.000320
 400   3   8.499977  -0.525111   5.180053   0.000041   0.027370   0.001499
 401   5   8.912426  -0.673632   4.946488   0.000085   0.027370   0.003121
 402  12   8.411272  -0.454077   5.461970   0.000004   0.027370   0.000162
 403   3   8.515330  -0.773887   4.394277   0.000036   0.026457   0.001350
 404   5   8.907249  -1.000063   4.189474   0.000012   0.026457   0.000469
 405  15   8.978070  -1.166712   3.946209  -0.000027   0.026457  -0.001017
 406   3  10.261034   5.794365   1.990518   0.000023   0.026519   0.000873
 407   5  10.673717   5.646276   1.757142   0.000002   0.026519   0.000091
 408  16  10.769951   5.577245   1.477964  -0.000035   0.026519  -0.001313
 409   3  11.661612   4.451874   5.723102   0.000077   0.025246   0.003068
 410   5  12.089676   4.289519   5.530564   0.000023   0.025246   0.000917
 411  17  12.319818   4.101677   5.587046  -0.000011   0.025246  -0.000423
 412   3  10.948648   1.766424   6.707472   0.000047   0.025246   0.001848
 413   5  11.367075   1.567769   6.528240   0.000017   0.025246   0.000687
 414  17  11.662196   1.624680   6.495007  -0.000011   0.025246  -0.000426
 415   5  10.735401   5.762877   2.040480   0.000155   0.082386   0.001878
 416   3  10.207800   6.047882   2.437009   0.000137   0.082386   0.001659
 417   5  11.994725   4.565436   5.394317   0.000137   0.058579   0.002346
 418   3  11.417416   4.783230   5.756594   0.000147   0.058579   0.002505
 419   5  11.171335   1.405147   6.581648   0.000121   0.059366   0.002035
 420   3  10.558422   1.611103   6.888272   0.000137   0.059366   0.002307
 421   5   9.011962  -0.913811   4.578731   0.000191   0.084322   0.002259
 422   3   8.378458  -0.662039   4.808027   0.000169   0.084322   0.001998
 423   3   6.359013   3.542490   7.318136   0.000106   0.088945   0.001190
 424   8   5.367211   3.488135   7.234928   0.000130   0.088945   0.001457
 425  12   6.393184   3.255727   7.422697  -0.000109   0.088945  -0.001226
 426   8   4.828573   3.679944   7.402920   0.000020   0.005575   0.003544
 427   3   6.297972   3.738355   7.435902   0.000063   0.007918   0.008004
 428   3   7.605267  -0.648078   3.666555   0.000037   0.167098   0.000222
 429   9   7.078588  -0.742238   3.134610  -0.000110   0.167098  -0.000661
 430  15   8.135576  -0.982071   3.238908  -0.000183   0.167098  -0.001092
 431   9   6.318096  -0.742365   3.311461  -0.000265   0.155321  -0.001703
 432   3   6.954704  -0.508848   4.210061   0.000358   0.218958   0.001635
 433   3   9.276430   5.657753   1.336715   0.000018   0.166819   0.000107
 434  10   8.779080   5.615169   0.772027  -0.000175   0.166819  -0.001050
 435  16   9.824166   5.387243   0.887053  -0.000151   0.166819  -0.000907
 436  10   8.088190   6.088492   0.814817  -0.000173   0.125018  -0.001381
 437   3   8.869457   6.080201   1.619399   0.000270   0.176296   0.001532
 438  11   9.763842   6.598530   3.081932  -0.000078   0.070786  -0.001098
 439  11   8.907514   6.791071   2.981378  -0.000099   0.070786  -0.001396
 440   3   9.317027   6.441550   2.705561  -0.000226   0.154653  -0.001459
 441  11   7.776334   5.815348   6.799182  -0.000004   0.067056  -0.000064
 442  11   8.793191   5.548216   7.042226  -0.000099   0.147764  -0.000671
 443  11  10.045998   5.420950   6.693373  -0.000233   0.147764  -0.001574
 444  11  10.824075   5.505745   5.950517  -0.000080   0.067056  -0.001188
 445   3   8.001492   5.334456   7.056776   0.000191   0.148081   0.001292
 446   3   9.440962   5.048884   7.103481   0.000137   0.148081   0.000924
 447   3  10.677345   5.062631   6.311666  -0.000063   0.148081  -0.000427
 448  12   9.778776   1.577358   7.390496  -0.000058   0.067479  -0.000865
 449  12   9.246144   2.434020   7.791515  -0.000186   0.148882  -0.001246
 450  12   8.132014   3.116064   7.934536  -0.000076   0.148882  -0.000512
 451  12   7.071046   3.234965   7.738088  -0.000072   0.067479  -0.001070
 452   3   9.902077   2.156067   7.378234  -0.000105   0.148833  -0.000706
 453   3   8.937787   3.197682   7.784951   0.000172   0.148833   0.001159
 454   3   7.524121   3.611795   7.683494   0.000155   0.148833   0.001043
 455  12   7.032585  -0.225824   5.558612  -0.000092   0.071637  -0.001286
 456  12   7.899574  -0.418564   5.659223  -0.000081   0.071637  -0.001134
 457   3   7.508608  -0.344866   5.199005  -0.000210   0.156120  -0.001346
 458  15   8.842728  -1.306021   3.640553  -0.000215   0.139081  -0.001547
 459   3   8.012279  -0.775635   4.193610   0.000304   0.196036   0.001551
 460  16  10.554759   5.512504   1.031018  -0.000251   0.142951  -0.001757
 461   3   9.870006   5.917656   1.833467   0.000332   0.201487   0.001648
 462  17  12.413981   3.771415   5.882482  -0.000232   0.197564  -0.001174
 463  17  12.077051   2.501900   6.423988  -0.001075   0.403998  -0.002661
 464   3  11.310988   3.742511   6.443845   0.000729   0.541527   0.001347
 465   3  10.914817   2.250689   6.921305   0.000647   0.278245   0.002326
 466   4   0.212532   2.353926   4.914278   0.000478   0.091835   0.005201
 467   6  -0.136758   2.650187   5.028934   0.001003   0.091835   0.010921
 468   8   0.765954   2.331467   5.413273   0.000206   0.091835   0.002241
 469   4  -1.705019   2.305580   1.440398   0.000042   0.014188   0.002950
 470   6  -1.989139   2.592169   1.681096   0.000157   0.014188   0.011082
 471  13  -1.551163   2.053715   1.378922  -0.000047   0.014188  -0.003285
 472   4  -1.192265   1.799731   2.873416   0.000075   0.014188   0.005306
 473   6  -1.498020   2.107664   3.053648   0.000237   0.014188   0.016738
 474  13  -1.085531   1.594354   2.680245  -0.000016   0.014188  -0.001137
 475   4   0.262715   7.731106   0.773377  -0.000110   0.038796  -0.002825
 476   6  -0.115896   7.875922   1.012433  -0.000112   0.038796  -0.002878
 477  18  -0.037570   8.087769   1.241982  -0.000305   0.038796  -0.007870
 478   6  -0.412873   7.555117   0.643439   0.000740   0.166372   0.004445
 479   6  -1.372176   6.269333   0.106392   0.004864   0.345082   0.014096
 480   6  -2.159769   4.398895   0.448079   0.005002   0.345082   0.014495
 481   6  -2.307598   3.055375   1.465440   0.001817   0.166372   0.010921
 482   4  -0.275303   6.886416   0.005057   0.001576   0.357411   0.004410
 483   4  -1.376149   5.067860  -0.281728   0.002936   0.357411   0.008214
 484   4  -1.826292   3.203006   0.677933   0.001828   0.357411   0.005115
 485   6  -1.542209   2.290178   3.614224   0.001786   0.161149   0.011084
 486   6  -0.856038   2.540280   4.641499   0.002381   0.161149   0.014778
 487   4  -0.693283   2.049113   3.879119   0.001796   0.346292   0.005187
 488   4   2.426128   7.965082   2.216892  -0.001563   0.143416  -0.010896
 489   7   2.943813   8.056440   2.748323  -0.001189   0.143416  -0.008292
 490  18   1.966948   8.253337   2.601231  -0.002805   0.143416  -0.019559
 491   7   3.778830   7.997277   2.512458  -0.000533   0.152397  -0.003497
 492   4   2.933904   7.863586   1.793660  -0.000539   0.214935  -0.002508
 493   8   1.433736   1.685893   5.435955  -0.000946   0.308294  -0.003069
 494   4   0.881308   1.496767   4.452231   0.000124   0.433805   0.000285
 495   4   2.785810   1.414905  -0.402830  -0.000335   0.087224  -0.003835
 496   9   3.640022   0.983310  -0.135752  -0.000146   0.087224  -0.001677
 497  13   2.590411   1.204541  -0.300413  -0.000440   0.087224  -0.005041
 498   9   4.200562   0.777814  -0.324192   0.000022   0.054305   0.000412
 499   4   2.970365   1.503223  -0.659812   0.000086   0.077102   0.001112
 500  13   0.769478   0.662335   3.171331  -0.000251   0.074812  -0.003354
 501  13  -0.339837   1.038753   2.898430  -0.000814   0.169414  -0.004807
 502   4   0.370126   1.064270   3.426170  -0.000626   0.160951  -0.003892
 503   4  -0.814039   1.497346   3.011752  -0.000085   0.091399  -0.000935
 504  13  -1.380764   1.819743   0.957744  -0.000245   0.069963  -0.003499
 505  13  -0.898174   1.943736  -0.056698  -0.000631   0.155972  -0.004045
 506  13   0.216423   1.833406  -0.837422  -0.000507   0.155972  -0.003254
 507  13   1.528068   1.457689  -0.787870  -0.000721   0.155972  -0.004624
 508   4  -1.370402   2.273229   0.562876  -0.000468   0.152743  -0.003065
 509   4  -0.446424   2.327907  -0.659831  -0.000418   0.152743  -0.002740
 510   4   0.995601   2.039027  -1.094400  -0.000293   0.152743  -0.001919
 511   4   2.144325   1.647744  -0.805922  -0.000293   0.085475  -0.003432
 512  14   2.800441   3.925439  -1.783493  -0.000289   0.071597  -0.004038
 513  14   1.683246   4.109360  -1.974214  -0.000503   0.159997  -0.003141
 514  14   0.579720   4.929986  -1.801237  -0.000478   0.159997  -0.002989
 515  14   0.207054   6.131762  -1.219883  -0.000597   0.159997  -0.003732
 516  14   0.729399   7.185335  -0.486225  -0.000634   0.159997  -0.003965
 517  14   1.916675   7.626633   0.076581  -0.000752   0.159997  -0.004703
 518  14   3.033730   7.440592   0.266065  -0.000261   0.071597  -0.003640
 519   4   2.304695   3.580272  -1.713043  -0.000422   0.156000  -0.002705
 520   4   0.845158   4.115214  -1.795558  -0.000220   0.156000  -0.001412
 521   4  -0.033593   5.319114  -1.346519  -0.000359   0.156000  -0.002298
 522   4   0.055508   6.661685  -0.563714  -0.000366   0.156000  -0.002349
 523   4   1.073216   7.551557   0.208048  -0.000634   0.156000  -0.004066
 524   4   2.571255   7.596762   0.628827  -0.000709   0.156000  -0.004544
 525  18   1.317182   8.519613   2.183859  -0.003474   0.215494  -0.016123
 526  18   0.334365   8.349436   1.457289  -0.002116   0.215494  -0.009820
 527   4   1.338460   7.931441   1.244906  -0.004088   0.505657  -0.008084
 528   5   8.780438   0.113976   0.114038   0.000091   0.088584   0.001030
 529   9   7.784756   0.110467   0.202141   0.000139   0.088584   0.001566
 530  15   8.833613  -0.166092   0.226351  -0.000049   0.088584  -0.000557
 531   5   8.713629   0.172341  -0.101787   0.000057   0.007310   0.007765
 532   5   9.452770   2.442768  -0.775807   0.000072   0.087647   0.000820
 533  10   8.595116   2.924681  -0.881219   0.000144   0.087647   0.001646
 534  16   9.637299   2.675834  -0.849864  -0.000117   0.087647  -0.001340
 535  10   8.045632   2.941035  -1.154352   0.000055   0.044236   0.001253
 536   5   9.287131   2.214473  -0.900908   0.000266   0.062780   0.004230
 537  11  11.092652   5.677640   5.282927  -0.000199   0.212521  -0.000935
 538  11  10.668177   6.239726   3.925790  -0.001092   0.436955  -0.002499
 539   5  11.784772   5.322026   4.307966   0.000895   0.580277   0.001543
 540   5  11.161999   5.861605   2.777210   0.000716   0.299378   0.002392
 541  12   8.616855  -0.365208   5.891160  -0.000176   0.211879  -0.000833
 542  12   9.531139   0.509998   6.740493  -0.001078   0.435516  -0.002474
 543   5   9.825240  -0.387706   5.583805   0.000887   0.578624   0.001532
 544   5  10.788461   0.742474   6.477230   0.000699   0.298468   0.002344
 545  15   9.522168  -0.370349   0.003025  -0.000052   0.067140  -0.000781
 546  15  10.590497  -0.524853  -0.079550  -0.000137   0.148112  -0.000923
 547  15  11.732304  -0.874467   0.460760  -0.000215   0.148112  -0.001449
 548  15  12.289921  -1.293455   1.570445  -0.000254   0.148112  -0.001714
 549  15  12.045779  -1.618337   2.816533  -0.000163   0.148112  -0.001101
 550  15  11.095135  -1.722352   3.712829  -0.000202   0.148112  -0.001364
 551  15   9.808910  -1.564916   3.909619  -0.000356   0.148112  -0.002406
 552   5   9.951390  -0.025412  -0.209865   0.000142   0.148096   0.000957
 553   5  11.383927  -0.317233  -0.032194   0.000107   0.148096   0.000721
 554   5  12.388959  -0.771781   0.943605  -0.000011   0.148096  -0.000077
 555   5  12.574346  -1.211702   2.336799   0.000046   0.148096   0.000312
 556   5  11.867755  -1.465350   3.603795   0.000111   0.148096   0.000749
 557   5  10.544881  -1.433757   4.250242  -0.000132   0.148096  -0.000894
 558   5   9.369086  -1.224772   4.208451   0.000006   0.082026   0.000079
 559  16  11.265307   5.547496   1.286978  -0.000076   0.066711  -0.001141
 560  16  12.292176   5.239505   1.380136  -0.000231   0.146983  -0.001573
 561  16  13.249572   4.397683   1.109921  -0.000170   0.146983  -0.001156
 562  16  13.532275   3.293004   0.479011  -0.000195   0.146983  -0.001329
 563  16  13.031349   2.351136  -0.269485  -0.000241   0.146983  -0.001641
 564  16  11.939820   1.935014  -0.847145  -0.000141   0.146983  -0.000962
 565  16  10.678288   2.204983  -1.031378  -0.000236   0.146983  -0.001607
 566   5  11.612169   5.490699   1.759225  -0.000162   0.147331  -0.001097
 567   5  12.924581   4.842697   1.714537   0.000073   0.147331   0.000494
 568   5  13.657511   3.692266   1.181949   0.000090   0.147331   0.000609
 569   5  13.528536   2.482704   0.366685   0.000000   0.147331   0.000001
 570   5  12.587354   1.680098  -0.417107   0.000011   0.147331   0.000072
 571   5  11.196636   1.593718  -0.867405   0.000159   0.147331   0.001077
 572   5  10.089496   2.022260  -0.905739   0.000131   0.081503   0.001602
 573  17  12.072374   1.287176   6.399777  -0.000098   0.069393  -0.001418
 574  17  12.522455   0.424221   5.846741  -0.000291   0.154292  -0.001884
 575  17  13.314247  -0.023695   4.845224  -0.000152   0.154292  -0.000984
 576  17  14.098883   0.404277   3.829455  -0.000270   0.154292  -0.001752
 577  17  14.547425   1.528719   3.225268  -0.000291   0.154292  -0.001888
 578  17  14.471833   2.878239   3.285955  -0.000206   0.154292  -0.001333
 579  17  13.903797   3.887085   3.986072  -0.000248   0.154292  -0.001609
 580  17  13.081451   4.132325   5.032115  -0.000342   0.154292  -0.002214
 581   5  11.836712   0.785731   6.171673  -0.000148   0.151898  -0.000977
 582   5  12.583976  -0.154546   5.240312  -0.000027   0.151898  -0.000176
 583   5  13.519792  -0.166385   4.042788   0.000117   0.151898   0.000767
 584   5  14.251845   0.755175   3.081133  -0.000047   0.151898  -0.000312
 585   5  14.473239   2.223795   2.758494  -0.000043   0.151898  -0.000283
 586   5  14.091162   3.623794   3.210131   0.000064   0.151898   0.000422
 587   5  13.265788   4.368259   4.246706  -0.000085   0.151898  -0.000557
 588   5  12.505588   4.345466   5.220367  -0.000016   0.084779  -0.000189
 589   8   1.331825   4.013307   6.803480   0.000368   0.262662   0.001400
 590   8   1.000532   2.847135   6.278690   0.000060   0.528774   0.000113
 591   6  -0.086956   4.166843   6.151799   0.008239   0.649315   0.012689
 592   6  -0.372433   2.925062   5.477293   0.003657   0.327242   0.011175
 593  13  -1.267635   1.611943   2.107832  -0.000910   0.335744  -0.002712
 594   6  -2.007386   2.440486   2.336286   0.003069   0.409051   0.007502
 595  18  -0.461492   8.352719   1.488402  -0.000435   0.080227  -0.005426
 596  18  -1.482156   8.431527   2.104393  -0.001497   0.173140  -0.008649
 597  18  -2.221919   8.250370   3.339135  -0.001829   0.173140  -0.010565
 598  18  -2.102613   7.803734   4.714249  -0.001930   0.173140  -0.011145
 599  18  -1.171185   7.267370   5.688626  -0.001750   0.173140  -0.010108
 600  18  -0.072283   6.895670   5.974398  -0.000503   0.080227  -0.006264
 601   6  -1.038465   8.077213   1.419160  -0.000416   0.172378  -0.002414
 602   6  -2.205095   8.062655   2.469408  -0.000587   0.172378  -0.003407
 603   6  -2.558622   7.704949   3.956461  -0.001139   0.172378  -0.006607
 604   6  -1.959931   7.144851   5.295162  -0.001090   0.172378  -0.006322
 605   6  -0.644608   6.602762   5.958732  -0.000711   0.172378  -0.004125
 606  11   7.779636   7.303973   3.687039   0.000018   0.254296   0.000072
 607  11   7.670309   7.399326   4.842650  -0.000607   0.508579  -0.001193
 608  11   7.368493   6.755461   6.069398  -0.000228   0.508579  -0.000449
 609   7   6.300630   7.731101   3.960658  -0.000719   0.508579  -0.001414
 610   7   6.094255   7.545723   5.351201  -0.000683   0.508579  -0.001343
 611   7   5.812333   6.811948   6.210605   0.000177   0.254296   0.000696
 612  18   1.264023   7.843884   5.587714  -0.002418   0.235824  -0.010254
 613  18   1.520564   8.545419   4.745728  -0.006282   0.471684  -0.013318
 614  18   1.752769   8.738687   3.405613  -0.006696   0.471684  -0.014197
 615   7   2.757672   7.867719   5.488404  -0.001596   0.471684  -0.003384
 616   7   3.049612   8.488894   4.298407  -0.002204   0.471684  -0.004673
 617   7   3.198154   8.416795   3.185015  -0.000698   0.235824  -0.002960
 618  12   6.295309   2.896432   7.698871   0.000307   0.252537   0.001215
 619  12   6.034330   1.796742   7.549213  -0.000371   0.504980  -0.000735
 620  12   5.858547   0.739294   6.665111  -0.000380   0.504980  -0.000753
 621   8   4.717257   2.843555   7.521749  -0.000166   0.504980  -0.000328
 622   8   4.444133   1.565351   7.050228  -0.000577   0.504980  -0.001143
 623   8   4.359077   0.864629   6.154918   0.000010   0.252537   0.000039
 624  13   2.450995   0.778290  -0.255043  -0.000240   0.243604  -0.000983
 625  13   2.217264   0.132860   0.591054  -0.001384   0.487033  -0.002842
 626  13   2.067484  -0.021660   1.904640  -0.001176   0.487033  -0.002415
 627   9   3.858367   0.133844   0.176983  -0.000504   0.487033  -0.001035
 628   9   3.617128  -0.428607   1.359046  -0.000756   0.487033  -0.001553
 629   9   3.548521  -0.337542   2.442601  -0.000059   0.243604  -0.000241
 630  15   8.302564  -1.470425   2.854413   0.000017   0.251078   0.000068
 631  15   8.397375  -1.538248   1.740003  -0.000589   0.502003  -0.001173
 632  15   8.657703  -0.909158   0.554884  -0.000113   0.502003  -0.000224
 633   9   6.825983  -1.182158   2.281238  -0.000372   0.502003  -0.000741
 634   9   7.004035  -0.982255   0.940951  -0.000399   0.502003  -0.000795
 635   9   7.247466  -0.274806   0.106832   0.000247   0.251078   0.000986
 636  14   4.083902   6.795761  -0.371295  -0.000309   0.255303  -0.001209
 637  14   4.007323   6.074801  -1.284657  -0.001372   0.510587  -0.002686
 638  14   3.736325   4.760634  -1.747976  -0.001121   0.510587  -0.002195
 639  10   5.514286   6.188402  -0.581087  -0.000778   0.510587  -0.001523
 640  10   5.345701   5.099674  -1.476290  -0.000788   0.510587  -0.001543
 641  10   5.083918   3.971032  -1.608636   0.000106   0.255303   0.000415
 642  16   9.768113   3.030058  -1.111920   0.000265   0.250343   0.001059
 643  16   9.986457   4.122955  -0.936479  -0.000546   0.500571  -0.001090
 644  16  10.113824   5.160657  -0.042127  -0.000498   0.500571  -0.000995
 645  10   8.366440   3.774920  -1.237555  -0.000173   0.500571  -0.000346
 646  10   8.586963   5.039435  -0.742291  -0.000518   0.500571  -0.001035
 647  10   8.636988   5.722513   0.154247   0.000043   0.250343   0.000170
 =====================================================

              3173564  WORDS OF DYNAMIC MEMORY USED
 EXECUTION OF GAMESS TERMINATED NORMALLY Fri Nov 25 04:56:02 2016
 DDI: 263640 bytes (0.3 MB / 0 MWords) used by master data server.

 ----------------------------------------
 CPU timing information for all processes
 ========================================
 0: 852.168 + 0.372 = 852.540
 ----------------------------------------
 ddikick.x: exited gracefully.
