----- GAMESS execution script -----

          ******************************************************
          *         GAMESS VERSION =  5 DEC 2014 (R1)          *
          *             FROM IOWA STATE UNIVERSITY             *
          * M.W.SCHMIDT, K.K.BALDRIDGE, J.A.BOATZ, S.T.ELBERT, *
          *   M.S.GORDON, J.H.JENSEN, S.KOSEKI, N.MATSUNAGA,   *
          *          K.A.NGUYEN, S.J.SU, T.L.WINDUS,           *
          *       TOGETHER WITH M.DUPUIS, J.A.MONTGOMERY       *
          *         J.COMPUT.CHEM.  14, 1347-1363(1993)        *
          **************** 64 BIT LINUX VERSION ****************

 EXECUTION OF GAMESS BEGUN Fri Nov 25 04:44:50 2016

            ECHO OF THE FIRST FEW INPUT CARDS -
 INPUT CARD>! SELECT RESTRICTED HARTREE-FOCK AS DEFAULT                                     
 INPUT CARD>$contrl scftyp=rhf $end                                                         
 INPUT CARD>                                                                                
 INPUT CARD>! THEORY: HF OR DFT                                                             
 INPUT CARD> $contrl mplevl=0 $end                                                          
 INPUT CARD>                                                                                
 INPUT CARD> $system timlim=10000 mwords=20 $end                                            
 INPUT CARD> $SCF DIRSCF=.TRUE. $end                                                        
 INPUT CARD>                                                                                
 INPUT CARD>                                                                                
 INPUT CARD>! BASIS SETS                                                                    
 INPUT CARD>! 6-311G(d,p)                                                                   
 INPUT CARD> $BASIS GBASIS=N311 NGAUSS=6 NDFUNC=1 NPFUNC=1 $END                             
 INPUT CARD>                                                                                
 INPUT CARD>! One of the following                                                          
 INPUT CARD> $guess guess=HUCKEL $end                                                       
 INPUT CARD>                                                                                
 INPUT CARD> $statpt projct=.FALSE. $end                                                    
 INPUT CARD> $STATPT IFREEZ(1)=1,2,3 $END                                                   
 INPUT CARD>                                                                                
 INPUT CARD>! Optimize the geometry with COSMO effects                                      
 INPUT CARD> $statpt opttol=0.0005 nstep=50 $end                                            
 INPUT CARD> $contrl nzvar=1 $end                                                           
 INPUT CARD> $zmat dlc=.t. auto=.t. $end                                                    
 INPUT CARD> $contrl runtyp=OPTIMIZE maxit=200 $end                                         
 INPUT CARD>                                                                                
 INPUT CARD>! Run COSMO on perfect conductor                                                
 INPUT CARD> $COSGMS PRFCND=.TRUE. $end                                                     
 INPUT CARD>                                                                                
 INPUT CARD>! Specifying RSOLV                                                              
 INPUT CARD> $COSGMS COSRAD = 1.4 $end                                                      
 INPUT CARD>                                                                                
 INPUT CARD>! available memory                                                              
 INPUT CARD> $SYSTEM MWORDS=40 $END                                                         
 INPUT CARD>                                                                                
 INPUT CARD> $DATA                                                                          
 INPUT CARD>9387 perfluorooctane (http://www.chemspider.com/)                               
 INPUT CARD>C1                                                                              
 INPUT CARD>F      9.0      1.2782000000    0.6219000000    1.0905000000                    
 INPUT CARD>F      9.0      1.2782000000    0.6219000000   -1.0905000000                    
 INPUT CARD>F      9.0     -1.2782000000   -0.6219000000   -1.0905000000                    
 INPUT CARD>F      9.0     -1.2782000000   -0.6219000000    1.0905000000                    
 INPUT CARD>F      9.0      0.9281000000   -2.1932000000   -1.0929000000                    
 INPUT CARD>F      9.0      0.9281000000   -2.1932000000    1.0929000000                    
 INPUT CARD>F      9.0     -0.9281000000    2.1932000000    1.0929000000                    
 INPUT CARD>F      9.0     -0.9281000000    2.1932000000   -1.0929000000                    
 INPUT CARD>F      9.0      3.5019000000   -0.9708000000   -1.0930000000                    
 INPUT CARD>F      9.0      3.5019000000   -0.9708000000    1.0930000000                    
 INPUT CARD>F      9.0     -3.5019000000    0.9708000000    1.0930000000                    
 INPUT CARD>F      9.0     -3.5019000000    0.9708000000   -1.0930000000                    
   40000000 WORDS OF MEMORY AVAILABLE

     BASIS OPTIONS
     -------------
     GBASIS=N311         IGAUSS=       6      POLAR=POPN311 
     NDFUNC=       1     NFFUNC=       0     DIFFSP=       F
     NPFUNC=       1      DIFFS=       F     BASNAM=        


     RUN TITLE
     ---------
 9387 perfluorooctane (http://www.chemspider.com/)                               

 THE POINT GROUP OF THE MOLECULE IS C1      
 THE ORDER OF THE PRINCIPAL AXIS IS     0

 ATOM      ATOMIC                      COORDINATES (BOHR)
           CHARGE         X                   Y                   Z
 F           9.0     2.4154477575        1.1752205918        2.0607461896
 F           9.0     2.4154477575        1.1752205918       -2.0607461896
 F           9.0    -2.4154477575       -1.1752205918       -2.0607461896
 F           9.0    -2.4154477575       -1.1752205918        2.0607461896
 F           9.0     1.7538546892       -4.1445470363       -2.0652815320
 F           9.0     1.7538546892       -4.1445470363        2.0652815320
 F           9.0    -1.7538546892        4.1445470363        2.0652815320
 F           9.0    -1.7538546892        4.1445470363       -2.0652815320
 F           9.0     6.6176314364       -1.8345459889       -2.0654705046
 F           9.0     6.6176314364       -1.8345459889        2.0654705046
 F           9.0    -6.6176314364        1.8345459889        2.0654705046
 F           9.0    -6.6176314364        1.8345459889       -2.0654705046
 F           9.0     9.3316559000       -5.7956006317       -0.0000000000
 F           9.0     6.0286038460       -7.1735888220        2.0887141342
 F           9.0     6.0286038460       -7.1735888220       -2.0887141342
 F           9.0    -9.3316559000        5.7956006317        0.0000000000
 F           9.0    -6.0286038460        7.1735888220       -2.0887141342
 F           9.0    -6.0286038460        7.1735888220        2.0887141342
 C           6.0     1.4832459278       -0.1137615045        0.0000000000
 C           6.0    -1.4832459278        0.1137615045       -0.0000000000
 C           6.0     2.6618680263       -2.8434706937       -0.0000000000
 C           6.0    -2.6618680263        2.8434706937        0.0000000000
 C           6.0     5.6191002245       -3.0704267849       -0.0000000000
 C           6.0    -5.6191002245        3.0704267849        0.0000000000
 C           6.0     6.7334716395       -5.7997580289        0.0000000000
 C           6.0    -6.7334716395        5.7997580289       -0.0000000000

          INTERNUCLEAR DISTANCES (ANGS.)




     $CONTRL OPTIONS
     ---------------
 SCFTYP=RHF          RUNTYP=OPTIMIZE     EXETYP=RUN     
 MPLEVL=       0     CITYP =NONE         CCTYP =NONE         VBTYP =NONE    
 DFTTYP=NONE         TDDFT =NONE    
 MULT  =       1     ICHARG=       0     NZVAR =       1     COORD =UNIQUE  
 PP    =NONE         RELWFN=NONE         LOCAL =NONE         NUMGRD=       F
 ISPHER=      -1     NOSYM =       0     MAXIT =     200     UNITS =ANGS    
 PLTORB=       F     MOLPLT=       F     AIMPAC=       F     FRIEND=        
 NPRINT=       7     IREST =       0     GEOM  =INPUT   
 NORMF =       0     NORMP =       0     ITOL  =      20     ICUT  =       9
 INTTYP=BEST         GRDTYP=BEST         QMTTOL= 1.0E-06

     $SYSTEM OPTIONS
     ---------------
  REPLICATED MEMORY=    40000000 WORDS (ON EVERY NODE).
 DISTRIBUTED MEMDDI=           0 MILLION WORDS IN AGGREGATE,
 MEMDDI DISTRIBUTED OVER   1 PROCESSORS IS           0 WORDS/PROCESSOR.
 TOTAL MEMORY REQUESTED ON EACH PROCESSOR=    40000000 WORDS.
 TIMLIM=       10000.00 MINUTES, OR       6.9 DAYS.
 PARALL= F  BALTYP=  DLB     KDIAG=    0  COREFL= F
 MXSEQ2=     300 MXSEQ3=     150  mem10=         0

     $COSGMS OPTIONS
     ---------------
     EPSI  =   INFTY     NSPA  =      92     COSRAD=    1.40
     DISEX =   10.00     OUTCHG=DBLCAV       COSBUG=       F
     COSWRT=       F     DCOSMO=       F

     SYMMETRY COORDINATES WILL NOT BE USED FOR 
     THE COSMO CALCULATION, EVEN IF SPECIFIED:
         -- SWITCHING TO C1 POINT GROUP --


     DEFINITION OF CAVITY
     ---------------------------
     ATOM         COORDINATES           RADIUS 
     1    2.4154    1.1752    2.0607    1.7200
     2    2.4154    1.1752   -2.0607    1.7200
     3   -2.4154   -1.1752   -2.0607    1.7200
     4   -2.4154   -1.1752    2.0607    1.7200
     5    1.7539   -4.1445   -2.0653    1.7200
     6    1.7539   -4.1445    2.0653    1.7200
     7   -1.7539    4.1445    2.0653    1.7200
     8   -1.7539    4.1445   -2.0653    1.7200
     9    6.6176   -1.8345   -2.0655    1.7200
    10    6.6176   -1.8345    2.0655    1.7200
    11   -6.6176    1.8345    2.0655    1.7200
    12   -6.6176    1.8345   -2.0655    1.7200
    13    9.3317   -5.7956   -0.0000    1.7200
    14    6.0286   -7.1736    2.0887    1.7200
    15    6.0286   -7.1736   -2.0887    1.7200
    16   -9.3317    5.7956    0.0000    1.7200
    17   -6.0286    7.1736   -2.0887    1.7200
    18   -6.0286    7.1736    2.0887    1.7200
    19    1.4832   -0.1138    0.0000    2.0000
    20   -1.4832    0.1138   -0.0000    2.0000
    21    2.6619   -2.8435   -0.0000    2.0000
    22   -2.6619    2.8435    0.0000    2.0000
    23    5.6191   -3.0704   -0.0000    2.0000
    24   -5.6191    3.0704    0.0000    2.0000
    25    6.7335   -5.7998    0.0000    2.0000
    26   -6.7335    5.7998   -0.0000    2.0000

          ----------------
          PROPERTIES INPUT
          ----------------

     MOMENTS            FIELD           POTENTIAL          DENSITY
 IEMOM =       1   IEFLD =       0   IEPOT =       0   IEDEN =       0
 WHERE =COMASS     WHERE =NUCLEI     WHERE =NUCLEI     WHERE =NUCLEI  
 OUTPUT=BOTH       OUTPUT=BOTH       OUTPUT=BOTH       OUTPUT=BOTH    
 IEMINT=       0   IEFINT=       0                     IEDINT=       0
                                                       MORB  =       0
          EXTRAPOLATION IN EFFECT
          SOSCF IN EFFECT
 ORBITAL PRINTING OPTION: NPREO=     1   494     2     1

     -------------------------------
     INTEGRAL TRANSFORMATION OPTIONS
     -------------------------------
     NWORD  =            0
     CUTOFF = 1.0E-09     MPTRAN =       0
     DIRTRF =       T     AOINTS =DUP     

          ----------------------
          INTEGRAL INPUT OPTIONS
          ----------------------
 NOPK  =       1 NORDER=       0 SCHWRZ=       T


 -----------------------------------------------
  STATISTICS ON AUTOMATIC COORDINATE GENERATION 
 -----------------------------------------------
  NUMBER OF USER SPECIFIED BONDS                             0
  NUMBER OF BONDS                                           25
  NUMBER OF ANGLES                                          48
  NUMBER OF TORSIONS                                        63
  NUMBER OF EXTRA COORD.                                     0
  NUMBER OF EXTRA COORD. FOR CONSTRAINTS                     0
  NUMBER OF CONSTRAINED COORD.                               0

  TOTAL NUMBER OF PRIMITIVES                               136
 -----------------------------------------------

   --- ENCODED Z MATRIX ---
 COORD  TYPE   I   J   K   L   M   N
    1      1    1  19
    2      1    2  19
    3      1    3  20
    4      1    4  20
    5      1    5  21
    6      1    6  21
    7      1    7  22
    8      1    8  22
    9      1    9  23
   10      1   10  23
   11      1   11  24
   12      1   12  24
   13      1   13  25
   14      1   14  25
   15      1   15  25
   16      1   16  26
   17      1   17  26
   18      1   18  26
   19      1   19  20
   20      1   19  21
   21      1   20  22
   22      1   21  23
   23      1   22  24
   24      1   23  25
   25      1   24  26
   26      2    1  19  20
   27      2    1  19   2
   28      2    1  19  21
   29      2    2  19  21
   30      2    2  19  20
   31      2    3  20  22
   32      2    3  20  19
   33      2    3  20   4
   34      2    4  20  22
   35      2    4  20  19
   36      2    5  21  23
   37      2    5  21  19
   38      2    5  21   6
   39      2    6  21  23
   40      2    6  21  19
   41      2    7  22  24
   42      2    7  22  20
   43      2    7  22   8
   44      2    8  22  24
   45      2    8  22  20
   46      2    9  23  25
   47      2    9  23  21
   48      2    9  23  10
   49      2   10  23  25
   50      2   10  23  21
   51      2   11  24  26
   52      2   11  24  22
   53      2   11  24  12
   54      2   12  24  26
   55      2   12  24  22
   56      2   13  25  14
   57      2   13  25  23
   58      2   13  25  15
   59      2   14  25  23
   60      2   14  25  15
   61      2   15  25  23
   62      2   16  26  24
   63      2   16  26  18
   64      2   16  26  17
   65      2   17  26  24
   66      2   17  26  18
   67      2   18  26  24
   68      2   19  21  23
   69      2   19  20  22
   70      2   20  22  24
   71      2   20  19  21
   72      2   21  23  25
   73      2   22  24  26
   74      3    1  19  20  22
   75      3    1  19  20   3
   76      3    1  19  21  23
   77      3    1  19  20   4
   78      3    1  19  21   6
   79      3    1  19  21   5
   80      3    2  19  21   5
   81      3    2  19  20  22
   82      3    2  19  20   4
   83      3    2  19  20   3
   84      3    2  19  21  23
   85      3    2  19  21   6
   86      3    3  20  22  24
   87      3    3  20  22   8
   88      3    3  20  22   7
   89      3    3  20  19  21
   90      3    4  20  19  21
   91      3    4  20  22  24
   92      3    4  20  22   8
   93      3    4  20  22   7
   94      3    5  21  19  20
   95      3    5  21  23  25
   96      3    5  21  23  10
   97      3    5  21  23   9
   98      3    6  21  23   9
   99      3    6  21  19  20
  100      3    6  21  23  25
  101      3    6  21  23  10
  102      3    7  22  20  19
  103      3    7  22  24  26
  104      3    7  22  24  12
  105      3    7  22  24  11
  106      3    8  22  20  19
  107      3    8  22  24  26
  108      3    8  22  24  12
  109      3    8  22  24  11
  110      3    9  23  21  19
  111      3    9  23  25  15
  112      3    9  23  25  14
  113      3    9  23  25  13
  114      3   10  23  21  19
  115      3   10  23  25  15
  116      3   10  23  25  14
  117      3   10  23  25  13
  118      3   11  24  26  18
  119      3   11  24  26  17
  120      3   11  24  26  16
  121      3   11  24  22  20
  122      3   12  24  22  20
  123      3   12  24  26  18
  124      3   12  24  26  17
  125      3   12  24  26  16
  126      3   13  25  23  21
  127      3   14  25  23  21
  128      3   15  25  23  21
  129      3   16  26  24  22
  130      3   17  26  24  22
  131      3   18  26  24  22
  132      3   19  20  22  24
  133      3   19  21  23  25
  134      3   20  22  24  26
  135      3   20  19  21  23
  136      3   21  19  20  22

          INDEP./SYM. INTERNAL COORDINATES
          --------------------------------
 CRD  1=   0.1347 ( 26)  0.1313 ( 28)  0.1313 ( 29)  0.1347 ( 30) -0.1313 ( 31)
          -0.1347 ( 32) -0.1313 ( 34) -0.1347 ( 35) -0.1010 ( 36) -0.1083 ( 37)
          -0.1010 ( 39) -0.1083 ( 40)  0.1010 ( 41)  0.1083 ( 42)  0.1010 ( 44)
           0.1083 ( 45)  0.3396 ( 68)  0.4289 ( 69) -0.3396 ( 70) -0.4289 ( 71)
          -0.1991 ( 72)  0.1991 ( 73)
 CRD  2=  -0.1356 ( 20) -0.1356 ( 21)  0.1235 ( 46)  0.1242 ( 47)  0.1235 ( 49)
           0.1242 ( 50)  0.1235 ( 51)  0.1242 ( 52)  0.1235 ( 54)  0.1242 ( 55)
           0.3033 ( 68) -0.2280 ( 69)  0.3033 ( 70) -0.2280 ( 71) -0.3963 ( 72)
          -0.3963 ( 73)
 CRD  3=   0.1147 ( 28) -0.1147 ( 29) -0.1147 ( 31)  0.1147 ( 34)  0.1788 ( 74)
           0.1788 ( 81)  0.1788 ( 89)  0.1788 ( 90) -0.1254 ( 94) -0.1254 ( 99)
          -0.1254 (102) -0.1254 (106)  0.1492 (110)  0.1492 (114)  0.1492 (121)
           0.1492 (122) -0.2670 (132)  0.2538 (133)  0.2538 (134) -0.2670 (135)
           0.3823 (136)
 CRD  4=  -0.3563 ( 19) -0.3119 ( 20) -0.3119 ( 21) -0.2512 ( 22) -0.2512 ( 23)
          -0.1563 ( 24) -0.1563 ( 25)  0.1350 ( 36)  0.1350 ( 39)  0.1350 ( 41)
           0.1350 ( 44) -0.3546 ( 68) -0.1553 ( 69) -0.3546 ( 70) -0.1553 ( 71)
 CRD  5=  -0.1752 ( 26)  0.1263 ( 28) -0.1263 ( 29)  0.1752 ( 30) -0.1263 ( 31)
           0.1752 ( 32)  0.1263 ( 34) -0.1752 ( 35)  0.1349 ( 36) -0.1146 ( 37)
          -0.1349 ( 39)  0.1146 ( 40) -0.1349 ( 41)  0.1146 ( 42)  0.1349 ( 44)
          -0.1146 ( 45)  0.1079 ( 47) -0.1079 ( 50) -0.1079 ( 52)  0.1079 ( 55)
           0.1387 ( 76)  0.1387 ( 84)  0.1387 ( 86)  0.1387 ( 91)  0.1830 ( 94)
           0.1830 ( 99)  0.1830 (102)  0.1830 (106)  0.1057 (127)  0.1057 (128)
           0.1057 (130)  0.1057 (131)  0.2685 (132)  0.1002 (133)  0.1002 (134)
           0.2685 (135)  0.1194 (136)
 CRD  6=   0.1128 ( 24) -0.1128 ( 25) -0.1465 ( 46) -0.1381 ( 47) -0.1465 ( 49)
          -0.1381 ( 50)  0.1465 ( 51)  0.1381 ( 52)  0.1465 ( 54)  0.1381 ( 55)
          -0.1273 ( 57)  0.1111 ( 59)  0.1111 ( 61)  0.1273 ( 62) -0.1111 ( 65)
          -0.1111 ( 67)  0.2658 ( 69) -0.2658 ( 71)  0.4471 ( 72) -0.4471 ( 73)
 CRD  7=  -0.2096 ( 20)  0.2096 ( 21) -0.2607 ( 22)  0.2607 ( 23) -0.1853 ( 24)
           0.1853 ( 25)  0.1641 ( 26)  0.1641 ( 30) -0.1641 ( 32) -0.1641 ( 35)
           0.1053 ( 36)  0.1120 ( 37)  0.1053 ( 39)  0.1120 ( 40) -0.1053 ( 41)
          -0.1120 ( 42) -0.1053 ( 44) -0.1120 ( 45) -0.3418 ( 68)  0.2274 ( 69)
           0.3418 ( 70) -0.2274 ( 71)  0.1107 ( 75) -0.1107 ( 82)
 CRD  8=  -0.1889 ( 19)  0.1128 ( 24)  0.1128 ( 25)  0.1711 ( 28)  0.1711 ( 29)
           0.1711 ( 31)  0.1711 ( 34) -0.1332 ( 37) -0.1332 ( 40) -0.1332 ( 42)
          -0.1332 ( 45) -0.1076 ( 46) -0.1076 ( 49) -0.1076 ( 51) -0.1076 ( 54)
          -0.1070 ( 57)  0.1036 ( 59)  0.1036 ( 61) -0.1070 ( 62)  0.1036 ( 65)
           0.1036 ( 67)  0.1717 ( 68) -0.3377 ( 69)  0.1717 ( 70) -0.3377 ( 71)
           0.2980 ( 72)  0.2980 ( 73)
 CRD  9=   0.1092 ( 37) -0.1092 ( 40)  0.1092 ( 42) -0.1092 ( 45)  0.1183 ( 46)
          -0.1183 ( 49)  0.1183 ( 51) -0.1183 ( 54) -0.2839 ( 59)  0.2839 ( 61)
          -0.2839 ( 65)  0.2839 ( 67) -0.1674 ( 95) -0.1674 (100)  0.1674 (103)
           0.1674 (107) -0.1480 (110) -0.1480 (114)  0.1480 (121)  0.1480 (122)
           0.1310 (126) -0.1310 (129) -0.3013 (133)  0.3013 (134)
 CRD 10=  -0.1896 ( 36)  0.1009 ( 37)  0.1896 ( 39) -0.1009 ( 40) -0.1896 ( 41)
           0.1009 ( 42)  0.1896 ( 44) -0.1009 ( 45)  0.1245 ( 46) -0.2155 ( 47)
          -0.1245 ( 49)  0.2155 ( 50)  0.1245 ( 51) -0.2155 ( 52) -0.1245 ( 54)
           0.2155 ( 55) -0.1998 ( 76) -0.1998 ( 84)  0.1998 ( 86)  0.1998 ( 91)
          -0.1966 (126) -0.1945 (127) -0.1945 (128)  0.1966 (129)  0.1945 (130)
           0.1945 (131)  0.2224 (132) -0.2224 (135)
 CRD 11=   0.1016 ( 28) -0.1016 ( 29) -0.1016 ( 31)  0.1016 ( 34)  0.1381 ( 46)
          -0.1381 ( 49) -0.1381 ( 51)  0.1381 ( 54)  0.1343 ( 56) -0.1343 ( 58)
          -0.3594 ( 59)  0.3594 ( 61)  0.1343 ( 63) -0.1343 ( 64)  0.3594 ( 65)
          -0.3594 ( 67)  0.1155 ( 74)  0.1155 ( 81)  0.1155 ( 89)  0.1155 ( 90)
          -0.1360 ( 95) -0.1360 (100) -0.1360 (103) -0.1360 (107)  0.2092 (136)
 CRD 12=  -0.1379 ( 19)  0.3641 ( 24)  0.3641 ( 25)  0.1324 ( 46)  0.1324 ( 49)
           0.1324 ( 51)  0.1324 ( 54) -0.1979 ( 56)  0.3872 ( 57) -0.1979 ( 58)
           0.3872 ( 62) -0.1979 ( 63) -0.1979 ( 64)
 CRD 13=  -0.3451 ( 24)  0.3451 ( 25) -0.1253 ( 46) -0.1253 ( 49)  0.1253 ( 51)
           0.1253 ( 54)  0.1994 ( 56) -0.4149 ( 57)  0.1994 ( 58)  0.4149 ( 62)
          -0.1994 ( 63) -0.1994 ( 64)  0.1170 ( 68) -0.1170 ( 70)
 CRD 14=   0.2484 ( 19) -0.2734 ( 20) -0.2734 ( 21)  0.2928 ( 22)  0.2928 ( 23)
           0.1152 ( 26) -0.1008 ( 28) -0.1008 ( 29)  0.1152 ( 30) -0.1008 ( 31)
           0.1152 ( 32) -0.1008 ( 34)  0.1152 ( 35)  0.1407 ( 36) -0.1171 ( 37)
           0.1407 ( 39) -0.1171 ( 40)  0.1407 ( 41) -0.1171 ( 42)  0.1407 ( 44)
          -0.1171 ( 45)  0.1930 ( 57) -0.1124 ( 59)  0.1204 ( 60) -0.1124 ( 61)
           0.1930 ( 62) -0.1124 ( 65)  0.1204 ( 66) -0.1124 ( 67)  0.1088 ( 77)
           0.1171 ( 78) -0.1171 ( 80) -0.1088 ( 83) -0.1171 ( 87)  0.1171 ( 93)
 CRD 15=  -0.2056 ( 26)  0.1346 ( 28) -0.1346 ( 29)  0.2056 ( 30) -0.1346 ( 31)
           0.2056 ( 32)  0.1346 ( 34) -0.2056 ( 35) -0.1366 ( 36)  0.1366 ( 39)
           0.1366 ( 41) -0.1366 ( 44)  0.1426 ( 46) -0.2010 ( 47) -0.1426 ( 49)
           0.2010 ( 50) -0.1426 ( 51)  0.2010 ( 52)  0.1426 ( 54) -0.2010 ( 55)
           0.1205 ( 59) -0.1205 ( 61) -0.1205 ( 65)  0.1205 ( 67) -0.1058 ( 76)
          -0.1058 ( 84) -0.1058 ( 86) -0.1058 ( 91)  0.1709 ( 94)  0.1709 ( 99)
           0.1709 (102)  0.1709 (106) -0.1580 (126) -0.1558 (127) -0.1558 (128)
          -0.1580 (129) -0.1558 (130) -0.1558 (131)
 CRD 16=  -0.1404 ( 20)  0.1404 ( 21)  0.3461 ( 22) -0.3461 ( 23) -0.1693 ( 24)
           0.1693 ( 25)  0.1275 ( 36) -0.1020 ( 37)  0.1275 ( 39) -0.1020 ( 40)
          -0.1275 ( 41)  0.1020 ( 42) -0.1275 ( 44)  0.1020 ( 45) -0.1048 ( 46)
          -0.1048 ( 49)  0.1048 ( 51)  0.1048 ( 54)  0.1879 ( 57) -0.1884 ( 59)
           0.2101 ( 60) -0.1884 ( 61) -0.1879 ( 62)  0.1884 ( 65) -0.2101 ( 66)
           0.1884 ( 67)
 CRD 17=   0.1141 ( 26) -0.1795 ( 28)  0.1795 ( 29) -0.1141 ( 30) -0.1795 ( 31)
           0.1141 ( 32)  0.1795 ( 34) -0.1141 ( 35) -0.1061 ( 36)  0.1919 ( 37)
           0.1061 ( 39) -0.1919 ( 40) -0.1061 ( 41)  0.1919 ( 42)  0.1061 ( 44)
          -0.1919 ( 45) -0.1377 ( 46)  0.1318 ( 47)  0.1377 ( 49) -0.1318 ( 50)
          -0.1377 ( 51)  0.1318 ( 52)  0.1377 ( 54) -0.1318 ( 55)  0.2050 ( 59)
          -0.2050 ( 61)  0.2050 ( 65) -0.2050 ( 67)  0.1463 ( 74)  0.1463 ( 81)
          -0.1463 ( 89) -0.1463 ( 90) -0.1745 (110) -0.1745 (114)  0.1745 (121)
           0.1745 (122)
 CRD 18=   0.2261 ( 26) -0.2343 ( 28)  0.2343 ( 29) -0.2261 ( 30) -0.2343 ( 31)
           0.2261 ( 32)  0.2343 ( 34) -0.2261 ( 35)  0.1939 ( 36) -0.1742 ( 37)
          -0.1939 ( 39)  0.1742 ( 40)  0.1939 ( 41) -0.1742 ( 42) -0.1939 ( 44)
           0.1742 ( 45)  0.1050 ( 46) -0.1050 ( 49)  0.1050 ( 51) -0.1050 ( 54)
           0.1252 ( 74)  0.1127 ( 76)  0.1252 ( 81)  0.1127 ( 84) -0.1127 ( 86)
          -0.1252 ( 89) -0.1252 ( 90) -0.1127 ( 91) -0.1088 ( 94) -0.1088 ( 99)
           0.1088 (102)  0.1088 (106)
 CRD 19=   0.3350 ( 19) -0.2034 ( 20) -0.2034 ( 21) -0.1651 ( 22) -0.1651 ( 23)
           0.1870 ( 24)  0.1870 ( 25)  0.1210 ( 26) -0.1226 ( 28) -0.1226 ( 29)
           0.1210 ( 30) -0.1226 ( 31)  0.1210 ( 32) -0.1226 ( 34)  0.1210 ( 35)
          -0.1808 ( 57)  0.2020 ( 59) -0.2258 ( 60)  0.2020 ( 61) -0.1808 ( 62)
           0.2020 ( 65) -0.2258 ( 66)  0.2020 ( 67)  0.1021 ( 77) -0.1021 ( 83)
 CRD 20=  -0.1031 ( 26)  0.1031 ( 30)  0.1031 ( 32) -0.1031 ( 35) -0.2154 ( 36)
           0.2162 ( 37)  0.2154 ( 39) -0.2162 ( 40)  0.2154 ( 41) -0.2162 ( 42)
          -0.2154 ( 44)  0.2162 ( 45) -0.1810 ( 46)  0.1677 ( 47)  0.1810 ( 49)
          -0.1677 ( 50)  0.1810 ( 51) -0.1677 ( 52) -0.1810 ( 54)  0.1677 ( 55)
          -0.1093 ( 59)  0.1093 ( 61)  0.1093 ( 65) -0.1093 ( 67) -0.1152 ( 76)
          -0.1152 ( 84) -0.1152 ( 86) -0.1152 ( 91)  0.1076 ( 95)  0.1076 (100)
           0.1076 (103)  0.1076 (107) -0.1075 (110) -0.1075 (114) -0.1075 (121)
          -0.1075 (122)
 CRD 21=  -0.3676 ( 20)  0.3676 ( 21)  0.1456 ( 24) -0.1456 ( 25) -0.1168 ( 28)
          -0.1168 ( 29)  0.1168 ( 31)  0.1168 ( 34) -0.1211 ( 37) -0.1211 ( 40)
           0.1211 ( 42)  0.1211 ( 45) -0.1643 ( 57)  0.1771 ( 59) -0.1997 ( 60)
           0.1771 ( 61)  0.1643 ( 62) -0.1771 ( 65)  0.1997 ( 66) -0.1771 ( 67)
           0.1344 ( 75) -0.1344 ( 82)
 CRD 22=  -0.1200 (  5)  0.1200 (  6) -0.1200 (  7)  0.1200 (  8) -0.1002 ( 14)
           0.1002 ( 15) -0.1002 ( 17)  0.1002 ( 18)  0.1278 ( 26) -0.1059 ( 28)
           0.1059 ( 29) -0.1278 ( 30) -0.1059 ( 31)  0.1278 ( 32)  0.1059 ( 34)
          -0.1278 ( 35) -0.1484 ( 46)  0.1131 ( 47)  0.1484 ( 49) -0.1131 ( 50)
          -0.1484 ( 51)  0.1131 ( 52)  0.1484 ( 54) -0.1131 ( 55)  0.1637 ( 56)
          -0.1637 ( 58) -0.2489 ( 59)  0.2489 ( 61) -0.1637 ( 63)  0.1637 ( 64)
          -0.2489 ( 65)  0.2489 ( 67)  0.1234 ( 95)  0.1234 (100) -0.1234 (103)
          -0.1234 (107)  0.1639 (132)  0.1602 (133) -0.1602 (134) -0.1639 (135)
 CRD 23=   0.3595 ( 19) -0.2609 ( 22) -0.2609 ( 23)  0.1177 ( 26) -0.1113 ( 27)
           0.1177 ( 30)  0.1177 ( 32) -0.1113 ( 33)  0.1177 ( 35) -0.1181 ( 47)
           0.1203 ( 48) -0.1181 ( 50) -0.1181 ( 52)  0.1203 ( 53) -0.1181 ( 55)
           0.1499 ( 57) -0.1431 ( 59)  0.1677 ( 60) -0.1431 ( 61)  0.1499 ( 62)
          -0.1431 ( 65)  0.1677 ( 66) -0.1431 ( 67) -0.1460 ( 69) -0.1460 ( 71)
           0.1689 ( 72)  0.1689 ( 73)  0.1068 ( 79) -0.1068 ( 85) -0.1068 ( 88)
           0.1068 ( 92)
 CRD 24=  -0.1247 (  5) -0.1247 (  6)  0.1247 (  7)  0.1247 (  8) -0.2255 ( 20)
           0.2255 ( 21) -0.2731 ( 22)  0.2731 ( 23)  0.1474 ( 38) -0.1474 ( 43)
          -0.1281 ( 47)  0.1286 ( 48) -0.1281 ( 50)  0.1281 ( 52) -0.1286 ( 53)
           0.1281 ( 55)  0.1205 ( 57) -0.1022 ( 59)  0.1280 ( 60) -0.1022 ( 61)
          -0.1205 ( 62)  0.1022 ( 65) -0.1280 ( 66)  0.1022 ( 67)  0.2109 ( 68)
          -0.2109 ( 70)  0.1943 ( 72) -0.1943 ( 73)
 CRD 25=  -0.1322 (  1) -0.1322 (  2) -0.1322 (  3) -0.1322 (  4) -0.1105 (  5)
          -0.1105 (  6) -0.1105 (  7) -0.1105 (  8) -0.2527 ( 19) -0.2314 ( 20)
          -0.2314 ( 21) -0.1617 ( 22) -0.1617 ( 23) -0.1051 ( 26)  0.1627 ( 27)
          -0.1016 ( 28) -0.1016 ( 29) -0.1051 ( 30) -0.1016 ( 31) -0.1051 ( 32)
           0.1627 ( 33) -0.1016 ( 34) -0.1051 ( 35)  0.1361 ( 38)  0.1361 ( 43)
           0.2043 ( 68)  0.2476 ( 69)  0.2043 ( 70)  0.2476 ( 71)  0.1298 ( 72)
           0.1298 ( 73)
 CRD 26=   0.1443 (  1) -0.1443 (  2) -0.1443 (  3)  0.1443 (  4)  0.1662 (  9)
          -0.1662 ( 10) -0.1662 ( 11)  0.1662 ( 12) -0.1341 ( 56)  0.1341 ( 58)
           0.1451 ( 59) -0.1451 ( 61) -0.1341 ( 63)  0.1341 ( 64) -0.1451 ( 65)
           0.1451 ( 67)  0.1070 ( 74)  0.1070 ( 81)  0.1070 ( 89)  0.1070 ( 90)
          -0.1659 ( 95) -0.1659 (100) -0.1659 (103) -0.1659 (107) -0.1244 (110)
          -0.1244 (114) -0.1244 (121) -0.1244 (122)  0.1331 (126)  0.1331 (129)
          -0.1947 (133) -0.1947 (134)  0.1974 (136)
 CRD 27=  -0.1611 ( 26)  0.1403 ( 28) -0.1403 ( 29)  0.1611 ( 30) -0.1403 ( 31)
           0.1611 ( 32)  0.1403 ( 34) -0.1611 ( 35)  0.1176 ( 36) -0.1337 ( 37)
          -0.1176 ( 39)  0.1337 ( 40) -0.1176 ( 41)  0.1337 ( 42)  0.1176 ( 44)
          -0.1337 ( 45) -0.1497 ( 74) -0.2027 ( 75) -0.1083 ( 76) -0.2027 ( 77)
          -0.1542 ( 78) -0.1542 ( 79) -0.1542 ( 80) -0.1497 ( 81) -0.2027 ( 82)
          -0.2027 ( 83) -0.1083 ( 84) -0.1542 ( 85) -0.1083 ( 86) -0.1542 ( 87)
          -0.1542 ( 88) -0.1497 ( 89) -0.1497 ( 90) -0.1083 ( 91) -0.1542 ( 92)
          -0.1542 ( 93)
 CRD 28=   0.1035 (  1) -0.1035 (  2)  0.1035 (  3) -0.1035 (  4)  0.1052 ( 36)
          -0.1194 ( 37) -0.1052 ( 39)  0.1194 ( 40)  0.1052 ( 41) -0.1194 ( 42)
          -0.1052 ( 44)  0.1194 ( 45) -0.1017 ( 46)  0.1190 ( 47)  0.1017 ( 49)
          -0.1190 ( 50) -0.1017 ( 51)  0.1190 ( 52)  0.1017 ( 54) -0.1190 ( 55)
          -0.1044 ( 76) -0.1456 ( 78) -0.1456 ( 79) -0.1456 ( 80) -0.1044 ( 84)
          -0.1456 ( 85)  0.1044 ( 86)  0.1456 ( 87)  0.1456 ( 88)  0.1044 ( 91)
           0.1456 ( 92)  0.1456 ( 93) -0.1370 ( 94) -0.1253 ( 95) -0.1641 ( 96)
          -0.1641 ( 97) -0.1641 ( 98) -0.1370 ( 99) -0.1253 (100) -0.1641 (101)
           0.1370 (102)  0.1253 (103)  0.1641 (104)  0.1641 (105)  0.1370 (106)
           0.1253 (107)  0.1641 (108)  0.1641 (109)
 CRD 29=   0.1010 (  5) -0.1010 (  6) -0.1010 (  7)  0.1010 (  8) -0.1643 (  9)
           0.1643 ( 10)  0.1643 ( 11) -0.1643 ( 12) -0.1165 ( 46)  0.1165 ( 49)
           0.1165 ( 51) -0.1165 ( 54)  0.1193 ( 75)  0.1193 ( 77)  0.1193 ( 82)
           0.1193 ( 83) -0.1254 ( 96) -0.1254 ( 97) -0.1254 ( 98) -0.1254 (101)
          -0.1254 (104) -0.1254 (105) -0.1254 (108) -0.1254 (109) -0.1380 (111)
          -0.1380 (112) -0.1828 (113) -0.1380 (115) -0.1380 (116) -0.1828 (117)
          -0.1380 (118) -0.1380 (119) -0.1828 (120) -0.1380 (123) -0.1380 (124)
          -0.1828 (125) -0.1979 (126) -0.1532 (127) -0.1532 (128) -0.1979 (129)
          -0.1532 (130) -0.1532 (131)
 CRD 30=   0.1388 (  1) -0.1388 (  2)  0.1388 (  3) -0.1388 (  4) -0.1184 (  5)
           0.1184 (  6) -0.1184 (  7)  0.1184 (  8)  0.2361 (  9) -0.2361 ( 10)
           0.2361 ( 11) -0.2361 ( 12)  0.1007 ( 46) -0.1007 ( 49)  0.1007 ( 51)
          -0.1007 ( 54)  0.1012 (111)  0.1012 (112)  0.1728 (113)  0.1012 (115)
           0.1012 (116)  0.1728 (117) -0.1012 (118) -0.1012 (119) -0.1728 (120)
          -0.1012 (123) -0.1012 (124) -0.1728 (125)  0.2257 (126)  0.1541 (127)
           0.1541 (128) -0.2257 (129) -0.1541 (130) -0.1541 (131)  0.1071 (132)
          -0.1071 (135)
 CRD 31=  -0.3139 ( 13) -0.3026 ( 14) -0.3026 ( 15)  0.3139 ( 16)  0.3026 ( 17)
           0.3026 ( 18) -0.1894 ( 24)  0.1894 ( 25) -0.1782 ( 56)  0.1674 ( 57)
          -0.1782 ( 58)  0.1340 ( 59) -0.1258 ( 60)  0.1340 ( 61) -0.1674 ( 62)
           0.1782 ( 63)  0.1782 ( 64) -0.1340 ( 65)  0.1258 ( 66) -0.1340 ( 67)
 CRD 32=  -0.3148 ( 13) -0.3035 ( 14) -0.3035 ( 15) -0.3148 ( 16) -0.3035 ( 17)
          -0.3035 ( 18) -0.1906 ( 24) -0.1906 ( 25) -0.1779 ( 56)  0.1670 ( 57)
          -0.1779 ( 58)  0.1342 ( 59) -0.1264 ( 60)  0.1342 ( 61)  0.1670 ( 62)
          -0.1779 ( 63) -0.1779 ( 64)  0.1342 ( 65) -0.1264 ( 66)  0.1342 ( 67)
 CRD 33=  -0.1575 (  1)  0.1575 (  2)  0.1575 (  3) -0.1575 (  4) -0.3074 (  5)
           0.3074 (  6)  0.3074 (  7) -0.3074 (  8)  0.1568 (  9) -0.1568 ( 10)
          -0.1568 ( 11)  0.1568 ( 12) -0.1176 ( 14)  0.1176 ( 15)  0.1176 ( 17)
          -0.1176 ( 18) -0.1080 (111) -0.1080 (112) -0.1080 (115) -0.1080 (116)
          -0.1080 (118) -0.1080 (119) -0.1080 (123) -0.1080 (124)
 CRD 34=  -0.3556 (  1)  0.3556 (  2) -0.3556 (  3)  0.3556 (  4) -0.2526 (  5)
           0.2526 (  6) -0.2526 (  7)  0.2526 (  8)
 CRD 35=   0.3880 ( 13) -0.2377 ( 14) -0.2377 ( 15) -0.3880 ( 16)  0.2377 ( 17)
           0.2377 ( 18)  0.1169 ( 56)  0.1169 ( 58) -0.2428 ( 60) -0.1169 ( 63)
          -0.1169 ( 64)  0.2428 ( 66) -0.1355 (111)  0.1712 (112) -0.1712 (115)
           0.1355 (116) -0.1355 (118)  0.1712 (119) -0.1712 (123)  0.1355 (124)
           0.1533 (127) -0.1533 (128)  0.1533 (130) -0.1533 (131)
 CRD 36=  -0.3898 ( 13)  0.2367 ( 14)  0.2367 ( 15) -0.3898 ( 16)  0.2367 ( 17)
           0.2367 ( 18) -0.1170 ( 56) -0.1170 ( 58)  0.2426 ( 60) -0.1170 ( 63)
          -0.1170 ( 64)  0.2426 ( 66)  0.1359 (111) -0.1709 (112)  0.1709 (115)
          -0.1359 (116) -0.1359 (118)  0.1709 (119) -0.1709 (123)  0.1359 (124)
          -0.1534 (127)  0.1534 (128)  0.1534 (130) -0.1534 (131)
 CRD 37=   0.3523 ( 14) -0.3523 ( 15)  0.3523 ( 17) -0.3523 ( 18)  0.1923 ( 56)
          -0.1923 ( 58) -0.1923 ( 63)  0.1923 ( 64)  0.1045 (111)  0.1045 (112)
          -0.1430 (113)  0.1045 (115)  0.1045 (116) -0.1430 (117) -0.1045 (118)
          -0.1045 (119)  0.1430 (120) -0.1045 (123) -0.1045 (124)  0.1430 (125)
          -0.1404 (126)  0.1070 (127)  0.1070 (128)  0.1404 (129) -0.1070 (130)
          -0.1070 (131)
 CRD 38=  -0.1115 (  5)  0.1115 (  6)  0.1115 (  7) -0.1115 (  8)  0.1455 (  9)
          -0.1455 ( 10) -0.1455 ( 11)  0.1455 ( 12)  0.3467 ( 14) -0.3467 ( 15)
          -0.3467 ( 17)  0.3467 ( 18)  0.1788 ( 56) -0.1788 ( 58)  0.1788 ( 63)
          -0.1788 ( 64) -0.1691 (113) -0.1691 (117) -0.1691 (120) -0.1691 (125)
          -0.1419 (126) -0.1419 (129)
 CRD 39=  -0.1429 (  1)  0.1429 (  2) -0.1429 (  3)  0.1429 (  4)  0.1514 (  5)
          -0.1514 (  6)  0.1514 (  7) -0.1514 (  8) -0.1854 (  9)  0.1854 ( 10)
          -0.1854 ( 11)  0.1854 ( 12) -0.1765 ( 78) -0.1765 ( 79) -0.1765 ( 80)
          -0.1765 ( 85)  0.1765 ( 87)  0.1765 ( 88)  0.1765 ( 92)  0.1765 ( 93)
           0.1465 (111)  0.1465 (112)  0.1480 (113)  0.1465 (115)  0.1465 (116)
           0.1480 (117) -0.1465 (118) -0.1465 (119) -0.1480 (120) -0.1465 (123)
          -0.1465 (124) -0.1480 (125)
 CRD 40=  -0.2352 (  1) -0.2352 (  2) -0.2352 (  3) -0.2352 (  4) -0.2714 (  5)
          -0.2714 (  6) -0.2714 (  7) -0.2714 (  8) -0.2228 (  9) -0.2228 ( 10)
          -0.2228 ( 11) -0.2228 ( 12) -0.1074 ( 27) -0.1074 ( 33) -0.1237 ( 38)
          -0.1237 ( 43) -0.1036 ( 48) -0.1036 ( 53)  0.1031 ( 78) -0.1031 ( 80)
          -0.1031 ( 87)  0.1031 ( 93)
 CRD 41=  -0.1017 (  1) -0.1017 (  2)  0.1017 (  3)  0.1017 (  4) -0.2901 (  5)
          -0.2901 (  6)  0.2901 (  7)  0.2901 (  8) -0.2883 (  9) -0.2883 ( 10)
           0.2883 ( 11)  0.2883 ( 12) -0.1327 ( 38)  0.1327 ( 43) -0.1347 ( 48)
           0.1347 ( 53)  0.1149 ( 97) -0.1149 (101)  0.1149 (105) -0.1149 (108)
 CRD 42=  -0.3140 (  1) -0.3140 (  2) -0.3140 (  3) -0.3140 (  4)  0.2750 (  9)
           0.2750 ( 10)  0.2750 ( 11)  0.2750 ( 12) -0.1460 ( 27) -0.1460 ( 33)
           0.1295 ( 48)  0.1295 ( 53) -0.1258 ( 77)  0.1258 ( 83)
 CRD 43=  -0.2371 (  1) -0.2371 (  2)  0.2371 (  3)  0.2371 (  4) -0.1983 (  5)
          -0.1983 (  6)  0.1983 (  7)  0.1983 (  8)  0.2811 (  9)  0.2811 ( 10)
          -0.2811 ( 11) -0.2811 ( 12) -0.1113 ( 27)  0.1113 ( 33)  0.1331 ( 48)
          -0.1331 ( 53) -0.1109 ( 75)  0.1109 ( 82)  0.1101 ( 96) -0.1101 ( 98)
           0.1101 (104) -0.1101 (109)
 CRD 44=   0.1523 (  1)  0.1523 (  2)  0.1523 (  3)  0.1523 (  4) -0.3167 (  5)
          -0.3167 (  6) -0.3167 (  7) -0.3167 (  8)  0.2232 (  9)  0.2232 ( 10)
           0.2232 ( 11)  0.2232 ( 12) -0.1512 ( 38) -0.1512 ( 43)  0.1063 ( 48)
           0.1063 ( 53) -0.1086 ( 79)  0.1086 ( 85)  0.1086 ( 88) -0.1086 ( 92)
           0.1230 ( 96) -0.1230 ( 98) -0.1230 (104)  0.1230 (109)
 CRD 45=   0.3275 (  1)  0.3275 (  2) -0.3275 (  3) -0.3275 (  4) -0.2286 (  5)
          -0.2286 (  6)  0.2286 (  7)  0.2286 (  8)  0.1137 (  9)  0.1137 ( 10)
          -0.1137 ( 11) -0.1137 ( 12)  0.1574 ( 27) -0.1574 ( 33) -0.1099 ( 38)
           0.1099 ( 43)  0.1495 ( 75) -0.1284 ( 79) -0.1495 ( 82)  0.1284 ( 85)
          -0.1284 ( 88)  0.1284 ( 92)
 CRD 46=   0.1695 (  1) -0.1695 (  2) -0.1695 (  3)  0.1695 (  4)  0.1893 (  9)
          -0.1893 ( 10) -0.1893 ( 11)  0.1893 ( 12) -0.1017 ( 74) -0.1850 ( 75)
          -0.1850 ( 77) -0.1017 ( 81) -0.1850 ( 82) -0.1850 ( 83) -0.1017 ( 89)
          -0.1017 ( 90)  0.1131 ( 96)  0.1131 ( 97)  0.1131 ( 98)  0.1131 (101)
           0.1131 (104)  0.1131 (105)  0.1131 (108)  0.1131 (109) -0.1569 (111)
          -0.1569 (112) -0.1473 (113) -0.1569 (115) -0.1569 (116) -0.1473 (117)
          -0.1569 (118) -0.1569 (119) -0.1473 (120) -0.1569 (123) -0.1569 (124)
          -0.1473 (125)
 CRD 47=   0.2028 (  5) -0.2028 (  6)  0.2028 (  7) -0.2028 (  8)  0.2176 (  9)
          -0.2176 ( 10)  0.2176 ( 11) -0.2176 ( 12) -0.1076 ( 78) -0.1076 ( 79)
          -0.1076 ( 80) -0.1076 ( 85)  0.1076 ( 87)  0.1076 ( 88)  0.1076 ( 92)
           0.1076 ( 93)  0.1629 ( 96)  0.1629 ( 97)  0.1629 ( 98)  0.1629 (101)
          -0.1629 (104) -0.1629 (105) -0.1629 (108) -0.1629 (109) -0.1213 (111)
          -0.1213 (112) -0.1179 (113) -0.1213 (115) -0.1213 (116) -0.1179 (117)
           0.1213 (118)  0.1213 (119)  0.1179 (120)  0.1213 (123)  0.1213 (124)
           0.1179 (125)
 CRD 48=  -0.2359 (  1)  0.2359 (  2)  0.2359 (  3) -0.2359 (  4)  0.2104 (  5)
          -0.2104 (  6) -0.2104 (  7)  0.2104 (  8)  0.1550 (  9) -0.1550 ( 10)
          -0.1550 ( 11)  0.1550 ( 12)  0.1421 ( 75)  0.1421 ( 77) -0.1355 ( 78)
          -0.1355 ( 79) -0.1355 ( 80)  0.1421 ( 82)  0.1421 ( 83) -0.1355 ( 85)
          -0.1355 ( 87) -0.1355 ( 88) -0.1355 ( 92) -0.1355 ( 93)  0.1148 ( 96)
           0.1148 ( 97)  0.1148 ( 98)  0.1148 (101)  0.1148 (104)  0.1148 (105)
           0.1148 (108)  0.1148 (109)
 CRD 49=   0.1740 ( 13) -0.1740 ( 16)  0.1697 ( 26) -0.1747 ( 28) -0.1747 ( 29)
           0.1697 ( 30)  0.1747 ( 31) -0.1697 ( 32)  0.1747 ( 34) -0.1697 ( 35)
          -0.1509 ( 36)  0.1397 ( 37) -0.1509 ( 39)  0.1397 ( 40)  0.1509 ( 41)
          -0.1397 ( 42)  0.1509 ( 44) -0.1397 ( 45) -0.1130 ( 46) -0.1130 ( 49)
           0.1130 ( 51)  0.1130 ( 54)  0.1740 ( 75)  0.1581 ( 79) -0.1740 ( 82)
          -0.1581 ( 85)  0.1581 ( 88) -0.1581 ( 92)  0.1297 ( 96) -0.1297 ( 98)
           0.1297 (104) -0.1297 (109)
 CRD 50=   0.2685 ( 13)  0.1243 ( 14)  0.1243 ( 15)  0.2685 ( 16)  0.1243 ( 17)
           0.1243 ( 18) -0.1969 ( 19) -0.1486 ( 20) -0.1486 ( 21) -0.1185 ( 36)
           0.1382 ( 37) -0.1185 ( 39)  0.1382 ( 40) -0.1185 ( 41)  0.1382 ( 42)
          -0.1185 ( 44)  0.1382 ( 45) -0.1598 ( 46)  0.1338 ( 47) -0.1598 ( 49)
           0.1338 ( 50) -0.1598 ( 51)  0.1338 ( 52) -0.1598 ( 54)  0.1338 ( 55)
          -0.1090 ( 56)  0.1112 ( 57) -0.1090 ( 58)  0.1112 ( 62) -0.1090 ( 63)
          -0.1090 ( 64)  0.1520 ( 96) -0.1520 ( 98) -0.1520 (104)  0.1520 (109)
 CRD 51=   0.2640 ( 13)  0.1760 ( 14)  0.1760 ( 15) -0.2640 ( 16) -0.1760 ( 17)
          -0.1760 ( 18) -0.1966 ( 20)  0.1966 ( 21) -0.1876 ( 22)  0.1876 ( 23)
           0.1153 ( 28)  0.1153 ( 29) -0.1153 ( 31) -0.1153 ( 34) -0.1122 ( 46)
           0.1059 ( 47) -0.1122 ( 49)  0.1059 ( 50)  0.1122 ( 51) -0.1059 ( 52)
           0.1122 ( 54) -0.1059 ( 55) -0.1445 ( 56)  0.1335 ( 57) -0.1445 ( 58)
           0.1133 ( 59) -0.1099 ( 60)  0.1133 ( 61) -0.1335 ( 62)  0.1445 ( 63)
           0.1445 ( 64) -0.1133 ( 65)  0.1099 ( 66) -0.1133 ( 67) -0.1024 ( 75)
           0.1024 ( 82)
 CRD 52=  -0.1430 ( 13) -0.2090 ( 14) -0.2090 ( 15) -0.1430 ( 16) -0.2090 ( 17)
          -0.2090 ( 18) -0.2454 ( 19)  0.1677 ( 22)  0.1677 ( 23)  0.2740 ( 24)
           0.2740 ( 25) -0.1233 ( 36) -0.1233 ( 39) -0.1233 ( 41) -0.1233 ( 44)
           0.1239 ( 56) -0.1183 ( 57)  0.1239 ( 58) -0.1243 ( 59)  0.1579 ( 60)
          -0.1243 ( 61) -0.1183 ( 62)  0.1239 ( 63)  0.1239 ( 64) -0.1243 ( 65)
           0.1579 ( 66) -0.1243 ( 67)
 CRD 53=   0.1134 (  9)  0.1134 ( 10) -0.1134 ( 11) -0.1134 ( 12) -0.2005 ( 14)
          -0.2005 ( 15)  0.2005 ( 17)  0.2005 ( 18) -0.2153 ( 20)  0.2153 ( 21)
           0.2756 ( 24) -0.2756 ( 25) -0.1222 ( 48)  0.1222 ( 53)  0.1740 ( 60)
          -0.1740 ( 66) -0.1067 ( 75)  0.1067 ( 82) -0.1484 (112)  0.1484 (115)
          -0.1484 (119)  0.1484 (123)
 CRD 54=  -0.1977 (  5)  0.1977 (  6) -0.1977 (  7)  0.1977 (  8) -0.2406 (  9)
           0.2406 ( 10) -0.2406 ( 11)  0.2406 ( 12)  0.1893 ( 14) -0.1893 ( 15)
           0.1893 ( 17) -0.1893 ( 18)  0.1337 ( 96)  0.1337 ( 97)  0.1337 ( 98)
           0.1337 (101) -0.1337 (104) -0.1337 (105) -0.1337 (108) -0.1337 (109)
          -0.1213 (111) -0.1213 (112) -0.1213 (115) -0.1213 (116)  0.1213 (118)
           0.1213 (119)  0.1213 (123)  0.1213 (124)
 CRD 55=  -0.1666 (  1)  0.1666 (  2)  0.1666 (  3) -0.1666 (  4)  0.1914 (  5)
          -0.1914 (  6) -0.1914 (  7)  0.1914 (  8)  0.1974 (  9) -0.1974 ( 10)
          -0.1974 ( 11)  0.1974 ( 12) -0.1515 ( 14)  0.1515 ( 15)  0.1515 ( 17)
          -0.1515 ( 18) -0.1140 ( 75) -0.1140 ( 77)  0.1199 ( 78)  0.1199 ( 79)
           0.1199 ( 80) -0.1140 ( 82) -0.1140 ( 83)  0.1199 ( 85)  0.1199 ( 87)
           0.1199 ( 88)  0.1199 ( 92)  0.1199 ( 93) -0.1236 ( 96) -0.1236 ( 97)
          -0.1236 ( 98) -0.1236 (101) -0.1236 (104) -0.1236 (105) -0.1236 (108)
          -0.1236 (109)  0.1006 (111)  0.1006 (112)  0.1006 (115)  0.1006 (116)
           0.1006 (118)  0.1006 (119)  0.1006 (123)  0.1006 (124)
 CRD 56=   0.1523 (  9)  0.1523 ( 10)  0.1523 ( 11)  0.1523 ( 12)  0.2297 ( 13)
          -0.1355 ( 14) -0.1355 ( 15)  0.2297 ( 16) -0.1355 ( 17) -0.1355 ( 18)
           0.1711 ( 19) -0.2379 ( 22) -0.2379 ( 23) -0.1596 ( 48) -0.1596 ( 53)
           0.1326 ( 60)  0.1326 ( 66) -0.1066 ( 77)  0.1066 ( 83) -0.1097 ( 96)
           0.1097 ( 98)  0.1097 (104) -0.1097 (109) -0.1863 (112) -0.1016 (113)
           0.1863 (115)  0.1016 (117)  0.1863 (119)  0.1016 (120) -0.1863 (123)
          -0.1016 (125)
 CRD 57=  -0.1848 (  1) -0.1848 (  2)  0.1848 (  3)  0.1848 (  4)  0.1503 (  5)
           0.1503 (  6) -0.1503 (  7) -0.1503 (  8) -0.1035 ( 20)  0.1035 ( 21)
           0.1887 ( 24) -0.1887 ( 25)  0.1986 ( 27) -0.1986 ( 33) -0.1594 ( 38)
           0.1594 ( 43)  0.1610 ( 75) -0.1181 ( 76) -0.1663 ( 79) -0.1610 ( 82)
           0.1181 ( 84)  0.1663 ( 85) -0.1181 ( 86) -0.1663 ( 88)  0.1181 ( 91)
           0.1663 ( 92)  0.1006 ( 95)  0.1356 ( 96) -0.1356 ( 98) -0.1006 (100)
           0.1006 (103)  0.1356 (104) -0.1006 (107) -0.1356 (109)
 CRD 58=  -0.2471 (  1)  0.2471 (  2)  0.2471 (  3) -0.2471 (  4) -0.1379 (  9)
           0.1379 ( 10)  0.1379 ( 11) -0.1379 ( 12)  0.2146 ( 14) -0.2146 ( 15)
          -0.2146 ( 17)  0.2146 ( 18) -0.1074 ( 56)  0.1074 ( 58) -0.1074 ( 63)
           0.1074 ( 64) -0.1469 ( 75) -0.1469 ( 77) -0.1469 ( 82) -0.1469 ( 83)
           0.1709 (126)  0.1709 (129)  0.1253 (136)
 CRD 59=  -0.1228 (  1) -0.1228 (  2)  0.1228 (  3)  0.1228 (  4)  0.1119 (  9)
           0.1119 ( 10) -0.1119 ( 11) -0.1119 ( 12)  0.2524 ( 13) -0.2524 ( 16)
           0.2874 ( 20) -0.2874 ( 21) -0.2060 ( 22)  0.2060 ( 23) -0.1222 ( 24)
           0.1222 ( 25)  0.1292 ( 27) -0.1292 ( 33) -0.1174 ( 48)  0.1174 ( 53)
           0.1607 ( 75) -0.1607 ( 82) -0.1410 (112)  0.1410 (115) -0.1410 (119)
           0.1410 (123)
 CRD 60=   0.1643 (  5)  0.1643 (  6)  0.1643 (  7)  0.1643 (  8)  0.3088 ( 19)
          -0.1232 ( 20) -0.1232 ( 21) -0.2064 ( 22) -0.2064 ( 23)  0.2816 ( 24)
           0.2816 ( 25) -0.1743 ( 38) -0.1743 ( 43) -0.1550 ( 79)  0.1550 ( 85)
           0.1550 ( 88) -0.1550 ( 92)  0.1388 ( 96) -0.1388 ( 98) -0.1388 (104)
           0.1388 (109)
 CRD 61=   0.1184 (  1) -0.1184 (  2)  0.1184 (  3) -0.1184 (  4) -0.1845 (  5)
           0.1845 (  6) -0.1845 (  7)  0.1845 (  8) -0.2354 ( 14)  0.2354 ( 15)
          -0.2354 ( 17)  0.2354 ( 18)  0.1209 ( 56) -0.1209 ( 58) -0.1209 ( 63)
           0.1209 ( 64) -0.1613 (113) -0.1613 (117)  0.1613 (120)  0.1613 (125)
          -0.1862 (126)  0.1862 (129) -0.1600 (132) -0.1071 (133)  0.1071 (134)
           0.1600 (135)
 CRD 62=  -0.2377 ( 13) -0.2377 ( 16)  0.1839 ( 19) -0.1494 ( 20) -0.1494 ( 21)
           0.1912 ( 24)  0.1912 ( 25) -0.1077 ( 26)  0.1035 ( 28)  0.1035 ( 29)
          -0.1077 ( 30)  0.1035 ( 31) -0.1077 ( 32)  0.1035 ( 34) -0.1077 ( 35)
          -0.1023 ( 68) -0.1023 ( 70) -0.1975 ( 77)  0.1975 ( 83) -0.1241 ( 97)
           0.1241 (101)  0.1241 (105) -0.1241 (108) -0.1223 (111)  0.1223 (116)
           0.1223 (118) -0.1223 (124)  0.1032 (127) -0.1032 (128) -0.1032 (130)
           0.1032 (131)
 CRD 63=  -0.1043 ( 20)  0.1043 ( 21)  0.2662 ( 22) -0.2662 ( 23) -0.2662 ( 24)
           0.2662 ( 25) -0.1189 ( 36)  0.1068 ( 37) -0.1189 ( 39)  0.1068 ( 40)
           0.1189 ( 41) -0.1068 ( 42)  0.1189 ( 44) -0.1068 ( 45)  0.1018 ( 69)
          -0.1018 ( 71) -0.1903 ( 78)  0.1903 ( 80) -0.1903 ( 87)  0.1903 ( 93)
           0.1038 ( 94)  0.1018 ( 97) -0.1038 ( 99) -0.1018 (101)  0.1038 (102)
           0.1018 (105) -0.1038 (106) -0.1018 (108)
 CRD 64=   0.2237 ( 13) -0.2237 ( 16) -0.2093 ( 20)  0.2093 ( 21)  0.1518 ( 22)
          -0.1518 ( 23) -0.1292 ( 24)  0.1292 ( 25) -0.1056 ( 38)  0.1056 ( 43)
           0.1033 ( 46)  0.1033 ( 49) -0.1033 ( 51) -0.1033 ( 54) -0.1131 ( 57)
           0.1131 ( 62)  0.1069 ( 68) -0.1069 ( 70)  0.1138 ( 97) -0.1138 (101)
           0.1138 (105) -0.1138 (108)  0.1901 (111) -0.1901 (116)  0.1901 (118)
          -0.1901 (124) -0.1180 (127)  0.1180 (128) -0.1180 (130)  0.1180 (131)
 CRD 65=  -0.3744 ( 19)  0.3077 ( 20)  0.3077 ( 21) -0.2272 ( 22) -0.2272 ( 23)
           0.1868 ( 24)  0.1868 ( 25)  0.1075 ( 26) -0.1077 ( 28) -0.1077 ( 29)
           0.1075 ( 30) -0.1077 ( 31)  0.1075 ( 32) -0.1077 ( 34)  0.1075 ( 35)
           0.1071 ( 36) -0.1123 ( 37)  0.1071 ( 39) -0.1123 ( 40)  0.1071 ( 41)
          -0.1123 ( 42)  0.1071 ( 44) -0.1123 ( 45)  0.1203 ( 78) -0.1203 ( 80)
          -0.1203 ( 87)  0.1203 ( 93) -0.1321 ( 97)  0.1321 (101)  0.1321 (105)
          -0.1321 (108)
 CRD 66=  -0.1216 (  1) -0.1216 (  2) -0.1216 (  3) -0.1216 (  4)  0.1263 (  9)
           0.1263 ( 10)  0.1263 ( 11)  0.1263 ( 12) -0.1542 ( 13) -0.1542 ( 16)
           0.1332 ( 19)  0.1080 ( 20)  0.1080 ( 21) -0.1371 ( 22) -0.1371 ( 23)
           0.1305 ( 27)  0.1305 ( 33) -0.1353 ( 48) -0.1353 ( 53)  0.1341 ( 57)
           0.1341 ( 62) -0.1402 ( 69) -0.1402 ( 71)  0.1457 ( 72)  0.1457 ( 73)
           0.1906 ( 77) -0.1906 ( 83) -0.2011 (111)  0.2011 (116)  0.2011 (118)
          -0.2011 (124)  0.1034 (127) -0.1034 (128) -0.1034 (130)  0.1034 (131)
 CRD 67=  -0.1207 (  1)  0.1207 (  2)  0.1207 (  3) -0.1207 (  4) -0.1199 (  5)
           0.1199 (  6)  0.1199 (  7) -0.1199 (  8) -0.1183 (  9)  0.1183 ( 10)
           0.1183 ( 11) -0.1183 ( 12) -0.1767 ( 14)  0.1767 ( 15)  0.1767 ( 17)
          -0.1767 ( 18)  0.1011 ( 46) -0.1011 ( 49) -0.1011 ( 51)  0.1011 ( 54)
           0.1153 ( 59) -0.1153 ( 61) -0.1153 ( 65)  0.1153 ( 67) -0.1870 (113)
          -0.1870 (117) -0.1870 (120) -0.1870 (125)  0.1159 (127)  0.1159 (128)
           0.1159 (130)  0.1159 (131) -0.2106 (133) -0.2106 (134)  0.1903 (136)
 CRD 68=   0.1167 (  5)  0.1167 (  6) -0.1167 (  7) -0.1167 (  8)  0.1307 (  9)
           0.1307 ( 10) -0.1307 ( 11) -0.1307 ( 12) -0.1094 ( 20)  0.1094 ( 21)
          -0.1853 ( 22)  0.1853 ( 23) -0.1096 ( 24)  0.1096 ( 25) -0.1254 ( 38)
           0.1254 ( 43) -0.1403 ( 48)  0.1403 ( 53)  0.1109 ( 57) -0.1109 ( 62)
           0.1615 ( 68) -0.1615 ( 70)  0.1824 ( 72) -0.1824 ( 73)  0.1213 ( 78)
          -0.1213 ( 80)  0.1213 ( 87) -0.1213 ( 93)  0.1815 ( 97) -0.1815 (101)
           0.1815 (105) -0.1815 (108) -0.1643 (111)  0.1643 (116) -0.1643 (118)
           0.1643 (124)
 CRD 69=  -0.1235 (  1) -0.1235 (  2) -0.1235 (  3) -0.1235 (  4) -0.1095 (  5)
          -0.1095 (  6) -0.1095 (  7) -0.1095 (  8)  0.1762 ( 19)  0.1659 ( 20)
           0.1659 ( 21)  0.1415 ( 22)  0.1415 ( 23)  0.1321 ( 27)  0.1321 ( 33)
           0.1176 ( 38)  0.1176 ( 43) -0.1696 ( 68) -0.1922 ( 69) -0.1696 ( 70)
          -0.1922 ( 71) -0.1266 ( 72) -0.1266 ( 73)  0.1817 ( 77) -0.1712 ( 78)
           0.1712 ( 80) -0.1817 ( 83)  0.1712 ( 87) -0.1712 ( 93) -0.1420 ( 97)
           0.1420 (101)  0.1420 (105) -0.1420 (108)
 CRD 70=   0.1250 (  1) -0.1250 (  2)  0.1250 (  3) -0.1250 (  4)  0.1543 (  9)
          -0.1543 ( 10)  0.1543 ( 11) -0.1543 ( 12)  0.1028 ( 14) -0.1028 ( 15)
           0.1028 ( 17) -0.1028 ( 18)  0.1346 ( 74)  0.1346 ( 81) -0.1346 ( 89)
          -0.1346 ( 90)  0.1129 ( 94)  0.1684 ( 95)  0.1129 ( 99)  0.1684 (100)
          -0.1129 (102) -0.1684 (103) -0.1129 (106) -0.1684 (107)  0.1541 (113)
           0.1541 (117) -0.1541 (120) -0.1541 (125) -0.1760 (127) -0.1760 (128)
           0.1760 (130)  0.1760 (131) -0.1869 (132)  0.1384 (133) -0.1384 (134)
           0.1869 (135)
 CRD 71=   0.1353 (  5) -0.1353 (  6) -0.1353 (  7)  0.1353 (  8) -0.1197 (  9)
           0.1197 ( 10)  0.1197 ( 11) -0.1197 ( 12)  0.1000 ( 47) -0.1000 ( 50)
          -0.1000 ( 52)  0.1000 ( 55) -0.1792 ( 76) -0.1792 ( 84) -0.1792 ( 86)
          -0.1792 ( 91) -0.1786 ( 95) -0.1786 (100) -0.1786 (103) -0.1786 (107)
           0.1887 (110)  0.1887 (114)  0.1887 (121)  0.1887 (122)  0.1689 (127)
           0.1689 (128)  0.1689 (130)  0.1689 (131) -0.1100 (132) -0.1100 (135)
          -0.1664 (136)
 CRD 72=   0.1294 (  1) -0.1294 (  2)  0.1294 (  3) -0.1294 (  4)  0.1054 (  5)
          -0.1054 (  6)  0.1054 (  7) -0.1054 (  8) -0.1016 ( 26)  0.1016 ( 30)
          -0.1016 ( 32)  0.1016 ( 35)  0.2131 ( 74) -0.1767 ( 76)  0.2131 ( 81)
          -0.1767 ( 84)  0.1767 ( 86) -0.2131 ( 89) -0.2131 ( 90)  0.1767 ( 91)
           0.2096 ( 94) -0.1113 ( 95)  0.2096 ( 99) -0.1113 (100) -0.2096 (102)
           0.1113 (103) -0.2096 (106)  0.1113 (107)  0.1683 (110)  0.1683 (114)
          -0.1683 (121) -0.1683 (122)  0.1008 (127)  0.1008 (128) -0.1008 (130)
          -0.1008 (131)

 THE DETERMINANT OF THE G MATRIX IS 10**(   -95)

 THE DETERMINANT OF THE G MATRIX IS 10**(   -95)
 * * * WARNING * * *
 YOUR B MATRIX HAS A SMALL DETERMINANT.
 THIS SUGGESTS YOU MAY HAVE BADLY CHOSEN COORDINATES.


                     --------------------
                     INTERNAL COORDINATES
                     --------------------

                 - - ATOMS - -         COORDINATE      COORDINATE
 NO.   TYPE    I  J  K  L  M  N        (BOHR,RAD)       (ANG,DEG)
 ----------------------------------------------------------------
   1 STRETCH   1 19                     2.6032960       1.3776050
   2 STRETCH   2 19                     2.6032960       1.3776050
   3 STRETCH   3 20                     2.6032960       1.3776050
   4 STRETCH   4 20                     2.6032960       1.3776050
   5 STRETCH   5 21                     2.6043571       1.3781665
   6 STRETCH   6 21                     2.6043571       1.3781665
   7 STRETCH   7 22                     2.6043571       1.3781665
   8 STRETCH   8 22                     2.6043571       1.3781665
   9 STRETCH   9 23                     2.6058846       1.3789748
  10 STRETCH  10 23                     2.6058846       1.3789748
  11 STRETCH  11 24                     2.6058846       1.3789748
  12 STRETCH  12 24                     2.6058846       1.3789748
  13 STRETCH  13 25                     2.5981876       1.3749018
  14 STRETCH  14 25                     2.5974943       1.3745349
  15 STRETCH  15 25                     2.5974943       1.3745349
  16 STRETCH  16 26                     2.5981876       1.3749018
  17 STRETCH  17 26                     2.5974943       1.3745349
  18 STRETCH  18 26                     2.5974943       1.3745349
  19 STRETCH  19 20                     2.9752043       1.5744104
  20 STRETCH  19 21                     2.9732915       1.5733982
  21 STRETCH  20 22                     2.9732915       1.5733982
  22 STRETCH  21 23                     2.9659284       1.5695018
  23 STRETCH  22 24                     2.9659284       1.5695018
  24 STRETCH  23 25                     2.9480625       1.5600476
  25 STRETCH  24 26                     2.9480625       1.5600476
  26 BEND      1 19 20                  1.8956522     108.6128679
  27 BEND      1 19  2                  1.8268173     104.6689226
  28 BEND      1 19 21                  1.8887521     108.2175219
  29 BEND      2 19 21                  1.8887521     108.2175219
  30 BEND      2 19 20                  1.8956522     108.6128679
  31 BEND      3 20 22                  1.8887521     108.2175219
  32 BEND      3 20 19                  1.8956522     108.6128679
  33 BEND      3 20  4                  1.8268173     104.6689226
  34 BEND      4 20 22                  1.8887521     108.2175219
  35 BEND      4 20 19                  1.8956522     108.6128679
  36 BEND      5 21 23                  1.8853596     108.0231483
  37 BEND      5 21 19                  1.8969936     108.6897258
  38 BEND      5 21  6                  1.8314686     104.9354191
  39 BEND      6 21 23                  1.8853596     108.0231483
  40 BEND      6 21 19                  1.8969936     108.6897258
  41 BEND      7 22 24                  1.8853596     108.0231483
  42 BEND      7 22 20                  1.8969936     108.6897258
  43 BEND      7 22  8                  1.8314686     104.9354191
  44 BEND      8 22 24                  1.8853596     108.0231483
  45 BEND      8 22 20                  1.8969936     108.6897258
  46 BEND      9 23 25                  1.8694498     107.1115826
  47 BEND      9 23 21                  1.9238539     110.2287087
  48 BEND      9 23 10                  1.8301811     104.8616541
  49 BEND     10 23 25                  1.8694498     107.1115826
  50 BEND     10 23 21                  1.9238539     110.2287087
  51 BEND     11 24 26                  1.8694498     107.1115826
  52 BEND     11 24 22                  1.9238539     110.2287087
  53 BEND     11 24 12                  1.8301811     104.8616541
  54 BEND     12 24 26                  1.8694498     107.1115826
  55 BEND     12 24 22                  1.9238539     110.2287087
  56 BEND     13 25 14                  1.8464859     105.7958462
  57 BEND     13 25 23                  1.9568327     112.1182524
  58 BEND     13 25 15                  1.8464859     105.7958462
  59 BEND     14 25 23                  1.9682675     112.7734208
  60 BEND     14 25 15                  1.8684094     107.0519743
  61 BEND     15 25 23                  1.9682675     112.7734208
  62 BEND     16 26 24                  1.9568327     112.1182524
  63 BEND     16 26 18                  1.8464859     105.7958462
  64 BEND     16 26 17                  1.8464859     105.7958462
  65 BEND     17 26 24                  1.9682675     112.7734208
  66 BEND     17 26 18                  1.8684094     107.0519743
  67 BEND     18 26 24                  1.9682675     112.7734208
  68 BEND     19 21 23                  2.0549880     117.7421392
  69 BEND     19 20 22                  2.0549398     117.7393795
  70 BEND     20 22 24                  2.0549880     117.7421392
  71 BEND     20 19 21                  2.0549398     117.7393795
  72 BEND     21 23 25                  2.0350287     116.5985581
  73 BEND     22 24 26                  2.0350287     116.5985581
  74 TORSION   1 19 20 22               0.9886400      56.6449014
  75 TORSION   1 19 20  3               3.1415927     180.0000000
  76 TORSION   1 19 21 23              -0.9851631     -56.4456867
  77 TORSION   1 19 20  4              -1.1643126     -66.7101973
  78 TORSION   1 19 21  6               1.1643683      66.7133889
  79 TORSION   1 19 21  5              -3.1346945    -179.6047623
  80 TORSION   2 19 21  5              -1.1643683     -66.7133889
  81 TORSION   2 19 20 22              -0.9886400     -56.6449014
  82 TORSION   2 19 20  4               3.1415927     180.0000000
  83 TORSION   2 19 20  3               1.1643126      66.7101973
  84 TORSION   2 19 21 23               0.9851631      56.4456867
  85 TORSION   2 19 21  6               3.1346945     179.6047623
  86 TORSION   3 20 22 24               0.9851631      56.4456867
  87 TORSION   3 20 22  8              -1.1643683     -66.7133889
  88 TORSION   3 20 22  7               3.1346945     179.6047623
  89 TORSION   3 20 19 21              -0.9886400     -56.6449014
  90 TORSION   4 20 19 21               0.9886400      56.6449014
  91 TORSION   4 20 22 24              -0.9851631     -56.4456867
  92 TORSION   4 20 22  8              -3.1346945    -179.6047623
  93 TORSION   4 20 22  7               1.1643683      66.7133889
  94 TORSION   5 21 19 20               0.9920613      56.8409244
  95 TORSION   5 21 23 25              -0.9861906     -56.5045590
  96 TORSION   5 21 23 10              -3.1217410    -178.8625841
  97 TORSION   5 21 23  9               1.1493598      65.8534662
  98 TORSION   6 21 23  9               3.1217410     178.8625841
  99 TORSION   6 21 19 20              -0.9920613     -56.8409244
 100 TORSION   6 21 23 25               0.9861906      56.5045590
 101 TORSION   6 21 23 10              -1.1493598     -65.8534662
 102 TORSION   7 22 20 19              -0.9920613     -56.8409244
 103 TORSION   7 22 24 26               0.9861906      56.5045590
 104 TORSION   7 22 24 12               3.1217410     178.8625841
 105 TORSION   7 22 24 11              -1.1493598     -65.8534662
 106 TORSION   8 22 20 19               0.9920613      56.8409244
 107 TORSION   8 22 24 26              -0.9861906     -56.5045590
 108 TORSION   8 22 24 12               1.1493598      65.8534662
 109 TORSION   8 22 24 11              -3.1217410    -178.8625841
 110 TORSION   9 23 21 19              -1.0060422     -57.6419749
 111 TORSION   9 23 25 15              -1.1041799     -63.2648493
 112 TORSION   9 23 25 14               3.0599924     175.3246474
 113 TORSION   9 23 25 13               0.9779062      56.0298990
 114 TORSION  10 23 21 19               1.0060422      57.6419749
 115 TORSION  10 23 25 15              -3.0599924    -175.3246474
 116 TORSION  10 23 25 14               1.1041799      63.2648493
 117 TORSION  10 23 25 13              -0.9779062     -56.0298990
 118 TORSION  11 24 26 18               1.1041799      63.2648493
 119 TORSION  11 24 26 17              -3.0599924    -175.3246474
 120 TORSION  11 24 26 16              -0.9779062     -56.0298990
 121 TORSION  11 24 22 20               1.0060422      57.6419749
 122 TORSION  12 24 22 20              -1.0060422     -57.6419749
 123 TORSION  12 24 26 18               3.0599924     175.3246474
 124 TORSION  12 24 26 17              -1.1041799     -63.2648493
 125 TORSION  12 24 26 16               0.9779062      56.0298990
 126 TORSION  13 25 23 21               3.1415927     180.0000000
 127 TORSION  14 25 23 21              -1.0595065     -60.7052517
 128 TORSION  15 25 23 21               1.0595065      60.7052517
 129 TORSION  16 26 24 22               3.1415927     180.0000000
 130 TORSION  17 26 24 22               1.0595065      60.7052517
 131 TORSION  18 26 24 22              -1.0595065     -60.7052517
 132 TORSION  19 20 22 24               3.1415927     180.0000000
 133 TORSION  19 21 23 25               3.1415927     180.0000000
 134 TORSION  20 22 24 26               3.1415927     180.0000000
 135 TORSION  20 19 21 23               3.1415927     180.0000000
 136 TORSION  21 19 20 22               3.1415927     180.0000000

     ------------------------------------------
     THE POINT GROUP IS C1 , NAXIS= 1, ORDER= 1
     ------------------------------------------

     DIMENSIONS OF THE SYMMETRY SUBSPACES ARE
 A   =  494

 ..... DONE SETTING UP THE RUN .....
 STEP CPU TIME =     0.03 TOTAL CPU TIME =        0.0 (    0.0 MIN)
 TOTAL WALL CLOCK TIME=        0.0 SECONDS, CPU UTILIZATION IS  75.00%


          -----------------------------
          STATIONARY POINT LOCATION RUN
          -----------------------------

 OBTAINING INITIAL HESSIAN, HESS=GUESS   
 DIAGONAL GUESS HESSIAN IN INTERNAL COORDS IS
     1  0.3413     2  0.3413     3  0.3413     4  0.3413     5  0.3409
     6  0.3409     7  0.3409     8  0.3409     9  0.3404    10  0.3404
    11  0.3404    12  0.3404    13  0.3431    14  0.3433    15  0.3433
    16  0.3431    17  0.3433    18  0.3433    19  0.3368    20  0.3375
    21  0.3375    22  0.3400    23  0.3400    24  0.3463    25  0.3463
    26  0.2346    27  0.2271    28  0.2346    29  0.2346    30  0.2346
    31  0.2346    32  0.2346    33  0.2271    34  0.2346    35  0.2346
    36  0.2348    37  0.2346    38  0.2271    39  0.2348    40  0.2346
    41  0.2348    42  0.2346    43  0.2271    44  0.2348    45  0.2346
    46  0.2354    47  0.2348    48  0.2270    49  0.2354    50  0.2348
    51  0.2354    52  0.2348    53  0.2270    54  0.2354    55  0.2348
    56  0.2275    57  0.2357    58  0.2275    59  0.2357    60  0.2275
    61  0.2357    62  0.2357    63  0.2275    64  0.2275    65  0.2357
    66  0.2275    67  0.2357    68  0.2428    69  0.2424    70  0.2428
    71  0.2424    72  0.2437    73  0.2437    74  0.2500    75  0.2500
    76  0.2500    77  0.2500    78  0.2500    79  0.2500    80  0.2500
    81  0.2500    82  0.2500    83  0.2500    84  0.2500    85  0.2500
    86  0.2500    87  0.2500    88  0.2500    89  0.2500    90  0.2500
    91  0.2500    92  0.2500    93  0.2500    94  0.2500    95  0.2500
    96  0.2500    97  0.2500    98  0.2500    99  0.2500   100  0.2500
   101  0.2500   102  0.2500   103  0.2500   104  0.2500   105  0.2500
   106  0.2500   107  0.2500   108  0.2500   109  0.2500   110  0.2500
   111  0.2500   112  0.2500   113  0.2500   114  0.2500   115  0.2500
   116  0.2500   117  0.2500   118  0.2500   119  0.2500   120  0.2500
   121  0.2500   122  0.2500   123  0.2500   124  0.2500   125  0.2500
   126  0.2500   127  0.2500   128  0.2500   129  0.2500   130  0.2500
   131  0.2500   132  0.2500   133  0.2500   134  0.2500   135  0.2500
   136  0.2500
 TRANSFORMING HESSIAN TO SYMMETRY COORDINATES

          PARAMETERS CONTROLLING GEOMETRY SEARCH ARE
          METHOD =QA                  UPHESS =BFGS    
          NNEG   =         0          NFRZ   =         3
          NSTEP  =        50          IFOLOW =         1
          HESS   =GUESS               RESTAR =         F
          IHREP  =         0          HSSEND =         F
          NPRT   =         0          NPUN   =         0
          OPTTOL = 5.000E-04          RMIN   = 1.500E-03
          RMAX   = 1.000E-01          RLIM   = 7.000E-02
          DXMAX  = 3.000E-01          PURIFY =         F
          MOVIE  =         F          TRUPD  =         T
          TRMAX  = 5.000E-01          TRMIN  = 5.000E-02
          ITBMAT =         5          STPT   =         F
          STSTEP = 1.000E-02          PROJCT=          F
          FROZEN COORD(S)=   1   2   3


      ***** EQUILIBRIUM GEOMETRY LOCATED *****
            (SUBJECT TO   3 CONSTRAINT(S))
 COORDINATES OF ALL ATOMS ARE (ANGS)
   ATOM   CHARGE       X              Y              Z
 ------------------------------------------------------------
 F           9.0   1.2330083639   0.5610195034   1.0773876429
 F           9.0   1.2331493958   0.5607361742  -1.0773537713
 F           9.0  -1.2330980385  -0.5610606592  -1.0773284210
 F           9.0  -1.2330209094  -0.5608367588   1.0774088793
 F           9.0   0.8838100238  -2.1376943903  -1.0761093360
 F           9.0   0.8838974099  -2.1379913226   1.0761353591
 F           9.0  -0.8836866651   2.1378004564   1.0760254151
 F           9.0  -0.8838382340   2.1377022603  -1.0762156749
 F           9.0   3.3403041541  -0.9792726066  -1.0777289817
 F           9.0   3.3402337244  -0.9794593764   1.0777846865
 F           9.0  -3.3401858913   0.9793229431   1.0777509965
 F           9.0  -3.3401948308   0.9793201861  -1.0777616787
 F           9.0   4.7852381925  -2.8847079005  -0.0000619666
 F           9.0   3.1261149772  -3.6768314041   1.0646294917
 F           9.0   3.1260946857  -3.6769296599  -1.0646156181
 F           9.0  -4.7852374562   2.8849333675  -0.0000724105
 F           9.0  -3.1262857718   3.6772208245  -1.0644090187
 F           9.0  -3.1263782310   3.6768682630   1.0645580039
 C           6.0   0.7761292337  -0.0524685410   0.0000282364
 C           6.0  -0.7760981893   0.0523912270   0.0000038461
 C           6.0   1.3274905911  -1.5113618507   0.0000321097
 C           6.0  -1.3274275602   1.5112916519  -0.0000504544
 C           6.0   2.8776490518  -1.5892672694   0.0000107262
 C           6.0  -2.8775946803   1.5892290499  -0.0000186008
 C           6.0   3.4831746728  -3.0113220126  -0.0000369333
 C           6.0  -3.4832042201   3.0112862551  -0.0000062892


                     --------------------
                     INTERNAL COORDINATES
                     --------------------

                 - - ATOMS - -         COORDINATE      COORDINATE
 NO.   TYPE    I  J  K  L  M  N        (BOHR,RAD)       (ANG,DEG)
 ----------------------------------------------------------------
   1 STRETCH   1 19                     2.4968776       1.3212908
   2 STRETCH   2 19                     2.4967560       1.3212265
   3 STRETCH   3 20                     2.4968829       1.3212936
   4 STRETCH   4 20                     2.4967482       1.3212224
   5 STRETCH   5 21                     2.4978899       1.3218265
   6 STRETCH   6 21                     2.4980416       1.3219068
   7 STRETCH   7 22                     2.4979851       1.3218769
   8 STRETCH   8 22                     2.4979385       1.3218522
   9 STRETCH   9 23                     2.4982050       1.3219932
  10 STRETCH  10 23                     2.4980483       1.3219103
  11 STRETCH  11 24                     2.4981316       1.3219544
  12 STRETCH  12 24                     2.4980990       1.3219372
  13 STRETCH  13 25                     2.4721491       1.3082051
  14 STRETCH  14 25                     2.4667324       1.3053386
  15 STRETCH  15 25                     2.4667023       1.3053227
  16 STRETCH  16 26                     2.4720445       1.3081497
  17 STRETCH  17 26                     2.4666627       1.3053018
  18 STRETCH  18 26                     2.4665241       1.3052285
  19 STRETCH  19 20                     2.9399700       1.5557653
  20 STRETCH  19 21                     2.9472269       1.5596054
  21 STRETCH  20 22                     2.9472181       1.5596008
  22 STRETCH  21 23                     2.9330718       1.5521149
  23 STRETCH  22 24                     2.9330911       1.5521251
  24 STRETCH  23 25                     2.9207737       1.5456070
  25 STRETCH  24 26                     2.9208401       1.5456421
  26 BEND      1 19 20                  1.8898984     108.2832003
  27 BEND      1 19  2                  1.9068826     109.2563235
  28 BEND      1 19 21                  1.8881795     108.1847159
  29 BEND      2 19 21                  1.8879489     108.1715036
  30 BEND      2 19 20                  1.8900149     108.2898778
  31 BEND      3 20 22                  1.8881008     108.1802056
  32 BEND      3 20 19                  1.8899956     108.2887716
  33 BEND      3 20  4                  1.9068786     109.2560936
  34 BEND      4 20 22                  1.8880331     108.1763297
  35 BEND      4 20 19                  1.8899372     108.2854250
  36 BEND      5 21 23                  1.8875038     108.1460008
  37 BEND      5 21 19                  1.9013584     108.9398135
  38 BEND      5 21  6                  1.9023312     108.9955516
  39 BEND      6 21 23                  1.8874261     108.1415520
  40 BEND      6 21 19                  1.9015887     108.9530082
  41 BEND      7 22 24                  1.8875160     108.1466986
  42 BEND      7 22 20                  1.9014429     108.9446547
  43 BEND      7 22  8                  1.9023310     108.9955354
  44 BEND      8 22 24                  1.8874407     108.1423838
  45 BEND      8 22 20                  1.9014787     108.9467017
  46 BEND      9 23 25                  1.8623104     106.7025279
  47 BEND      9 23 21                  1.9032653     109.0490712
  48 BEND      9 23 10                  1.9064146     109.2295130
  49 BEND     10 23 25                  1.8622678     106.7000862
  50 BEND     10 23 21                  1.9032144     109.0461545
  51 BEND     11 24 26                  1.8622682     106.7001108
  52 BEND     11 24 22                  1.9032235     109.0466754
  53 BEND     11 24 12                  1.9064261     109.2301721
  54 BEND     12 24 26                  1.8622850     106.7010680
  55 BEND     12 24 22                  1.9031997     109.0453077
  56 BEND     13 25 14                  1.8982296     108.7605460
  57 BEND     13 25 23                  1.8764168     107.5107631
  58 BEND     13 25 15                  1.8982248     108.7602715
  59 BEND     14 25 23                  1.9410927     111.2164197
  60 BEND     14 25 15                  1.9075171     109.2926819
  61 BEND     15 25 23                  1.9412192     111.2236647
  62 BEND     16 26 24                  1.8766626     107.5248487
  63 BEND     16 26 18                  1.8980030     108.7475605
  64 BEND     16 26 17                  1.8979989     108.7473240
  65 BEND     17 26 24                  1.9414668     111.2378521
  66 BEND     17 26 18                  1.9072906     109.2797009
  67 BEND     18 26 24                  1.9412657     111.2263321
  68 BEND     19 21 23                  1.9823485     113.5802053
  69 BEND     19 20 22                  1.9995655     114.5666626
  70 BEND     20 22 24                  1.9823480     113.5801765
  71 BEND     20 19 21                  1.9995863     114.5678542
  72 BEND     21 23 25                  2.0235673     115.9418670
  73 BEND     22 24 26                  2.0236369     115.9458563
  74 TORSION   1 19 20 22               1.0328171      59.1760597
  75 TORSION   1 19 20  3               3.1415846     179.9995394
  76 TORSION   1 19 21 23              -1.0318658     -59.1215568
  77 TORSION   1 19 20  4              -1.0758212     -61.6400132
  78 TORSION   1 19 21  6               1.0730675      61.4822406
  79 TORSION   1 19 21  5              -3.1367345    -179.7216502
  80 TORSION   2 19 21  5              -1.0730484     -61.4811461
  81 TORSION   2 19 20 22              -1.0329564     -59.1840416
  82 TORSION   2 19 20  4               3.1415907     179.9998856
  83 TORSION   2 19 20  3               1.0758111      61.6394382
  84 TORSION   2 19 21 23               1.0318203      59.1189473
  85 TORSION   2 19 21  6               3.1367536     179.7227447
  86 TORSION   3 20 22 24               1.0318190      59.1188768
  87 TORSION   3 20 22  8              -1.0730543     -61.4814825
  88 TORSION   3 20 22  7               3.1367629     179.7232777
  89 TORSION   3 20 19 21              -1.0327896     -59.1744833
  90 TORSION   4 20 19 21               1.0329899      59.1859641
  91 TORSION   4 20 22 24              -1.0318653     -59.1215283
  92 TORSION   4 20 22  8              -3.1367387    -179.7218876
  93 TORSION   4 20 22  7               1.0730786      61.4828726
  94 TORSION   5 21 19 20               1.0366917      59.3980606
  95 TORSION   5 21 23 25              -1.0288989     -58.9515652
  96 TORSION   5 21 23 10              -3.1302533    -179.3503017
  97 TORSION   5 21 23  9               1.0725502      61.4525973
  98 TORSION   6 21 23  9               3.1301836     179.3463067
  99 TORSION   6 21 19 20              -1.0366915     -59.3980486
 100 TORSION   6 21 23 25               1.0287345      58.9421442
 101 TORSION   6 21 23 10              -1.0726199     -61.4565923
 102 TORSION   7 22 20 19              -1.0366099     -59.3933696
 103 TORSION   7 22 24 26               1.0287740      58.9444087
 104 TORSION   7 22 24 12               3.1301872     179.3465143
 105 TORSION   7 22 24 11              -1.0726356     -61.4574948
 106 TORSION   8 22 20 19               1.0367582      59.4018701
 107 TORSION   8 22 24 26              -1.0288736     -58.9501140
 108 TORSION   8 22 24 12               1.0725396      61.4519915
 109 TORSION   8 22 24 11              -3.1302832    -179.3520175
 110 TORSION   9 23 21 19              -1.0401073     -59.5937570
 111 TORSION   9 23 25 15              -1.0581831     -60.6294265
 112 TORSION   9 23 25 14               3.0944697     177.3000537
 113 TORSION   9 23 25 13               1.0181768      58.3372314
 114 TORSION  10 23 21 19               1.0402746      59.6033440
 115 TORSION  10 23 25 15              -3.0946546    -177.3106450
 116 TORSION  10 23 25 14               1.0579983      60.6188352
 117 TORSION  10 23 25 13              -1.0182947     -58.3439871
 118 TORSION  11 24 26 18               1.0579670      60.6170445
 119 TORSION  11 24 26 17              -3.0946811    -177.3121652
 120 TORSION  11 24 26 16              -1.0183016     -58.3443868
 121 TORSION  11 24 22 20               1.0401372      59.5954712
 122 TORSION  12 24 22 20              -1.0402253     -59.6005197
 123 TORSION  12 24 26 18               3.0944395     177.2983238
 124 TORSION  12 24 26 17              -1.0582086     -60.6308858
 125 TORSION  12 24 26 16               1.0181709      58.3368926
 126 TORSION  13 25 23 21               3.1415826     179.9994261
 127 TORSION  14 25 23 21              -1.0653097     -61.0377516
 128 TORSION  15 25 23 21               1.0652228      61.0327682
 129 TORSION  16 26 24 22               3.1415182     179.9957333
 130 TORSION  17 26 24 22               1.0651387      61.0279549
 131 TORSION  18 26 24 22              -1.0653985     -61.0428355
 132 TORSION  19 20 22 24              -3.1415537    -179.9977706
 133 TORSION  19 21 23 25              -3.1415563    -179.9979195
 134 TORSION  20 22 24 26               3.1415468     179.9973747
 135 TORSION  20 19 21 23               3.1415604     179.9981540
 136 TORSION  21 19 20 22              -3.1415571    -179.9979630

          INTERNUCLEAR DISTANCES (ANGS.)


 =====================================================
   GAMESS/COSab RESULTS
 =====================================================

   Dielectric Constant                  = INFTY
   Basic Grid Size                      =                 1082
   Number of Segments                   =                   92
   Number of Segments located on spheres=                  535
   Number of Segments of the cavity     =                  869
   Solvent Radius (rsolv)               = 1.40
   Outlying Charge Error Method         = double cavity

 =====================================================

  Total solvated Energy (a.u.)          = -2093.3834142431
  Total Energy corrected (a.u.)         = -2093.3834149995

  Outlying charge effect (a.u.)         =    -0.0000007564
  Outlying charge effect (kcal/mol)     =    -0.0004746492

  Dielectric Energy (a.u.)              =    -0.0029309317
  Dielectric energy corr. (a.u.)        =    -0.0029316881

  Sum of polarization charges           =     0.0019987275
  Sum of polarization charges(cor.)     =    -0.0019987275

  Total surface area of cavity (A**2)   =  274.04
  Total volume of cavity (A**3)         =  321.71

 =====================================================
 NPS=                   869
NR.  ATOM  (X, Y, Z)(a.u.)                  CHARGE(e)  AREA(A**2) SIGMA(e/A**2)
   1   1   3.409774   2.407035   4.790008   0.000147   0.309230   0.000476
   2   1   1.311344   0.740735   5.105947   0.000426   0.206154   0.002065
   3   1   3.848835   3.923342   1.790661   0.000512   0.206154   0.002482
   4   1   3.760712   1.531511   4.916182   0.000308   0.309230   0.000996
   5   1   3.346388   0.563782   5.083138   0.000336   0.171795   0.001957
   6   1   2.674655   1.864264   5.166344   0.000250   0.274871   0.000910
   7   1   1.703982   1.395549   5.207739   0.000543   0.309230   0.001757
   8   1   2.621741   3.062583   4.579555   0.000309   0.309230   0.001000
   9   1   3.620159   3.306302   3.999411   0.000370   0.377948   0.000978
  10   1   3.751825   3.878070   2.812248   0.000614   0.274871   0.002235
  11   1   4.316957   2.378644   4.244685   0.000353   0.309230   0.001140
  12   1   4.733169   2.710478   3.473369   0.000406   0.240512   0.001688
  13   1   2.712715  -0.090595   5.051576   0.000292   0.171795   0.001697
  14   1   1.792398   0.052624   5.079052   0.000397   0.240512   0.001651
  15   1   3.224661   4.184931   2.048799   0.000460   0.171795   0.002680
  16   1   4.488093   3.488143   1.924443   0.000534   0.206154   0.002590
  17   1   5.004213   2.903097   2.166803   0.000718   0.240512   0.002986
  18   1   3.324485   4.018341   1.127692   0.000058   0.137436   0.000419
  19   1   4.236995   3.552811   1.190415   0.000497   0.137436   0.003617
  20   1   2.629752   0.793702   5.261453   0.000463   0.274871   0.001683
  21   1   1.856130   2.252495   5.022325   0.000341   0.206154   0.001654
  22   1   3.117636   3.894395   3.418529   0.000476   0.206154   0.002310
  23   1   4.507731   3.296054   2.943246   0.000692   0.309230   0.002239
  24   1   4.925856   2.807629   1.156853  -0.000067   0.171795  -0.000389
  25   2   3.311746   2.479376  -4.790132   0.000148   0.309230   0.000479
  26   2   2.315553  -0.008138  -5.105809   0.000422   0.206154   0.002047
  27   2   4.639198   3.334202  -1.790934   0.000492   0.206154   0.002384
  28   2   2.372405   2.565104  -4.916256   0.000315   0.309230   0.001020
  29   2   1.563685   1.891182  -5.083109   0.000333   0.171795   0.001939
  30   2   3.001997   1.619654  -5.166380   0.000250   0.274871   0.000910
  31   2   2.830630   0.555445  -5.207678   0.000540   0.309230   0.001746
  32   2   4.165387   1.911891  -4.579684   0.000300   0.309230   0.000970
  33   2   4.113259   2.938348  -3.999620   0.000374   0.377948   0.000990
  34   2   4.623516   3.228212  -2.812511   0.000607   0.274871   0.002210
  35   2   2.983615   3.382638  -4.213398   0.000368   0.343589   0.001072
  36   2   3.223900   3.834371  -3.473597   0.000420   0.240512   0.001747
  37   2   1.117993   1.096762  -5.051456   0.000291   0.171795   0.001695
  38   2   1.518565   0.255905  -5.078888   0.000404   0.240512   0.001680
  39   2   5.068437   2.810958  -2.049055   0.000447   0.171795   0.002604
  40   2   4.039269   3.822191  -1.924719   0.000536   0.206154   0.002601
  41   2   3.289851   4.163201  -2.144382   0.000761   0.274871   0.002768
  42   2   4.880304   2.859015  -1.127941   0.000183   0.137436   0.001332
  43   2   4.173126   3.600155  -1.190681   0.000167   0.137436   0.001215
  44   2   1.989042   1.270286  -5.261399   0.000461   0.274871   0.001676
  45   2   3.608219   0.946456  -5.022343   0.000339   0.206154   0.001644
  46   2   4.820591   2.625163  -3.418755   0.000460   0.206154   0.002234
  47   2   3.849531   3.785960  -2.943508   0.000688   0.309230   0.002226
  48   2   3.261992   4.046987  -1.157100   0.000096   0.171795   0.000559
  49   3  -3.311538  -2.480572  -4.789825   0.000149   0.309230   0.000481
  50   3  -2.315290   0.006860  -5.105976   0.000423   0.206154   0.002050
  51   3  -4.639154  -3.334745  -1.790513   0.000511   0.206154   0.002480
  52   3  -2.372192  -2.566342  -4.915884   0.000316   0.309230   0.001022
  53   3  -1.563454  -1.892467  -5.082838   0.000333   0.171795   0.001941
  54   3  -3.001757  -1.620934  -5.166238   0.000251   0.274871   0.000912
  55   3  -2.830370  -0.556737  -5.207752   0.000541   0.309230   0.001748
  56   3  -4.165181  -1.913029  -4.579540   0.000301   0.309230   0.000973
  57   3  -4.113098  -2.939364  -3.999256   0.000376   0.377948   0.000994
  58   3  -4.623420  -3.228970  -2.812112   0.000610   0.274871   0.002219
  59   3  -2.983451  -3.383717  -4.212885   0.000369   0.343589   0.001075
  60   3  -3.223780  -3.835290  -3.473000   0.000421   0.240512   0.001751
  61   3  -1.117750  -1.098047  -5.051330   0.000291   0.171795   0.001696
  62   3  -1.518308  -0.257191  -5.078959   0.000405   0.240512   0.001683
  63   3  -5.068372  -2.811549  -2.048766   0.000455   0.171795   0.002651
  64   3  -4.039226  -3.822772  -1.924166   0.000539   0.206154   0.002612
  65   3  -3.289803  -4.163839  -2.143719   0.000774   0.274871   0.002816
  66   3  -4.880286  -2.859414  -1.127632  -0.000003   0.137436  -0.000018
  67   3  -4.173117  -3.600579  -1.190181   0.000502   0.137436   0.003651
  68   3  -1.988791  -1.271602  -5.261280   0.000461   0.274871   0.001678
  69   3  -3.607976  -0.947696  -5.022373   0.000340   0.206154   0.001648
  70   3  -4.820455  -2.626046  -3.418493   0.000462   0.206154   0.002239
[...]
 610   4  -2.391992  -4.091967   0.597573  -0.002050   0.225591  -0.009087
 611   6  -1.571051  -4.590015   0.619090  -0.002544   0.225591  -0.011277
 612   3  -5.151469  -1.995105  -0.180619  -0.002697   0.222467  -0.012124
 613   4  -5.200616  -2.032815   0.597171  -0.001986   0.222467  -0.008928
 614  11  -5.910845  -1.403650   0.618725  -0.002356   0.222467  -0.010588
 615   4  -4.672351  -2.882399   0.551896  -0.001171   0.355784  -0.003290
 616   4  -3.365832  -3.841083   0.551952  -0.001202   0.355784  -0.003378
 617   3  -3.981240  -3.310220  -0.551157  -0.002750   0.720489  -0.003817
 618   3  -1.930072  -4.322753  -0.619459  -0.002544   0.225256  -0.011292
 619   5  -1.218071  -4.966743  -0.596979  -0.002108   0.225256  -0.009359
 620   6  -1.168317  -4.929637   0.180041  -0.002794   0.225256  -0.012402
 621   5  -1.455059  -5.200232  -1.285598  -0.000195   0.291066  -0.000668
 622   5  -1.408986  -5.139494  -2.739901   0.001123   0.582363   0.001928
 623   5  -0.829353  -4.362381  -4.233098   0.001201   0.582363   0.002062
 624   5   0.169601  -3.021573  -4.844524   0.000767   0.582363   0.001317
 625   3  -2.551642  -4.392426  -1.842559   0.000272   0.582363   0.000467
 626   3  -2.284132  -4.034575  -3.565898   0.001269   0.582363   0.002180
 627   3  -1.452023  -2.918172  -4.675292   0.001066   0.582363   0.001830
 628   3  -0.591746  -1.763257  -4.891873   0.000197   0.291066   0.000678
 629   3  -3.198766   1.124785  -4.571150  -0.001135   0.247847  -0.004578
 630   8  -3.070413   2.110800  -4.563279  -0.001903   0.247847  -0.007679
 631  12  -3.967533   1.686853  -4.571701  -0.001136   0.247847  -0.004584
 632   8  -1.755114   2.168582  -4.840638  -0.000996   0.495138  -0.002012
 633   3  -2.235904   0.811928  -4.841711  -0.000994   0.495138  -0.002008
 634   3  -5.552958  -1.665295  -0.618220  -0.002366   0.222568  -0.010632
 635  11  -6.346921  -1.121136   0.181123  -0.002647   0.222568  -0.011895
 636  12  -6.368016  -1.179454  -0.596954  -0.001933   0.222568  -0.008684
 637  12  -4.573716   1.189417  -4.897769   0.000268   0.289480   0.000924
 638  12  -5.428389   0.020370  -4.687309   0.001235   0.579256   0.002132
 639  12  -6.256555  -1.112166  -3.577877   0.001457   0.579256   0.002515
 640  12  -6.523921  -1.477409  -1.847429   0.000526   0.579256   0.000908
 641   3  -3.815944  -0.055055  -4.853458   0.000815   0.579256   0.001407
 642   3  -4.809028  -1.413323  -4.246639   0.001246   0.579256   0.002151
 643   3  -5.386654  -2.203035  -2.749295   0.001205   0.579256   0.002080
 644   3  -5.433495  -2.266697  -1.288069  -0.000220   0.289480  -0.000759
 645   6   0.501090  -2.577200   4.891239   0.000201   0.291083   0.000692
 646   6  -0.359326  -3.731914   4.674715   0.001080   0.582395   0.001854
 647   6  -1.191616  -4.848149   3.565449   0.001274   0.582395   0.002187
 648   6  -1.459270  -5.206004   1.842237   0.000321   0.582395   0.000551
 649   4  -0.922679  -2.207787   4.845200   0.000746   0.582395   0.001281
 650   4  -1.921812  -3.548372   4.233871   0.001190   0.582395   0.002044
 651   4  -2.501616  -4.325395   2.740813   0.001106   0.582395   0.001899
 652   4  -2.547788  -4.386186   1.286600  -0.000175   0.291083  -0.000601
 653   4  -3.198605   1.125372   4.571144  -0.001181   0.247844  -0.004765
 654   7  -3.070220   2.111335   4.563154  -0.001904   0.247844  -0.007681
 655  11  -3.967397   1.687351   4.571640  -0.001095   0.247844  -0.004416
 656   7  -2.055165   2.208005   4.841022  -0.001073   0.495058  -0.002167
 657   4  -1.935649   0.773719   4.841261  -0.001072   0.495058  -0.002166
 658  11  -6.520017  -1.472311   1.288597  -0.000164   0.289476  -0.000567
 659  11  -6.473142  -1.408501   2.749842   0.001315   0.579250   0.002270
 660  11  -5.895529  -0.618571   4.247113   0.001365   0.579250   0.002357
 661  11  -4.902525   0.739873   4.853762   0.000910   0.579250   0.001570
 662   4  -5.436889  -2.271785   1.847570   0.000451   0.579250   0.000778
 663   4  -5.169500  -1.906340   3.578004   0.001339   0.579250   0.002311
 664   4  -4.341383  -0.773596   4.687309   0.001122   0.579250   0.001937
 665   4  -3.486789   0.395570   4.897612   0.000226   0.289476   0.000781
 666   5   1.780658  -7.075729  -0.596519  -0.002368   0.233769  -0.010132
 667   6   1.799286  -7.016899   0.181055  -0.003106   0.233769  -0.013286
 668  15   2.648486  -7.553896  -0.615648  -0.003085   0.233769  -0.013196
 669   6  -0.819706  -5.723552   0.550774  -0.000948   0.254243  -0.003730
 670   6   0.403723  -6.664597   0.550590  -0.001647   0.509852  -0.003230
 671   5  -0.376681  -6.114173  -0.551061  -0.001599   0.509852  -0.003135
 672   5   0.920539  -6.950571  -0.551234  -0.000936   0.254243  -0.003683
 673   5   4.057317  -4.246546  -4.543537  -0.001358   0.255141  -0.005322
 674   9   4.955325  -3.823193  -4.545111  -0.001906   0.255141  -0.007470
 675  15   4.877062  -4.809177  -4.540040  -0.001279   0.255141  -0.005012
 676   9   4.702674  -2.811634  -4.834212  -0.001024   0.512062  -0.002000
 677   5   3.298950  -3.127126  -4.836290  -0.001093   0.512062  -0.002135
 678  15   2.794431  -8.179435  -1.273351  -0.000527   0.294955  -0.001786
 679  15   2.839337  -8.124729  -2.707602   0.000806   0.589963   0.001366
 680  15   3.379901  -7.348313  -4.187320   0.001046   0.589963   0.001773
 681  15   4.311582  -5.995733  -4.809487   0.000603   0.589963   0.001022
 682   5   1.632110  -7.391866  -1.827564   0.000041   0.589963   0.000069
 683   5   1.882910  -7.039223  -3.529721   0.001073   0.589963   0.001819
 684   5   2.658380  -5.917826  -4.636839   0.000885   0.589963   0.001500
 685   5   3.461202  -4.750047  -4.868909   0.000130   0.294955   0.000440
 686   6   4.057334  -4.246833   4.543716  -0.001321   0.255091  -0.005180
 687  10   4.955280  -3.823443   4.545301  -0.001909   0.255091  -0.007485
 688  14   4.877048  -4.809316   4.540231  -0.001299   0.255091  -0.005092
 689  10   4.568824  -2.528362   4.837179  -0.000937   0.512136  -0.001829
 690   6   3.432553  -3.410824   4.833442  -0.001022   0.512136  -0.001995
 691   6   2.269388  -7.294753   0.621980  -0.002979   0.230881  -0.012904
 692  14   3.026397  -7.933240   0.594044  -0.002504   0.230881  -0.010847
 693  15   3.074783  -7.894926  -0.174862  -0.003277   0.230881  -0.014192
 694  14   4.620633  -5.546075   4.863088   0.000138   0.294946   0.000468
 695  14   3.817887  -6.714000   4.630945   0.000939   0.589945   0.001591
 696  14   3.042523  -7.835487   3.523679   0.001074   0.589945   0.001820
 697  14   2.791824  -8.188055   1.821385  -0.000026   0.589945  -0.000044
 698   6   3.152249  -5.200239   4.815530   0.000553   0.589945   0.000938
 699   6   2.220669  -6.552970   4.193246   0.000985   0.589945   0.001669
 700   6   1.680212  -7.329396   2.713372   0.000870   0.589945   0.001475
 701   6   1.635382  -7.384000   1.279026  -0.000416   0.294946  -0.001411
 702   7  -1.799202   7.016722   0.181133  -0.003107   0.233800  -0.013289
 703   8  -1.780663   7.075634  -0.596437  -0.002369   0.233800  -0.010133
 704  17  -2.648576   7.553884  -0.615464  -0.003086   0.233800  -0.013199
 705   8  -0.920459   6.950453  -0.551239  -0.000936   0.254265  -0.003683
 706   8   0.376850   6.113963  -0.551297  -0.001599   0.509896  -0.003135
 707   7  -0.403474   6.664342   0.550495  -0.001647   0.509896  -0.003231
 708   7   0.820029   5.723190   0.550446  -0.000948   0.254265  -0.003730
 709   7  -4.057110   4.246769   4.543405  -0.001323   0.255152  -0.005186
 710  11  -4.955123   3.823399   4.545046  -0.001911   0.255152  -0.007490
 711  18  -4.877010   4.809344   4.539929  -0.001301   0.255152  -0.005098
 712  11  -4.568691   2.528399   4.837082  -0.000937   0.512092  -0.001830
 713   7  -3.432299   3.410804   4.833268  -0.001023   0.512092  -0.001997
 714   7  -2.269492   7.294627   0.622247  -0.002981   0.230902  -0.012910
 715  17  -3.075011   7.895030  -0.174485  -0.003277   0.230902  -0.014192
 716  18  -3.026655   7.933244   0.594324  -0.002505   0.230902  -0.010849
 717  18  -4.620666   5.546117   4.862814   0.000138   0.294957   0.000467
 718  18  -3.818071   6.713903   4.630661   0.000938   0.589966   0.001591
 719  18  -3.042842   7.835291   3.523566   0.001073   0.589966   0.001819
 720  18  -2.792128   8.187943   1.821528  -0.000028   0.589966  -0.000047
 721   7  -3.152077   5.200095   4.815228   0.000552   0.589966   0.000936
 722   7  -2.220669   6.552676   4.193009   0.000984   0.589966   0.001667
 723   7  -1.680281   7.329087   2.713374   0.000869   0.589966   0.001472
 724   7  -1.635394   7.383809   1.279230  -0.000417   0.294957  -0.001413
 725   8  -4.057616   4.247111  -4.543470  -0.001358   0.255168  -0.005322
 726  12  -4.955572   3.823776  -4.545024  -0.001907   0.255168  -0.007473
 727  17  -4.877424   4.809850  -4.539833  -0.001279   0.255168  -0.005014
 728  12  -4.702720   2.811858  -4.834209  -0.001025   0.512368  -0.002001
 729   8  -3.298986   3.127146  -4.836337  -0.001094   0.512368  -0.002135
 730  17  -2.794571   8.179581  -1.273071  -0.000527   0.294972  -0.001785
 731  17  -2.839575   8.125027  -2.707266   0.000807   0.589997   0.001367
 732  17  -3.380250   7.348832  -4.186976   0.001047   0.589997   0.001775
 733  17  -4.311999   5.996426  -4.809222   0.000604   0.589997   0.001025
 734   8  -1.632193   7.391916  -1.827422   0.000041   0.589997   0.000069
 735   8  -1.883113   7.039480  -3.529531   0.001073   0.589997   0.001819
 736   8  -2.658677   5.918292  -4.636685   0.000885   0.589997   0.001500
 737   8  -3.461539   4.750631  -4.868839   0.000130   0.294972   0.000440
 738   9   9.250712  -1.337690  -0.389894  -0.001956   0.199433  -0.009810
 739  10   9.250690  -1.337759   0.390271  -0.001966   0.199433  -0.009858
 740  13   9.753662  -2.048587   0.000153  -0.001634   0.199433  -0.008191
 741  10   8.995180  -0.515359   0.551987  -0.000915   0.279482  -0.003272
 742  10   7.773331   0.639125   0.552054  -0.001445   0.561313  -0.002574
 743   9   8.559294  -0.038164  -0.551461  -0.001498   0.561313  -0.002669
 744   9   7.237175   0.999983  -0.551408  -0.000887   0.279482  -0.003173
 745   9   8.311853  -4.169473  -3.704468  -0.002042   0.201176  -0.010151
 746  13   8.855447  -4.865890  -3.343942  -0.002284   0.201176  -0.011354
 747  15   8.252175  -5.153248  -3.724276  -0.002455   0.201176  -0.012205
 748  13   9.480475  -4.473500  -3.243398  -0.000789   0.283874  -0.002780
 749  13  10.185464  -3.499941  -2.467281  -0.000166   0.567942  -0.000293
 750  13  10.358573  -2.544665  -1.010340  -0.000381   0.567942  -0.000671
 751   9   9.027111  -3.116219  -3.529265  -0.000475   0.567942  -0.000836
 752   9   9.642002  -1.981082  -2.346654  -0.000030   0.567942  -0.000053
 753   9   9.548445  -1.332631  -1.074670  -0.000602   0.283874  -0.002119
 754  15   5.652410  -5.078562  -4.863237  -0.000404   0.325996  -0.001240
 755  15   7.195924  -5.199562  -4.541325  -0.001734   0.652500  -0.002657
 756   9   6.362586  -3.731355  -4.789229  -0.001044   0.652500  -0.001600
 757   9   7.871669  -3.848961  -4.331474  -0.000664   0.325996  -0.002036
 758  10   8.312104  -4.169617   3.704345  -0.002050   0.201162  -0.010192
 759  13   8.855715  -4.865961   3.343732  -0.002297   0.201162  -0.011420
 760  14   8.252459  -5.153285   3.724136  -0.002424   0.201162  -0.012049
 761  13  10.293854  -2.315717   0.518954  -0.000306   0.283830  -0.001080
 762  13  10.387391  -2.964230   1.790694  -0.000002   0.567855  -0.000003
 763  13   9.772687  -4.099353   2.973087  -0.000979   0.567855  -0.001725
 764  10   9.613032  -1.561832   1.566564  -0.000691   0.567855  -0.001216
 765  10   9.439986  -2.517145   3.023222   0.000033   0.567855   0.000058
 766  10   8.735205  -3.490674   3.799214  -0.000425   0.283830  -0.001498
 767  14   7.761219  -5.243407   4.324616  -0.001132   0.326010  -0.003474
 768  14   6.251968  -5.125830   4.782539  -0.001108   0.652529  -0.001697
 769  10   7.306818  -3.805346   4.548118  -0.001240   0.652529  -0.001900
 770  10   5.763118  -3.684372   4.870165  -0.000542   0.326010  -0.001662
 771  11  -9.250621   1.337980   0.390075  -0.001967   0.199459  -0.009863
 772  12  -9.250629   1.337980  -0.390094  -0.001958   0.199459  -0.009816
 773  16  -9.753599   2.048952  -0.000037  -0.001635   0.199459  -0.008196
 774  12  -7.237120  -0.999970  -0.551749  -0.000851   0.279501  -0.003044
 775  12  -8.559254   0.038320  -0.551740  -0.001500   0.561352  -0.002672
 776  11  -7.773317  -0.639161   0.551735  -0.001457   0.561352  -0.002596
 777  11  -8.995162   0.515474   0.551744  -0.000915   0.279501  -0.003274
 778  11  -8.312208   4.169340   3.704200  -0.002050   0.201159  -0.010193
 779  16  -8.855850   4.865819   3.343615  -0.002297   0.201159  -0.011417
 780  18  -8.252700   5.153074   3.724002  -0.002424   0.201159  -0.012051
 781  16 -10.293842   2.316068   0.518735  -0.000312   0.283838  -0.001099
 782  16 -10.387382   2.964423   1.790440   0.000050   0.567869   0.000088
 783  16  -9.772739   4.099323   2.972902  -0.001003   0.567869  -0.001767
 784  11  -9.612994   1.561929   1.566322  -0.000692   0.567869  -0.001219
 785  11  -9.439975   2.517029   3.022979   0.000034   0.567869   0.000060
 786  11  -8.735259   3.490381   3.799063  -0.000424   0.283838  -0.001495
 787  18  -7.761471   5.243187   4.324481  -0.001133   0.326053  -0.003475
 788  18  -6.252078   5.125792   4.782376  -0.001108   0.652616  -0.001698
 789  11  -7.306851   3.805098   4.548006  -0.001240   0.652616  -0.001900
 790  11  -5.763010   3.684307   4.870000  -0.000542   0.326053  -0.001664
 791  12  -8.311696   4.169697  -3.704426  -0.002043   0.201176  -0.010157
 792  16  -8.855339   4.866179  -3.343918  -0.002290   0.201176  -0.011386
 793  17  -8.252143   5.153562  -3.724170  -0.002456   0.201176  -0.012211
 794  16  -9.480317   4.473790  -3.243424  -0.000794   0.283877  -0.002797
 795  16 -10.185308   3.500302  -2.467359  -0.000128   0.567947  -0.000226
 796  16 -10.358496   2.545074  -1.010502  -0.000351   0.567947  -0.000618
 797  12  -9.026899   3.116447  -3.529322  -0.000476   0.567947  -0.000838
 798  12  -9.641823   1.981385  -2.346787  -0.000033   0.567947  -0.000057
 799  12  -9.548352   1.332956  -1.074871  -0.000603   0.283877  -0.002124
 800  17  -5.652758   5.079270  -4.862990  -0.000404   0.325964  -0.001240
 801  17  -7.196040   5.200040  -4.541101  -0.001734   0.652434  -0.002658
 802  12  -6.362682   3.731848  -4.789102  -0.001046   0.652434  -0.001604
 803  12  -7.871543   3.849216  -4.331412  -0.000664   0.325964  -0.002038
 804  13   8.893353  -8.752064   0.557086  -0.000842   0.043859  -0.019202
 805  14   8.298184  -9.036309   0.939038  -0.000729   0.043859  -0.016616
 806  25   8.491017  -8.916447   0.569416  -0.000949   0.043859  -0.021629
 807  14   8.437662  -9.066371   1.457801  -0.001533   0.259143  -0.005915
 808  14   8.833701  -8.192568   2.725055  -0.001251   0.519988  -0.002406
 809  14   8.663508  -6.526927   3.699066  -0.001576   0.519988  -0.003030
 810  13   9.462237  -8.358321   1.411634  -0.002472   0.519988  -0.004753
 811  13   9.700202  -7.012183   2.783973  -0.000905   0.519988  -0.001741
 812  13   9.356518  -5.559329   3.329321  -0.000996   0.259143  -0.003844
 813  13   8.893334  -8.752120  -0.556992  -0.000719   0.043859  -0.016394
 814  15   8.298158  -9.036397  -0.938890  -0.000844   0.043859  -0.019255
 815  25   8.490997  -8.916503  -0.569288  -0.000930   0.043859  -0.021194
 816  15   8.507188  -5.964729  -3.874373  -0.001040   0.259162  -0.004012
 817  15   8.851003  -7.417666  -3.328976  -0.000969   0.520025  -0.001864
 818  15   8.613130  -8.763826  -1.956448  -0.002508   0.520025  -0.004823
 819  13   9.512364  -6.121570  -3.154462  -0.001497   0.520025  -0.002880
 820  13   9.682695  -7.787290  -2.180331  -0.001197   0.520025  -0.002302
 821  13   9.286702  -8.661074  -0.912900  -0.001524   0.259162  -0.005880
 822  25   8.609088  -8.910517  -0.075638  -0.001770   0.117627  -0.015051
 823  13   9.202611  -8.722361   0.080813  -0.000904   0.110238  -0.008198
 824  14   7.422542  -9.453782   0.382053  -0.000830   0.043378  -0.019128
 825  15   7.422534  -9.453815  -0.381843  -0.000712   0.043378  -0.016409
 826  25   7.596032  -9.343497   0.000095  -0.000755   0.043378  -0.017416
 827  15   7.028966  -9.744488  -0.544728  -0.001480   0.244114  -0.006064
 828  15   5.531673  -9.850726  -0.544708  -0.001345   0.489400  -0.002749
 829  15   3.877565  -9.056558  -0.544725  -0.001644   0.489400  -0.003359
 830  14   6.460470  -9.822190   0.544983  -0.002426   0.489400  -0.004956
 831  14   4.640782  -9.586580   0.544991  -0.001062   0.489400  -0.002169
 832  14   3.443288  -8.681495   0.544966  -0.000968   0.244114  -0.003965
 833  25   8.072743  -9.166455   0.417880  -0.001755   0.118207  -0.014851
 834  14   7.710670  -9.434493   0.873702  -0.000971   0.110781  -0.008769
 835  25   7.953251  -9.223479  -0.342013  -0.001508   0.118204  -0.012756
 836  15   7.838136  -9.373765  -0.954277  -0.000921   0.110778  -0.008318
 837  16  -8.892836   8.752796  -0.555254  -0.000726   0.043864  -0.016541
 838  17  -8.297736   9.037096  -0.937072  -0.000848   0.043864  -0.019323
 839  26  -8.490487   8.917095  -0.567472  -0.000947   0.043864  -0.021597
 840  17  -8.507287   5.965210  -3.874217  -0.001021   0.259236  -0.003940
 841  17  -8.851243   7.418610  -3.328422  -0.000958   0.520179  -0.001842
 842  17  -8.613039   8.764808  -1.955030  -0.002505   0.520179  -0.004816
 843  16  -9.512429   6.122213  -3.154289  -0.001509   0.520179  -0.002902
 844  16  -9.682733   7.788330  -2.179481  -0.001206   0.520179  -0.002319
 845  16  -9.286325   8.661922  -0.911307  -0.001517   0.259236  -0.005850
 846  16  -8.892880   8.752629   0.555950  -0.000839   0.043861  -0.019125
 847  18  -8.297813   9.036807   0.937877  -0.000729   0.043861  -0.016628
 848  26  -8.490531   8.916924   0.568245  -0.000926   0.043861  -0.021101
 849  18  -8.437452   9.066947   1.456728  -0.001531   0.259195  -0.005907
 850  18  -8.833943   8.193164   2.724493  -0.001208   0.520096  -0.002323
 851  18  -8.663892   6.527050   3.698888  -0.001577   0.520096  -0.003032
 852  16  -9.462070   8.359024   1.410799  -0.002415   0.520096  -0.004643
 853  16  -9.700441   7.012689   2.783702  -0.000900   0.520096  -0.001730
 854  16  -9.356727   5.559352   3.329229  -0.000974   0.259195  -0.003758
 855  26  -8.608529   8.911030  -0.075025  -0.001743   0.117171  -0.014874
 856  16  -9.202056   8.722970   0.080803  -0.000959   0.109810  -0.008736
 857  17  -7.424404   9.453404  -0.381405  -0.000710   0.043382  -0.016377
 858  18  -7.424437   9.453282   0.382386  -0.000828   0.043382  -0.019097
 859  26  -7.597902   9.342936   0.000477  -0.000808   0.043382  -0.018624
 860  18  -3.443679   8.681698   0.545303  -0.000968   0.244182  -0.003964
 861  18  -4.641720   9.587013   0.545399  -0.001061   0.489540  -0.002166
 862  18  -6.462143   9.822160   0.545361  -0.002425   0.489540  -0.004953
 863  17  -3.878122   9.057009  -0.544207  -0.001642   0.489540  -0.003355
 864  17  -5.532973   9.851175  -0.544148  -0.001344   0.489540  -0.002745
 865  17  -7.030799   9.744327  -0.544228  -0.001479   0.244182  -0.006058
 866  26  -7.954157   9.223344  -0.341008  -0.001636   0.117749  -0.013894
 867  17  -7.838632   9.374024  -0.952928  -0.000917   0.110352  -0.008308
 868  26  -8.073210   9.166451   0.417308  -0.001585   0.117744  -0.013460
 869  18  -7.711705   9.434315   0.873406  -0.000973   0.110347  -0.008813
 =====================================================

             18596126  WORDS OF DYNAMIC MEMORY USED
 EXECUTION OF GAMESS TERMINATED NORMALLY Fri Nov 25 05:57:55 2016
 DDI: 263640 bytes (0.3 MB / 0 MWords) used by master data server.

 ----------------------------------------
 CPU timing information for all processes
 ========================================
 0: 4383.512 + 1.108 = 4384.620
 ----------------------------------------
 ddikick.x: exited gracefully.
