----- GAMESS execution script -----

          ******************************************************
          *         GAMESS VERSION =  5 DEC 2014 (R1)          *
          *             FROM IOWA STATE UNIVERSITY             *
          * M.W.SCHMIDT, K.K.BALDRIDGE, J.A.BOATZ, S.T.ELBERT, *
          *   M.S.GORDON, J.H.JENSEN, S.KOSEKI, N.MATSUNAGA,   *
          *          K.A.NGUYEN, S.J.SU, T.L.WINDUS,           *
          *       TOGETHER WITH M.DUPUIS, J.A.MONTGOMERY       *
          *         J.COMPUT.CHEM.  14, 1347-1363(1993)        *
          **************** 64 BIT LINUX VERSION ****************

 EXECUTION OF GAMESS BEGUN Fri Nov 25 05:00:16 2016

            ECHO OF THE FIRST FEW INPUT CARDS -
 INPUT CARD>! SELECT RESTRICTED HARTREE-FOCK AS DEFAULT                                     
 INPUT CARD>$contrl scftyp=rhf $end                                                         
 INPUT CARD>                                                                                
 INPUT CARD>! THEORY: HF OR DFT                                                             
 INPUT CARD> $contrl mplevl=0 $end                                                          
 INPUT CARD>                                                                                
 INPUT CARD> $system timlim=10000 mwords=20 $end                                            
 INPUT CARD> $SCF DIRSCF=.TRUE. $end                                                        
 INPUT CARD>                                                                                
 INPUT CARD>                                                                                
 INPUT CARD>! BASIS SETS                                                                    
 INPUT CARD>! 6-311G(d,p)                                                                   
 INPUT CARD> $BASIS GBASIS=N311 NGAUSS=6 NDFUNC=1 NPFUNC=1 $END                             
 INPUT CARD>                                                                                
 INPUT CARD>! One of the following                                                          
 INPUT CARD> $guess guess=HUCKEL $end                                                       
 INPUT CARD>                                                                                
 INPUT CARD> $statpt projct=.FALSE. $end                                                    
 INPUT CARD> $STATPT IFREEZ(1)=1,2,3 $END                                                   
 INPUT CARD>                                                                                
 INPUT CARD>! Optimize the geometry with COSMO effects                                      
 INPUT CARD> $statpt opttol=0.0005 nstep=50 $end                                            
 INPUT CARD> $contrl nzvar=1 $end                                                           
 INPUT CARD> $zmat dlc=.t. auto=.t. $end                                                    
 INPUT CARD> $contrl runtyp=OPTIMIZE maxit=200 $end                                         
 INPUT CARD>                                                                                
 INPUT CARD>! Run COSMO on perfect conductor                                                
 INPUT CARD> $COSGMS PRFCND=.TRUE. $end                                                     
 INPUT CARD>                                                                                
 INPUT CARD>! Specifying RSOLV                                                              
 INPUT CARD> $COSGMS COSRAD = 1.4 $end                                                      
 INPUT CARD>                                                                                
 INPUT CARD>! available memory                                                              
 INPUT CARD> $SYSTEM MWORDS=40 $END                                                         
 INPUT CARD>                                                                                
 INPUT CARD> $DATA                                                                          
 INPUT CARD>Benzene, propyl-, ID: C103651                                                   
 INPUT CARD>C1                                                                              
 INPUT CARD>C      6.0      1.0661000000    2.9749000000    2.6475000000                    
 INPUT CARD>C      6.0      1.2808000000    1.4818000000    2.4487000000                    
 INPUT CARD>C      6.0      2.7253000000    1.1262000000    2.2933000000                    
 INPUT CARD>C      6.0      1.4633000000    3.7862000000    1.4355000000                    
 INPUT CARD>C      6.0      3.2467000000    0.7114000000    1.0724000000                    
 INPUT CARD>C      6.0      3.5563000000    1.1654000000    3.4088000000                    
 INPUT CARD>C      6.0      4.5854000000    0.3307000000    0.9654000000                    
 INPUT CARD>C      6.0      4.8893000000    0.7975000000    3.3089000000                    
 INPUT CARD>C      6.0      5.4159000000    0.3751000000    2.0884000000                    
 INPUT CARD>H      1.0      1.6394000000    3.3197000000    3.5307000000                    
 INPUT CARD>H      1.0      0.0000000000    3.1585000000    2.8853000000                    
 INPUT CARD>H      1.0      0.7082000000    1.1385000000    1.5639000000                    
   40000000 WORDS OF MEMORY AVAILABLE

     BASIS OPTIONS
     -------------
     GBASIS=N311         IGAUSS=       6      POLAR=POPN311 
     NDFUNC=       1     NFFUNC=       0     DIFFSP=       F
     NPFUNC=       1      DIFFS=       F     BASNAM=        


     RUN TITLE
     ---------
 Benzene, propyl-, ID: C103651                                                   

 THE POINT GROUP OF THE MOLECULE IS C1      
 THE ORDER OF THE PRINCIPAL AXIS IS     0

 ATOM      ATOMIC                      COORDINATES (BOHR)
           CHARGE         X                   Y                   Z
 C           6.0     2.0146368755        5.6217458409        5.0030495525
 C           6.0     2.4203610451        2.8001959686        4.6273720261
 C           6.0     5.1500702343        2.1282094074        4.3337086076
 C           6.0     2.7652360378        7.1548805347        2.7127016554
 C           6.0     6.1353733643        1.3443510677        2.0265421492
 C           6.0     6.7204325301        2.2022866661        6.4416979469
 C           6.0     8.6651495441        0.6249323841        1.8243414685
 C           6.0     9.2394372718        1.5070564752        6.2529143208
 C           6.0    10.2345669769        0.7088362180        3.9465037528
 H           1.0     3.0980167843        6.2733233614        6.6720555448
 H           1.0     0.0000000000        5.9686995322        5.4524263924
 H           1.0     1.3383039445        2.1514530370        2.9553424722
 H           1.0     1.6342350342        1.7478075660        6.2561268550
 H           1.0     1.6092906511        6.6824490378        1.0565457997
 H           1.0     4.7462357908        6.8209659527        2.1937828991
 H           1.0     2.5456498781        9.1880367249        3.0662693877
 H           1.0     4.9168780475        1.3067455205        0.3486544447
 H           1.0     5.9662428884        2.8391243240        8.2677401689
 H           1.0     9.4042213779        0.0000000000        0.0000000000
 H           1.0    10.4554759449        1.5799998983        7.9245659295
 H           1.0    12.2123541957        0.1339815725        3.8021286873

          INTERNUCLEAR DISTANCES (ANGS.)




     $CONTRL OPTIONS
     ---------------
 SCFTYP=RHF          RUNTYP=OPTIMIZE     EXETYP=RUN     
 MPLEVL=       0     CITYP =NONE         CCTYP =NONE         VBTYP =NONE    
 DFTTYP=NONE         TDDFT =NONE    
 MULT  =       1     ICHARG=       0     NZVAR =       1     COORD =UNIQUE  
 PP    =NONE         RELWFN=NONE         LOCAL =NONE         NUMGRD=       F
 ISPHER=      -1     NOSYM =       0     MAXIT =     200     UNITS =ANGS    
 PLTORB=       F     MOLPLT=       F     AIMPAC=       F     FRIEND=        
 NPRINT=       7     IREST =       0     GEOM  =INPUT   
 NORMF =       0     NORMP =       0     ITOL  =      20     ICUT  =       9
 INTTYP=BEST         GRDTYP=BEST         QMTTOL= 1.0E-06

     $SYSTEM OPTIONS
     ---------------
  REPLICATED MEMORY=    40000000 WORDS (ON EVERY NODE).
 DISTRIBUTED MEMDDI=           0 MILLION WORDS IN AGGREGATE,
 MEMDDI DISTRIBUTED OVER   1 PROCESSORS IS           0 WORDS/PROCESSOR.
 TOTAL MEMORY REQUESTED ON EACH PROCESSOR=    40000000 WORDS.
 TIMLIM=       10000.00 MINUTES, OR       6.9 DAYS.
 PARALL= F  BALTYP=  DLB     KDIAG=    0  COREFL= F
 MXSEQ2=     300 MXSEQ3=     150  mem10=         0

     $COSGMS OPTIONS
     ---------------
     EPSI  =   INFTY     NSPA  =      92     COSRAD=    1.40
     DISEX =   10.00     OUTCHG=DBLCAV       COSBUG=       F
     COSWRT=       F     DCOSMO=       F

     SYMMETRY COORDINATES WILL NOT BE USED FOR 
     THE COSMO CALCULATION, EVEN IF SPECIFIED:
         -- SWITCHING TO C1 POINT GROUP --


     DEFINITION OF CAVITY
     ---------------------------
     ATOM         COORDINATES           RADIUS 
     1    2.0146    5.6217    5.0030    2.0000
     2    2.4204    2.8002    4.6274    2.0000
     3    5.1501    2.1282    4.3337    2.0000
     4    2.7652    7.1549    2.7127    2.0000
     5    6.1354    1.3444    2.0265    2.0000
     6    6.7204    2.2023    6.4417    2.0000
     7    8.6651    0.6249    1.8243    2.0000
     8    9.2394    1.5071    6.2529    2.0000
     9   10.2346    0.7088    3.9465    2.0000
    10    3.0980    6.2733    6.6721    1.3000
    11    0.0000    5.9687    5.4524    1.3000
    12    1.3383    2.1515    2.9553    1.3000
    13    1.6342    1.7478    6.2561    1.3000
    14    1.6093    6.6824    1.0565    1.3000
    15    4.7462    6.8210    2.1938    1.3000
    16    2.5456    9.1880    3.0663    1.3000
    17    4.9169    1.3067    0.3487    1.3000
    18    5.9662    2.8391    8.2677    1.3000
    19    9.4042    0.0000    0.0000    1.3000
    20   10.4555    1.5800    7.9246    1.3000
    21   12.2124    0.1340    3.8021    1.3000

          ----------------
          PROPERTIES INPUT
          ----------------

     MOMENTS            FIELD           POTENTIAL          DENSITY
 IEMOM =       1   IEFLD =       0   IEPOT =       0   IEDEN =       0
 WHERE =COMASS     WHERE =NUCLEI     WHERE =NUCLEI     WHERE =NUCLEI  
 OUTPUT=BOTH       OUTPUT=BOTH       OUTPUT=BOTH       OUTPUT=BOTH    
 IEMINT=       0   IEFINT=       0                     IEDINT=       0
                                                       MORB  =       0
          EXTRAPOLATION IN EFFECT
          SOSCF IN EFFECT
 ORBITAL PRINTING OPTION: NPREO=     1   243     2     1

     -------------------------------
     INTEGRAL TRANSFORMATION OPTIONS
     -------------------------------
     NWORD  =            0
     CUTOFF = 1.0E-09     MPTRAN =       0
     DIRTRF =       T     AOINTS =DUP     

          ----------------------
          INTEGRAL INPUT OPTIONS
          ----------------------
 NOPK  =       1 NORDER=       0 SCHWRZ=       T


 -----------------------------------------------
  STATISTICS ON AUTOMATIC COORDINATE GENERATION 
 -----------------------------------------------
  NUMBER OF USER SPECIFIED BONDS                             0
  NUMBER OF BONDS                                           21
  NUMBER OF ANGLES                                          36
  NUMBER OF TORSIONS                                        48
  NUMBER OF EXTRA COORD.                                     0
  NUMBER OF EXTRA COORD. FOR CONSTRAINTS                     0
  NUMBER OF CONSTRAINED COORD.                               0

  TOTAL NUMBER OF PRIMITIVES                               105
 -----------------------------------------------

   --- ENCODED Z MATRIX ---
 COORD  TYPE   I   J   K   L   M   N
    1      1    1   4
    2      1    1  11
    3      1    1  10
    4      1    1   2
    5      1    2  12
    6      1    2   3
    7      1    2  13
    8      1    3   6
    9      1    3   5
   10      1    4  14
   11      1    4  16
   12      1    4  15
   13      1    5   7
   14      1    5  17
   15      1    6   8
   16      1    6  18
   17      1    7  19
   18      1    7   9
   19      1    8  20
   20      1    8   9
   21      1    9  21
   22      2    1   2   3
   23      2    1   2  13
   24      2    1   2  12
   25      2    1   4  16
   26      2    1   4  15
   27      2    1   4  14
   28      2    2   1   4
   29      2    2   1  11
   30      2    2   3   6
   31      2    2   1  10
   32      2    2   3   5
   33      2    3   2  12
   34      2    3   5  17
   35      2    3   5   7
   36      2    3   6  18
   37      2    3   6   8
   38      2    3   2  13
   39      2    4   1  11
   40      2    4   1  10
   41      2    5   7   9
   42      2    5   7  19
   43      2    5   3   6
   44      2    6   8   9
   45      2    6   8  20
   46      2    7   5  17
   47      2    7   9  21
   48      2    7   9   8
   49      2    8   6  18
   50      2    8   9  21
   51      2    9   8  20
   52      2    9   7  19
   53      2   10   1  11
   54      2   12   2  13
   55      2   14   4  15
   56      2   14   4  16
   57      2   15   4  16
   58      3    1   2   3   5
   59      3    1   2   3   6
   60      3    2   1   4  16
   61      3    2   3   5  17
   62      3    2   3   5   7
   63      3    2   1   4  14
   64      3    2   1   4  15
   65      3    2   3   6  18
   66      3    2   3   6   8
   67      3    3   6   8   9
   68      3    3   6   8  20
   69      3    3   2   1  10
   70      3    3   5   7   9
   71      3    3   5   7  19
   72      3    3   2   1   4
   73      3    3   2   1  11
   74      3    4   1   2  13
   75      3    4   1   2  12
   76      3    5   3   6   8
   77      3    5   3   6  18
   78      3    5   3   2  13
   79      3    5   3   2  12
   80      3    5   7   9  21
   81      3    5   7   9   8
   82      3    6   3   2  12
   83      3    6   3   5   7
   84      3    6   3   5  17
   85      3    6   8   9  21
   86      3    6   8   9   7
   87      3    6   3   2  13
   88      3    7   9   8  20
   89      3    8   9   7  19
   90      3    9   8   6  18
   91      3    9   7   5  17
   92      3   10   1   4  16
   93      3   10   1   2  12
   94      3   10   1   4  14
   95      3   10   1   2  13
   96      3   10   1   4  15
   97      3   11   1   4  15
   98      3   11   1   2  13
   99      3   11   1   4  16
  100      3   11   1   2  12
  101      3   11   1   4  14
  102      3   17   5   7  19
  103      3   18   6   8  20
  104      3   19   7   9  21
  105      3   20   8   9  21

          INDEP./SYM. INTERNAL COORDINATES
          --------------------------------
 CRD  1=  -0.1542 (  4) -0.1561 (  6) -0.6314 ( 22)  0.2044 ( 23)  0.1484 ( 24)
          -0.3776 ( 28)  0.1388 ( 29)  0.1654 ( 33)  0.2399 ( 38)  0.1496 ( 39)
           0.1211 ( 58) -0.1325 ( 62)  0.1201 ( 66) -0.1230 ( 72)  0.1117 ( 78)
          -0.1062 ( 82)
 CRD  2=  -0.1369 (  8)  0.1041 (  9)  0.1043 ( 13) -0.1315 ( 15) -0.2318 ( 22)
           0.1440 ( 24)  0.2268 ( 28) -0.5379 ( 30) -0.1334 ( 31)  0.5168 ( 32)
           0.1413 ( 33)  0.1034 ( 34) -0.1105 ( 35) -0.1031 ( 36) -0.1669 ( 58)
          -0.1831 ( 59)  0.1123 ( 69)  0.1302 ( 72)  0.1531 ( 73)
 CRD  3=   0.1518 ( 22)  0.1312 ( 23) -0.2473 ( 24)  0.1006 ( 25) -0.1489 ( 27)
          -0.4212 ( 28)  0.1559 ( 29) -0.2189 ( 30)  0.1312 ( 31)  0.2562 ( 32)
           0.1141 ( 33) -0.1906 ( 38)  0.2099 ( 40)  0.2410 ( 58)  0.2897 ( 59)
           0.1308 ( 69)  0.2050 ( 72)  0.1571 ( 74)  0.1324 ( 75)  0.1077 ( 78)
           0.1109 ( 79)  0.1597 ( 82)  0.1564 ( 87)
 CRD  4=   0.2970 (  1) -0.2124 (  6) -0.2474 (  9) -0.1192 ( 13) -0.1709 ( 22)
           0.2179 ( 23)  0.2501 ( 26)  0.3611 ( 28) -0.1746 ( 31) -0.1580 ( 32)
           0.1552 ( 33) -0.1045 ( 38) -0.2034 ( 39)  0.1035 ( 43) -0.1074 ( 55)
           0.2059 ( 58)  0.1912 ( 59)  0.1857 ( 72)  0.1194 ( 73)  0.1405 ( 75)
           0.1162 ( 78)  0.1349 ( 79)  0.1202 ( 82)  0.1015 ( 87)
 CRD  5=  -0.2219 (  4) -0.5274 (  6) -0.2652 (  8) -0.1808 (  9) -0.1700 ( 13)
          -0.2023 ( 15)  0.1791 ( 22) -0.1839 ( 30) -0.1055 ( 32) -0.1367 ( 33)
          -0.1130 ( 35) -0.1122 ( 38)  0.1057 ( 39)  0.2872 ( 43)  0.1130 ( 46)
           0.1335 ( 49)  0.1145 ( 51)  0.1070 ( 52)  0.1426 ( 62) -0.1293 ( 66)
 CRD  6=  -0.2770 (  1) -0.3963 (  4)  0.2352 (  8) -0.1571 (  9) -0.1098 ( 22)
          -0.1392 ( 25) -0.1432 ( 27)  0.1319 ( 29)  0.1359 ( 30) -0.2075 ( 31)
           0.1132 ( 33) -0.1300 ( 39)  0.1920 ( 40)  0.1155 ( 56) -0.1762 ( 58)
          -0.1344 ( 59)  0.1743 ( 62)  0.1385 ( 63)  0.1343 ( 64) -0.1293 ( 65)
          -0.1433 ( 66)  0.1068 ( 69)  0.1968 ( 72)  0.1178 ( 73)  0.1012 ( 74)
          -0.1010 ( 76) -0.1056 ( 79)  0.1364 ( 83)
 CRD  7=  -0.2465 (  4)  0.2033 (  8)  0.2542 (  9)  0.1008 ( 14) -0.2100 ( 15)
          -0.2066 ( 18) -0.3047 ( 20) -0.2013 ( 21) -0.1669 ( 25)  0.2489 ( 27)
          -0.1322 ( 29)  0.2130 ( 34) -0.1307 ( 35)  0.2804 ( 36)  0.1650 ( 42)
           0.1902 ( 48) -0.1891 ( 49) -0.1609 ( 50) -0.1356 ( 51) -0.1468 ( 52)
 CRD  8=   0.1269 (  4)  0.1438 (  9) -0.3812 ( 13)  0.1592 ( 15)  0.1528 ( 16)
          -0.3543 ( 18)  0.1003 ( 20) -0.1334 ( 21) -0.2194 ( 27)  0.2956 ( 34)
          -0.1716 ( 37)  0.1337 ( 45) -0.3183 ( 46) -0.3353 ( 47)  0.1266 ( 48)
           0.1722 ( 49)  0.2087 ( 50)
 CRD  9=   0.1062 (  1)  0.2860 (  4)  0.1491 (  8)  0.1036 ( 14) -0.2608 ( 15)
          -0.2527 ( 20) -0.1216 ( 21)  0.1195 ( 24)  0.3461 ( 25) -0.2926 ( 27)
          -0.1116 ( 28)  0.1162 ( 29) -0.1146 ( 32) -0.1077 ( 33) -0.1338 ( 35)
           0.2254 ( 36)  0.1431 ( 40)  0.1022 ( 46)  0.1200 ( 47)  0.1135 ( 48)
          -0.2231 ( 49) -0.2336 ( 50) -0.1515 ( 57) -0.1281 ( 58) -0.1239 ( 59)
          -0.1359 ( 78) -0.1318 ( 87)
 CRD 10=   0.4716 (  1)  0.1270 ( 15)  0.3313 ( 25) -0.2163 ( 26)  0.2853 ( 27)
          -0.1351 ( 31)  0.1467 ( 39)  0.1161 ( 40) -0.2730 ( 56)  0.1268 ( 60)
           0.1049 ( 61)  0.1726 ( 62) -0.1160 ( 65) -0.1526 ( 66)  0.1248 ( 73)
          -0.1077 ( 76)  0.1248 ( 83)
 CRD 11=  -0.1581 (  1)  0.1300 (  4)  0.2343 (  8)  0.1258 (  9) -0.2082 ( 13)
          -0.1407 ( 15)  0.3129 ( 18)  0.1513 ( 19)  0.2265 ( 20) -0.2261 ( 26)
           0.1650 ( 27)  0.2355 ( 34)  0.1636 ( 36) -0.3120 ( 42) -0.1033 ( 44)
          -0.1798 ( 45) -0.1878 ( 46) -0.2151 ( 49)  0.2832 ( 51)  0.2807 ( 52)
           0.1305 ( 57)
 CRD 12=   0.2672 (  1) -0.2579 (  4)  0.2253 (  9) -0.1249 ( 15)  0.1022 ( 16)
           0.1808 ( 17)  0.2865 ( 20) -0.1327 ( 23)  0.3328 ( 26) -0.1786 ( 27)
          -0.1082 ( 29)  0.1355 ( 35)  0.1843 ( 36)  0.1434 ( 38)  0.1369 ( 40)
          -0.1492 ( 41)  0.1414 ( 44) -0.3101 ( 45) -0.1384 ( 46) -0.1005 ( 49)
           0.1687 ( 51)  0.1390 ( 52) -0.1802 ( 57) -0.1141 ( 69) -0.1082 ( 93)
 CRD 13=  -0.1250 (  1)  0.2105 (  4) -0.1080 (  8)  0.1229 ( 13) -0.1184 ( 14)
          -0.1314 ( 15)  0.1212 ( 16)  0.1568 ( 17) -0.2027 ( 18) -0.1615 ( 19)
           0.1561 ( 20)  0.1103 ( 23)  0.1400 ( 24) -0.1680 ( 26)  0.1055 ( 27)
           0.2082 ( 29) -0.1967 ( 34)  0.1488 ( 35)  0.1710 ( 36) -0.1786 ( 37)
          -0.1665 ( 39) -0.2115 ( 41)  0.2876 ( 42)  0.1868 ( 44) -0.2246 ( 45)
          -0.1419 ( 47)  0.1134 ( 50)  0.1004 ( 57)  0.1423 ( 60)  0.1336 ( 63)
           0.1232 ( 64) -0.1100 ( 66)  0.1274 ( 82)
 CRD 14=  -0.2530 (  8) -0.2524 (  9) -0.2709 ( 13) -0.2468 ( 14) -0.2813 ( 15)
          -0.2402 ( 16) -0.2357 ( 17) -0.2567 ( 18) -0.2399 ( 19) -0.2302 ( 20)
           0.1150 ( 30)  0.1144 ( 32)  0.1202 ( 35)  0.1149 ( 37)  0.1094 ( 41)
          -0.1736 ( 42) -0.2294 ( 43)  0.1151 ( 44) -0.1994 ( 45) -0.1780 ( 46)
          -0.2304 ( 48) -0.1862 ( 49)  0.1313 ( 50)
 CRD 15=   0.1028 (  8)  0.1393 ( 13)  0.1367 ( 14) -0.1225 ( 15) -0.1232 ( 16)
          -0.1240 ( 17) -0.1476 ( 18)  0.1327 ( 19)  0.1504 ( 20) -0.1873 ( 35)
           0.1787 ( 37)  0.1767 ( 41)  0.1891 ( 42) -0.1823 ( 44) -0.1726 ( 45)
           0.2200 ( 46) -0.3429 ( 47) -0.2062 ( 49)  0.3356 ( 50)  0.3549 ( 51)
          -0.3659 ( 52)
 CRD 16=  -0.2704 (  4) -0.1935 (  7) -0.1266 ( 12) -0.1181 ( 14)  0.1014 ( 16)
           0.1384 ( 22) -0.1115 ( 23) -0.1940 ( 24)  0.2133 ( 25) -0.3848 ( 26)
           0.1159 ( 27) -0.1387 ( 31)  0.1111 ( 33) -0.1161 ( 37) -0.1117 ( 41)
           0.1235 ( 54)  0.1188 ( 55) -0.1515 ( 56) -0.1324 ( 61) -0.1708 ( 62)
           0.1267 ( 65)  0.1872 ( 66)  0.1267 ( 72)  0.1214 ( 73)  0.1647 ( 76)
           0.1042 ( 77)  0.1059 ( 80)  0.1238 ( 81) -0.1206 ( 82) -0.1488 ( 83)
          -0.1104 ( 84) -0.1091 ( 86)
 CRD 17=  -0.1774 (  1) -0.1574 (  2) -0.1433 (  3) -0.1267 ( 10)  0.1665 ( 11)
          -0.1389 ( 22)  0.4073 ( 25) -0.2397 ( 26) -0.3451 ( 27)  0.2529 ( 28)
          -0.2428 ( 29) -0.2275 ( 40)  0.1315 ( 53)  0.2890 ( 55) -0.1083 ( 63)
          -0.1131 ( 66) -0.1126 ( 76)
 CRD 18=   0.1220 (  4)  0.1916 (  5)  0.1353 (  8) -0.1144 ( 14)  0.1681 ( 16)
           0.2883 ( 23) -0.1972 ( 24) -0.1366 ( 29)  0.2488 ( 31)  0.2939 ( 33)
          -0.1031 ( 34)  0.1024 ( 35)  0.1385 ( 36) -0.1085 ( 37) -0.2564 ( 38)
           0.1717 ( 39) -0.1803 ( 40)  0.1007 ( 44) -0.1052 ( 60) -0.1121 ( 63)
          -0.1190 ( 64) -0.1025 ( 67)  0.1754 ( 69) -0.1057 ( 70) -0.1013 ( 71)
           0.1517 ( 73) -0.1132 ( 75) -0.2143 ( 78) -0.1601 ( 79) -0.1430 ( 82)
          -0.1973 ( 87)
 CRD 19=  -0.2380 (  6)  0.1044 (  9)  0.1381 ( 13)  0.2844 ( 14)  0.1340 ( 15)
           0.2661 ( 16) -0.2531 ( 17) -0.2536 ( 19)  0.4025 ( 21)  0.1383 ( 34)
          -0.1377 ( 35)  0.1207 ( 36) -0.1269 ( 37)  0.2554 ( 41) -0.1133 ( 42)
           0.2526 ( 44) -0.1132 ( 45)  0.1462 ( 47) -0.2914 ( 48)  0.1452 ( 50)
          -0.1394 ( 51) -0.1421 ( 52)
 CRD 20=   0.2220 (  3)  0.3530 (  5) -0.2520 (  7)  0.1029 (  8) -0.2287 ( 23)
           0.2542 ( 24) -0.1137 ( 29)  0.1550 ( 31)  0.1734 ( 39) -0.1454 ( 58)
          -0.1297 ( 59)  0.1910 ( 67)  0.1619 ( 68)  0.1089 ( 69)  0.1918 ( 70)
           0.1547 ( 71)  0.1660 ( 73)  0.1156 ( 79)  0.1313 ( 82) -0.1110 ( 83)
          -0.1003 ( 85) -0.1088 ( 86)  0.1111 ( 87)  0.1399 ( 90)  0.1527 ( 91)
           0.1051 ( 98)  0.1156 (102)  0.1108 (103)
 CRD 21=  -0.3849 (  2)  0.4245 (  3)  0.1315 (  5)  0.1232 (  7)  0.1430 ( 10)
          -0.1443 ( 12) -0.1227 ( 26)  0.1413 ( 27)  0.1792 ( 38) -0.1152 ( 39)
          -0.1052 ( 56)  0.1029 ( 57) -0.2088 ( 60) -0.1664 ( 63) -0.1654 ( 64)
          -0.1500 ( 67) -0.1250 ( 68) -0.1470 ( 70) -0.1144 ( 71)  0.1315 ( 72)
           0.2465 ( 74)  0.1798 ( 75)  0.1098 ( 83)  0.1118 ( 86) -0.1257 ( 90)
          -0.1368 ( 91) -0.1042 (102) -0.1006 (103)
 CRD 22=  -0.2381 (  2)  0.1839 (  3)  0.2003 (  7)  0.1623 ( 23) -0.1745 ( 24)
           0.1025 ( 33) -0.1695 ( 39)  0.1286 ( 40) -0.1011 ( 60) -0.1089 ( 61)
          -0.1295 ( 65)  0.1924 ( 67)  0.1394 ( 68) -0.1040 ( 69)  0.2014 ( 70)
           0.1611 ( 71) -0.1242 ( 73) -0.1195 ( 76) -0.1505 ( 77) -0.1924 ( 78)
          -0.2007 ( 79) -0.1123 ( 80) -0.1282 ( 81) -0.2229 ( 82) -0.2146 ( 87)
           0.2237 ( 90)  0.2107 ( 91) -0.1142 (100)  0.1704 (102)  0.1707 (103)
 CRD 23=   0.1738 (  1)  0.5046 ( 10)  0.4814 ( 11)  0.5013 ( 12) -0.1936 ( 25)
          -0.1768 ( 26) -0.1776 ( 27)  0.1880 ( 55)  0.2006 ( 56)  0.1983 ( 57)
 CRD 24=   0.5734 (  5)  0.5531 (  7) -0.1465 ( 10)  0.1388 ( 12)  0.2076 ( 54)
           0.1054 ( 78) -0.1198 ( 79)  0.1420 ( 87) -0.1127 ( 88)  0.1117 ( 89)
 CRD 25=   0.2749 (  2)  0.1976 (  3) -0.5160 ( 11)  0.3816 ( 12)  0.2731 ( 55)
          -0.2078 ( 56)  0.1603 ( 63) -0.1203 ( 64) -0.1058 ( 68)  0.1029 ( 71)
           0.1562 ( 88) -0.1558 ( 89)  0.1258 ( 94) -0.1549 ( 96) -0.1148 ( 97)
           0.1658 (101)
 CRD 26=   0.1724 (  7)  0.5607 ( 10) -0.3282 ( 11) -0.2458 ( 12)  0.1639 ( 55)
           0.1349 ( 56) -0.2965 ( 57)  0.1777 ( 60) -0.1425 ( 64)  0.1133 ( 68)
          -0.1103 ( 71) -0.1020 ( 86) -0.1685 ( 88)  0.1680 ( 89)  0.1832 ( 92)
          -0.1370 ( 96) -0.1420 ( 97)  0.1782 ( 99)
 CRD 27=   0.2205 (  2)  0.1685 (  5)  0.2077 ( 10)  0.1813 ( 11) -0.4069 ( 12)
          -0.1071 ( 17) -0.1074 ( 24)  0.1106 ( 54)  0.2103 ( 56) -0.1194 ( 57)
           0.1443 ( 60) -0.1773 ( 68)  0.1741 ( 71) -0.1184 ( 77)  0.1419 ( 78)
          -0.1444 ( 81) -0.1212 ( 82)  0.1272 ( 84)  0.1468 ( 86)  0.2560 ( 88)
          -0.2548 ( 89) -0.1342 ( 94)  0.1220 ( 99) -0.1087 (101) -0.1329 (104)
           0.1339 (105)
 CRD 28=  -0.5314 (  2) -0.5572 (  3)  0.1103 ( 10) -0.1324 ( 11)  0.1310 ( 12)
          -0.2280 ( 53) -0.1053 ( 68)  0.1046 ( 71)  0.1210 ( 73)  0.1467 ( 88)
          -0.1447 ( 89)  0.1103 ( 92)  0.1609 ( 94) -0.1228 ( 97)  0.1058 ( 98)
           0.1260 (100)
 CRD 29=  -0.3245 (  5)  0.3933 (  7) -0.1371 ( 29)  0.1475 ( 31) -0.1090 ( 33)
           0.1038 ( 38)  0.1296 ( 39) -0.1382 ( 40)  0.1154 ( 63)  0.1268 ( 64)
           0.1119 ( 69)  0.1546 ( 74)  0.1716 ( 75) -0.1057 ( 79) -0.1298 ( 82)
           0.1418 ( 92)  0.2535 ( 93)  0.1943 ( 94)  0.2365 ( 95)  0.2057 ( 96)
           0.2205 ( 97)  0.2121 ( 98)  0.1565 ( 99)  0.2292 (100)  0.2091 (101)
 CRD 30=  -0.1587 (  5)  0.4152 (  6) -0.1480 (  7) -0.1578 ( 13)  0.1867 ( 14)
          -0.1502 ( 15)  0.2131 ( 16) -0.2704 ( 17) -0.2561 ( 19) -0.1827 ( 21)
           0.1167 ( 33) -0.1319 ( 34) -0.1044 ( 35) -0.1080 ( 36) -0.1097 ( 37)
           0.1346 ( 38) -0.1179 ( 42)  0.1472 ( 43) -0.1127 ( 45)  0.2367 ( 46)
           0.2183 ( 49)  0.1024 ( 51)  0.1053 ( 52) -0.1673 ( 54)  0.1183 ( 74)
          -0.1089 ( 75) -0.1137 ( 88)  0.1144 ( 89) -0.1274 ( 93)  0.1193 ( 98)
          -0.1079 (100)
 CRD 31=   0.2240 ( 61) -0.2244 ( 65)  0.1093 ( 67) -0.1081 ( 70) -0.2910 ( 77)
           0.3710 ( 80)  0.1489 ( 81)  0.2916 ( 84) -0.3725 ( 85) -0.1499 ( 86)
           0.3339 ( 90) -0.3347 ( 91) -0.1512 (102)  0.1522 (103)  0.1859 (104)
          -0.1910 (105)
 CRD 32=  -0.2375 (  2)  0.2320 (  3)  0.2107 (  5) -0.1978 (  7)  0.1003 (  9)
           0.2848 ( 14) -0.2271 ( 16)  0.1745 ( 17) -0.2448 ( 19)  0.1105 ( 30)
          -0.1165 ( 32)  0.1225 ( 34) -0.1667 ( 36) -0.1211 ( 38)  0.1460 ( 49)
           0.1657 ( 60)  0.1575 ( 63)  0.1544 ( 64)  0.2086 ( 92)  0.2004 ( 94)
          -0.1054 ( 95)  0.1973 ( 96)  0.2135 ( 97) -0.1137 ( 98)  0.2248 ( 99)
           0.2166 (101)
 CRD 33=   0.2238 (  2) -0.2251 (  3)  0.2580 ( 14) -0.2820 ( 16)  0.3728 ( 17)
          -0.3543 ( 19)  0.1225 ( 34) -0.1064 ( 36) -0.1777 ( 47)  0.1784 ( 50)
          -0.1277 ( 60)  0.1340 ( 69)  0.1118 ( 72)  0.1426 ( 73)  0.1366 ( 74)
          -0.1480 ( 92)  0.1185 ( 93) -0.1174 ( 94)  0.1588 ( 95) -0.1159 ( 96)
          -0.1200 ( 97)  0.1674 ( 98) -0.1521 ( 99)  0.1271 (100) -0.1215 (101)
 CRD 34=   0.1559 (  6) -0.2807 ( 13) -0.2523 ( 14) -0.2789 ( 15) -0.2550 ( 16)
           0.1378 ( 18)  0.1339 ( 20)  0.6332 ( 21)  0.1942 ( 42)  0.1722 ( 43)
           0.2199 ( 45) -0.1649 ( 51) -0.1416 ( 52)
 CRD 35=   0.1435 (  5) -0.1088 (  7) -0.1460 ( 17)  0.1312 ( 19)  0.1629 ( 30)
          -0.1722 ( 32)  0.2542 ( 34) -0.2531 ( 36)  0.2890 ( 42) -0.2677 ( 45)
          -0.2526 ( 46)  0.3125 ( 47)  0.2600 ( 49) -0.3181 ( 50)  0.2564 ( 51)
          -0.2712 ( 52)
 CRD 36=  -0.2382 (  8)  0.2392 (  9)  0.3730 ( 14) -0.3752 ( 16) -0.3565 ( 17)
          -0.2435 ( 18)  0.3539 ( 19)  0.2469 ( 20) -0.1619 ( 34)  0.1019 ( 35)
           0.1619 ( 36) -0.1027 ( 37) -0.1072 ( 41)  0.1056 ( 44) -0.1799 ( 51)
           0.1809 ( 52)
 CRD 37=  -0.2800 (  8) -0.2750 (  9) -0.1007 ( 13)  0.3085 ( 14)  0.3182 ( 16)
           0.3792 ( 17) -0.1867 ( 18)  0.3789 ( 19) -0.1926 ( 20)  0.2181 ( 21)
           0.1041 ( 38)
 CRD 38=   0.1326 (  1)  0.1121 (  4)  0.1183 (  6)  0.1656 (  7) -0.1021 (  9)
          -0.2005 ( 10) -0.2963 ( 11) -0.1598 ( 12)  0.1636 ( 14)  0.1306 ( 17)
           0.1264 ( 19)  0.1222 ( 21) -0.2288 ( 25) -0.1881 ( 26) -0.1969 ( 27)
          -0.1633 ( 29) -0.1727 ( 31)  0.1925 ( 39)  0.1822 ( 40) -0.1004 ( 54)
           0.1575 ( 55)  0.2656 ( 56)  0.2343 ( 57)  0.1443 ( 73)  0.1268 ( 82)
          -0.1650 ( 93) -0.1284 ( 94) -0.1341 ( 95)  0.1089 ( 98)
 CRD 39=  -0.2245 (  1) -0.1334 (  2) -0.2190 (  4)  0.1980 (  6)  0.1117 ( 10)
           0.1862 ( 12) -0.1133 ( 13) -0.1155 ( 15)  0.1320 ( 16) -0.1180 ( 20)
           0.1768 ( 21)  0.1564 ( 23)  0.1864 ( 24)  0.1202 ( 25)  0.1410 ( 26)
           0.1235 ( 27) -0.1421 ( 33) -0.1351 ( 38)  0.1104 ( 53) -0.1654 ( 55)
          -0.1518 ( 57) -0.1523 ( 68)  0.1505 ( 71)  0.1092 ( 77) -0.1755 ( 78)
           0.1557 ( 80)  0.1897 ( 82) -0.1108 ( 84) -0.1557 ( 85)  0.1053 ( 88)
          -0.1048 ( 89)  0.1170 ( 93) -0.1332 ( 94) -0.1035 ( 96)  0.1862 (102)
          -0.1860 (103)
 CRD 40=   0.1027 (  1) -0.1414 (  3)  0.2283 (  5) -0.1505 (  7) -0.3825 (  8)
           0.3857 (  9) -0.1070 ( 12) -0.2114 ( 14)  0.2074 ( 16)  0.3075 ( 18)
          -0.3084 ( 20)  0.1051 ( 23) -0.1045 ( 35)  0.1023 ( 37)  0.1174 ( 46)
          -0.2066 ( 47) -0.1146 ( 49)  0.2077 ( 50)  0.1098 ( 57)  0.1029 ( 97)
 CRD 41=   0.1138 (  1) -0.1038 (  6) -0.1168 (  7)  0.2159 (  8)  0.2251 (  9)
          -0.2021 ( 18) -0.2074 ( 20)  0.3192 ( 21)  0.1109 ( 30)  0.1114 ( 32)
          -0.2059 ( 34) -0.2132 ( 36) -0.1032 ( 42) -0.2190 ( 43)  0.1389 ( 46)
           0.1722 ( 48)  0.1407 ( 49)  0.1424 ( 51)  0.1512 ( 52)  0.1458 ( 54)
          -0.1000 ( 71)  0.1010 ( 75) -0.1433 ( 80) -0.1000 ( 82)  0.1442 ( 85)
           0.1479 ( 93)  0.1290 (100) -0.1636 (102)  0.1648 (103)
 CRD 42=  -0.1033 (  8)  0.1039 (  9) -0.4986 ( 13)  0.2137 ( 14)  0.4965 ( 15)
          -0.2116 ( 16)  0.1564 ( 17)  0.1421 ( 18) -0.1577 ( 19) -0.1436 ( 20)
          -0.1995 ( 34)  0.1046 ( 35)  0.1981 ( 36) -0.1040 ( 37)  0.1504 ( 42)
          -0.1497 ( 45)  0.2094 ( 51) -0.2105 ( 52)
 CRD 43=  -0.1905 (  8) -0.1647 (  9)  0.2821 ( 14)  0.2955 ( 16) -0.2779 ( 17)
           0.2144 ( 18) -0.2468 ( 19)  0.1692 ( 20)  0.2264 ( 35)  0.2311 ( 37)
          -0.2252 ( 41)  0.2458 ( 42) -0.1128 ( 43) -0.2085 ( 44)  0.2407 ( 45)
          -0.2311 ( 46) -0.2245 ( 49)
 CRD 44=  -0.3360 (  1)  0.2311 (  4)  0.1995 ( 10) -0.1232 ( 11)  0.1758 ( 12)
          -0.1796 ( 29) -0.1601 ( 31)  0.1089 ( 39)  0.1175 ( 40)  0.1148 ( 53)
          -0.2496 ( 55) -0.1295 ( 62) -0.1035 ( 63)  0.1262 ( 66)  0.1235 ( 68)
          -0.1820 ( 80)  0.1365 ( 84)  0.1831 ( 85) -0.1309 ( 88) -0.1443 ( 91)
          -0.1317 ( 92) -0.2217 ( 94)  0.2494 ( 97)  0.1359 ( 99) -0.1894 (102)
           0.1906 (103) -0.1365 (104)
 CRD 45=  -0.1840 (  2)  0.2436 (  3) -0.1225 (  5)  0.1814 (  6) -0.1059 (  8)
          -0.2190 ( 10)  0.1227 ( 12)  0.2100 ( 18)  0.1862 ( 19) -0.1423 ( 21)
           0.1128 ( 29) -0.1265 ( 32)  0.1598 ( 44) -0.1266 ( 48)  0.1714 ( 50)
          -0.1164 ( 51)  0.1018 ( 54)  0.1128 ( 56) -0.1443 ( 57)  0.1418 ( 60)
           0.1191 ( 61)  0.1080 ( 65)  0.1354 ( 68)  0.1388 ( 69)  0.1131 ( 71)
           0.1525 ( 73)  0.1008 ( 77)  0.1304 ( 84) -0.1362 ( 88) -0.1187 ( 89)
          -0.1060 ( 90) -0.1308 ( 91)  0.1365 ( 93) -0.1568 ( 96) -0.2375 ( 97)
           0.1502 (100) -0.1633 (101) -0.1370 (104) -0.1162 (105)
 CRD 46=   0.1462 (  2) -0.1701 (  6)  0.1001 ( 10)  0.1254 ( 21)  0.1094 ( 48)
          -0.1028 ( 58)  0.2156 ( 61)  0.2182 ( 65)  0.2202 ( 68)  0.2574 ( 71)
           0.2428 ( 77)  0.1909 ( 84) -0.2233 ( 88) -0.2737 ( 89) -0.2553 ( 90)
          -0.1942 ( 91) -0.1382 ( 93)  0.1178 ( 94) -0.2206 (104) -0.2763 (105)
 CRD 47=   0.2120 (  1) -0.1716 (  4)  0.1280 (  5)  0.1602 (  6) -0.1319 (  7)
          -0.1633 ( 13)  0.2474 ( 17) -0.1840 ( 18) -0.1139 ( 19)  0.3691 ( 20)
          -0.1425 ( 21)  0.1138 ( 23) -0.1692 ( 33)  0.2255 ( 41)  0.1581 ( 45)
           0.1438 ( 46)  0.2387 ( 47) -0.1331 ( 48) -0.1061 ( 50) -0.1441 ( 52)
          -0.1316 ( 73)  0.1073 ( 75) -0.1190 ( 78) -0.1432 ( 87) -0.1015 ( 88)
           0.1627 ( 93) -0.1141 (104)
 CRD 48=  -0.1058 (  2) -0.2701 (  8)  0.1321 ( 12)  0.2869 ( 13) -0.1753 ( 14)
           0.3066 ( 15) -0.3139 ( 18) -0.2028 ( 19)  0.2041 ( 21) -0.1290 ( 32)
           0.1566 ( 34) -0.1776 ( 35)  0.1541 ( 36) -0.1666 ( 42)  0.1697 ( 43)
          -0.2074 ( 44)  0.2082 ( 48) -0.1644 ( 49) -0.1940 ( 50)  0.1935 ( 51)
           0.1698 ( 52)  0.1037 ( 56)  0.1158 ( 60) -0.1211 ( 94)
 CRD 49=   0.2110 (  1) -0.1028 (  3) -0.2039 (  4)  0.2600 (  6)  0.1221 (  8)
          -0.3351 (  9) -0.1112 ( 12)  0.1503 ( 13)  0.1557 ( 15) -0.1776 ( 16)
          -0.1310 ( 17) -0.2146 ( 20)  0.1169 ( 24) -0.2077 ( 30) -0.1852 ( 33)
           0.1358 ( 36) -0.2014 ( 37) -0.1442 ( 41)  0.1419 ( 43) -0.1391 ( 45)
          -0.1456 ( 46) -0.1195 ( 47)  0.1012 ( 53) -0.1699 ( 73) -0.1002 ( 78)
          -0.1285 ( 87)  0.1206 ( 93) -0.1368 ( 98)
 CRD 50=  -0.1971 (  1)  0.1431 (  2)  0.1002 (  3) -0.2039 (  4)  0.1652 (  7)
          -0.1197 (  8)  0.2947 ( 11) -0.1621 ( 12)  0.1003 ( 23) -0.1307 ( 38)
          -0.1883 ( 53) -0.1088 ( 54)  0.1646 ( 55) -0.1771 ( 56) -0.1333 ( 62)
           0.1647 ( 63) -0.1455 ( 64)  0.1175 ( 66)  0.1512 ( 73)  0.1729 ( 79)
          -0.1369 ( 80)  0.1345 ( 82)  0.1246 ( 85)  0.1115 ( 90) -0.1656 ( 93)
           0.2443 ( 94) -0.1485 ( 95) -0.1828 ( 97)  0.1275 (101) -0.1329 (102)
           0.1421 (105)
 CRD 51=   0.2546 (  5) -0.2464 (  6)  0.1148 (  8) -0.2456 ( 10)  0.1944 ( 12)
           0.1317 ( 22) -0.1132 ( 26)  0.1212 ( 27)  0.1142 ( 32)  0.1234 ( 38)
          -0.1087 ( 39) -0.2525 ( 54)  0.1569 ( 56) -0.1713 ( 57)  0.2335 ( 60)
           0.2685 ( 74) -0.1638 ( 78) -0.1559 ( 87)  0.2172 ( 92)  0.2247 ( 95)
           0.1601 ( 98)  0.2392 ( 99) -0.1558 (100)
 CRD 52=   0.1384 (  1) -0.2529 (  4)  0.2158 (  7)  0.1287 ( 10) -0.2425 ( 11)
           0.1530 ( 25) -0.1136 ( 27)  0.1505 ( 29)  0.1477 ( 31)  0.1057 ( 33)
          -0.1230 ( 39) -0.1573 ( 40) -0.1552 ( 55)  0.1222 ( 57) -0.1232 ( 58)
          -0.1493 ( 63)  0.1844 ( 64)  0.1521 ( 69) -0.1382 ( 75)  0.1044 ( 79)
           0.1428 ( 82) -0.1006 ( 83)  0.2981 ( 96) -0.1588 ( 99) -0.1519 (100)
          -0.2911 (101)  0.1207 (105)
 CRD 53=  -0.1743 (  1)  0.2173 (  2)  0.1113 (  3) -0.1694 (  4)  0.1012 (  5)
           0.1055 (  6) -0.1480 (  7) -0.1028 ( 11)  0.1324 ( 12)  0.1844 ( 23)
           0.1378 ( 25)  0.2305 ( 28) -0.1404 ( 33) -0.2451 ( 53) -0.1011 ( 55)
           0.1634 ( 58)  0.1039 ( 59) -0.1723 ( 63) -0.2930 ( 69)  0.1870 ( 75)
          -0.1074 ( 87)  0.2332 ( 92) -0.1779 ( 95)  0.2362 ( 96)  0.1350 ( 98)
           0.2621 (100) -0.2431 (101)
 CRD 54=  -0.1975 ( 61)  0.1491 ( 62) -0.2148 ( 65)  0.1412 ( 66) -0.2864 ( 67)
          -0.2945 ( 70)  0.1517 ( 76) -0.2043 ( 77)  0.1359 ( 80)  0.1597 ( 81)
           0.1384 ( 83) -0.2083 ( 84)  0.1520 ( 85)  0.1282 ( 86) -0.1848 ( 88)
          -0.1815 ( 89)  0.3906 (102)  0.3824 (103) -0.2053 (104) -0.1610 (105)
 CRD 55=   0.1484 (  2) -0.2219 (  3) -0.1693 (  5)  0.1126 (  6) -0.1338 ( 10)
           0.1064 ( 12)  0.1661 ( 24) -0.1151 ( 26)  0.1334 ( 27) -0.1146 ( 29)
           0.1634 ( 31) -0.1300 ( 38) -0.1534 ( 39)  0.1205 ( 40) -0.1659 ( 59)
          -0.2287 ( 63) -0.2653 ( 64)  0.2903 ( 72)  0.1950 ( 75)  0.1109 ( 78)
          -0.1100 ( 81)  0.1088 ( 86)  0.2009 ( 92) -0.1923 ( 95) -0.2828 ( 98)
           0.2469 ( 99) -0.1239 (100)  0.1287 (104) -0.1258 (105)
 CRD 56=  -0.1063 (  7) -0.1389 ( 22)  0.1175 ( 54)  0.1067 ( 59)  0.1738 ( 61)
           0.1365 ( 62) -0.1017 ( 63) -0.1062 ( 64) -0.1401 ( 65) -0.1498 ( 66)
           0.1477 ( 67) -0.1437 ( 68) -0.1100 ( 70)  0.1432 ( 71)  0.1530 ( 75)
          -0.2042 ( 79)  0.3020 ( 81) -0.3217 ( 86)  0.1598 ( 87)  0.1381 ( 90)
          -0.1473 ( 91) -0.1224 ( 95)  0.1059 (102) -0.1534 (103) -0.3432 (104)
           0.3600 (105)
 CRD 57=   0.1537 ( 58) -0.1937 ( 59) -0.3030 ( 61)  0.2904 ( 65)  0.2696 ( 67)
          -0.2702 ( 70) -0.3323 ( 76)  0.1412 ( 78)  0.2459 ( 79)  0.2009 ( 81)
          -0.1016 ( 82)  0.3328 ( 83) -0.2012 ( 86) -0.2062 ( 87)  0.2064 (102)
          -0.2038 (103) -0.1470 (104)  0.1467 (105)

 THE DETERMINANT OF THE G MATRIX IS 10**(   -22)


                     --------------------
                     INTERNAL COORDINATES
                     --------------------

                 - - ATOMS - -         COORDINATE      COORDINATE
 NO.   TYPE    I  J  K  L  M  N        (BOHR,RAD)       (ANG,DEG)
 ----------------------------------------------------------------
   1 STRETCH   1  4                     2.8565004       1.5115950
   2 STRETCH   1 11                     2.0931025       1.1076222
   3 STRETCH   1 10                     2.0937637       1.1079721
   4 STRETCH   1  2                     2.8752199       1.5215009
   5 STRETCH   2 12                     2.0946116       1.1084208
   6 STRETCH   2  3                     2.8265025       1.4957208
   7 STRETCH   2 13                     2.0924526       1.1072783
   8 STRETCH   3  6                     2.6296662       1.3915595
   9 STRETCH   3  5                     2.6283594       1.3908680
  10 STRETCH   4 14                     2.0741874       1.0976128
  11 STRETCH   4 16                     2.0753198       1.0982120
  12 STRETCH   4 15                     2.0748821       1.0979804
  13 STRETCH   5  7                     2.6378430       1.3958865
  14 STRETCH   5 17                     2.0739943       1.0975106
  15 STRETCH   6  8                     2.6199941       1.3864413
  16 STRETCH   6 18                     2.0757636       1.0984469
  17 STRETCH   7 19                     2.0651851       1.0928490
  18 STRETCH   7  9                     2.6407733       1.3974372
  19 STRETCH   8 20                     2.0684511       1.0945773
  20 STRETCH   8  9                     2.6357102       1.3947579
  21 STRETCH   9 21                     2.0646899       1.0925869
  22 BEND      1  2  3                  1.9640119     112.5295921
  23 BEND      1  2 13                  1.9164764     109.8060088
  24 BEND      1  2 12                  1.9127647     109.5933458
  25 BEND      1  4 16                  1.9405750     111.1867585
  26 BEND      1  4 15                  1.9444629     111.4095157
  27 BEND      1  4 14                  1.9514411     111.8093389
  28 BEND      2  1  4                  1.9658481     112.6347972
  29 BEND      2  1 11                  1.9034360     109.0588475
  30 BEND      2  3  6                  2.0791493     119.1264778
  31 BEND      2  1 10                  1.9140245     109.6655234
  32 BEND      2  3  5                  2.1225003     121.6103105
  33 BEND      3  2 12                  1.9201922     110.0189114
  34 BEND      3  5 17                  2.0889925     119.6904529
  35 BEND      3  5  7                  2.1038190     120.5399512
  36 BEND      3  6 18                  2.0907645     119.7919800
  37 BEND      3  6  8                  2.1047234     120.5917663
  38 BEND      3  2 13                  1.9008884     108.9128840
  39 BEND      4  1 11                  1.9135627     109.6390640
  40 BEND      4  1 10                  1.9136234     109.6425443
  41 BEND      5  7  9                  2.0940367     119.9794632
  42 BEND      5  7 19                  2.0868529     119.5678642
  43 BEND      5  3  6                  2.0808174     119.2220536
  44 BEND      6  8  9                  2.1018225     120.4255602
  45 BEND      6  8 20                  2.0916805     119.8444620
  46 BEND      7  5 17                  2.0903391     119.7676087
  47 BEND      7  9 21                  2.0993079     120.2814851
  48 BEND      7  9  8                  2.0811109     119.2388719
  49 BEND      8  6 18                  2.0876223     119.6119456
  50 BEND      8  9 21                  2.1026992     120.4757877
  51 BEND      9  8 20                  2.0896794     119.7298088
  52 BEND      9  7 19                  2.1022954     120.4526533
  53 BEND     10  1 11                  1.8497089     105.9805112
  54 BEND     12  2 13                  1.8457506     105.7537184
  55 BEND     14  4 15                  1.8710242     107.2017890
  56 BEND     14  4 16                  1.8757033     107.4698823
  57 BEND     15  4 16                  1.8768429     107.5351780
  58 TORSION   1  2  3  5              -1.9068795    -109.2561499
  59 TORSION   1  2  3  6               1.2757657      73.0959879
  60 TORSION   2  1  4 16              -3.0911767    -177.1113773
  61 TORSION   2  3  5 17               0.0565814       3.2418736
  62 TORSION   2  3  5  7              -3.0939822    -177.2721224
  63 TORSION   2  1  4 14               1.0954252      62.7632389
  64 TORSION   2  1  4 15              -0.9978672     -57.1735808
  65 TORSION   2  3  6 18              -0.0521802      -2.9897047
  66 TORSION   2  3  6  8               3.1026416     177.7682664
  67 TORSION   3  6  8  9              -0.0061058      -0.3498375
  68 TORSION   3  6  8 20               3.1381039     179.8001101
  69 TORSION   3  2  1 10              -0.9974110     -57.1474397
  70 TORSION   3  5  7  9              -0.0091709      -0.5254535
  71 TORSION   3  5  7 19               3.1333013     179.5249403
  72 TORSION   3  2  1  4               1.1388124      65.2491463
  73 TORSION   3  2  1 11              -3.0157847    -172.7917345
  74 TORSION   4  1  2 13              -3.0239517    -173.2596692
  75 TORSION   4  1  2 12              -1.0036689     -57.5059945
  76 TORSION   5  3  6  8               0.0011083       0.0635017
  77 TORSION   5  3  6 18               3.1294719     179.3055306
  78 TORSION   5  3  2 13               2.2470319     128.7454467
  79 TORSION   5  3  2 12               0.2314248      13.2596638
  80 TORSION   5  7  9 21               3.1333245     179.5262684
  81 TORSION   5  7  9  8               0.0041382       0.2370990
  82 TORSION   6  3  2 12              -2.8691153    -164.3881984
  83 TORSION   6  3  5  7               0.0065196       0.3735470
  84 TORSION   6  3  5 17              -3.1261021    -179.1124570
  85 TORSION   6  8  9 21              -3.1257275    -179.0909929
  86 TORSION   6  8  9  7               0.0034341       0.1967620
  87 TORSION   6  3  2 13              -0.8535082     -48.9024155
  88 TORSION   7  9  8 20              -3.1407726    -179.9530140
  89 TORSION   8  9  7 19              -3.1383419    -179.8137463
  90 TORSION   9  8  6 18              -3.1344931    -179.5932239
  91 TORSION   9  7  5 17               3.1234439     178.9601551
  92 TORSION  10  1  4 16              -0.9547276     -54.7018608
  93 TORSION  10  1  2 12              -3.1398924    -179.9025805
  94 TORSION  10  1  4 14              -3.0513110    -174.8272447
  95 TORSION  10  1  2 13               1.1230102      64.3437448
  96 TORSION  10  1  4 15               1.1385819      65.2359357
  97 TORSION  11  1  4 15              -3.1207189    -178.8040231
  98 TORSION  11  1  2 13              -0.8953635     -51.3005501
  99 TORSION  11  1  4 16               1.0691569      61.2581804
 100 TORSION  11  1  2 12               1.1249192      64.4531246
 101 TORSION  11  1  4 14              -1.0274265     -58.8672034
 102 TORSION  17  5  7 19              -0.0172692      -0.9894511
 103 TORSION  18  6  8 20               0.0097167       0.5567237
 104 TORSION  19  7  9 21              -0.0091556      -0.5245769
 105 TORSION  20  8  9 21               0.0132511       0.7592311

     ------------------------------------------
     THE POINT GROUP IS C1 , NAXIS= 1, ORDER= 1
     ------------------------------------------

     DIMENSIONS OF THE SYMMETRY SUBSPACES ARE
 A   =  243

 ..... DONE SETTING UP THE RUN .....
 STEP CPU TIME =     0.01 TOTAL CPU TIME =        0.0 (    0.0 MIN)
 TOTAL WALL CLOCK TIME=        0.0 SECONDS, CPU UTILIZATION IS  50.00%


          -----------------------------
          STATIONARY POINT LOCATION RUN
          -----------------------------

 OBTAINING INITIAL HESSIAN, HESS=GUESS   
 DIAGONAL GUESS HESSIAN IN INTERNAL COORDS IS
     1  0.3805     2  0.3347     3  0.3345     4  0.3733     5  0.3342
     6  0.3925     7  0.3349     8  0.4806     9  0.4812    10  0.3413
    11  0.3409    12  0.3410    13  0.4765    14  0.3413    15  0.4854
    16  0.3407    17  0.3445    18  0.4751    19  0.3433    20  0.4776
    21  0.3446    22  0.2515    23  0.2236    24  0.2235    25  0.2247
    26  0.2247    27  0.2247    28  0.2504    29  0.2235    30  0.2611
    31  0.2235    32  0.2611    33  0.2250    34  0.2321    35  0.2689
    36  0.2320    37  0.2696    38  0.2251    39  0.2241    40  0.2241
    41  0.2683    42  0.2321    43  0.2692    44  0.2693    45  0.2326
    46  0.2318    47  0.2320    48  0.2684    49  0.2324    50  0.2322
    51  0.2321    52  0.2320    53  0.2016    54  0.2016    55  0.2026
    56  0.2026    57  0.2026    58  0.2500    59  0.2500    60  0.2500
    61  0.2500    62  0.2500    63  0.2500    64  0.2500    65  0.2500
    66  0.2500    67  0.2500    68  0.2500    69  0.2500    70  0.2500
    71  0.2500    72  0.2500    73  0.2500    74  0.2500    75  0.2500
    76  0.2500    77  0.2500    78  0.2500    79  0.2500    80  0.2500
    81  0.2500    82  0.2500    83  0.2500    84  0.2500    85  0.2500
    86  0.2500    87  0.2500    88  0.2500    89  0.2500    90  0.2500
    91  0.2500    92  0.2500    93  0.2500    94  0.2500    95  0.2500
    96  0.2500    97  0.2500    98  0.2500    99  0.2500   100  0.2500
   101  0.2500   102  0.2500   103  0.2500   104  0.2500   105  0.2500
 TRANSFORMING HESSIAN TO SYMMETRY COORDINATES

          PARAMETERS CONTROLLING GEOMETRY SEARCH ARE
          METHOD =QA                  UPHESS =BFGS    
          NNEG   =         0          NFRZ   =         3
          NSTEP  =        50          IFOLOW =         1
          HESS   =GUESS               RESTAR =         F
          IHREP  =         0          HSSEND =         F
          NPRT   =         0          NPUN   =         0
          OPTTOL = 5.000E-04          RMIN   = 1.500E-03
          RMAX   = 1.000E-01          RLIM   = 7.000E-02
          DXMAX  = 3.000E-01          PURIFY =         F
          MOVIE  =         F          TRUPD  =         T
          TRMAX  = 5.000E-01          TRMIN  = 5.000E-02
          ITBMAT =         5          STPT   =         F
          STSTEP = 1.000E-02          PROJCT=          F
          FROZEN COORD(S)=   1   2   3


      ***** EQUILIBRIUM GEOMETRY LOCATED *****
            (SUBJECT TO   3 CONSTRAINT(S))
 COORDINATES OF ALL ATOMS ARE (ANGS)
   ATOM   CHARGE       X              Y              Z
 ------------------------------------------------------------
 C           6.0   1.0698491025   2.9994027531   2.6362244222
 C           6.0   1.2620786213   1.4840170903   2.4565246892
 C           6.0   2.7141282853   1.0766120433   2.3123932873
 C           6.0   1.4599407289   3.8232118421   1.4095825167
 C           6.0   3.2466496933   0.6825662060   1.0909732005
 C           6.0   3.5614791108   1.1170762238   3.4178987046
 C           6.0   4.5906855129   0.3527563576   0.9709531111
 C           6.0   4.9012661046   0.7895911821   3.3039472245
 C           6.0   5.4238250975   0.4081692613   2.0755162210
 H           1.0   1.6451161795   3.3314315469   3.4971858020
 H           1.0   0.0251551040   3.1855263265   2.8735923735
 H           1.0   0.7003026908   1.1483398254   1.5893402776
 H           1.0   0.8376881564   0.9765517170   3.3188727623
 H           1.0   0.8342735388   3.5698293198   0.5571489279
 H           1.0   2.4938765432   3.6509884128   1.1262633320
 H           1.0   1.3425248773   4.8851415493   1.6057103819
 H           1.0   2.6119847442   0.6376056453   0.2225373660
 H           1.0   3.1676999310   1.4089243141   4.3766337745
 H           1.0   4.9835838339   0.0560324118   0.0141466246
 H           1.0   5.5362025282   0.8311143586   4.1715503497
 H           1.0   6.4656395366   0.1569072334   1.9843339214


                     --------------------
                     INTERNAL COORDINATES
                     --------------------

                 - - ATOMS - -         COORDINATE      COORDINATE
 NO.   TYPE    I  J  K  L  M  N        (BOHR,RAD)       (ANG,DEG)
 ----------------------------------------------------------------
   1 STRETCH   1  4                     2.8879337       1.5282288
   2 STRETCH   1 11                     2.0548292       1.0873689
   3 STRETCH   1 10                     2.0548803       1.0873959
   4 STRETCH   1  2                     2.9065177       1.5380630
   5 STRETCH   2 12                     2.0530116       1.0864070
   6 STRETCH   2  3                     2.8629199       1.5149921
   7 STRETCH   2 13                     2.0538745       1.0868636
   8 STRETCH   3  6                     2.6332930       1.3934787
   9 STRETCH   3  5                     2.6257797       1.3895029
  10 STRETCH   4 14                     2.0547719       1.0873386
  11 STRETCH   4 16                     2.0527220       1.0862538
  12 STRETCH   4 15                     2.0518578       1.0857965
  13 STRETCH   5  7                     2.6250271       1.3891046
  14 STRETCH   5 17                     2.0344213       1.0765695
  15 STRETCH   6  8                     2.6152474       1.3839294
  16 STRETCH   6 18                     2.0347798       1.0767592
  17 STRETCH   7 19                     2.0334478       1.0760543
  18 STRETCH   7  9                     2.6166065       1.3846486
  19 STRETCH   8 20                     2.0331938       1.0759199
  20 STRETCH   8  9                     2.6236539       1.3883779
  21 STRETCH   9 21                     2.0325091       1.0755576
  22 BEND      1  2  3                  1.9777951     113.3193121
  23 BEND      1  2 13                  1.8949660     108.5735525
  24 BEND      1  2 12                  1.9103387     109.4543430
  25 BEND      1  4 16                  1.9331499     110.7613282
  26 BEND      1  4 15                  1.9465795     111.5307885
  27 BEND      1  4 14                  1.9355908     110.9011855
  28 BEND      2  1  4                  1.9882483     113.9182350
  29 BEND      2  1 11                  1.8904377     108.3141037
  30 BEND      2  3  6                  2.0938578     119.9692147
  31 BEND      2  1 10                  1.9041646     109.1005938
  32 BEND      2  3  5                  2.1261138     121.8173469
  33 BEND      3  2 12                  1.9140822     109.6688333
  34 BEND      3  5 17                  2.0886312     119.6697555
  35 BEND      3  5  7                  2.1107455     120.9368061
  36 BEND      3  6 18                  2.0850365     119.4637928
  37 BEND      3  6  8                  2.1135465     121.0972934
  38 BEND      3  2 13                  1.9009360     108.9156100
  39 BEND      4  1 11                  1.9051783     109.1586733
  40 BEND      4  1 10                  1.9133320     109.6258457
  41 BEND      5  7  9                  2.0987308     120.2484175
  42 BEND      5  7 19                  2.0892978     119.7079463
  43 BEND      5  3  6                  2.0629943     118.2008677
  44 BEND      6  8  9                  2.0969816     120.1481960
  45 BEND      6  8 20                  2.0895304     119.7212713
  46 BEND      7  5 17                  2.0837877     119.3922413
  47 BEND      7  9 21                  2.1011557     120.3873558
  48 BEND      7  9  8                  2.0832842     119.3633899
  49 BEND      8  6 18                  2.0846018     119.4388848
  50 BEND      8  9 21                  2.0987442     120.2491865
  51 BEND      9  8 20                  2.0966731     120.1305180
  52 BEND      9  7 19                  2.0951530     120.0434269
  53 BEND     10  1 11                  1.8578894     106.4492240
  54 BEND     12  2 13                  1.8620447     106.6873039
  55 BEND     14  4 15                  1.8822105     107.8427165
  56 BEND     14  4 16                  1.8830060     107.8882948
  57 BEND     15  4 16                  1.8808452     107.7644894
  58 TORSION   1  2  3  5              -1.8583533    -106.4758014
  59 TORSION   1  2  3  6               1.2603192      72.2109712
  60 TORSION   2  1  4 16              -3.1015725    -177.7070160
  61 TORSION   2  3  5 17              -0.0284358      -1.6292505
  62 TORSION   2  3  5  7               3.1061676     177.9702932
  63 TORSION   2  1  4 14               1.0913680      62.5307795
  64 TORSION   2  1  4 15              -1.0067926     -57.6849688
  65 TORSION   2  3  6 18               0.0339668       1.9461527
  66 TORSION   2  3  6  8              -3.1065398    -177.9916186
  67 TORSION   3  6  8  9              -0.0037893      -0.2171096
  68 TORSION   3  6  8 20               3.1385709     179.8268635
  69 TORSION   3  2  1 10              -0.9858300     -56.4838974
  70 TORSION   3  5  7  9               0.0037123       0.2126992
  71 TORSION   3  5  7 19              -3.1349771    -179.6209542
  72 TORSION   3  2  1  4               1.1582866      66.3649318
  73 TORSION   3  2  1 11              -3.0014199    -171.9686942
  74 TORSION   4  1  2 13              -3.0104595    -172.4866241
  75 TORSION   4  1  2 12              -0.9841102     -56.3853608
  76 TORSION   5  3  6  8               0.0129537       0.7421944
  77 TORSION   5  3  6 18              -3.1297250    -179.3200344
  78 TORSION   5  3  2 13               2.3137575     132.5685422
  79 TORSION   5  3  2 12               0.2819707      16.1557334
  80 TORSION   5  7  9 21              -3.1375031    -179.7656832
  81 TORSION   5  7  9  8               0.0057388       0.3288073
  82 TORSION   6  3  2 12              -2.8825421    -165.1574941
  83 TORSION   6  3  5  7              -0.0128952      -0.7388384
  84 TORSION   6  3  5 17               3.1356868     179.6616179
  85 TORSION   6  8  9 21               3.1375431     179.7679765
  86 TORSION   6  8  9  7              -0.0056964      -0.3263808
  87 TORSION   6  3  2 13              -0.8507553     -48.7446852
  88 TORSION   7  9  8 20               3.1351256     179.6294649
  89 TORSION   8  9  7 19              -3.1387670    -179.8380998
  90 TORSION   9  8  6 18               3.1388892     179.8451039
  91 TORSION   9  7  5 17               3.1383348     179.8133402
  92 TORSION  10  1  4 16              -0.9624734     -55.1456628
  93 TORSION  10  1  2 12              -3.1282267    -179.2341900
  94 TORSION  10  1  4 14              -3.0527182    -174.9078673
  95 TORSION  10  1  2 13               1.1286092      64.6645467
  96 TORSION  10  1  4 15               1.1323065      64.8763844
  97 TORSION  11  1  4 15              -3.1220906    -178.8826144
  98 TORSION  11  1  2 13              -0.8869807     -50.8202501
  99 TORSION  11  1  4 16               1.0663148      61.0953384
 100 TORSION  11  1  2 12               1.1393686      65.2810132
 101 TORSION  11  1  4 14              -1.0239300     -58.6668661
 102 TORSION  17  5  7 19              -0.0003545      -0.0203132
 103 TORSION  18  6  8 20              -0.0019360      -0.1109230
 104 TORSION  19  7  9 21               0.0011765       0.0674097
 105 TORSION  20  8  9 21              -0.0048202      -0.2761778

          INTERNUCLEAR DISTANCES (ANGS.)


 =====================================================
   GAMESS/COSab RESULTS
 =====================================================

   Dielectric Constant                  = INFTY
   Basic Grid Size                      =                 1082
   Number of Segments                   =                   92
   Number of Segments located on spheres=                  297
   Number of Segments of the cavity     =                  745
   Solvent Radius (rsolv)               = 1.40
   Outlying Charge Error Method         = double cavity

 =====================================================

  Total solvated Energy (a.u.)          =  -347.8927095663
  Total Energy corrected (a.u.)         =  -347.8927126731

  Outlying charge effect (a.u.)         =    -0.0000031067
  Outlying charge effect (kcal/mol)     =    -0.0019495031

  Dielectric Energy (a.u.)              =    -0.0064332693
  Dielectric energy corr. (a.u.)        =    -0.0064363760

  Sum of polarization charges           =     0.0277322377
  Sum of polarization charges(cor.)     =    -0.0277322377

  Total surface area of cavity (A**2)   =  173.78
  Total volume of cavity (A**3)         =  176.39

 =====================================================
 NPS=                   745
NR.  ATOM  (X, Y, Z)(a.u.)                  CHARGE(e)  AREA(A**2) SIGMA(e/A**2)
   1   1   1.182181   8.923683   6.708066   0.000895   0.325193   0.002751
   2   1   0.274431   5.906193   8.324560   0.001579   0.371649   0.004250
   3   1  -1.152160   5.066440   3.019905   0.000117   0.092912   0.001260
   4   1  -1.288328   5.663117   3.157517   0.000040   0.046456   0.000852
   5   1   1.131308   6.432537   8.574358   0.001210   0.278737   0.004343
   6   1   2.026569   8.784489   7.119957   0.000645   0.278737   0.002314
   7   1   0.596545   8.312992   7.274626   0.001205   0.278737   0.004322
   8   1   0.462209   7.189349   8.070063   0.001664   0.325193   0.005116
   9   1   0.780027   5.101227   8.506099   0.000881   0.325193   0.002708
  10   1   0.141161   8.707115   6.211272   0.000687   0.278737   0.002464
  11   1  -0.121079   4.638939   7.920028   0.000453   0.232280   0.001949
  12   1  -1.290677   4.879731   3.341370   0.000057   0.046456   0.001224
  13   1   1.604870   4.995258   8.677385   0.000471   0.232280   0.002028
  14   1   1.044845   7.954695   7.827990   0.001226   0.278737   0.004398
  15   2   1.597057  -0.866863   4.211537   0.000678   0.325193   0.002084
  16   2  -1.062464   1.330448   5.118488   0.001072   0.325193   0.003297
  17   2  -0.953193   1.087293   4.203455   0.000882   0.278737   0.003164
  18   2   1.097461  -0.576412   3.548164   0.000595   0.278737   0.002134
  19   2   0.775634  -0.605912   4.895493   0.001076   0.325193   0.003308
  20   2  -0.439808   0.300447   4.829617   0.001399   0.325193   0.004301
  21   2  -1.364345   2.338638   4.542780   0.000827   0.418105   0.001977
  22   2   1.869835  -0.879243   5.312849   0.000684   0.325193   0.002103
  23   2  -1.190600   2.430178   5.808100   0.000470   0.325193   0.001447
  24   2  -1.243950   2.899804   3.590496   0.000036   0.185824   0.000196
  25   2   0.143898  -0.208030   4.209491   0.001104   0.278737   0.003961
  26   3   4.962397  -1.677801   5.059276   0.002841   0.371649   0.007644
  27   3   3.697695  -1.463344   4.399670   0.001087   0.232280   0.004681
  28   3   3.977216  -1.333750   5.639714   0.001803   0.418105   0.004313
  29   4   0.368647   9.791273   1.255050   0.001118   0.232280   0.004811
  30   4   3.858052   8.788563  -0.596755   0.000940   0.371649   0.002529
  31   4   4.924523   9.407129   4.861867   0.001437   0.464561   0.003093
  32   4   5.148839   9.900432   3.852628   0.000718   0.185824   0.003862
  33   4   5.683703   8.403968   4.746828   0.000524   0.232280   0.002255
  34   4   5.949462   8.627243   4.125806   0.000745   0.232280   0.003208
  35   4   3.495656   6.103705  -0.869608   0.000639   0.139368   0.004584
  36   4   2.953817   8.289629  -0.957377   0.001147   0.371649   0.003087
  37   4   0.025000   9.122892   0.872783   0.001771   0.371649   0.004764
  38   4  -0.973741   7.226248   2.070596   0.000542   0.232280   0.002334
  39   4   5.257656  10.044407   2.363199   0.001850   0.371649   0.004977
  40   4   5.750993   9.513416   2.357384   0.001086   0.232280   0.004674
  41   4  -0.813447   8.453071   2.544727   0.001013   0.325193   0.003115
  42   4  -0.329664   9.325762   2.088214   0.001404   0.325193   0.004319
  43   4   1.278911   9.826644   0.356249   0.002502   0.511017   0.004896
  44   4   2.703596   9.454710  -0.387299   0.001269   0.418105   0.003035
  45   4   4.291200   7.710124  -0.756898   0.001415   0.371649   0.003807
  46   4   4.233740   6.593316  -0.758288   0.001375   0.278737   0.004933
  47   4   0.031199   9.358521   4.177459   0.000153   0.092912   0.001645
  48   4   4.381305  10.254559   1.091255   0.001340   0.371649   0.003605
  49   4   3.977611   9.735462   0.115079   0.001268   0.464561   0.002730
  50   4   4.832140   8.750735  -0.103473   0.000992   0.325193   0.003050
  51   4   3.884677   9.593909   5.384814   0.000128   0.092912   0.001378
  52   4   5.729023   9.371010   3.589145   0.001700   0.371649   0.004575
  53   4   3.459809   7.229450  -1.050149   0.000892   0.232280   0.003841
  54   4   1.768549   9.218994  -0.390245   0.001024   0.278737   0.003675
  55   4  -0.699514   8.341932   1.626501   0.000835   0.232280   0.003593
  56   4   5.191364   9.529623   0.915830   0.001673   0.418105   0.004001
  57   4  -0.345194   9.291747   3.277592   0.000978   0.325193   0.003006
  58   4   2.793639  10.255642   0.406039   0.001088   0.371649   0.002928
  59   5   5.984118  -2.179475   3.553296   0.001526   0.185824   0.008209
  60   5   5.669253  -2.042922   0.341307   0.001182   0.325193   0.003634
  61   5   5.740560   3.483219  -0.990847   0.000250   0.139368   0.001793
  62   5   5.021213  -1.601066  -0.102980   0.000671   0.278737   0.002407
  63   5   6.541539   1.742347  -1.668569  -0.000102   0.092912  -0.001101
  64   5   5.831786  -1.270577  -0.701733   0.000235   0.185824   0.001265
  65   5   4.739186  -2.032610   0.923092   0.001400   0.325193   0.004304
  66   5   3.571208  -1.449570   1.608590   0.001209   0.325193   0.003718
  67   5   6.579560   3.639306  -0.865307   0.001083   0.278737   0.003887
  68   5   6.900471   2.917554  -1.262420   0.000501   0.139368   0.003595
  69   5   5.453055  -2.403223   1.637533   0.002271   0.325193   0.006983
  70   5   5.602991  -2.395039   2.711529   0.001375   0.232280   0.005918
  71   5   4.998742  -2.169296   3.074902   0.001968   0.232280   0.008473
  72   5   3.930913  -1.735773   2.581739   0.001425   0.278737   0.005112
  73   5   7.151907   3.953159  -0.419815   0.000431   0.092912   0.004636
  74   5   3.854071  -1.453574   0.815104   0.001026   0.325193   0.003156
  75   5   6.118716  -0.692194  -1.156338  -0.000044   0.092912  -0.000474
  76   5   6.280638   2.828142  -1.387539   0.000385   0.185824   0.002071
  77   5   4.545645  -2.138981   2.078508   0.001462   0.278737   0.005243
  78   6   8.183038   5.061964   8.320398   0.000880   0.185824   0.004738
  79   6   5.576918  -0.666729   8.747663   0.001449   0.325193   0.004456
  80   6   5.699682   0.095592   9.485510   0.000643   0.232280   0.002770
  81   6   7.606459   4.956984   8.786260   0.000350   0.185824   0.001886
  82   6   7.465963   1.340084  10.084994  -0.000138   0.092912  -0.001485
  83   6   8.096730   4.381592   9.153546   0.000536   0.185824   0.002885
  84   6   7.379370   5.458424   8.089046   0.001251   0.325193   0.003848
  85   6   4.762907  -0.400630   8.485150   0.001103   0.278737   0.003956
  86   6   6.518032  -0.372540   9.299904   0.001407   0.325193   0.004327
  87   6   7.166971   0.153900   9.662535   0.000525   0.139368   0.003765
  88   6   7.999595   5.612009   7.103629   0.001418   0.278737   0.005088
  89   6   8.101814   5.572016   5.807589   0.001100   0.092912   0.011841
  90   6   5.158534  -1.151566   7.540493   0.003249   0.511017   0.006357
  91   6   6.416509  -1.211558   8.232759   0.002338   0.418105   0.005593
  92   6   4.711536   0.350627   9.125402   0.000356   0.185824   0.001917
  93   6   8.149577   3.714679   9.573017  -0.000209   0.092912  -0.002249
  94   6   6.688773   0.514431   9.884317   0.000318   0.185824   0.001712
  95   6   6.168275  -1.614906   6.752668   0.003831   0.464561   0.008246
  96   6   7.762703   5.746410   6.415990   0.001026   0.139368   0.007363
  97   7   7.605988  -2.589663   3.427911   0.001127   0.139368   0.008087
  98   7  10.150227  -2.795785   1.488074   0.001225   0.325193   0.003768
  99   7   7.453606  -2.343972  -0.096113   0.001053   0.278737   0.003776
 100   7  10.093900   3.451450  -0.290258   0.001501   0.371649   0.004039
 101   7  10.333088   2.602942  -0.955519   0.000896   0.371649   0.002412
 102   7   8.048048   1.699239  -1.746323   0.000087   0.092912   0.000936
 103   7   7.564345  -1.752521  -0.848119   0.000339   0.278737   0.001216
 104   7  10.138991  -2.595220   0.609307   0.000591   0.278737   0.002118
 105   7  12.062718   0.455059   0.172355  -0.000278   0.092912  -0.002990
 106   7  11.048695  -2.100975   0.839338   0.000145   0.185824   0.000781
 107   7   9.162117  -2.999791   1.057230   0.001243   0.325193   0.003823
 108   7   7.970585  -2.801109   0.507117   0.000855   0.232280   0.003680
 109   7   8.411067   2.299930  -1.563221   0.000253   0.185824   0.001363
 110   7   9.002206   3.250172  -0.904229   0.001720   0.418105   0.004115
 111   7  11.238163   2.800874   0.057175   0.001403   0.371649   0.003774
 112   7  11.902495   1.461939   0.035976   0.000323   0.185824   0.001738
 113   7   8.975724  -3.090603   2.112881   0.002141   0.325193   0.006584
 114   7   8.153221  -2.948665   2.805239   0.001268   0.232280   0.005460
 115   7   7.505143  -2.873215   2.455355   0.002000   0.232280   0.008611
 116   7   7.310650  -2.803711   1.218928   0.001209   0.278737   0.004336
 117   7   9.332569   4.001854   0.183122   0.002497   0.371649   0.006720
 118   7  10.617295   3.683012   0.645893   0.001722   0.325193   0.005295
 119   7   9.203184   2.570930  -1.386808   0.000506   0.232280   0.002180
 120   7   8.729791  -2.706659   0.131196   0.000911   0.325193   0.002800
 121   7  11.535823  -1.505987   0.659842   0.000037   0.092912   0.000394
 122   7  11.410673   2.093280  -0.348219   0.000471   0.232280   0.002028
 123   7   9.743346   4.246777   1.264261   0.002474   0.325193   0.007608
 124   7   8.096727  -3.057644   1.552564   0.001323   0.278737   0.004745
 125   8  12.196461   3.873850   6.216359   0.001282   0.325193   0.003942
 126   8   9.891643   4.640316   8.237719   0.000799   0.278737   0.002865
 127   8   9.568106  -1.722870   8.206852   0.001458   0.371649   0.003924
 128   8  10.274809  -1.108388   8.792285   0.000885   0.371649   0.002381
 129   8   8.822773   0.707077   9.914399   0.000092   0.092912   0.000993
 130   8   9.839116   4.031802   8.982396   0.000273   0.278737   0.000978
 131   8  12.237503   3.662698   7.091753   0.000548   0.278737   0.001966
 132   8  12.588098   0.054113   7.317700  -0.000206   0.092912  -0.002215
 133   8  12.767629   2.816888   6.733526   0.000082   0.185824   0.000440
 134   8  11.497261   4.489246   6.796026   0.001208   0.325193   0.003715
 135   8  10.454911   4.835296   7.541414   0.000817   0.232280   0.003517
 136   8   8.834217   0.015419   9.696188   0.000258   0.185824   0.001390
 137   8   8.806978  -1.070375   8.984158   0.001699   0.418105   0.004064
 138   8  10.809631  -1.654970   7.652505   0.001437   0.371649   0.003868
 139   8  12.008042  -0.772071   7.515265   0.000370   0.185824   0.001991
 140   8  11.204454   4.701308   5.782773   0.001846   0.325193   0.005675
 141   8  10.077505   4.973190   5.018270   0.002419   0.278737   0.008677
 142   8   9.655712   5.205814   5.662468   0.001278   0.185824   0.006879
 143   8   9.763972   5.171221   6.948158   0.001823   0.278737   0.006539
 144   8   8.394498  -1.818395   7.847370   0.003231   0.511017   0.006323
 145   8   9.604652  -2.160554   7.151822   0.002148   0.418105   0.005137
 146   8   9.372875  -0.580656   9.401985   0.000510   0.232280   0.002194
 147   8  11.135736   4.386959   7.790615   0.000921   0.325193   0.002833
 148   8  12.949064   2.057587   6.852125   0.000015   0.092912   0.000158
 149   8  11.351129  -1.123669   7.997893   0.000476   0.232280   0.002048
 150   8   8.178445  -2.116831   6.536192   0.003489   0.464561   0.007509
 151   8  10.483249   5.068497   6.292061   0.001877   0.371649   0.005050
 152   9   8.598755  -2.507959   4.819581   0.001095   0.139368   0.007854
 153   9  11.583421  -2.139184   5.930610   0.001283   0.325193   0.003945
 154   9  11.504437  -2.615012   2.807647   0.001182   0.278737   0.004240
 155   9  12.572073   3.656033   3.168073   0.001646   0.371649   0.004430
 156   9  13.330420   2.858662   3.262210   0.001064   0.371649   0.002864
 157   9  12.895885   1.274331   1.271096  -0.000040   0.092912  -0.000434
 158   9  12.155533  -2.082404   2.338612   0.000528   0.278737   0.001895
 159   9  12.310715  -2.025276   5.410369   0.000652   0.278737   0.002338
 160   9  13.433971   1.400158   5.858199  -0.000224   0.092912  -0.002416
 161   9  12.545272  -1.273377   6.120570   0.000128   0.185824   0.000689
 162   9  11.456388  -2.653561   4.969941   0.001364   0.325193   0.004193
 163   9  11.293803  -2.852057   3.667630   0.000960   0.232280   0.004133
 164   9  12.879479   1.967112   1.485393   0.000315   0.185824   0.001696
 165   9  12.547404   3.099086   2.028568   0.002049   0.418105   0.004901
 166   9  12.919040   3.392612   4.457848   0.001481   0.371649   0.003986
 167   9  13.387147   2.303550   5.368538   0.000421   0.185824   0.002264
 168   9  10.467440  -2.704443   5.390396   0.002231   0.325193   0.006859
 169   9   9.440934  -2.746286   5.043195   0.001312   0.232280   0.005650
 170   9   9.398301  -2.889654   4.318113   0.002145   0.232280   0.009233
 171   9  10.346239  -2.983582   3.503250   0.001337   0.278737   0.004798
 172   9  11.585703   4.020024   2.527534   0.003041   0.511017   0.005950
 173   9  11.890133   4.176146   3.923342   0.002555   0.418105   0.006111
 174   9  13.116784   2.467729   2.137376   0.000540   0.232280   0.002325
 175   9  11.999011  -2.576035   4.058941   0.001078   0.325193   0.003316
 176   9  12.902541  -0.581102   6.249550   0.000051   0.092912   0.000549
 177   9  13.410176   2.732559   4.591681   0.000466   0.232280   0.002006
 178   9  10.598766   4.476046   3.260765   0.003800   0.418105   0.009088
 179   9  10.488260  -2.972347   4.382691   0.001482   0.278737   0.005317
 180  10   4.002093   7.107461   8.748312  -0.002429   0.431809  -0.005626
 181  10   4.969896   7.820247   7.105345  -0.001056   0.294415  -0.003587
 182  10   2.465948   7.254697   8.777060  -0.000426   0.314043  -0.001358
 183  10   3.198392   8.475060   7.738561  -0.000611   0.314043  -0.001946
 184  10   4.793259   7.449285   7.974932  -0.001703   0.314043  -0.005423
 185  10   2.935661   6.315082   9.059168  -0.001517   0.431809  -0.003513
 186  10   3.077085   7.884250   8.482195  -0.001054   0.353299  -0.002982
 187  10   4.118736   8.296653   7.613967  -0.001132   0.392554  -0.002885
 188  11  -2.292367   6.457087   6.037535  -0.002826   0.549575  -0.005141
 189  11  -2.178801   4.983386   5.363507  -0.001022   0.333671  -0.003062
 190  11  -2.000937   6.179219   4.083664  -0.000753   0.353299  -0.002131
 191  11  -1.457265   7.961527   5.414687  -0.001041   0.372926  -0.002790
 192  11  -1.083068   7.246493   7.233632  -0.000581   0.372926  -0.001559
 193  11  -1.368408   5.273937   7.294164  -0.000845   0.353299  -0.002392
 194  11  -2.246233   5.543278   4.690915  -0.001381   0.412182  -0.003351
 195  11  -2.082260   7.117677   4.888392  -0.001698   0.471065  -0.003604
 196  11  -1.493661   7.693350   6.357095  -0.001326   0.431809  -0.003070
 197  11  -1.546800   6.329326   7.273506  -0.001367   0.451437  -0.003028
 198  11  -2.034424   5.154058   6.405558  -0.001620   0.451437  -0.003589
 199  12  -0.353286   1.174728   1.509021  -0.001894   0.353299  -0.005360
 200  12  -0.933357   2.564993   2.116693  -0.001328   0.314043  -0.004229
 201  12  -0.672341   0.772640   2.688065  -0.000939   0.333671  -0.002813
 202  12   0.740549  -0.044262   2.113361  -0.001133   0.314043  -0.003607
 203  12   0.451575   1.825321   0.732690  -0.002705   0.392554  -0.006891
 204  12  -0.395813   2.302598   1.253586  -0.001972   0.333671  -0.005909
 205  12  -1.024994   1.703566   2.453282  -0.001107   0.333671  -0.003318
 206  12  -0.078209   0.251109   2.380280  -0.000800   0.274788  -0.002913
 207  12   0.512357   0.613536   1.284529  -0.001774   0.333671  -0.005315
 208  13   0.395043   0.597552   8.022940  -0.002499   0.431809  -0.005788
 209  13   0.974545   2.347706   8.598244  -0.001496   0.353299  -0.004235
 210  13   1.684282  -0.406210   7.249002  -0.001396   0.353299  -0.003951
 211  13  -0.024511   0.005456   6.527717  -0.000930   0.372926  -0.002495
 212  13  -0.703203   1.767885   7.167469  -0.001206   0.353299  -0.003412
 213  13   1.168140   1.392682   8.650408  -0.001996   0.372926  -0.005352
 214  13   1.562915   0.397910   8.256548  -0.002357   0.392554  -0.006005
 215  13   0.807950  -0.347261   7.063299  -0.001480   0.392554  -0.003771
 216  13  -0.443082   0.729133   7.098768  -0.001633   0.431809  -0.003782
 217  13  -0.075565   1.888556   8.083480  -0.002078   0.451437  -0.004603
 218  14   0.232853   6.461685  -0.983987  -0.002609   0.510320  -0.005112
 219  14  -0.271430   7.919880  -0.061617  -0.000617   0.353299  -0.001746
 220  14  -0.827338   6.299731   0.813496  -0.001009   0.353299  -0.002856
 221  14   1.943028   5.862814  -1.210052  -0.001075   0.353299  -0.003044
 222  14   1.386155   7.631195  -1.230831  -0.000766   0.372926  -0.002053
 223  14  -0.673161   7.025818   0.106494  -0.001326   0.412182  -0.003216
 224  14  -0.299100   5.664572  -0.107993  -0.002336   0.471065  -0.004959
 225  14   0.828074   5.274077  -0.766025  -0.002320   0.431809  -0.005374
 226  14   1.597860   6.654657  -1.401989  -0.001298   0.412182  -0.003150
 227  14   0.415476   7.803801  -0.836065  -0.001368   0.451437  -0.003031
 228  15   6.969976   7.335911   1.262648  -0.001909   0.314043  -0.006078
 229  15   6.769996   7.935718   2.982021  -0.000681   0.274788  -0.002477
 230  15   6.380636   8.241740   0.923645  -0.000550   0.294415  -0.001869
 231  15   5.840314   6.896472  -0.054249  -0.000600   0.235532  -0.002546
 232  15   7.094747   7.430383   2.409693  -0.001386   0.235532  -0.005887
 233  15   6.718190   8.300912   1.907071  -0.000726   0.333671  -0.002175
 234  15   6.355031   7.371719   0.363435  -0.001622   0.392554  -0.004131
 235  16   2.212964  11.634893   3.426977  -0.003318   0.588831  -0.005635
 236  16   4.161177  11.042177   3.379198  -0.000662   0.372926  -0.001775
 237  16   3.095473  10.677193   4.940495  -0.000900   0.353299  -0.002548
 238  16   0.882727  10.606161   4.221337  -0.001009   0.353299  -0.002857
 239  16   0.990496  10.944649   2.192461  -0.000721   0.372926  -0.001934
 240  16   2.950457  11.245989   1.690354  -0.000907   0.412182  -0.002200
 241  16   3.440622  11.205901   4.183533  -0.001901   0.490692  -0.003874
 242  16   1.919064  10.946699   4.681035  -0.001850   0.490692  -0.003771
 243  16   0.866981  11.014509   3.293654  -0.001626   0.471065  -0.003452
 244  16   1.925115  11.379174   2.010377  -0.001685   0.471065  -0.003576
 245  16   3.531100  11.439582   2.620092  -0.001768   0.490692  -0.003604
 246  17   3.903633   0.904675  -1.788378  -0.003314   0.412182  -0.008040
 247  17   4.505557  -0.513192  -1.281826  -0.001833   0.372926  -0.004915
 248  17   5.355005   1.417460  -1.990740  -0.001655   0.314043  -0.005269
 249  17   4.707094   2.583668  -1.599782  -0.002108   0.333671  -0.006316
 250  17   3.205814  -0.370611  -0.327512  -0.001644   0.294415  -0.005584
 251  17   5.023216   0.356160  -1.883178  -0.003124   0.431809  -0.007235
 252  17   4.501211   1.849977  -1.909690  -0.001850   0.274788  -0.006732
 253  17   3.402208   1.924281  -1.358580  -0.003939   0.392554  -0.010033
 254  17   2.978530   0.785333  -1.003416  -0.002869   0.333671  -0.008599
 255  17   3.601061  -0.171865  -1.114958  -0.002540   0.372926  -0.006812
 256  18   5.516636   3.045138  10.651455  -0.003449   0.431809  -0.007986
 257  18   6.557105   4.445280   9.861452  -0.002058   0.392554  -0.005244
 258  18   6.656690   2.201450  10.588572  -0.001668   0.294415  -0.005667
 259  18   4.904171   1.395146  10.075740  -0.001554   0.314043  -0.004950
 260  18   6.838374   3.314406  10.480547  -0.003363   0.471065  -0.007140
 261  18   5.740962   1.789911  10.553971  -0.002515   0.412182  -0.006102
 262  18   4.446069   2.315611  10.152956  -0.003018   0.353299  -0.008543
 263  18   4.531376   3.368644  10.120033  -0.003629   0.353299  -0.010271
 264  18   5.634204   4.141496  10.200357  -0.003193   0.372926  -0.008562
 265  19  10.371882  -0.523346  -2.147795  -0.005417   0.608459  -0.008902
 266  19  10.751962  -1.779815  -0.809201  -0.002242   0.412182  -0.005440
 267  19  11.685892   0.090411  -0.916553  -0.002190   0.353299  -0.006199
 268  19  10.315709   1.336333  -1.900577  -0.001680   0.353299  -0.004756
 269  19   8.540771   0.204484  -2.265982  -0.002349   0.333671  -0.007039
 270  19   8.687381  -1.606399  -1.576382  -0.001495   0.333671  -0.004481
 271  19  11.377668  -0.897195  -1.062829  -0.003562   0.490692  -0.007259
 272  19  11.106098   0.681312  -1.662354  -0.003213   0.490692  -0.006548
 273  19   9.488904   0.745971  -2.343988  -0.003367   0.510320  -0.006598
 274  19   8.893652  -0.774197  -2.206213  -0.003642   0.490692  -0.007422
 275  19   9.825673  -1.822632  -1.439368  -0.003656   0.549575  -0.006652
 276  20  11.937924   1.596784   9.846703  -0.005424   0.608459  -0.008914
 277  20  12.629030   2.596064   8.418830  -0.002234   0.412182  -0.005421
 278  20  12.603408   0.503120   8.439470  -0.002147   0.353299  -0.006077
 279  20  10.994775  -0.017350   9.680210  -0.001667   0.353299  -0.004719
 280  20  10.023787   1.785248  10.290808  -0.002356   0.333671  -0.007062
 281  20  10.871124   3.355412   9.520780  -0.001489   0.333671  -0.004461
 282  20  12.811482   1.514685   8.598233  -0.003563   0.490692  -0.007260
 283  20  11.947056   0.212003   9.291523  -0.003223   0.490692  -0.006567
 284  20  10.615890   0.866466  10.231630  -0.003371   0.510320  -0.006607
 285  20  10.771613   2.494724  10.138120  -0.003648   0.490692  -0.007435
 286  20  11.942234   3.031357   9.190701  -0.003663   0.549575  -0.006666
 287  21  14.615196  -0.214138   3.578975  -0.005403   0.608459  -0.008880
 288  21  13.770712  -1.191076   4.938184  -0.002213   0.412182  -0.005368
 289  21  14.195663   0.852336   5.097494  -0.002024   0.353299  -0.005728
 290  21  14.227141   1.565319   3.125518  -0.001669   0.353299  -0.004724
 291  21  13.711749  -0.054535   1.831126  -0.002228   0.333671  -0.006677
 292  21  13.344065  -1.682325   2.826839  -0.001512   0.333671  -0.004532
 293  21  14.239843  -0.190852   5.057856  -0.003541   0.490692  -0.007215
 294  21  14.484707   1.186972   4.074746  -0.003208   0.490692  -0.006537
 295  21  14.224978   0.727430   2.399787  -0.003367   0.510320  -0.006598
 296  21  13.921178  -0.882258   2.428559  -0.003440   0.490692  -0.007011
 297  21  13.832680  -1.550753   3.878115  -0.003659   0.549575  -0.006658
 298   1  -1.352734   4.377831   3.842513  -0.000009   0.029386  -0.000320
 299   2  -1.250887   3.888677   3.798494   0.000009   0.029386   0.000308
 300  11  -1.500472   4.549812   4.044262  -0.000035   0.029386  -0.001203
 301   1  -0.992482   4.055652   3.129439  -0.000029   0.027961  -0.001020
 302   2  -0.968990   3.560454   3.053503  -0.000057   0.027961  -0.002044
 303  12  -0.914801   3.371338   2.823098  -0.000086   0.027961  -0.003062
 304   2  -1.162873   3.606725   3.442952   0.000048   0.091614   0.000522
 305   1  -1.213257   4.331918   3.426488   0.000074   0.091614   0.000803
 306   1   3.261309   8.962768   6.378725   0.000006   0.027724   0.000222
 307   4   3.379001   9.197329   5.955146   0.000028   0.027724   0.000994
 308  10   3.405604   8.824458   6.607029  -0.000025   0.027724  -0.000888
 309   1  -1.210122   6.152143   3.067029   0.000009   0.028289   0.000301
 310   4  -1.043854   6.422516   2.682894   0.000041   0.028289   0.001445
 311  11  -1.367166   6.202454   3.321760  -0.000020   0.028289  -0.000700
 312   1  -0.322088   8.642969   5.022287   0.000020   0.028289   0.000717
[...]
 486   4   3.534145  10.554236   1.163607  -0.000057   0.151134  -0.000378
 487   4   2.052903  10.438972   0.900992  -0.000020   0.151134  -0.000135
 488   4   0.733376  10.167620   1.580362   0.000147   0.151134   0.000973
 489   4   0.119207   9.851978   2.921814   0.000008   0.151134   0.000052
 490   4   0.245451   9.644038   4.123334   0.000002   0.084184   0.000025
 491  17   4.328805   3.335774  -1.102297  -0.000254   0.216405  -0.001173
 492   4   3.811273   5.237979  -0.801842   0.001131   0.323729   0.003493
 493   5   6.579348  -1.799469   4.290646   0.000914   0.102375   0.008930
 494   6   6.687947  -1.599114   5.044759   0.000814   0.102375   0.007954
 495   7   7.023424  -1.889996   4.243000   0.000901   0.102375   0.008804
 496   6   6.449166  -1.666934   5.462706   0.000249   0.025918   0.009621
 497   5   6.320945  -1.871891   4.366573   0.000171   0.025918   0.006612
 498   5   7.370575   4.453167   0.310196   0.001067   0.098524   0.010826
 499   7   7.789329   4.281959   0.324486   0.000937   0.098524   0.009510
 500  15   6.843936   5.387158   0.621084   0.000757   0.098524   0.007681
 501   5   6.352040  -0.108806  -1.444987  -0.000075   0.007962  -0.009429
 502   7   6.794614  -0.201440  -1.445419  -0.000089   0.007962  -0.011188
 503  17   6.078957  -0.007326  -1.506787  -0.000106   0.007962  -0.013287
 504   5   6.594444   0.963682  -1.677676  -0.000073   0.007962  -0.009125
 505   7   7.033935   0.857407  -1.675149  -0.000088   0.007962  -0.011012
 506  17   6.299476   0.968335  -1.718468  -0.000093   0.007962  -0.011677
 507   7   7.496245   1.307557  -1.693028  -0.000497   0.199139  -0.002494
 508   7   8.002929   3.060645  -0.836540   0.001255   0.407057   0.003082
 509   5   7.063991   2.158125  -1.359347  -0.000555   0.407057  -0.001365
 510   5   7.563906   3.825126  -0.342090   0.001267   0.199139   0.006364
 511   7   7.060469  -2.339382   3.448784   0.001841   0.198764   0.009261
 512   7   6.849792  -2.471198   1.451810   0.002697   0.406223   0.006640
 513   7   6.942747  -1.310006  -0.698195  -0.000596   0.406223  -0.001468
 514   5   6.338848  -2.290206   2.744282   0.003651   0.406223   0.008988
 515   5   6.213471  -1.922568   0.330022   0.001109   0.406223   0.002731
 516   5   6.399185  -0.613655  -1.187186  -0.000493   0.198764  -0.002478
 517   5   2.816478  -0.312629   0.971155  -0.000186   0.082220  -0.002262
 518  12   2.032620   0.097689   1.305849  -0.000261   0.082220  -0.003177
 519  17   2.793603  -0.175617   0.704036  -0.000390   0.082220  -0.004744
 520  12   1.550864  -0.081772   1.807731  -0.000552   0.225321  -0.002452
 521   5   2.772578  -0.732262   1.559056   0.000432   0.318346   0.001357
 522  15   6.155823   6.052928   0.187915  -0.000556   0.417857  -0.001331
 523   5   6.485204   4.485596  -0.287848   0.002818   0.601570   0.004684
 524  17   5.151730   2.908978  -1.319700  -0.000324   0.081399  -0.003985
 525  17   5.766042   1.816561  -1.712085  -0.001319   0.189924  -0.006944
 526   5   5.761426   2.685736  -1.347439  -0.000773   0.170379  -0.004538
 527   5   6.338568   1.405461  -1.702931  -0.000487   0.099447  -0.004901
 528  17   5.603625  -0.177525  -1.490129  -0.000467   0.074301  -0.006281
 529  17   4.785531  -0.804408  -0.859789  -0.000960   0.168956  -0.005684
 530  17   3.611617  -0.735181  -0.005453  -0.000874   0.168956  -0.005172
 531   5   5.627465  -0.638596  -1.077397  -0.000923   0.159138  -0.005800
 532   5   4.386445  -1.140173  -0.144462  -0.000455   0.159138  -0.002860
 533   5   3.339702  -0.788395   0.602304  -0.000206   0.090775  -0.002265
 534   6   6.962922  -1.620737   5.419471   0.000881   0.102258   0.008612
 535   7   7.315285  -1.836819   4.601482   0.000791   0.102258   0.007732
 536   8   7.397390  -1.746985   5.381806   0.000915   0.102258   0.008945
 537   6   7.962710   5.372064   4.837534   0.001346   0.135183   0.009956
 538   8   8.371202   5.179808   4.816574   0.001500   0.135183   0.011099
 539  15   7.201072   6.004523   3.946743   0.001110   0.135183   0.008214
 540   6   8.127075   3.097625   9.831536  -0.000080   0.007949  -0.010062
 541   8   8.554625   2.977428   9.756255  -0.000089   0.007949  -0.011241
 542  18   7.851847   3.129827   9.940909  -0.000110   0.007949  -0.013793
 543   6   7.883256   2.020953  10.059144  -0.000071   0.007949  -0.008908
 544   8   8.313890   1.914372   9.980985  -0.000087   0.007949  -0.010999
 545  18   7.630032   2.150322  10.147976  -0.000091   0.007949  -0.011401
 546   8   9.109166   5.215261   5.700482   0.002006   0.213319   0.009406
 547   8   9.176626   4.759696   7.803080   0.001603   0.439274   0.003650
 548   8   8.989183   3.412455   9.471256  -0.000517   0.213319  -0.002423
 549   6   8.525247   5.254351   6.575430   0.003376   0.439274   0.007686
 550   6   8.450542   4.131868   8.923230  -0.000653   0.439274  -0.001487
 551   8   8.513701   1.304652   9.938510  -0.000494   0.197398  -0.002500
 552   8   8.014490  -0.438908   9.079858   0.001294   0.403389   0.003208
 553   8   7.545267  -1.637917   7.008675   0.003526   0.403389   0.008741
 554   6   7.694745   0.765126   9.712830  -0.000511   0.403389  -0.001266
 555   6   7.118897  -1.068292   8.211308   0.002692   0.403389   0.006673
 556   6   6.813257  -1.660125   6.318475   0.001627   0.197398   0.008242
 557   6   6.168445   5.305783   8.555061  -0.000031   0.094618  -0.000328
 558  10   5.328297   5.926665   8.346397  -0.000136   0.094618  -0.001435
 559  18   6.009477   5.184898   8.781553  -0.000394   0.094618  -0.004169
 560  10   5.250101   6.654268   8.012951  -0.000809   0.289299  -0.002795
 561  10   5.579930   6.977923   6.945756  -0.000320   0.289299  -0.001105
 562   6   6.632229   5.852645   7.563355   0.002663   0.814672   0.003268
 563   6   3.969640   0.964870   8.869967  -0.000114   0.083943  -0.001364
 564  13   3.047919   1.061270   8.541511  -0.000186   0.083943  -0.002215
 565  18   4.002209   1.199797   9.055419  -0.000359   0.083943  -0.004277
 566  13   2.573439  -0.212509   7.431155  -0.000576   0.267095  -0.002155
 567  13   2.502620   0.557864   8.285889  -0.000886   0.267095  -0.003317
 568   6   3.938496   0.007651   8.123298   0.001446   0.743764   0.001944
 569  15   6.848634   7.046860   3.757197   0.000134   0.198831   0.000674
 570   6   7.788624   5.837800   5.022886   0.001657   0.297216   0.005576
 571  18   7.505908   3.515789   9.988382  -0.000499   0.079108  -0.006312
 572  18   6.912604   4.508969   9.442358  -0.001136   0.182972  -0.006206
 573   6   7.644787   3.954392   9.543664  -0.001030   0.166854  -0.006172
 574   6   6.881178   4.965544   8.922218  -0.000227   0.096648  -0.002350
 575  18   4.596210   1.083856   9.533587  -0.000376   0.071344  -0.005277
 576  18   5.664720   1.026899   9.989796  -0.000734   0.160587  -0.004573
 577  18   6.863176   1.696125  10.278320  -0.001027   0.160587  -0.006398
 578   6   5.059808   0.696896   9.473552  -0.000490   0.154267  -0.003173
 579   6   6.522919   0.957643   9.995124  -0.000619   0.154267  -0.004012
 580   6   7.496453   1.780906  10.144374  -0.000428   0.087162  -0.004909
 581   7   7.619315  -2.047755   4.399256   0.000541   0.048291   0.011208
 582   8   7.721718  -1.903695   5.168131   0.000548   0.048291   0.011358
 583   9   7.874126  -2.060758   4.771787   0.000617   0.048291   0.012786
 584   8   7.571169  -1.931643   5.366220   0.000068   0.009201   0.007434
 585   7   7.431547  -2.140021   4.269415   0.000144   0.009201   0.015702
 586   7   8.843611   4.511033   2.321245   0.001863   0.195602   0.009526
 587   9   9.097471   4.456575   2.696587   0.001638   0.195602   0.008373
 588  15   7.675294   5.414095   2.372874   0.001802   0.195602   0.009215
 589   9  12.569493   0.469568   0.952866  -0.000505   0.187014  -0.002699
 590   9  12.141123   2.315277   1.183361   0.000884   0.380566   0.002322
 591   9  10.769184   3.934523   2.136922   0.003217   0.380566   0.008453
 592   7  12.054918   1.162120   0.495281  -0.000776   0.380566  -0.002039
 593   7  11.172005   3.240204   1.056963   0.002106   0.380566   0.005533
 594   7   9.856663   4.253695   1.998229   0.001697   0.187014   0.009073
 595   9   8.302315  -2.433246   4.317114   0.001909   0.204979   0.009314
 596   9   9.946756  -2.757495   3.093035   0.002896   0.420292   0.006891
 597   9  11.737807  -1.683525   1.688214  -0.000805   0.420292  -0.001916
 598   7   8.538397  -2.642745   3.338594   0.003828   0.420292   0.009108
 599   7  10.537891  -2.457778   1.821159   0.001004   0.420292   0.002388
 600   7  11.803655  -1.166976   0.801667  -0.000662   0.204979  -0.003229
 601  15   7.390710   6.486759   1.928030  -0.000191   0.235422  -0.000810
 602  15   7.064237   6.323207   0.993661  -0.000368   0.470208  -0.000782
 603   7   8.750100   4.780853   1.388764   0.004724   0.719298   0.006568
 604   7   8.303648   4.547051   0.326441   0.002141   0.361784   0.005918
 605   7   7.360263   0.671657  -1.723609  -0.000147   0.016877  -0.008738
 606  17   6.629612   0.791292  -1.667172  -0.000142   0.016877  -0.008439
 607  19   7.619438   0.547333  -1.798888  -0.000187   0.016877  -0.011058
 608   7   7.162274  -0.203887  -1.533389  -0.000153   0.016877  -0.009059
 609  17   6.455444   0.021090  -1.499838  -0.000151   0.016877  -0.008942
 610  19   7.441774  -0.238328  -1.628196  -0.000169   0.016877  -0.010002
 611  17   6.127814   0.947175  -1.796053  -0.000114   0.013775  -0.008297
 612   7   7.220791   0.761724  -1.794019  -0.000022   0.019442  -0.001121
 613  17   5.928620   0.061854  -1.606370  -0.000109   0.013469  -0.008118
 614   7   6.989201  -0.258843  -1.570158  -0.000031   0.019010  -0.001625
 615  19  11.600434  -1.006470  -0.088966  -0.000451   0.072127  -0.006257
 616  19  10.783253  -1.849299  -0.163155  -0.000968   0.162863  -0.005944
 617  19   9.478804  -2.205313  -0.588403  -0.000732   0.162863  -0.004495
 618  19   8.352958  -1.629920  -1.229157  -0.000950   0.162863  -0.005831
 619  19   7.881322  -0.670752  -1.720283  -0.000466   0.072127  -0.006456
 620   7  11.363758  -1.406663   0.306099  -0.000963   0.155489  -0.006194
 621   7  10.064796  -2.288715   0.046237  -0.000543   0.155489  -0.003493
 622   7   8.612300  -2.157601  -0.590873  -0.000568   0.155489  -0.003651
 623   7   7.690065  -1.075045  -1.305297  -0.000990   0.155489  -0.006370
 624  19   8.187460   0.684423  -2.014836  -0.000501   0.071971  -0.006965
 625  19   9.051651   1.471185  -1.903956  -0.000909   0.162427  -0.005599
 626  19  10.364189   1.736014  -1.447107  -0.000871   0.162427  -0.005360
 627  19  11.439513   1.080650  -0.802299  -0.000953   0.162427  -0.005867
 628  19  11.844556   0.086303  -0.327609  -0.000426   0.071971  -0.005918
 629   7   8.216511   1.258715  -1.812859  -0.000934   0.155230  -0.006018
 630   7   9.559091   2.050829  -1.507194  -0.000599   0.155230  -0.003859
 631   7  10.985855   1.817481  -0.848947  -0.000568   0.155230  -0.003659
 632   7  11.827934   0.668066  -0.146704  -0.000881   0.155230  -0.005677
 633   8   8.919482   4.737258   4.010020   0.002035   0.272489   0.007470
 634   9   9.088814   4.588974   3.603515   0.001990   0.272489   0.007301
 635  15   7.632808   5.476791   3.240159   0.002459   0.272489   0.009025
 636   9  12.901046  -0.129625   6.445887  -0.000597   0.207321  -0.002881
 637   9  11.485240  -1.664349   6.320133   0.000862   0.425402   0.002025
 638   9   9.162106  -2.301596   5.529754   0.003818   0.425402   0.008976
 639   8  12.151595  -0.578782   6.999668  -0.000991   0.425402  -0.002331
 640   8  10.112042  -2.025459   6.581241   0.002524   0.425402   0.005934
 641   8   8.180967  -2.089439   5.779647   0.001694   0.207321   0.008171
 642   9  10.312336   4.547329   3.892537   0.001677   0.194868   0.008607
 643   9  11.946866   3.891619   4.791439   0.002136   0.397639   0.005371
 644   9  13.083338   2.052590   5.845879  -0.000949   0.397639  -0.002386
 645   8  10.716863   4.523187   4.805245   0.003251   0.397639   0.008177
 646   8  12.439707   3.273773   5.926054   0.000524   0.397639   0.001317
 647   8  13.010019   1.547961   6.704503  -0.000618   0.194868  -0.003169
 648  15   7.225620   6.774526   3.221629   0.000050   0.231767   0.000216
 649   8   8.942697   5.289133   4.405232   0.002014   0.369775   0.005448
 650   8   8.690802   1.926835   9.968574  -0.000149   0.017068  -0.008706
 651  18   7.990233   2.158013  10.037407  -0.000143   0.017068  -0.008366
 652  20   8.986451   1.915900   9.995642  -0.000189   0.017068  -0.011053
 653   8   8.891261   2.815697   9.779329  -0.000145   0.017068  -0.008473
 654  18   8.166610   2.940089   9.870898  -0.000155   0.017068  -0.009061
 655  20   9.166346   2.713577   9.825812  -0.000162   0.017068  -0.009508
 656  18   7.502114   2.243897  10.251609  -0.000111   0.013488  -0.008239
 657   8   8.539216   1.907650  10.063696  -0.000021   0.019039  -0.001106
 658  18   7.705331   3.137356  10.064168  -0.000103   0.011720  -0.008762
 659   8   8.770773   2.937300   9.843420  -0.000018   0.016544  -0.001104
 660  20  12.896675   1.496082   7.601557  -0.000466   0.072745  -0.006403
 661  20  12.600525   2.632830   7.763881  -0.001005   0.164621  -0.006106
 662  20  11.699804   3.555037   8.378915  -0.000753   0.164621  -0.004575
 663  20  10.547336   3.549150   9.222605  -0.000962   0.164621  -0.005846
 664  20   9.765049   2.893699   9.826477  -0.000458   0.072745  -0.006295
 665   8  12.818045   1.977099   7.230259  -0.001000   0.156497  -0.006389
 666   8  12.148946   3.371661   7.653178  -0.000580   0.156497  -0.003706
 667   8  10.920507   3.919903   8.525945  -0.000571   0.156497  -0.003647
 668   8   9.721055   3.359259   9.430571  -0.000956   0.156497  -0.006109
 669  20   9.455463   1.521622  10.118711  -0.000506   0.072663  -0.006968
 670  20   9.841682   0.425642   9.888521  -0.000921   0.164390  -0.005605
 671  20  10.809170  -0.381775   9.219131  -0.000885   0.164390  -0.005381
 672  20  11.951076  -0.233940   8.376376  -0.000982   0.164390  -0.005976
 673  20  12.674185   0.515166   7.811330  -0.000435   0.072663  -0.005985
 674   8   9.188949   1.002585   9.932777  -0.000949   0.156362  -0.006068
 675   8   9.965575  -0.304080   9.426960  -0.000611   0.156362  -0.003907
 676   8  11.227468  -0.698659   8.522356  -0.000591   0.156362  -0.003779
 677   8  12.371595   0.007410   7.651258  -0.000922   0.156362  -0.005894
 678  15   7.412432   6.564666   2.570153  -0.000035   0.157645  -0.000220
 679   9   9.430341   4.850872   3.056883   0.001271   0.254946   0.004985
 680  19  11.922159  -0.232907  -0.072218  -0.000230   0.032108  -0.007164
 681   9  12.507895  -0.156365   0.867918  -0.000173   0.045313  -0.003808
 682  19  11.834385  -0.639803   0.016038  -0.000248   0.033168  -0.007486
 683   9  12.400669  -0.625829   0.971017  -0.000172   0.046808  -0.003677
 684   9  13.148505   0.458598   6.347797  -0.000079   0.006574  -0.011980
 685  20  12.882601   0.681228   7.007261  -0.000107   0.006574  -0.016350
 686  21  13.312069   0.390547   6.109737  -0.000100   0.006574  -0.015276
 687   9  13.224145   0.798594   6.275137  -0.000078   0.006574  -0.011878
 688  20  12.949084   0.980061   6.943398  -0.000102   0.006574  -0.015465
 689  21  13.379903   0.695456   6.044575  -0.000088   0.006574  -0.013409
 690  20  12.831897   0.750355   7.544534  -0.000135   0.015058  -0.008935
 691   9  13.151559   0.443668   6.524166  -0.000057   0.021248  -0.002665
 692  20  12.918474   1.130300   7.463227  -0.000109   0.010673  -0.010234
 693   9  13.248439   0.878463   6.431238  -0.000043   0.015061  -0.002876
 694  21  13.202455   0.017022   1.518039  -0.000493   0.068679  -0.007179
 695  21  13.481806   1.053244   1.854351  -0.000816   0.153376  -0.005320
 696  21  13.775446   1.900306   2.875136  -0.000767   0.153376  -0.005000
 697  21  13.902985   1.938446   4.227179  -0.000702   0.153376  -0.004575
 698  21  13.809718   1.151303   5.330559  -0.001014   0.153376  -0.006611
 699   9  12.984357   0.557399   1.393999  -0.000911   0.149608  -0.006088
 700   9  13.357292   1.829215   2.150336  -0.000519   0.149608  -0.003468
 701   9  13.607634   2.355364   3.560704  -0.000484   0.149608  -0.003237
 702   9  13.628004   1.910169   5.020165  -0.000701   0.149608  -0.004683
 703   9  13.484729   1.010242   5.862963  -0.000433   0.083906  -0.005161
 704  21  13.564422  -0.027931   5.777393  -0.000455   0.068485  -0.006637
 705  21  13.285685  -1.054926   5.422677  -0.000883   0.152848  -0.005779
 706  21  12.995575  -1.882998   4.389888  -0.000629   0.152848  -0.004116
 707  21  12.872942  -1.901719   3.040394  -0.000748   0.152848  -0.004895
 708  21  12.970100  -1.103102   1.949846  -0.001016   0.152848  -0.006648
 709   9  13.148019  -0.416925   5.948575  -0.000905   0.149275  -0.006062
 710   9  12.777269  -1.672034   5.171170  -0.000497   0.149275  -0.003327
 711   9  12.532018  -2.175198   3.755617  -0.000435   0.149275  -0.002915
 712   9  12.516880  -1.711784   2.305744  -0.000731   0.149275  -0.004894
 713   9  12.663087  -0.804521   1.476220  -0.000555   0.083669  -0.006632
 714  18   5.790550   5.193241   9.174425  -0.000246   0.238185  -0.001033
 715  18   4.943487   4.709740   9.583986  -0.001853   0.476153  -0.003891
 716  18   4.109331   4.059597   9.606919  -0.000816   0.238185  -0.003425
 717  10   4.553908   6.180578   8.822685  -0.001073   0.476153  -0.002253
 718  10   3.504434   5.472920   9.092662  -0.000776   0.476153  -0.001629
 719  13  -0.611378   2.926765   7.319186   0.000047   0.216002   0.000216
 720  11  -1.164926   4.202770   6.950264   0.000176   0.216002   0.000817
 721  12   1.605122   2.872879   0.468410  -0.001148   0.366852  -0.003129
 722  14   1.705655   3.941436   0.135873   0.000292   0.366852   0.000795
 723  17   2.470107   2.654742  -0.029918  -0.001141   0.366852  -0.003111
 724  14   0.833746   4.442821  -0.117881  -0.000107   0.298184  -0.000358
 725  14  -0.139190   4.816932   0.633487  -0.000690   0.596385  -0.001157
 726  12   0.353081   3.115222   0.765995  -0.001239   0.596385  -0.002077
 727  12  -0.532088   3.521482   1.604175  -0.000210   0.298184  -0.000704
 728  17   2.574080   0.014995   0.293832  -0.000659   0.286918  -0.002298
 729  17   2.471061   1.212742  -0.297827  -0.003267   0.574439  -0.005687
 730  12   1.365149   0.765580   0.854610  -0.002069   0.574439  -0.003602
 731  12   1.344662   2.010898   0.360610  -0.000754   0.286918  -0.002627
 732  18   3.590311   2.647307   9.455913  -0.001187   0.332150  -0.003575
 733  18   3.821278   1.564363   9.389818  -0.000681   0.332150  -0.002050
 734  13   2.319466   1.851519   8.745271  -0.001750   0.664968  -0.002631
 735  17   2.883208   2.641192  -0.849426  -0.000546   0.360156  -0.001516
 736  17   3.648398   3.140126  -1.156346  -0.000254   0.360156  -0.000706
 737  14   2.147769   4.761967  -0.748260   0.000677   0.718205   0.000942
 738  19   7.591359   0.013517  -1.902804  -0.000635   0.278169  -0.002283
 739  17   6.205578   0.518874  -1.811990  -0.000633   0.278169  -0.002275
 740  20   9.225033   2.404828  10.081412  -0.000647   0.281699  -0.002299
 741  18   7.769933   2.591827  10.238193  -0.000656   0.281699  -0.002329
 742  21  12.928201  -0.431623   1.259724  -0.000123   0.087348  -0.001402
 743  19  12.050485  -0.442889   0.067648  -0.000054   0.087348  -0.000622
 744  21  13.578195   0.520639   6.058279  -0.000055   0.108090  -0.000505
 745  20  13.007299   0.864063   7.382884  -0.000079   0.108090  -0.000727
 =====================================================

              5147427  WORDS OF DYNAMIC MEMORY USED
 EXECUTION OF GAMESS TERMINATED NORMALLY Fri Nov 25 05:28:38 2016
 DDI: 263640 bytes (0.3 MB / 0 MWords) used by master data server.

 ----------------------------------------
 CPU timing information for all processes
 ========================================
 0: 1700.308 + 0.516 = 1700.824
 ----------------------------------------
 ddikick.x: exited gracefully.
