----- GAMESS execution script -----

          ******************************************************
          *         GAMESS VERSION =  5 DEC 2014 (R1)          *
          *             FROM IOWA STATE UNIVERSITY             *
          * M.W.SCHMIDT, K.K.BALDRIDGE, J.A.BOATZ, S.T.ELBERT, *
          *   M.S.GORDON, J.H.JENSEN, S.KOSEKI, N.MATSUNAGA,   *
          *          K.A.NGUYEN, S.J.SU, T.L.WINDUS,           *
          *       TOGETHER WITH M.DUPUIS, J.A.MONTGOMERY       *
          *         J.COMPUT.CHEM.  14, 1347-1363(1993)        *
          **************** 64 BIT LINUX VERSION ****************

 EXECUTION OF GAMESS BEGUN Fri Nov 25 04:55:54 2016

            ECHO OF THE FIRST FEW INPUT CARDS -
 INPUT CARD>! SELECT RESTRICTED HARTREE-FOCK AS DEFAULT                                     
 INPUT CARD>$contrl scftyp=rhf $end                                                         
 INPUT CARD>                                                                                
 INPUT CARD>! THEORY: HF OR DFT                                                             
 INPUT CARD> $contrl mplevl=0 $end                                                          
 INPUT CARD>                                                                                
 INPUT CARD> $system timlim=10000 mwords=20 $end                                            
 INPUT CARD> $SCF DIRSCF=.TRUE. $end                                                        
 INPUT CARD>                                                                                
 INPUT CARD>                                                                                
 INPUT CARD>! BASIS SETS                                                                    
 INPUT CARD>! 6-311G(d,p)                                                                   
 INPUT CARD> $BASIS GBASIS=N311 NGAUSS=6 NDFUNC=1 NPFUNC=1 $END                             
 INPUT CARD>                                                                                
 INPUT CARD>! One of the following                                                          
 INPUT CARD> $guess guess=HUCKEL $end                                                       
 INPUT CARD>                                                                                
 INPUT CARD> $statpt projct=.FALSE. $end                                                    
 INPUT CARD> $STATPT IFREEZ(1)=1,2,3 $END                                                   
 INPUT CARD>                                                                                
 INPUT CARD>! Optimize the geometry with COSMO effects                                      
 INPUT CARD> $statpt opttol=0.0005 nstep=50 $end                                            
 INPUT CARD> $contrl nzvar=1 $end                                                           
 INPUT CARD> $zmat dlc=.t. auto=.t. $end                                                    
 INPUT CARD> $contrl runtyp=OPTIMIZE maxit=200 $end                                         
 INPUT CARD>                                                                                
 INPUT CARD>! Run COSMO on perfect conductor                                                
 INPUT CARD> $COSGMS PRFCND=.TRUE. $end                                                     
 INPUT CARD>                                                                                
 INPUT CARD>! Specifying RSOLV                                                              
 INPUT CARD> $COSGMS COSRAD = 1.4 $end                                                      
 INPUT CARD>                                                                                
 INPUT CARD>! available memory                                                              
 INPUT CARD> $SYSTEM MWORDS=40 $END                                                         
 INPUT CARD>                                                                                
 INPUT CARD> $DATA                                                                          
 INPUT CARD>                                                                                
 INPUT CARD>C1                                                                              
 INPUT CARD>C      6.0      0.7630000000    1.5553000000    1.3930000000                    
 INPUT CARD>C      6.0      2.1507000000    1.0188000000    1.0723000000                    
 INPUT CARD>C      6.0      3.2437000000    1.8951000000    1.6562000000                    
 INPUT CARD>O      8.0     -0.2248000000    0.7116000000    0.8174000000                    
 INPUT CARD>H      1.0      0.5934000000    1.6016000000    2.4733000000                    
 INPUT CARD>H      1.0      0.6296000000    2.5600000000    0.9814000000                    
 INPUT CARD>H      1.0      2.2734000000    0.9437000000   -0.0152000000                    
 INPUT CARD>H      1.0      2.2499000000   -0.0041000000    1.4572000000                    
 INPUT CARD>H      1.0      3.1620000000    1.9497000000    2.7462000000                    
 INPUT CARD>H      1.0      3.1864000000    2.9123000000    1.2556000000                    
 INPUT CARD>H      1.0      4.2292000000    1.4880000000    1.4093000000                    
 INPUT CARD>H      1.0     -0.1127000000   -0.1753000000    1.2009000000                    
   40000000 WORDS OF MEMORY AVAILABLE

     BASIS OPTIONS
     -------------
     GBASIS=N311         IGAUSS=       6      POLAR=POPN311 
     NDFUNC=       1     NFFUNC=       0     DIFFSP=       F
     NPFUNC=       1      DIFFS=       F     BASNAM=        


     RUN TITLE
     ---------
                                                                                 

 THE POINT GROUP OF THE MOLECULE IS C1      
 THE ORDER OF THE PRINCIPAL AXIS IS     0

 ATOM      ATOMIC                      COORDINATES (BOHR)
           CHARGE         X                   Y                   Z
 C           6.0     1.4418609286        2.9390908287        2.6323883009
 C           6.0     4.0642336818        1.9252528363        2.0263531766
 C           6.0     6.1297041864        3.5812197193        3.1297641809
 O           8.0    -0.4248104020        1.3447290129        1.5446620224
 H           1.0     1.1213634011        3.0265851419        4.6738592854
 H           1.0     1.1897714819        4.8376985286        1.8545770844
 H           1.0     4.2961030605        1.7833344146       -0.0287238350
 H           1.0     4.2516944998       -0.0077478765        2.7537087093
 H           1.0     5.9753135732        3.6843987583        5.1895655075
 H           1.0     6.0214228873        5.5034489940        2.3727399502
 H           1.0     7.9920291473        2.8119122697        2.6631908345
 H           1.0    -0.2129721188       -0.3312689656        2.2693719387

          INTERNUCLEAR DISTANCES (ANGS.)




     $CONTRL OPTIONS
     ---------------
 SCFTYP=RHF          RUNTYP=OPTIMIZE     EXETYP=RUN     
 MPLEVL=       0     CITYP =NONE         CCTYP =NONE         VBTYP =NONE    
 DFTTYP=NONE         TDDFT =NONE    
 MULT  =       1     ICHARG=       0     NZVAR =       1     COORD =UNIQUE  
 PP    =NONE         RELWFN=NONE         LOCAL =NONE         NUMGRD=       F
 ISPHER=      -1     NOSYM =       0     MAXIT =     200     UNITS =ANGS    
 PLTORB=       F     MOLPLT=       F     AIMPAC=       F     FRIEND=        
 NPRINT=       7     IREST =       0     GEOM  =INPUT   
 NORMF =       0     NORMP =       0     ITOL  =      20     ICUT  =       9
 INTTYP=BEST         GRDTYP=BEST         QMTTOL= 1.0E-06

     $SYSTEM OPTIONS
     ---------------
  REPLICATED MEMORY=    40000000 WORDS (ON EVERY NODE).
 DISTRIBUTED MEMDDI=           0 MILLION WORDS IN AGGREGATE,
 MEMDDI DISTRIBUTED OVER   1 PROCESSORS IS           0 WORDS/PROCESSOR.
 TOTAL MEMORY REQUESTED ON EACH PROCESSOR=    40000000 WORDS.
 TIMLIM=       10000.00 MINUTES, OR       6.9 DAYS.
 PARALL= F  BALTYP=  DLB     KDIAG=    0  COREFL= F
 MXSEQ2=     300 MXSEQ3=     150  mem10=         0

     $COSGMS OPTIONS
     ---------------
     EPSI  =   INFTY     NSPA  =      92     COSRAD=    1.40
     DISEX =   10.00     OUTCHG=DBLCAV       COSBUG=       F
     COSWRT=       F     DCOSMO=       F

     SYMMETRY COORDINATES WILL NOT BE USED FOR 
     THE COSMO CALCULATION, EVEN IF SPECIFIED:
         -- SWITCHING TO C1 POINT GROUP --


     DEFINITION OF CAVITY
     ---------------------------
     ATOM         COORDINATES           RADIUS 
     1    1.4419    2.9391    2.6324    2.0000
     2    4.0642    1.9253    2.0264    2.0000
     3    6.1297    3.5812    3.1298    2.0000
     4   -0.4248    1.3447    1.5447    1.7200
     5    1.1214    3.0266    4.6739    1.3000
     6    1.1898    4.8377    1.8546    1.3000
     7    4.2961    1.7833   -0.0287    1.3000
     8    4.2517   -0.0077    2.7537    1.3000
     9    5.9753    3.6844    5.1896    1.3000
    10    6.0214    5.5034    2.3727    1.3000
    11    7.9920    2.8119    2.6632    1.3000
    12   -0.2130   -0.3313    2.2694    1.3000

          ----------------
          PROPERTIES INPUT
          ----------------

     MOMENTS            FIELD           POTENTIAL          DENSITY
 IEMOM =       1   IEFLD =       0   IEPOT =       0   IEDEN =       0
 WHERE =COMASS     WHERE =NUCLEI     WHERE =NUCLEI     WHERE =NUCLEI  
 OUTPUT=BOTH       OUTPUT=BOTH       OUTPUT=BOTH       OUTPUT=BOTH    
 IEMINT=       0   IEFINT=       0                     IEDINT=       0
                                                       MORB  =       0
          EXTRAPOLATION IN EFFECT
          SOSCF IN EFFECT
 ORBITAL PRINTING OPTION: NPREO=     1   124     2     1

     -------------------------------
     INTEGRAL TRANSFORMATION OPTIONS
     -------------------------------
     NWORD  =            0
     CUTOFF = 1.0E-09     MPTRAN =       0
     DIRTRF =       T     AOINTS =DUP     

          ----------------------
          INTEGRAL INPUT OPTIONS
          ----------------------
 NOPK  =       1 NORDER=       0 SCHWRZ=       T


 -----------------------------------------------
  STATISTICS ON AUTOMATIC COORDINATE GENERATION 
 -----------------------------------------------
  NUMBER OF USER SPECIFIED BONDS                             0
  NUMBER OF BONDS                                           11
  NUMBER OF ANGLES                                          19
  NUMBER OF TORSIONS                                        21
  NUMBER OF EXTRA COORD.                                     0
  NUMBER OF EXTRA COORD. FOR CONSTRAINTS                     0
  NUMBER OF CONSTRAINED COORD.                               0

  TOTAL NUMBER OF PRIMITIVES                                51
 -----------------------------------------------

   --- ENCODED Z MATRIX ---
 COORD  TYPE   I   J   K   L   M   N
    1      1    1   5
    2      1    1   4
    3      1    1   6
    4      1    1   2
    5      1    2   7
    6      1    2   8
    7      1    2   3
    8      1    3  11
    9      1    3  10
   10      1    3   9
   11      1    4  12
   12      2    1   2   8
   13      2    1   4  12
   14      2    1   2   3
   15      2    1   2   7
   16      2    2   1   5
   17      2    2   1   6
   18      2    2   1   4
   19      2    2   3   9
   20      2    2   3  10
   21      2    2   3  11
   22      2    3   2   8
   23      2    3   2   7
   24      2    4   1   5
   25      2    4   1   6
   26      2    5   1   6
   27      2    7   2   8
   28      2    9   3  10
   29      2    9   3  11
   30      2   10   3  11
   31      3    1   2   3   9
   32      3    1   2   3  10
   33      3    1   2   3  11
   34      3    2   1   4  12
   35      3    3   2   1   5
   36      3    3   2   1   6
   37      3    3   2   1   4
   38      3    4   1   2   7
   39      3    4   1   2   8
   40      3    5   1   2   7
   41      3    5   1   4  12
   42      3    5   1   2   8
   43      3    6   1   2   7
   44      3    6   1   2   8
   45      3    6   1   4  12
   46      3    7   2   3  10
   47      3    7   2   3   9
   48      3    7   2   3  11
   49      3    8   2   3  10
   50      3    8   2   3   9
   51      3    8   2   3  11

          INDEP./SYM. INTERNAL COORDINATES
          --------------------------------
 CRD  1=   0.2364 ( 12) -0.6691 ( 14)  0.2159 ( 15) -0.1355 ( 16) -0.1842 ( 17)
           0.3963 ( 18) -0.1084 ( 19) -0.1123 ( 20)  0.1535 ( 21)  0.1906 ( 22)
           0.1917 ( 23) -0.1316 ( 27)  0.1131 ( 40) -0.1003 ( 44)
 CRD  2=   0.2602 (  2)  0.3239 (  4)  0.3050 (  7)  0.3603 ( 13)  0.2522 ( 14)
          -0.1401 ( 17)  0.5327 ( 18)  0.1457 ( 19) -0.1383 ( 23) -0.1822 ( 24)
          -0.2354 ( 25)  0.1101 ( 34) -0.1003 ( 37)  0.1112 ( 45)
 CRD  3=   0.1586 (  4)  0.1156 ( 12) -0.2914 ( 13) -0.1092 ( 15)  0.1459 ( 18)
          -0.3299 ( 19)  0.3684 ( 20) -0.2443 ( 22)  0.1889 ( 23) -0.2487 ( 24)
          -0.1188 ( 30)  0.1034 ( 34)  0.2131 ( 35)  0.2433 ( 36)  0.3636 ( 37)
           0.1681 ( 38)  0.1657 ( 39)  0.1274 ( 45)
 CRD  4=  -0.2938 (  7)  0.2481 ( 12) -0.1215 ( 13) -0.1562 ( 15)  0.3679 ( 16)
          -0.3102 ( 17)  0.2231 ( 19) -0.2965 ( 20) -0.1825 ( 21) -0.1421 ( 22)
          -0.1932 ( 24)  0.1080 ( 25)  0.1969 ( 30)  0.2195 ( 31)  0.1938 ( 32)
           0.2580 ( 33)  0.2620 ( 34)
 CRD  5=   0.1959 (  2) -0.3160 (  4) -0.1014 (  6) -0.3839 (  7) -0.1157 (  8)
           0.2924 ( 13) -0.1836 ( 16) -0.1059 ( 17)  0.1243 ( 18) -0.1223 ( 19)
           0.2784 ( 20) -0.4946 ( 21) -0.1440 ( 22)  0.2612 ( 29)  0.1222 ( 30)
           0.1042 ( 35)
 CRD  6=  -0.1134 (  2)  0.4674 (  4) -0.4131 (  7) -0.1285 ( 13)  0.2678 ( 15)
           0.2891 ( 17) -0.1776 ( 19) -0.1386 ( 20) -0.2412 ( 23) -0.1873 ( 25)
           0.1746 ( 28)  0.1141 ( 29) -0.1203 ( 31) -0.1287 ( 32) -0.1237 ( 33)
          -0.1144 ( 34) -0.1217 ( 42)  0.1793 ( 45)
 CRD  7=  -0.1278 (  1) -0.2733 (  2) -0.1470 (  4)  0.1448 (  7) -0.1079 (  8)
          -0.1096 ( 11) -0.1474 ( 12) -0.4411 ( 13)  0.1420 ( 15) -0.1569 ( 16)
           0.2375 ( 18)  0.4103 ( 19) -0.3426 ( 21)  0.1373 ( 22) -0.1163 ( 23)
          -0.1477 ( 24)  0.1262 ( 26) -0.2119 ( 28)  0.1012 ( 30) -0.1317 ( 32)
           0.1122 ( 39)  0.1090 ( 41)
 CRD  8=   0.1099 (  1) -0.1099 (  3) -0.1311 ( 10)  0.1232 ( 11) -0.2966 ( 12)
           0.2320 ( 15)  0.3030 ( 16) -0.3376 ( 17) -0.2282 ( 19)  0.2663 ( 22)
          -0.2817 ( 23) -0.2321 ( 24)  0.2734 ( 25) -0.1065 ( 30) -0.1598 ( 31)
          -0.1496 ( 32) -0.1380 ( 33)  0.2019 ( 34) -0.1627 ( 35) -0.1752 ( 36)
           0.1063 ( 38)  0.1069 ( 39)
 CRD  9=  -0.1869 (  1) -0.2954 (  4) -0.1009 (  5) -0.2690 (  6) -0.1416 (  7)
           0.1266 (  8) -0.1543 (  9) -0.1613 ( 12)  0.2525 ( 14) -0.1181 ( 15)
          -0.2357 ( 16)  0.1987 ( 18) -0.4265 ( 20)  0.3165 ( 21)  0.1466 ( 26)
           0.1455 ( 27)  0.2284 ( 28) -0.1359 ( 29)  0.1573 ( 37)  0.1153 ( 38)
           0.1607 ( 41)
 CRD 10=   0.3125 (  2)  0.2625 (  3)  0.1813 (  4)  0.2579 (  5) -0.1030 (  9)
           0.1459 ( 10)  0.3452 ( 11)  0.1954 ( 13) -0.1328 ( 14)  0.1619 ( 15)
          -0.1509 ( 18)  0.3122 ( 19) -0.1640 ( 20) -0.1162 ( 21)  0.2297 ( 25)
          -0.1075 ( 26) -0.1099 ( 29)  0.1505 ( 30) -0.1042 ( 33)  0.1304 ( 35)
           0.2589 ( 37)  0.1998 ( 38)  0.1893 ( 39)
 CRD 11=   0.3200 (  1) -0.1240 (  2) -0.4331 (  3)  0.4255 (  5) -0.4178 (  6)
           0.1098 ( 10) -0.1500 ( 11)  0.1355 ( 16) -0.1241 ( 22)  0.1457 ( 23)
          -0.1434 ( 31) -0.1423 ( 32) -0.1709 ( 33)  0.1316 ( 35)  0.1610 ( 36)
          -0.1748 ( 38) -0.1631 ( 39)
 CRD 12=  -0.1754 (  7) -0.4807 (  8) -0.5085 (  9) -0.5049 ( 10)  0.1763 ( 19)
           0.1744 ( 20)  0.1912 ( 21) -0.1825 ( 28) -0.1931 ( 29) -0.1913 ( 30)
 CRD 13=   0.6538 (  1)  0.1341 (  2)  0.4545 (  3) -0.2499 ( 13) -0.1886 ( 16)
          -0.1976 ( 17)  0.2897 ( 26)  0.1525 ( 41) -0.2319 ( 45)
 CRD 14=  -0.1633 (  5) -0.1638 (  6)  0.6383 (  8) -0.2910 (  9) -0.2987 ( 10)
          -0.3295 ( 28)  0.1577 ( 29)  0.1618 ( 30) -0.1708 ( 31)  0.1714 ( 32)
           0.1863 ( 46) -0.1559 ( 47)  0.1560 ( 49) -0.1862 ( 50)
 CRD 15=   0.5486 (  9) -0.5435 ( 10) -0.2955 ( 29)  0.2928 ( 30) -0.2374 ( 33)
          -0.2343 ( 48) -0.2351 ( 51)
 CRD 16=  -0.5947 (  5) -0.5914 (  6) -0.1414 (  8)  0.1316 (  9)  0.1348 ( 10)
          -0.2354 ( 27) -0.1001 ( 38) -0.1008 ( 40)  0.1464 ( 47) -0.1554 ( 49)
          -0.1062 ( 51)
 CRD 17=  -0.2653 (  1)  0.2399 (  3)  0.1417 ( 12) -0.1363 ( 15) -0.1633 ( 22)
           0.1515 ( 23) -0.1634 ( 24)  0.1561 ( 25) -0.1537 ( 31) -0.1542 ( 32)
          -0.1069 ( 33) -0.1735 ( 35) -0.1773 ( 36) -0.1087 ( 38) -0.1156 ( 39)
          -0.2731 ( 40) -0.2800 ( 42) -0.2769 ( 43) -0.2838 ( 44) -0.2196 ( 46)
          -0.2191 ( 47) -0.1723 ( 48) -0.2226 ( 49) -0.2221 ( 50) -0.1754 ( 51)
 CRD 18=   0.5308 (  2) -0.4060 (  3)  0.1261 (  4) -0.4804 ( 13) -0.1160 ( 16)
           0.2086 ( 24)  0.1464 ( 25) -0.1179 ( 26)  0.1495 ( 35) -0.1437 ( 36)
           0.1864 ( 40)  0.1149 ( 42) -0.1067 ( 43) -0.1782 ( 44)
 CRD 19=   0.2486 (  1) -0.1081 (  2) -0.1830 (  3) -0.3605 (  5)  0.3638 (  6)
           0.1473 ( 11)  0.1123 ( 13) -0.1498 ( 31) -0.1450 ( 32) -0.1639 ( 33)
           0.1413 ( 36)  0.1007 ( 38)  0.1201 ( 39)  0.1049 ( 40)  0.1243 ( 42)
           0.1677 ( 43)  0.1871 ( 44) -0.2369 ( 46) -0.2416 ( 47) -0.2558 ( 48)
          -0.2186 ( 49) -0.2234 ( 50) -0.2375 ( 51)
 CRD 20=   0.2812 (  2)  0.1958 (  3) -0.7511 ( 11)  0.1017 ( 16) -0.1341 ( 26)
           0.2263 ( 34)  0.1133 ( 39)  0.1546 ( 41)  0.1095 ( 42)  0.3025 ( 45)
 CRD 21=  -0.1663 (  1) -0.2053 (  2)  0.2079 (  8)  0.1490 ( 10) -0.4116 ( 11)
           0.1020 ( 12)  0.2254 ( 13)  0.1822 ( 15) -0.1843 ( 17)  0.1253 ( 19)
           0.1236 ( 20)  0.1593 ( 21) -0.1385 ( 22) -0.1668 ( 23)  0.1844 ( 25)
          -0.2013 ( 29) -0.1353 ( 30) -0.1828 ( 34)  0.1062 ( 35)  0.1086 ( 37)
           0.1910 ( 38)  0.1887 ( 40) -0.1291 ( 41)  0.1258 ( 43) -0.3387 ( 45)
           0.1069 ( 47) -0.1131 ( 51)
 CRD 22=   0.1678 (  4)  0.1881 (  7) -0.2250 (  8) -0.2095 (  9) -0.1261 ( 10)
          -0.1525 ( 11) -0.1297 ( 12) -0.1032 ( 17) -0.1755 ( 19) -0.1809 ( 20)
          -0.1953 ( 21)  0.1125 ( 22)  0.1201 ( 23) -0.1122 ( 24)  0.1621 ( 28)
           0.1728 ( 29)  0.2425 ( 30) -0.3301 ( 34)  0.1515 ( 39) -0.3395 ( 41)
           0.1413 ( 44) -0.3957 ( 45)
 CRD 23=  -0.1567 (  1) -0.2395 (  2)  0.1203 (  4)  0.1312 (  5)  0.3533 (  7)
          -0.1379 (  9) -0.2295 ( 10)  0.1306 ( 12) -0.1904 ( 16) -0.1560 ( 17)
          -0.1459 ( 18) -0.1478 ( 19) -0.1400 ( 20) -0.1255 ( 21)  0.2475 ( 24)
           0.1389 ( 25)  0.1279 ( 26) -0.1108 ( 27)  0.2260 ( 28)  0.1385 ( 29)
           0.2235 ( 34)  0.3913 ( 41)  0.1001 ( 47) -0.2071 ( 49) -0.1145 ( 50)
          -0.1187 ( 51)
 CRD 24=  -0.2498 (  1)  0.2112 (  3)  0.2672 (  5) -0.2919 (  6) -0.1054 (  7)
           0.2552 (  9) -0.1506 ( 10) -0.1201 ( 13) -0.1193 ( 15)  0.1219 ( 22)
           0.1155 ( 24) -0.1677 ( 25)  0.1491 ( 29) -0.1599 ( 30)  0.1399 ( 33)
          -0.1277 ( 37)  0.1917 ( 40) -0.1300 ( 41)  0.2165 ( 42)  0.2306 ( 43)
           0.2554 ( 44) -0.1373 ( 45) -0.2142 ( 46) -0.2711 ( 47) -0.1461 ( 49)
          -0.2030 ( 50)
 CRD 25=  -0.1344 (  1) -0.1879 (  3)  0.4729 (  4) -0.2834 (  7) -0.1806 (  8)
           0.1237 (  9)  0.2028 ( 10) -0.1428 ( 12) -0.1192 ( 15) -0.1538 ( 16)
          -0.1422 ( 17) -0.1176 ( 18)  0.1102 ( 23)  0.1144 ( 25)  0.2247 ( 26)
          -0.2325 ( 28) -0.1136 ( 31)  0.1355 ( 32)  0.1067 ( 34) -0.1314 ( 40)
           0.3107 ( 41) -0.1691 ( 47)  0.2344 ( 49)
 CRD 26=  -0.1461 (  1)  0.2883 (  2) -0.1530 (  3)  0.1641 (  5)  0.1690 (  6)
          -0.2665 (  7)  0.2613 (  8)  0.1011 ( 22)  0.1023 ( 23) -0.1095 ( 24)
          -0.1050 ( 25)  0.2350 ( 26) -0.2672 ( 27)  0.1161 ( 28) -0.1353 ( 29)
          -0.1310 ( 30)  0.1207 ( 31) -0.1180 ( 32) -0.1601 ( 35)  0.1551 ( 36)
          -0.1382 ( 38)  0.1407 ( 39) -0.3006 ( 40)  0.1039 ( 41)  0.2935 ( 44)
           0.2246 ( 47)  0.1023 ( 48) -0.2199 ( 49) -0.1034 ( 51)
 CRD 27=  -0.2479 (  1)  0.2597 (  3) -0.2796 (  9)  0.2733 ( 10)  0.1041 ( 11)
          -0.1485 ( 13)  0.1298 ( 16) -0.1160 ( 17) -0.1238 ( 19)  0.1248 ( 20)
           0.1521 ( 24) -0.1666 ( 25) -0.2108 ( 29)  0.2083 ( 30) -0.2948 ( 33)
           0.1966 ( 34) -0.2399 ( 37) -0.1900 ( 38) -0.1944 ( 39) -0.2482 ( 48)
          -0.2465 ( 51)
 CRD 28=   0.2588 (  2) -0.2206 (  4)  0.2189 (  7) -0.2578 (  8)  0.1702 ( 12)
           0.1702 ( 15) -0.1258 ( 18) -0.1020 ( 19) -0.1018 ( 20)  0.1301 ( 21)
          -0.1681 ( 22) -0.1683 ( 23) -0.1165 ( 24) -0.1143 ( 25)  0.1594 ( 26)
          -0.1529 ( 28)  0.1165 ( 29)  0.1166 ( 30) -0.1646 ( 31)  0.1653 ( 32)
          -0.1669 ( 35)  0.1636 ( 36) -0.2587 ( 42)  0.2557 ( 43)  0.2674 ( 46)
           0.1023 ( 48) -0.2669 ( 50) -0.1020 ( 51)
 CRD 29=  -0.1446 (  2)  0.1002 (  3) -0.1915 (  4)  0.1830 (  5)  0.1803 (  6)
          -0.1764 (  7) -0.1383 (  8)  0.2512 ( 14)  0.1663 ( 18)  0.1657 ( 21)
          -0.1481 ( 26) -0.2765 ( 27) -0.1294 ( 28) -0.1221 ( 31)  0.1219 ( 32)
           0.1321 ( 35) -0.1288 ( 36) -0.1684 ( 38)  0.1658 ( 39)  0.3005 ( 42)
          -0.2946 ( 43)  0.2896 ( 46)  0.1672 ( 48) -0.2901 ( 50) -0.1685 ( 51)
 CRD 30=   0.1434 (  1) -0.1435 (  3)  0.2114 (  5) -0.2120 (  6) -0.1400 (  9)
           0.1400 ( 10)  0.1574 ( 12) -0.1572 ( 15) -0.1456 ( 16)  0.1456 ( 17)
          -0.1430 ( 19)  0.1429 ( 20)  0.1563 ( 22) -0.1565 ( 23) -0.1035 ( 29)
           0.1036 ( 30)  0.2752 ( 31)  0.2751 ( 32) -0.2033 ( 34) -0.2765 ( 35)
          -0.2755 ( 36)  0.2350 ( 38)  0.2346 ( 39) -0.2561 ( 48) -0.2554 ( 51)

 THE DETERMINANT OF THE G MATRIX IS 10**(    -9)


                     --------------------
                     INTERNAL COORDINATES
                     --------------------

                 - - ATOMS - -         COORDINATE      COORDINATE
 NO.   TYPE    I  J  K  L  M  N        (BOHR,RAD)       (ANG,DEG)
 ----------------------------------------------------------------
   1 STRETCH   1  5                     2.0683273       1.0945117
   2 STRETCH   1  4                     2.6850698       1.4208779
   3 STRETCH   1  6                     2.0671842       1.0939069
   4 STRETCH   1  2                     2.8761059       1.5219698
   5 STRETCH   2  7                     2.0729799       1.0969738
   6 STRETCH   2  8                     2.0738079       1.0974120
   7 STRETCH   2  3                     2.8680848       1.5177252
   8 STRETCH   3 11                     2.0682792       1.0944863
   9 STRETCH   3 10                     2.0687619       1.0947417
  10 STRETCH   3  9                     2.0681547       1.0944204
  11 STRETCH   4 12                     1.8382190       0.9727437
  12 BEND      1  2  8                  1.9146150     109.6993573
  13 BEND      1  4 12                  1.8771258     107.5513857
  14 BEND      1  2  3                  1.9519916     111.8408788
  15 BEND      1  2  7                  1.9124144     109.5732757
  16 BEND      2  1  5                  1.9435421     111.3567584
  17 BEND      2  1  6                  1.9344195     110.8340727
  18 BEND      2  1  4                  1.9168621     109.8281085
  19 BEND      2  3  9                  1.9371473     110.9903623
  20 BEND      2  3 10                  1.9369278     110.9777881
  21 BEND      2  3 11                  1.9250595     110.2977868
  22 BEND      3  2  8                  1.9157379     109.7636944
  23 BEND      3  2  7                  1.9181109     109.8996603
  24 BEND      4  1  5                  1.8936085     108.4957741
  25 BEND      4  1  6                  1.8840549     107.9483919
  26 BEND      5  1  6                  1.8898116     108.2782260
  27 BEND      7  2  8                  1.8481190     105.8894192
  28 BEND      9  3 10                  1.8903997     108.3119221
  29 BEND      9  3 11                  1.8864612     108.0862640
  30 BEND     10  3 11                  1.8861890     108.0706672
  31 TORSION   1  2  3  9               1.0532263      60.3454226
  32 TORSION   1  2  3 10              -1.0498700     -60.1531180
  33 TORSION   1  2  3 11              -3.1396735    -179.8900401
  34 TORSION   2  1  4 12               1.0507656      60.2044330
  35 TORSION   3  2  1  5              -1.0527974     -60.3208469
  36 TORSION   3  2  1  6               1.0521594      60.2842920
  37 TORSION   3  2  1  4               3.1324252     179.4747437
  38 TORSION   4  1  2  7               1.0010315      57.3548813
  39 TORSION   4  1  2  8              -1.0208469     -58.4902217
  40 TORSION   5  1  2  7               3.0989942     177.5592906
  41 TORSION   5  1  4 12              -1.0772496     -61.7218537
  42 TORSION   5  1  2  8               1.0771158      61.7141876
  43 TORSION   6  1  2  7              -1.0792343     -61.8355705
  44 TORSION   6  1  2  8              -3.1011128    -177.6806735
  45 TORSION   6  1  4 12              -3.1215286    -178.8504141
  46 TORSION   7  2  3 10               1.0782564      61.7795407
  47 TORSION   7  2  3  9              -3.1018326    -177.7219187
  48 TORSION   7  2  3 11              -1.0115471     -57.9573814
  49 TORSION   8  2  3 10               3.1040463     177.8487530
  50 TORSION   8  2  3  9              -1.0760427     -61.6527064
  51 TORSION   8  2  3 11               1.0142428      58.1118309

     ------------------------------------------
     THE POINT GROUP IS C1 , NAXIS= 1, ORDER= 1
     ------------------------------------------

     DIMENSIONS OF THE SYMMETRY SUBSPACES ARE
 A   =  124

 ..... DONE SETTING UP THE RUN .....
 STEP CPU TIME =     0.01 TOTAL CPU TIME =        0.0 (    0.0 MIN)
 TOTAL WALL CLOCK TIME=        0.0 SECONDS, CPU UTILIZATION IS 100.00%


          -----------------------------
          STATIONARY POINT LOCATION RUN
          -----------------------------

 OBTAINING INITIAL HESSIAN, HESS=GUESS   
 DIAGONAL GUESS HESSIAN IN INTERNAL COORDS IS
     1  0.3433     2  0.3665     3  0.3437     4  0.3729     5  0.3417
     6  0.3414     7  0.3760     8  0.3434     9  0.3432    10  0.3434
    11  0.3513    12  0.2241    13  0.2145    14  0.2499    15  0.2241
    16  0.2243    17  0.2243    18  0.2441    19  0.2245    20  0.2245
    21  0.2245    22  0.2244    23  0.2244    24  0.2196    25  0.2197
    26  0.2030    27  0.2027    28  0.2029    29  0.2030    30  0.2029
    31  0.2500    32  0.2500    33  0.2500    34  0.2500    35  0.2500
    36  0.2500    37  0.2500    38  0.2500    39  0.2500    40  0.2500
    41  0.2500    42  0.2500    43  0.2500    44  0.2500    45  0.2500
    46  0.2500    47  0.2500    48  0.2500    49  0.2500    50  0.2500
    51  0.2500
 TRANSFORMING HESSIAN TO SYMMETRY COORDINATES

          PARAMETERS CONTROLLING GEOMETRY SEARCH ARE
          METHOD =QA                  UPHESS =BFGS    
          NNEG   =         0          NFRZ   =         3
          NSTEP  =        50          IFOLOW =         1
          HESS   =GUESS               RESTAR =         F
          IHREP  =         0          HSSEND =         F
          NPRT   =         0          NPUN   =         0
          OPTTOL = 5.000E-04          RMIN   = 1.500E-03
          RMAX   = 1.000E-01          RLIM   = 7.000E-02
          DXMAX  = 3.000E-01          PURIFY =         F
          MOVIE  =         F          TRUPD  =         T
          TRMAX  = 5.000E-01          TRMIN  = 5.000E-02
          ITBMAT =         5          STPT   =         F
          STSTEP = 1.000E-02          PROJCT=          F
          FROZEN COORD(S)=   1   2   3


      ***** EQUILIBRIUM GEOMETRY LOCATED *****
            (SUBJECT TO   3 CONSTRAINT(S))
 COORDINATES OF ALL ATOMS ARE (ANGS)
   ATOM   CHARGE       X              Y              Z
 ------------------------------------------------------------
 C           6.0   0.7639463802   1.5431618713   1.3790895188
 C           6.0   2.1552893984   1.0223840271   1.0649986312
 C           6.0   3.2507619520   1.8970640961   1.6657139943
 O           8.0  -0.2364658316   0.7137019481   0.8305611739
 H           1.0   0.6320784235   1.6305610567   2.4559937546
 H           1.0   0.6177974264   2.5277416816   0.9486300062
 H           1.0   2.2688094482   0.9609359926  -0.0146311901
 H           1.0   2.2392112492   0.0082234444   1.4524405374
 H           1.0   3.1513615227   1.9544775443   2.7463911978
 H           1.0   3.2001191223   2.9076330785   1.2690658085
 H           1.0   4.2331967723   1.4966441365   1.4387693799
 H           1.0  -0.0962278245  -0.1652102987   1.1424475479


                     --------------------
                     INTERNAL COORDINATES
                     --------------------

                 - - ATOMS - -         COORDINATE      COORDINATE
 NO.   TYPE    I  J  K  L  M  N        (BOHR,RAD)       (ANG,DEG)
 ----------------------------------------------------------------
   1 STRETCH   1  5                     2.0568958       1.0884625
   2 STRETCH   1  4                     2.6655935       1.4105714
   3 STRETCH   1  6                     2.0493312       1.0844595
   4 STRETCH   1  2                     2.8694592       1.5184525
   5 STRETCH   2  7                     2.0547355       1.0873193
   6 STRETCH   2  8                     2.0576988       1.0888874
   7 STRETCH   2  3                     2.8820547       1.5251178
   8 STRETCH   3 11                     2.0501726       1.0849047
   9 STRETCH   3 10                     2.0537628       1.0868046
  10 STRETCH   3  9                     2.0536722       1.0867566
  11 STRETCH   4 12                     1.7821895       0.9430941
  12 BEND      1  2  8                  1.8927802     108.4483164
  13 BEND      1  4 12                  1.8901468     108.2974360
  14 BEND      1  2  3                  1.9605803     112.3329783
  15 BEND      1  2  7                  1.8969825     108.6890920
  16 BEND      2  1  5                  1.9211189     110.0720048
  17 BEND      2  1  6                  1.9313137     110.6561222
  18 BEND      2  1  4                  1.9473776     111.5765172
  19 BEND      2  3  9                  1.9350783     110.8718216
  20 BEND      2  3 10                  1.9348463     110.8585283
  21 BEND      2  3 11                  1.9351824     110.8777822
  22 BEND      3  2  8                  1.9162780     109.7946405
  23 BEND      3  2  7                  1.9267830     110.3965334
  24 BEND      4  1  5                  1.9241367     110.2449124
  25 BEND      4  1  6                  1.8586943     106.4953377
  26 BEND      5  1  6                  1.8791516     107.6674560
  27 BEND      7  2  8                  1.8677585     107.0146771
  28 BEND      9  3 10                  1.8855049     108.0314726
  29 BEND      9  3 11                  1.8863456     108.0796426
  30 BEND     10  3 11                  1.8849846     108.0016627
  31 TORSION   1  2  3  9               1.0326334      59.1655351
  32 TORSION   1  2  3 10              -1.0615304     -60.8212118
  33 TORSION   1  2  3 11               3.1280766     179.2255875
  34 TORSION   2  1  4 12               0.9647504      55.2761260
  35 TORSION   3  2  1  5              -0.9866446     -56.5305722
  36 TORSION   3  2  1  6               1.0883064      62.3553632
  37 TORSION   3  2  1  4              -3.1286714    -179.2596661
  38 TORSION   4  1  2  7               1.0171827      58.2802741
  39 TORSION   4  1  2  8              -1.0075245     -57.7268997
  40 TORSION   5  1  2  7              -3.1239759    -178.9906320
  41 TORSION   5  1  4 12              -1.1755494     -67.3540175
  42 TORSION   5  1  2  8               1.1345023      65.0021942
  43 TORSION   6  1  2  7              -1.0490249     -60.1046966
  44 TORSION   6  1  2  8              -3.0737320    -176.1118704
  45 TORSION   6  1  4 12               3.0739039     176.1217198
  46 TORSION   7  2  3 10               1.0588550      60.6679224
  47 TORSION   7  2  3  9              -3.1301665    -179.3453307
  48 TORSION   7  2  3 11              -1.0347233     -59.2852783
  49 TORSION   8  2  3 10               3.1139886     178.4184018
  50 TORSION   8  2  3  9              -1.0750330     -61.5948512
  51 TORSION   8  2  3 11               1.0204103      58.4652012

          INTERNUCLEAR DISTANCES (ANGS.)


 =====================================================
   GAMESS/COSab RESULTS
 =====================================================

   Dielectric Constant                  = INFTY
   Basic Grid Size                      =                 1082
   Number of Segments                   =                   92
   Number of Segments located on spheres=                  186
   Number of Segments of the cavity     =                  447
   Solvent Radius (rsolv)               = 1.40
   Outlying Charge Error Method         = double cavity

 =====================================================

  Total solvated Energy (a.u.)          =  -193.1789618399
  Total Energy corrected (a.u.)         =  -193.1788229678

  Outlying charge effect (a.u.)         =     0.0001388721
  Outlying charge effect (kcal/mol)     =     0.0871436575

  Dielectric Energy (a.u.)              =    -0.0104898789
  Dielectric energy corr. (a.u.)        =    -0.0103510067

  Sum of polarization charges           =     0.0197617338
  Sum of polarization charges(cor.)     =    -0.0197617338

  Total surface area of cavity (A**2)   =  106.63
  Total volume of cavity (A**3)         =   90.81

 =====================================================
 NPS=                   447
NR.  ATOM  (X, Y, Z)(a.u.)                  CHARGE(e)  AREA(A**2) SIGMA(e/A**2)
   1   1   1.380220   0.200663   5.234091  -0.000563   0.139368  -0.004039
   2   1  -0.399319   5.911396   3.990355   0.000941   0.418105   0.002251
   3   1   1.455405   4.281003  -0.918293   0.000068   0.139368   0.000487
   4   1   1.130488   3.439055  -1.123888   0.000360   0.139368   0.002582
   5   1  -1.538278   2.807437   4.925685   0.000839   0.185824   0.004518
   6   1  -0.127575   5.531849   4.836248   0.000617   0.278737   0.002212
   7   1   2.179289   5.539389   5.225577  -0.000083   0.046456  -0.001779
   8   1   0.690362   0.518024   5.428469   0.000130   0.139368   0.000936
   9   1   1.777690   6.272611   4.311034   0.000140   0.232280   0.000602
  10   1   0.864067   6.220844   4.346010   0.000879   0.371649   0.002365
  11   1  -1.291780   4.934737   4.257437   0.000530   0.464561   0.001140
  12   1  -1.824709   3.848509   4.259195   0.000303   0.278737   0.001086
  13   1  -1.281111   5.488852   3.097105   0.000271   0.371649   0.000729
  14   1  -1.648034   4.931469   1.791114  -0.000014   0.232280  -0.000059
  15   1   0.719698   4.055903  -0.923936  -0.000100   0.185824  -0.000536
  16   1  -1.353567   4.035283   4.888051   0.000156   0.185824   0.000839
  17   1   1.495220   5.831942   5.010201   0.000148   0.139368   0.001061
  18   1   1.619997   0.555327   5.552223  -0.000089   0.092912  -0.000960
  19   1  -0.426838   1.044531   5.304715  -0.000160   0.139368  -0.001152
  20   1  -1.889899   4.629426   3.092249   0.000744   0.371649   0.002003
  21   2   6.949877  -0.235767   0.868864   0.000419   0.232280   0.001805
  22   2   3.676838  -1.412808   0.298043   0.001029   0.278737   0.003692
  23   2   3.905944   0.523118   5.515605   0.000026   0.092912   0.000283
  24   2   4.114756  -0.979100  -0.397409   0.000787   0.185824   0.004234
  25   2   6.455234  -0.135765  -0.069049   0.001083   0.371649   0.002914
  26   2   3.750740   4.388431  -0.841655   0.000052   0.139368   0.000371
  27   2   6.944341   0.739761  -0.136323   0.000341   0.185824   0.001837
  28   2   6.042385  -0.975415   0.615318   0.000995   0.278737   0.003570
  29   2   4.784560  -1.289371   0.168513   0.001385   0.278737   0.004969
  30   2   3.174946  -0.887788  -0.338326   0.000859   0.232280   0.003698
  31   2   6.625948  -0.811644   1.524113   0.000610   0.278737   0.002187
  32   2   3.637610   0.265926   5.376911  -0.000001   0.046456  -0.000012
  33   2   5.506110  -0.830556  -0.131834   0.001199   0.278737   0.004301
  34   2   4.305245   4.458373  -0.788841   0.000054   0.046456   0.001156
  35   3   8.816369   2.094576   5.365055   0.001009   0.232280   0.004345
  36   3   8.424304   6.110511   4.791374   0.000829   0.371649   0.002230
  37   3   4.730655   6.724476   4.707434   0.001648   0.371649   0.004433
  38   3   7.906787   3.667000  -0.193918   0.001258   0.418105   0.003009
  39   3   8.629868   4.294319   0.391534   0.000650   0.185824   0.003500
  40   3   7.008583   4.444823  -0.429356   0.000519   0.232280   0.002235
  41   3   7.373441   4.983178  -0.140909   0.000735   0.232280   0.003165
  42   3   4.900803   6.258264   5.512985   0.001118   0.278737   0.004012
  43   3   7.884126   5.740065   5.718399   0.001145   0.418105   0.002737
  44   3   8.227201   2.167159   5.963860   0.001599   0.371649   0.004304
  45   3   6.066913   1.001307   5.905172   0.000434   0.232280   0.001868
  46   3   9.094124   5.237905   1.461619   0.001731   0.371649   0.004657
  47   3   8.604397   5.721557   1.234428   0.000989   0.232280   0.004257
  48   3   7.171171   0.633033   5.272261   0.000867   0.325193   0.002667
  49   3   8.146301   1.132425   5.210869   0.001250   0.325193   0.003844
  50   3   9.092463   3.337062   5.498012   0.002308   0.511017   0.004516
  51   3   8.966256   4.962788   5.248988   0.001130   0.418105   0.002702
  52   3   7.347183   6.765665   4.796136   0.001502   0.418105   0.003592
  53   3   5.907369   6.883497   4.977536   0.001606   0.325193   0.004940
  54   3   7.752110   0.171826   3.362058   0.000112   0.092912   0.001208
  55   3   9.522646   5.266394   2.960136   0.001234   0.371649   0.003322
  56   3   9.202559   5.617928   4.036853   0.001128   0.464561   0.002428
  57   3   8.335396   6.590574   3.814009   0.000860   0.325193   0.002643
  58   3   7.892447   2.693835  -0.081773   0.000290   0.185824   0.001562
  59   3   8.201411   4.998752   0.310765   0.001592   0.371649   0.004284
  60   3   6.224102   5.080924  -0.322075   0.000273   0.139368   0.001959
  61   3   6.676238   6.504521   5.487813   0.001280   0.325193   0.003936
  62   3   8.685831   4.270257   5.858616   0.000908   0.278737   0.003258
  63   3   7.264957   1.286328   5.930198   0.000718   0.232280   0.003091
  64   3   8.897255   6.133353   2.695997   0.001522   0.418105   0.003641
  65   3   7.858441   0.420974   4.301477   0.000825   0.325193   0.002536
  66   3   9.583122   4.424042   4.469107   0.000982   0.371649   0.002642
  67   4  -3.465574   2.523880   1.835990   0.006684   0.343589   0.019454
  68   4  -2.194164   1.667775  -1.152548   0.006314   0.343589   0.018376
  69   4  -2.995352  -0.632039   1.186773   0.001634   0.274871   0.005945
  70   4  -0.215555  -0.886030  -0.779309   0.003163   0.309230   0.010228
  71   4  -1.988547   0.500051   4.302242   0.002043   0.240512   0.008495
  72   4  -2.371430   3.820038   0.701679   0.002845   0.206154   0.013800
  73   4  -2.925015   3.437207   1.321430   0.005868   0.343589   0.017078
  74   4  -1.780606   3.587276  -0.373280   0.003826   0.274871   0.013921
  75   4  -2.096624   2.769087  -0.844052   0.005956   0.343589   0.017334
  76   4  -3.431992   2.316627   0.722915   0.007106   0.377948   0.018803
  77   4  -2.974209   2.066745  -0.343984   0.006933   0.377948   0.018344
  78   4  -1.213383   1.884080  -1.543407   0.007933   0.412307   0.019241
  79   4  -0.188698   2.117532  -1.577978   0.005256   0.274871   0.019120
  80   4  -2.977673   3.153654   2.519175   0.005398   0.343589   0.015709
  81   4  -2.312976  -1.022926   0.362213   0.000706   0.274871   0.002568
  82   4  -1.215911  -1.117312  -0.403267   0.001662   0.309230   0.005374
  83   4   0.584732  -0.839301  -0.601421   0.002053   0.206154   0.009960
  84   4  -2.748231   0.020845   3.441748   0.002677   0.309230   0.008656
  85   4  -3.083534  -0.378274   2.363372   0.002010   0.309230   0.006500
  86   4  -3.696190   1.414892   1.523202   0.006758   0.377948   0.017881
  87   4  -3.514456   0.279807   1.460066   0.004821   0.377948   0.012756
  88   4  -3.018485  -0.079058   0.186462   0.005397   0.481025   0.011219
  89   4  -2.776536   0.793299  -0.627909   0.006056   0.377948   0.016024
  90   4  -1.727034   0.581785  -1.317955   0.006993   0.412307   0.016961
  91   4  -0.873734  -0.171739  -1.271351   0.005660   0.377948   0.014975
  92   4   0.294299  -0.012452  -1.287478   0.004571   0.274871   0.016630
  93   4   0.234831   1.200295  -1.605028   0.005878   0.274871   0.021385
  94   4  -2.347383   1.289391   4.205668   0.003671   0.274871   0.013356
  95   4  -2.937912   1.046746   3.635492   0.004596   0.309230   0.014864
  96   4  -3.411537   1.824354   2.814178   0.007898   0.412307   0.019156
  97   4  -2.732068   3.154540   0.126826   0.005736   0.343589   0.016694
  98   4  -0.922120   2.998937  -1.190076   0.006159   0.377948   0.016296
  99   4  -3.451496   1.149956   0.345888   0.006280   0.377948   0.016616
 100   4  -0.556309   0.821484  -1.635874   0.005100   0.274871   0.018556
 101   4  -2.843112   2.332223   3.533042   0.006117   0.343589   0.017803
 102   4  -2.040386  -0.427906  -0.637036   0.004426   0.412307   0.010734
 103   4  -3.461977   0.663111   2.571392   0.005642   0.377948   0.014927
 104   5   0.460932   2.918035   6.980042  -0.002406   0.451437  -0.005330
 105   5   0.747851   1.517378   6.482276  -0.001113   0.372926  -0.002985
 106   5  -0.719773   2.965421   6.176540  -0.001174   0.392554  -0.002992
 107   5   0.316842   4.813559   6.145902  -0.000952   0.353299  -0.002695
 108   5   1.413132   4.943167   6.228865  -0.001331   0.333671  -0.003989
 109   5   1.728994   1.797487   6.666282  -0.001896   0.412182  -0.004601
 110   5  -0.183395   1.981548   6.352042  -0.001309   0.392554  -0.003334
 111   5  -0.309648   3.981265   6.362460  -0.001960   0.510320  -0.003841
 112   5   1.225766   4.067357   6.891014  -0.002579   0.451437  -0.005714
 113   5   1.633519   2.926821   7.053303  -0.002335   0.392554  -0.005948
 114   6   0.493240   6.997521   0.987259  -0.002678   0.431809  -0.006201
 115   6   0.120781   5.545761  -0.292577  -0.001366   0.392554  -0.003480
 116   6   1.586360   5.776091  -0.412112  -0.002100   0.451437  -0.004653
 117   6   1.188770   7.061121   2.696112  -0.001510   0.353299  -0.004274
 118   6  -0.720579   6.348473   1.791246  -0.001488   0.412182  -0.003610
 119   6   0.625823   6.401948   0.031842  -0.001830   0.333671  -0.005485
 120   6   1.746664   6.715501   0.399495  -0.002961   0.451437  -0.006558
 121   6   1.590364   7.192570   1.651073  -0.002834   0.431809  -0.006563
 122   6   0.147043   6.950480   2.310982  -0.002167   0.510320  -0.004246
 123   6  -0.552105   6.111326   0.653773  -0.002409   0.471065  -0.005114
 124   7   4.586837   1.661984  -2.461120  -0.002846   0.549575  -0.005178
 125   7   5.557670   2.896046  -1.831778  -0.000889   0.294415  -0.003020
 126   7   3.850150   3.444779  -1.813884  -0.000812   0.294415  -0.002757
 127   7   3.203469   1.590334  -2.220651  -0.001341   0.314043  -0.004269
 128   7   4.347439  -0.056674  -1.616670  -0.000717   0.372926  -0.001924
 129   7   6.127913   0.958705  -1.410746  -0.000657   0.353299  -0.001860
 130   7   4.709416   3.139502  -2.053756  -0.001467   0.412182  -0.003560
 131   7   3.464669   2.531808  -2.228931  -0.001627   0.412182  -0.003947
 132   7   3.638983   0.577957  -2.048077  -0.001673   0.431809  -0.003876
 133   7   5.228843   0.458950  -1.846316  -0.001470   0.471065  -0.003121
 134   7   5.866580   1.885245  -1.908231  -0.001639   0.490692  -0.003341
 135   8   4.638838  -2.011631   4.071280  -0.001818   0.372926  -0.004876
 136   8   4.561630  -0.961337   4.974482  -0.001068   0.392554  -0.002721
 137   8   5.963373  -1.617257   3.352711  -0.001464   0.412182  -0.003551
 138   8   4.815854  -2.160112   1.764847  -0.000731   0.353299  -0.002070
 139   8   3.608247  -1.393399   4.658247  -0.002139   0.471065  -0.004541
 140   8   5.521368  -1.338738   4.337596  -0.001019   0.353299  -0.002885
 141   8   4.906166  -2.335252   2.976440  -0.001823   0.392554  -0.004643
 142   8   3.871126  -2.318764   2.069244  -0.001512   0.392554  -0.003851
 143   8   3.684179  -2.265251   3.475175  -0.002463   0.431809  -0.005704
 144   8   5.805045  -1.818801   2.304030  -0.000703   0.333671  -0.002107
 145   9   6.256198   3.922839   7.617246  -0.002548   0.471065  -0.005409
 146   9   7.196738   2.732887   7.079648  -0.000970   0.392554  -0.002471
 147   9   5.344948   2.122710   6.977522  -0.001408   0.372926  -0.003775
 148   9   5.111470   5.372389   6.772432  -0.001147   0.392554  -0.002923
 149   9   7.295629   4.743828   6.960534  -0.000936   0.372926  -0.002509
 150   9   6.300142   2.350150   7.217660  -0.001381   0.412182  -0.003349
 151   9   5.198436   3.187865   7.471766  -0.002468   0.431809  -0.005716
 152   9   5.107212   4.459398   7.364623  -0.002340   0.431809  -0.005418
 153   9   6.312319   5.337044   6.980493  -0.001479   0.490692  -0.003014
 154   9   7.428714   3.741509   7.155015  -0.001104   0.372926  -0.002961
 155  10   6.316896   7.679587   1.308039  -0.002881   0.529948  -0.005436
 156  10   6.628821   6.547372   0.256045  -0.001026   0.412182  -0.002489
 157  10   7.676037   7.286254   1.982756  -0.001015   0.392554  -0.002585
 158  10   6.088582   7.721174   3.435427  -0.000787   0.372926  -0.002109
 159  10   4.915373   7.588627   3.005529  -0.001326   0.372926  -0.003556
 160  10   5.538873   6.755439   0.351986  -0.002212   0.490692  -0.004508
 161  10   7.421690   6.925765   0.949676  -0.001160   0.412182  -0.002814
 162  10   7.011592   7.733103   2.705715  -0.001658   0.471065  -0.003520
 163  10   5.691772   7.925392   2.391660  -0.001690   0.353299  -0.004785
 164  10   5.069936   7.534893   1.440544  -0.002245   0.372926  -0.006019
 165  11  10.233553   1.905171   2.280257  -0.003537   0.588831  -0.006007
 166  11   9.783151   3.574382   1.203224  -0.000795   0.372926  -0.002132
 167  11   9.020162   1.881492   0.694738  -0.001025   0.353299  -0.002901
 168  11   8.977620   0.576763   2.622004  -0.001166   0.353299  -0.003301
 169  11   9.760772   1.796148   4.085663  -0.000857   0.372926  -0.002297
 170  11  10.281649   3.580035   3.230794  -0.001029   0.412182  -0.002497
 171  11   9.722318   2.503349   0.997924  -0.002053   0.490692  -0.004184
 172  11   9.269614   1.059576   1.581373  -0.002042   0.490692  -0.004161
 173  11   9.578712   1.037075   3.296089  -0.001819   0.471065  -0.003861
 174  11  10.279662   2.560169   3.593214  -0.001857   0.471065  -0.003941
 175  11  10.299816   3.453783   2.125006  -0.001918   0.490692  -0.003908
 176  12   0.272928  -2.558487   3.043474  -0.010129   0.510320  -0.019849
 177  12  -0.276083  -2.303165   0.722863  -0.005567   0.412182  -0.013507
 178  12  -1.951727  -2.010547   2.293950  -0.006508   0.451437  -0.014416
 179  12  -1.025191  -1.099500   4.327794  -0.006891   0.490692  -0.014043
 180  12  -0.759803  -2.693616   1.986006  -0.007776   0.451437  -0.017226
 181  12  -1.029758  -2.288962   3.345737  -0.008750   0.510320  -0.017145
 182  12   0.105463  -1.732932   4.142362  -0.010183   0.549575  -0.018528
 183  12   0.541482  -2.631254   1.793061  -0.008571   0.451437  -0.018986
 184  12  -1.405558  -2.175986   1.127455  -0.005128   0.392554  -0.013063
 185  12  -1.952998  -1.466249   3.410433  -0.004536   0.372926  -0.012163
 186  12   0.686804  -2.079641   0.690357  -0.004133   0.274788  -0.015042
 187   1   2.456073   0.956730   5.684517  -0.000120   0.027151  -0.004433
 188   2   2.907556   0.808501   5.545712  -0.000097   0.027151  -0.003565
 189   5   2.330282   1.161956   5.870077  -0.000121   0.027151  -0.004467
 190   1   2.458263   4.732527  -0.557716  -0.000090   0.026093  -0.003438
 191   2   2.909608   4.540272  -0.623875  -0.000055   0.026093  -0.002114
 192   6   2.326049   4.987837  -0.465375  -0.000138   0.026093  -0.005304
 193   1   2.666100   4.168276  -0.862278  -0.000034   0.028722  -0.001190
 194   2   3.118483   4.021036  -0.999375  -0.000048   0.028722  -0.001663
 195   7   3.230940   3.816102  -1.192857  -0.000084   0.028722  -0.002932
 196   1   2.568290   0.252662   5.200575  -0.000129   0.029109  -0.004441
 197   2   3.019598   0.060648   5.132850  -0.000111   0.029109  -0.003815
 198   8   3.128049  -0.203126   5.026992  -0.000110   0.029109  -0.003770
 199   2   3.088812   0.416027   5.387551  -0.000086   0.090790  -0.000950
 200   1   2.394634   0.574022   5.481398  -0.000163   0.090790  -0.001797
 201   2   3.106042   4.246833  -0.887855   0.000011   0.052332   0.000209
 202   1   2.481105   4.539055  -0.709844  -0.000023   0.052332  -0.000445
 203   1   2.524928   5.323771   5.366445  -0.000185   0.067164  -0.002751
 204   3   3.356013   5.381408   5.403435  -0.000104   0.067164  -0.001547
 205   5   2.410047   5.146917   5.587603  -0.000311   0.067164  -0.004629
 206   1   3.118786   6.450517   3.516076  -0.000209   0.064270  -0.003253
 207   3   3.919942   6.648328   3.634893  -0.000020   0.064270  -0.000304
 208  10   4.061589   6.798974   3.411313  -0.000148   0.064270  -0.002297
 209   3   3.785697   6.275370   4.457815   0.000340   0.550815   0.000617
 210   1   2.604734   5.906258   4.661085  -0.000885   0.550815  -0.001607
 211   1  -1.347205   4.758255   0.837796   0.000037   0.014406   0.002588
 212   4  -1.600797   4.385574   0.704708   0.000155   0.014406   0.010741
 213   6  -1.172025   5.001474   0.803682  -0.000051   0.014406  -0.003533
 214   1  -0.352089   4.369490  -0.389276   0.000077   0.014406   0.005336
 215   4  -0.647665   4.013211  -0.470594   0.000245   0.014406   0.016993
 216   6  -0.268357   4.648436  -0.310627  -0.000017   0.014406  -0.001155
 217   1   1.415575   2.783162  -1.204785   0.000435   0.092342   0.004715
 218   4   1.063587   2.472621  -1.257368   0.001016   0.092342   0.011006
 219   7   2.073759   2.513428  -1.421341   0.000175   0.092342   0.001900
 220   1  -0.633319   0.565914   4.863663  -0.000113   0.038830  -0.002918
 221   4  -0.951003   0.312875   4.625689  -0.000118   0.038830  -0.003046
 222  12  -0.849578   0.011118   4.576947  -0.000311   0.038830  -0.008014
 223   4  -1.282137   0.785195   4.658069   0.000744   0.168641   0.004413
 224   4  -2.124368   2.168765   4.101981   0.004903   0.350231   0.013998
 225   4  -2.444111   3.557914   2.584507   0.004975   0.350231   0.014204
 226   4  -2.049643   4.119695   1.015542   0.001823   0.168641   0.010809
 227   1  -1.216118   1.700910   4.862221   0.001523   0.362257   0.004205
 228   1  -2.026349   3.396071   3.776587   0.002844   0.362257   0.007851
 229   1  -1.844778   4.432178   1.878651   0.001774   0.362257   0.004897
 230   4  -0.569549   3.550372  -0.823026   0.001747   0.158893   0.010996
 231   4   0.305561   2.779886  -1.253994   0.002375   0.158893   0.014950
 232   1   0.343217   3.609148  -0.867379   0.001756   0.341501   0.005143
 233   5   1.716738   5.222858   5.721217  -0.000297   0.072072  -0.004117
 234   5   0.570761   5.195279   5.583127  -0.000515   0.161251  -0.003193
 235   5  -0.590341   4.429143   5.503129  -0.000474   0.161251  -0.002942
 236   5  -1.020033   3.104803   5.558001  -0.000616   0.161251  -0.003820
 237   5  -0.526931   1.812113   5.723305  -0.000663   0.161251  -0.004113
 238   5   0.669339   1.126830   5.925414  -0.000794   0.161251  -0.004925
 239   5   1.814749   1.177841   6.061534  -0.000277   0.072072  -0.003842
 240   1   1.338761   5.475227   5.314202  -0.000407   0.156860  -0.002592
 241   1  -0.172129   5.098268   5.159784  -0.000237   0.156860  -0.001512
 242   1  -1.119713   3.853040   5.144818  -0.000340   0.156860  -0.002170
 243   1  -1.081941   2.294160   5.275970  -0.000425   0.156860  -0.002712
 244   1  -0.075637   1.115947   5.494825  -0.000608   0.156860  -0.003879
 245   1   1.450996   0.843169   5.703908  -0.000738   0.156860  -0.004706
 246   1   2.618086   6.517564   3.266811  -0.000360   0.088559  -0.004068
 247   6   2.495495   6.633123   3.012484  -0.000463   0.088559  -0.005224
 248  10   3.596625   6.711564   3.110182  -0.000163   0.088559  -0.001836
 249   6   1.796969   5.154534  -0.546626  -0.000260   0.075079  -0.003469
 250   6   0.602558   4.989714  -0.518097  -0.000840   0.170117  -0.004936
 251   1   1.418172   4.676559  -0.670730  -0.000693   0.161445  -0.004293
 252   1   0.101764   4.543782  -0.527489  -0.000099   0.091725  -0.001075
 253   6  -1.084721   5.433467   1.069748  -0.000251   0.070983  -0.003537
 254   6  -0.924890   5.907442   2.099600  -0.000658   0.158710  -0.004147
 255   6  -0.044633   6.441283   3.021787  -0.000541   0.158710  -0.003410
 256   6   1.298486   6.716839   3.196055  -0.000826   0.158710  -0.005203
 257   1  -1.265968   5.282960   1.627587  -0.000510   0.154545  -0.003298
 258   1  -0.724049   5.932441   2.929146  -0.000439   0.154545  -0.002841
 259   1   0.599389   6.414225   3.581798  -0.000397   0.154545  -0.002568
 260   1   1.851336   6.565582   3.502942  -0.000348   0.086721  -0.004014
 261   7   2.833590   3.025405  -1.552766  -0.001015   0.305889  -0.003320
 262   1   2.087331   3.741352  -1.071004   0.000003   0.430497   0.000007
 263   1   1.667919  -0.366229   4.603649  -0.001569   0.142881  -0.010980
 264   8   2.281240  -0.745928   4.414853  -0.001273   0.142881  -0.008906
 265  12   1.299674  -0.824498   4.294006  -0.002813   0.142881  -0.019690
 266   8   3.018990  -0.552727   4.858653  -0.000605   0.158722  -0.003814
 267   1   2.052172  -0.034572   5.061024  -0.000555   0.223874  -0.002479
 268  10   4.115262   7.009371   3.292035   0.000015   0.022255   0.000667
 269   1   2.691728   6.621378   3.502267   0.000072   0.031651   0.002276
 270  12   0.541145  -0.819869   4.523237  -0.003182   0.203397  -0.015646
 271  12  -0.502403  -0.313715   4.662456  -0.001980   0.203397  -0.009735
 272   1   0.427262   0.171597   4.965748  -0.003713   0.478866  -0.007753
 273   2   6.934117   1.731591  -0.459957   0.000002   0.026709   0.000069
 274   3   7.263685   2.026558  -0.232753   0.000027   0.026709   0.001005
 275   7   6.743943   1.736871  -0.696248  -0.000027   0.026709  -0.001023
 276   2   5.104874   4.253240  -0.795820   0.000000   0.026709   0.000011
 277   3   5.458528   4.515005  -0.564194   0.000042   0.026709   0.001575
 278   7   5.078868   4.032211  -1.001968  -0.000030   0.026709  -0.001126
 279   2   4.910409   0.297077   5.324369  -0.000021   0.027595  -0.000759
 280   3   5.266463   0.605103   5.484404   0.000008   0.027595   0.000300
 281   8   4.889074   0.018201   5.204890  -0.000059   0.027595  -0.002136
 282   2   6.865128  -0.474051   2.882563  -0.000003   0.027595  -0.000125
 283   3   7.195685  -0.155966   3.074449   0.000043   0.027595   0.001543
 284   8   6.668591  -0.683811   2.981944  -0.000033   0.027595  -0.001188
 285   2   4.761056   1.000684   5.724009  -0.000020   0.026033  -0.000777
 286   3   5.114643   1.262275   5.955894  -0.000041   0.026033  -0.001583
 287   9   5.146505   1.481897   6.162289  -0.000074   0.026033  -0.002845
 288   2   4.962541   4.905430  -0.329054  -0.000003   0.026056  -0.000116
 289   3   5.318544   5.213774  -0.169645  -0.000019   0.026056  -0.000731
 290  10   5.353215   5.491384  -0.053048  -0.000048   0.026056  -0.001846
 291   2   7.340744  -0.088965   2.605971   0.000038   0.025883   0.001481
 292   3   7.722481   0.160754   2.803808  -0.000005   0.025883  -0.000197
 293  11   7.988846   0.280874   2.726795  -0.000036   0.025883  -0.001377
 294   2   7.422637   1.545071   0.077388   0.000022   0.025883   0.000838
 295   3   7.805474   1.816745   0.241252  -0.000008   0.025883  -0.000302
 296  11   8.064385   1.788124   0.394406  -0.000044   0.025883  -0.001713
 297   3   5.229397   1.000538   5.823198   0.000055   0.084157   0.000655
 298   2   4.787773   0.529625   5.504555   0.000058   0.084157   0.000692
 299   3   7.553770   0.021077   3.010637   0.000087   0.051953   0.001682
 300   2   7.063980  -0.376184   2.672589   0.000093   0.051953   0.001782
 301   3   7.655406   1.937561   0.034790   0.000092   0.069383   0.001332
 302   2   7.117024   1.593313  -0.291833   0.000105   0.069383   0.001515
 303   3   5.501714   4.922527  -0.384023   0.000120   0.082737   0.001446
 304   2   4.920545   4.574871  -0.627660   0.000087   0.082737   0.001046
 305   2   2.550579  -0.139530  -0.803776   0.000228   0.060736   0.003749
 306   4   1.724503  -0.134214  -0.745112   0.000805   0.060736   0.013251
 307   7   2.699203   0.025615  -1.012007   0.000017   0.060736   0.000278
 308   2   2.078985  -0.939064   0.096346   0.000064   0.076306   0.000833
 309   4   1.257318  -1.024909   0.025457   0.000106   0.076306   0.001383
 310  12   1.239016  -1.251962   0.255695  -0.000387   0.076306  -0.005076
 311   4   1.275646  -0.616092  -0.542929   0.001966   0.238001   0.008260
 312   2   2.467285  -0.694940  -0.398837   0.000735   0.262970   0.002795
 313   2   3.712232   1.456374   5.823151  -0.000346   0.167678  -0.002061
 314   5   3.094303   1.809873   6.074519  -0.000635   0.167678  -0.003786
 315   9   4.157924   1.947139   6.196427  -0.000429   0.167678  -0.002556
 316   5   2.383052   1.401482   6.091498  -0.000416   0.117313  -0.003545
 317   2   3.341013   0.952471   5.716118  -0.000027   0.165425  -0.000162
 318   2   3.847605   5.222605   0.022453  -0.000318   0.167906  -0.001893
 319   6   3.208461   5.584930   0.202844  -0.000634   0.167906  -0.003779
 320  10   4.300553   5.745285   0.338882  -0.000464   0.167906  -0.002763
 321   6   2.519141   5.454316  -0.201676  -0.000726   0.168978  -0.004295
 322   2   3.336187   4.757236  -0.553848   0.000017   0.238144   0.000069
 323   7   6.499132   1.302733  -0.954278  -0.000127   0.075057  -0.001690
 324   7   5.864167   0.283508  -0.963033  -0.000373   0.169686  -0.002198
 325   7   4.553971  -0.319291  -1.066489  -0.000262   0.169686  -0.001544
 326   7   3.375035  -0.134608  -1.200963  -0.000101   0.075057  -0.001350
 327   2   6.479120   0.798976  -0.589543  -0.000259   0.161770  -0.001604
 328   2   5.331681  -0.347867  -0.644921   0.000056   0.161770   0.000344
 329   2   3.721194  -0.469897  -0.807315  -0.000050   0.161770  -0.000311
 330   7   3.747983   3.788582  -1.385040  -0.000166   0.071956  -0.002308
 331   7   4.637555   3.887333  -1.297124  -0.000148   0.071956  -0.002058
 332   2   4.133078   4.093124  -1.023714  -0.000396   0.156532  -0.002528
 333   2   2.872480  -1.597788   1.103777  -0.000228   0.079928  -0.002849
 334   8   2.973613  -1.737045   1.357738  -0.000346   0.079928  -0.004324
 335  12   1.989150  -1.748282   1.261447  -0.001097   0.079928  -0.013721
 336   8   4.459627  -0.301524   5.171292  -0.000161   0.067761  -0.002383
 337   8   3.623433  -0.402067   5.089226  -0.000205   0.067761  -0.003023
 338   2   3.983338   0.045658   5.236259  -0.000418   0.149371  -0.002795
 339   8   3.669770  -1.860966   1.260493  -0.000123   0.068078  -0.001807
 340   8   4.760530  -1.780827   1.234016  -0.000252   0.150437  -0.001676
 341   8   5.898143  -1.459046   1.829895  -0.000342   0.150437  -0.002270
 342   8   6.431101  -1.079905   2.706871  -0.000139   0.068078  -0.002045
 343   2   4.038507  -1.621361   0.860856  -0.000034   0.149936  -0.000227
 344   2   5.488664  -1.405441   1.111947   0.000031   0.149936   0.000204
 345   2   6.464359  -0.935192   2.131511  -0.000245   0.149936  -0.001634
 346   9   4.854980   1.779736   6.395092  -0.000342   0.135054  -0.002530
 347   2   4.341412   0.977567   5.782703   0.000125   0.190342   0.000655
 348  10   5.159260   5.786697   0.067153  -0.000347   0.146900  -0.002359
 349   2   4.415484   5.027611  -0.326953   0.000139   0.207018   0.000672
 350  11   8.218937   0.375889   2.337486  -0.000399   0.201813  -0.001977
 351  11   8.279248   1.101508   1.081515  -0.001455   0.413292  -0.003522
 352   2   7.336067   0.066217   1.523110   0.000298   0.552567   0.000540
 353   2   7.361890   1.016707   0.173539   0.000408   0.284248   0.001437
 354  12   1.332912  -1.646188   0.626092  -0.002496   0.258553  -0.009654
 355   2   2.669878  -1.425655   0.529842   0.000030   0.364295   0.000083
 356   3   3.865025   5.299778   5.728057  -0.000100   0.087714  -0.001143
 357   5   2.938751   4.954147   5.799195  -0.000244   0.087714  -0.002781
 358   9   3.980411   5.157170   5.973200  -0.000234   0.087714  -0.002673
 359   5   2.341347   5.087642   5.846091  -0.000052   0.040462  -0.001297
 360   3   3.715995   5.549957   5.652012   0.000176   0.057434   0.003056
 361   7   5.362346   3.719113  -1.216977  -0.000334   0.207390  -0.001611
 362   7   6.285011   2.553349  -1.106704  -0.001317   0.425521  -0.003095
 363   3   6.424358   3.942239  -0.607507   0.000494   0.567052   0.000871
 364   3   7.364278   2.549848  -0.381063   0.000510   0.292115   0.001745
 365   8   6.474325  -0.825148   3.405467  -0.000423   0.213275  -0.001982
 366   8   5.599692  -0.493928   4.620427  -0.001671   0.438586  -0.003809
 367   3   6.927099   0.041590   4.181757   0.000408   0.582251   0.000701
 368   3   5.820952   0.490546   5.452069   0.000482   0.300430   0.001605
 369   9   5.570897   1.619941   6.452712  -0.000126   0.067029  -0.001884
 370   9   6.630627   1.817569   6.539681  -0.000312   0.147854  -0.002107
 371   9   7.626421   2.666553   6.586160  -0.000250   0.147854  -0.001690
 372   9   7.929118   3.939867   6.546342  -0.000271   0.147854  -0.001834
 373   9   7.420805   5.141501   6.435738  -0.000322   0.147854  -0.002180
 374   9   6.299491   5.803367   6.297433  -0.000210   0.147854  -0.001419
 375   9   5.001976   5.667641   6.185304  -0.000345   0.147854  -0.002336
 376   3   6.035099   1.390185   6.170375  -0.000243   0.147865  -0.001642
 377   3   7.393293   1.947780   6.265669  -0.000050   0.147865  -0.000340
 378   3   8.161152   3.202794   6.269608   0.000054   0.147865   0.000362
 379   3   8.039562   4.666347   6.180656  -0.000104   0.147865  -0.000700
 380   3   7.075887   5.768323   6.033465  -0.000092   0.147865  -0.000623
 381   3   5.645520   6.079454   5.885372   0.000074   0.147865   0.000498
 382   3   4.507210   5.730369   5.799222  -0.000033   0.081891  -0.000404
 383  10   4.644645   7.148501   3.554513  -0.000124   0.067544  -0.001835
 384  10   5.660673   7.334976   3.899903  -0.000247   0.149210  -0.001655
 385  10   6.960559   7.314306   3.681307  -0.000297   0.149210  -0.001992
 386  10   7.877700   7.008480   2.785070  -0.000337   0.149210  -0.002256
 387  10   8.049545   6.538394   1.565478  -0.000223   0.149210  -0.001493
 388  10   7.408164   6.089873   0.504641  -0.000246   0.149210  -0.001647
 389  10   6.207097   5.840220   0.021912  -0.000433   0.149210  -0.002899
 390   3   4.923743   6.997971   4.054339  -0.000125   0.148785  -0.000838
 391   3   6.384672   7.147094   4.247771  -0.000054   0.148785  -0.000361
 392   3   7.696683   6.953878   3.588026  -0.000077   0.148785  -0.000514
 393   3   8.341132   6.494702   2.335904  -0.000022   0.148785  -0.000150
 394   3   8.063266   5.951081   0.986373   0.000051   0.148785   0.000342
 395   3   6.972927   5.537910   0.072908  -0.000105   0.148785  -0.000707
 396   3   5.803029   5.387907  -0.159916  -0.000068   0.082519  -0.000829
 397  11   8.488679   2.119743   0.418236  -0.000131   0.068833  -0.001908
 398  11   8.927170   3.135942   0.523473  -0.000332   0.152833  -0.002171
 399  11   9.489970   4.074249   1.304270  -0.000284   0.152833  -0.001860
 400  11   9.880440   4.316320   2.567498  -0.000289   0.152833  -0.001889
 401  11   9.937107   3.762050   3.790765  -0.000363   0.152833  -0.002373
 402  11   9.636537   2.640649   4.468206  -0.000244   0.152833  -0.001597
 403  11   9.103027   1.415858   4.319675  -0.000325   0.152833  -0.002124
 404  11   8.557203   0.594171   3.406595  -0.000441   0.152833  -0.002886
 405   3   8.299500   2.658694   0.244921  -0.000238   0.150868  -0.001578
 406   3   8.931361   3.954714   0.693537   0.000002   0.150868   0.000014
 407   3   9.496832   4.654904   1.906035   0.000076   0.150868   0.000503
 408   3   9.762070   4.469710   3.381001  -0.000118   0.150868  -0.000785
 409   3   9.617390   3.475717   4.508484  -0.000079   0.150868  -0.000523
 410   3   9.122621   2.083976   4.822228   0.000053   0.150868   0.000349
 411   3   8.482370   0.870024   4.192490  -0.000117   0.150868  -0.000776
 412   3   8.023813   0.304868   3.204570  -0.000057   0.084095  -0.000673
 413   6  -0.609269   4.956368   0.089027  -0.000958   0.340706  -0.002811
 414   4  -1.399541   4.141870   0.101236   0.003105   0.415084   0.007481
 415   7   2.673537   0.286728  -1.408190   0.000294   0.268152   0.001095
 416   7   2.433374   1.576000  -1.742942  -0.000117   0.540181  -0.000216
 417   4   1.135634   0.543456  -1.304327   0.008289   0.662121   0.012518
 418   4   0.913228   1.983836  -1.542243   0.003537   0.333816   0.010597
 419  12  -1.227626  -0.347303   4.380546  -0.000440   0.080045  -0.005494
 420  12  -2.037142  -0.751851   3.604505  -0.001498   0.172682  -0.008677
 421  12  -2.370348  -1.269933   2.294343  -0.001827   0.172682  -0.010581
 422  12  -1.810638  -1.636236   1.010401  -0.001932   0.172682  -0.011186
 423  12  -0.577260  -1.707272   0.255622  -0.001741   0.172682  -0.010082
 424  12   0.601568  -1.544420   0.184485  -0.000510   0.080045  -0.006371
 425   4  -1.745796  -0.081318   4.109499  -0.000423   0.172029  -0.002456
 426   4  -2.559714  -0.642423   2.894250  -0.000587   0.172029  -0.003415
 427   4  -2.430686  -1.146212   1.416522  -0.001139   0.172029  -0.006619
 428   4  -1.409255  -1.395342   0.255167  -0.001094   0.172029  -0.006360
 429   4   0.104466  -1.292224  -0.134892  -0.000721   0.172029  -0.004190
 430   9   3.971999   5.024136   6.413256   0.000024   0.251060   0.000095
 431   9   4.036816   4.035717   6.953460  -0.001027   0.501997  -0.002045
 432   9   4.220280   2.674113   6.880618  -0.000907   0.501997  -0.001806
 433   5   2.476683   4.465698   6.470592  -0.001137   0.501997  -0.002265
 434   5   2.600649   3.152074   6.860402  -0.001278   0.501997  -0.002545
 435   5   2.772967   2.076967   6.564690  -0.000287   0.251060  -0.001143
 436  10   4.444159   6.360802   0.408851  -0.000162   0.243645  -0.000666
 437  10   4.244599   7.034647   1.218194  -0.000922   0.487055  -0.001893
 438  10   4.055830   7.237506   2.498943  -0.000585   0.487055  -0.001201
 439   6   2.809584   6.408820   0.506651  -0.001168   0.487055  -0.002398
 440   6   2.579299   7.012673   1.646578  -0.001183   0.487055  -0.002428
 441   6   2.454652   6.962951   2.710025  -0.000247   0.243645  -0.001015
 442  12   1.589003  -2.167044   1.485162  -0.002502   0.235199  -0.010638
 443  12   1.448438  -2.280687   2.607721  -0.006541   0.470484  -0.013904
 444  12   1.240214  -1.682980   3.842042  -0.006612   0.470484  -0.014053
 445   8   2.933641  -2.136084   2.096379  -0.001791   0.470484  -0.003806
 446   8   2.741141  -1.984232   3.461678  -0.002409   0.470484  -0.005119
 447   8   2.572140  -1.291545   4.347361  -0.000802   0.235199  -0.003409
 =====================================================

              1471849  WORDS OF DYNAMIC MEMORY USED
 EXECUTION OF GAMESS TERMINATED NORMALLY Fri Nov 25 05:00:22 2016
 DDI: 263640 bytes (0.3 MB / 0 MWords) used by master data server.

 ----------------------------------------
 CPU timing information for all processes
 ========================================
 0: 267.296 + 0.176 = 267.472
 ----------------------------------------
 ddikick.x: exited gracefully.
