----- GAMESS execution script -----

          ******************************************************
          *         GAMESS VERSION =  5 DEC 2014 (R1)          *
          *             FROM IOWA STATE UNIVERSITY             *
          * M.W.SCHMIDT, K.K.BALDRIDGE, J.A.BOATZ, S.T.ELBERT, *
          *   M.S.GORDON, J.H.JENSEN, S.KOSEKI, N.MATSUNAGA,   *
          *          K.A.NGUYEN, S.J.SU, T.L.WINDUS,           *
          *       TOGETHER WITH M.DUPUIS, J.A.MONTGOMERY       *
          *         J.COMPUT.CHEM.  14, 1347-1363(1993)        *
          **************** 64 BIT LINUX VERSION ****************

 EXECUTION OF GAMESS BEGUN Fri Nov 25 04:56:05 2016

            ECHO OF THE FIRST FEW INPUT CARDS -
 INPUT CARD>! SELECT RESTRICTED HARTREE-FOCK AS DEFAULT                                     
 INPUT CARD>$contrl scftyp=rhf $end                                                         
 INPUT CARD>                                                                                
 INPUT CARD>! THEORY: HF OR DFT                                                             
 INPUT CARD> $contrl mplevl=0 $end                                                          
 INPUT CARD>                                                                                
 INPUT CARD> $system timlim=10000 mwords=20 $end                                            
 INPUT CARD> $SCF DIRSCF=.TRUE. $end                                                        
 INPUT CARD>                                                                                
 INPUT CARD>                                                                                
 INPUT CARD>! BASIS SETS                                                                    
 INPUT CARD>! 6-311G(d,p)                                                                   
 INPUT CARD> $BASIS GBASIS=N311 NGAUSS=6 NDFUNC=1 NPFUNC=1 $END                             
 INPUT CARD>                                                                                
 INPUT CARD>! One of the following                                                          
 INPUT CARD> $guess guess=HUCKEL $end                                                       
 INPUT CARD>                                                                                
 INPUT CARD> $statpt projct=.FALSE. $end                                                    
 INPUT CARD> $STATPT IFREEZ(1)=1,2,3 $END                                                   
 INPUT CARD>                                                                                
 INPUT CARD>! Optimize the geometry with COSMO effects                                      
 INPUT CARD> $statpt opttol=0.0005 nstep=50 $end                                            
 INPUT CARD> $contrl nzvar=1 $end                                                           
 INPUT CARD> $zmat dlc=.t. auto=.t. $end                                                    
 INPUT CARD> $contrl runtyp=OPTIMIZE maxit=200 $end                                         
 INPUT CARD>                                                                                
 INPUT CARD>! Run COSMO on perfect conductor                                                
 INPUT CARD> $COSGMS PRFCND=.TRUE. $end                                                     
 INPUT CARD>                                                                                
 INPUT CARD>! Specifying RSOLV                                                              
 INPUT CARD> $COSGMS COSRAD = 1.4 $end                                                      
 INPUT CARD>                                                                                
 INPUT CARD>! available memory                                                              
 INPUT CARD> $SYSTEM MWORDS=40 $END                                                         
 INPUT CARD>                                                                                
 INPUT CARD> $DATA                                                                          
 INPUT CARD>Propanal, ID: C123386                                                           
 INPUT CARD>C1                                                                              
 INPUT CARD>C      6.0      0.5931000000    1.2165000000    0.7591000000                    
 INPUT CARD>O      8.0      0.0510000000    1.9862000000    0.0000000000                    
 INPUT CARD>C      6.0      2.0767000000    0.9416000000    0.7333000000                    
 INPUT CARD>C      6.0      2.6313000000    0.8177000000    2.1333000000                    
 INPUT CARD>H      1.0      0.0000000000    0.6703000000    1.5114000000                    
 INPUT CARD>H      1.0      2.2352000000    0.0000000000    0.1701000000                    
 INPUT CARD>H      1.0      2.6247000000    1.7223000000    0.1693000000                    
 INPUT CARD>H      1.0      3.6982000000    0.5613000000    2.1144000000                    
 INPUT CARD>H      1.0      2.5307000000    1.7572000000    2.6922000000                    
 INPUT CARD>H      1.0      2.1168000000    0.0369000000    2.7095000000                    
 INPUT CARD> $END                                                                           
 INPUT CARD>                                                                                
   40000000 WORDS OF MEMORY AVAILABLE

     BASIS OPTIONS
     -------------
     GBASIS=N311         IGAUSS=       6      POLAR=POPN311 
     NDFUNC=       1     NFFUNC=       0     DIFFSP=       F
     NPFUNC=       1      DIFFS=       F     BASNAM=        


     RUN TITLE
     ---------
 Propanal, ID: C123386                                                           

 THE POINT GROUP OF THE MOLECULE IS C1      
 THE ORDER OF THE PRINCIPAL AXIS IS     0

 ATOM      ATOMIC                      COORDINATES (BOHR)
           CHARGE         X                   Y                   Z
 C           6.0     1.1207964833        2.2988516641        1.4344909973
 O           8.0     0.0963760254        3.7533737568        0.0000000000
 C           6.0     3.9243939587        1.7793659900        1.3857360668
 C           6.0     4.9724359915        1.5452289402        4.0313524496
 H           1.0     0.0000000000        1.2666833296        2.8561318578
 H           1.0     4.2239155278        0.0000000000        0.3214423905
 H           1.0     4.9599638000        3.2546750687        0.3199306097
 H           1.0     6.9885846478        1.0607031969        3.9956366284
 H           1.0     4.7823295571        3.3206265056        5.0875203041
 H           1.0     4.0001719708        0.0697308889        5.1202125637

          INTERNUCLEAR DISTANCES (ANGS.)




     $CONTRL OPTIONS
     ---------------
 SCFTYP=RHF          RUNTYP=OPTIMIZE     EXETYP=RUN     
 MPLEVL=       0     CITYP =NONE         CCTYP =NONE         VBTYP =NONE    
 DFTTYP=NONE         TDDFT =NONE    
 MULT  =       1     ICHARG=       0     NZVAR =       1     COORD =UNIQUE  
 PP    =NONE         RELWFN=NONE         LOCAL =NONE         NUMGRD=       F
 ISPHER=      -1     NOSYM =       0     MAXIT =     200     UNITS =ANGS    
 PLTORB=       F     MOLPLT=       F     AIMPAC=       F     FRIEND=        
 NPRINT=       7     IREST =       0     GEOM  =INPUT   
 NORMF =       0     NORMP =       0     ITOL  =      20     ICUT  =       9
 INTTYP=BEST         GRDTYP=BEST         QMTTOL= 1.0E-06

     $SYSTEM OPTIONS
     ---------------
  REPLICATED MEMORY=    40000000 WORDS (ON EVERY NODE).
 DISTRIBUTED MEMDDI=           0 MILLION WORDS IN AGGREGATE,
 MEMDDI DISTRIBUTED OVER   1 PROCESSORS IS           0 WORDS/PROCESSOR.
 TOTAL MEMORY REQUESTED ON EACH PROCESSOR=    40000000 WORDS.
 TIMLIM=       10000.00 MINUTES, OR       6.9 DAYS.
 PARALL= F  BALTYP=  DLB     KDIAG=    0  COREFL= F
 MXSEQ2=     300 MXSEQ3=     150  mem10=         0

     $COSGMS OPTIONS
     ---------------
     EPSI  =   INFTY     NSPA  =      92     COSRAD=    1.40
     DISEX =   10.00     OUTCHG=DBLCAV       COSBUG=       F
     COSWRT=       F     DCOSMO=       F

     SYMMETRY COORDINATES WILL NOT BE USED FOR 
     THE COSMO CALCULATION, EVEN IF SPECIFIED:
         -- SWITCHING TO C1 POINT GROUP --


     DEFINITION OF CAVITY
     ---------------------------
     ATOM         COORDINATES           RADIUS 
     1    1.1208    2.2989    1.4345    2.0000
     2    0.0964    3.7534    0.0000    1.7200
     3    3.9244    1.7794    1.3857    2.0000
     4    4.9724    1.5452    4.0314    2.0000
     5    0.0000    1.2667    2.8561    1.3000
     6    4.2239    0.0000    0.3214    1.3000
     7    4.9600    3.2547    0.3199    1.3000
     8    6.9886    1.0607    3.9956    1.3000
     9    4.7823    3.3206    5.0875    1.3000
    10    4.0002    0.0697    5.1202    1.3000

          ----------------
          PROPERTIES INPUT
          ----------------

     MOMENTS            FIELD           POTENTIAL          DENSITY
 IEMOM =       1   IEFLD =       0   IEPOT =       0   IEDEN =       0
 WHERE =COMASS     WHERE =NUCLEI     WHERE =NUCLEI     WHERE =NUCLEI  
 OUTPUT=BOTH       OUTPUT=BOTH       OUTPUT=BOTH       OUTPUT=BOTH    
 IEMINT=       0   IEFINT=       0                     IEDINT=       0
                                                       MORB  =       0
          EXTRAPOLATION IN EFFECT
          SOSCF IN EFFECT
 ORBITAL PRINTING OPTION: NPREO=     1   112     2     1

     -------------------------------
     INTEGRAL TRANSFORMATION OPTIONS
     -------------------------------
     NWORD  =            0
     CUTOFF = 1.0E-09     MPTRAN =       0
     DIRTRF =       T     AOINTS =DUP     

          ----------------------
          INTEGRAL INPUT OPTIONS
          ----------------------
 NOPK  =       1 NORDER=       0 SCHWRZ=       T


 -----------------------------------------------
  STATISTICS ON AUTOMATIC COORDINATE GENERATION 
 -----------------------------------------------
  NUMBER OF USER SPECIFIED BONDS                             0
  NUMBER OF BONDS                                            9
  NUMBER OF ANGLES                                          15
  NUMBER OF TORSIONS                                        15
  NUMBER OF EXTRA COORD.                                     0
  NUMBER OF EXTRA COORD. FOR CONSTRAINTS                     0
  NUMBER OF CONSTRAINED COORD.                               0

  TOTAL NUMBER OF PRIMITIVES                                39
 -----------------------------------------------

   --- ENCODED Z MATRIX ---
 COORD  TYPE   I   J   K   L   M   N
    1      1    1   5
    2      1    1   3
    3      1    1   2
    4      1    3   7
    5      1    3   6
    6      1    3   4
    7      1    4   8
    8      1    4  10
    9      1    4   9
   10      2    1   3   7
   11      2    1   3   6
   12      2    1   3   4
   13      2    2   1   3
   14      2    2   1   5
   15      2    3   4   9
   16      2    3   1   5
   17      2    3   4   8
   18      2    3   4  10
   19      2    4   3   6
   20      2    4   3   7
   21      2    6   3   7
   22      2    8   4   9
   23      2    8   4  10
   24      2    9   4  10
   25      3    1   3   4   8
   26      3    1   3   4   9
   27      3    1   3   4  10
   28      3    2   1   3   4
   29      3    2   1   3   7
   30      3    2   1   3   6
   31      3    4   3   1   5
   32      3    5   1   3   6
   33      3    5   1   3   7
   34      3    6   3   4   9
   35      3    6   3   4  10
   36      3    6   3   4   8
   37      3    7   3   4   9
   38      3    7   3   4  10
   39      3    7   3   4   8

          INDEP./SYM. INTERNAL COORDINATES
          --------------------------------
 CRD  1=  -0.1513 (  2) -0.1808 (  6)  0.2610 ( 10)  0.2161 ( 11) -0.7205 ( 12)
           0.1739 ( 13) -0.1252 ( 15) -0.2267 ( 16)  0.1490 ( 17) -0.1516 ( 18)
           0.1952 ( 19)  0.2161 ( 20) -0.1293 ( 21)
 CRD  2=  -0.2826 (  2) -0.1474 (  3) -0.5240 (  6)  0.1102 ( 11) -0.4228 ( 13)
           0.1634 ( 14) -0.2618 ( 15)  0.2599 ( 16) -0.2578 ( 17)  0.2335 ( 22)
           0.1166 ( 23)  0.1074 ( 24)  0.1561 ( 25)  0.1022 ( 26)  0.1217 ( 27)
          -0.1150 ( 28)
 CRD  3=  -0.2027 (  6) -0.1194 ( 10)  0.1313 ( 11)  0.4821 ( 15) -0.1758 ( 17)
          -0.4740 ( 18) -0.3268 ( 19)  0.2335 ( 20)  0.2398 ( 23)  0.2765 ( 28)
           0.2694 ( 31)
 CRD  4=  -0.3140 (  6)  0.3027 ( 10) -0.1836 ( 11)  0.1061 ( 12)  0.3476 ( 13)
          -0.3264 ( 16) -0.4024 ( 17) -0.3291 ( 20)  0.1498 ( 22)  0.1606 ( 23)
          -0.1863 ( 25) -0.2305 ( 26) -0.1659 ( 27)  0.1178 ( 29) -0.1194 ( 31)
          -0.1400 ( 32)
 CRD  5=   0.1142 (  1)  0.6170 (  2) -0.2789 (  6)  0.1831 ( 11)  0.1178 ( 13)
          -0.3362 ( 14) -0.2078 ( 15)  0.2188 ( 16)  0.1719 ( 17) -0.2059 ( 18)
          -0.1796 ( 19) -0.1229 ( 20)  0.2100 ( 24) -0.1102 ( 30)  0.1153 ( 33)
 CRD  6=   0.1250 (  1) -0.1363 (  2) -0.1451 (  3)  0.1113 (  7) -0.1679 (  8)
           0.1398 ( 10) -0.3437 ( 11)  0.1088 ( 12) -0.2084 ( 13)  0.1181 ( 16)
           0.3651 ( 17) -0.4559 ( 18)  0.2376 ( 19) -0.1991 ( 20) -0.1747 ( 22)
           0.2066 ( 24) -0.1692 ( 25) -0.1400 ( 26) -0.1872 ( 27) -0.1746 ( 31)
 CRD  7=   0.2261 (  1)  0.2191 (  2) -0.1531 (  3)  0.1103 (  4)  0.2231 (  5)
           0.1291 (  6) -0.1263 (  7)  0.1669 (  9)  0.2206 ( 10) -0.2385 ( 12)
          -0.2147 ( 13) -0.1291 ( 14)  0.4023 ( 15)  0.3440 ( 16) -0.2999 ( 17)
           0.2382 ( 19) -0.1417 ( 21)  0.1434 ( 23) -0.2210 ( 24) -0.1589 ( 28)
          -0.1298 ( 31)
 CRD  8=   0.2168 (  1) -0.1961 (  3)  0.4795 (  4) -0.3654 (  5)  0.1538 (  8)
          -0.1436 (  9)  0.1046 ( 10) -0.1350 ( 13) -0.1582 ( 15)  0.1721 ( 16)
           0.1908 ( 18)  0.1661 ( 20)  0.1303 ( 22) -0.1185 ( 23) -0.2515 ( 25)
          -0.2099 ( 26) -0.2121 ( 27)  0.3071 ( 28)  0.1094 ( 30)  0.1769 ( 31)
 CRD  9=   0.5207 (  1)  0.1356 (  2)  0.5267 (  3) -0.1630 (  7) -0.1855 (  8)
          -0.1885 (  9) -0.2048 ( 13)  0.4334 ( 14) -0.2286 ( 16)
 CRD 10=  -0.2007 (  1) -0.2292 (  3) -0.1617 (  6) -0.4506 (  7) -0.4672 (  8)
          -0.4655 (  9) -0.1592 ( 14)  0.1644 ( 15)  0.1806 ( 17)  0.1647 ( 18)
          -0.1845 ( 22) -0.1861 ( 23) -0.1761 ( 24)
 CRD 11=   0.3757 (  4)  0.3801 (  5) -0.5073 (  7)  0.1700 (  8)  0.2896 (  9)
           0.1636 ( 21) -0.1031 ( 22) -0.1592 ( 23)  0.2722 ( 24) -0.1399 ( 26)
           0.1329 ( 27) -0.1160 ( 30) -0.1248 ( 32)  0.1824 ( 35) -0.2031 ( 37)
 CRD 12=  -0.5169 (  8)  0.4471 (  9) -0.1074 ( 19)  0.1230 ( 20)  0.2609 ( 22)
          -0.2188 ( 23) -0.2405 ( 25) -0.1716 ( 29) -0.1591 ( 30) -0.1034 ( 31)
          -0.1854 ( 32) -0.1979 ( 33) -0.2728 ( 36) -0.2623 ( 39)
 CRD 13=  -0.4600 (  4) -0.4691 (  5) -0.4013 (  7)  0.1817 (  8)  0.2597 (  9)
          -0.2160 ( 21) -0.1221 ( 23)  0.1832 ( 24)  0.1304 ( 27)  0.1349 ( 30)
           0.1399 ( 32) -0.1771 ( 34)  0.2304 ( 38)
 CRD 14=   0.1282 (  5) -0.2774 (  8)  0.2388 (  9)  0.1226 ( 10) -0.1365 ( 11)
           0.1282 ( 19) -0.1400 ( 20)  0.1740 ( 22) -0.1613 ( 23)  0.1570 ( 26)
           0.1420 ( 27)  0.2074 ( 28)  0.2963 ( 29)  0.2806 ( 30)  0.2372 ( 31)
           0.3104 ( 32)  0.3260 ( 33)  0.2407 ( 34)  0.2257 ( 35)  0.2178 ( 37)
           0.2028 ( 38)
 CRD 15=   0.1033 (  1) -0.3775 (  4)  0.4028 (  5) -0.1844 ( 25) -0.1663 ( 26)
          -0.1658 ( 27)  0.1996 ( 28)  0.2084 ( 29)  0.2378 ( 30)  0.1140 ( 31)
           0.1522 ( 32)  0.1227 ( 33) -0.2431 ( 34) -0.2426 ( 35) -0.2612 ( 36)
          -0.2416 ( 37) -0.2412 ( 38) -0.2598 ( 39)
 CRD 16=   0.4459 (  3) -0.2662 (  7) -0.1442 (  8) -0.1504 (  9) -0.1891 ( 10)
          -0.1948 ( 11)  0.1075 ( 13) -0.2729 ( 14) -0.1525 ( 15)  0.1644 ( 16)
          -0.1929 ( 17) -0.1486 ( 18)  0.2256 ( 19)  0.2377 ( 20)  0.2116 ( 22)
           0.2064 ( 23)  0.1123 ( 24)  0.2203 ( 30) -0.2510 ( 33)  0.1367 ( 34)
           0.1012 ( 36) -0.1078 ( 38)
 CRD 17=  -0.6017 (  1)  0.3366 (  2)  0.1620 (  4)  0.1067 (  6) -0.1406 (  8)
          -0.2946 ( 13)  0.4025 ( 14) -0.1083 ( 16) -0.1130 ( 18) -0.1751 ( 21)
           0.1015 ( 23)  0.1324 ( 24)  0.1220 ( 30) -0.1470 ( 34) -0.1198 ( 35)
          -0.1221 ( 36)
 CRD 18=  -0.3290 (  1) -0.1225 (  2)  0.4999 (  3)  0.1863 (  4) -0.2481 (  5)
          -0.1934 (  6)  0.2118 (  9) -0.1004 ( 13) -0.1264 ( 14)  0.1444 ( 15)
           0.2282 ( 16)  0.1122 ( 17) -0.1742 ( 22) -0.1427 ( 24) -0.1130 ( 28)
           0.1030 ( 31)  0.1621 ( 32)  0.2604 ( 33) -0.1079 ( 34) -0.1297 ( 35)
          -0.1642 ( 37) -0.1860 ( 38) -0.1162 ( 39)
 CRD 19=  -0.1862 (  1)  0.1572 (  3) -0.1347 (  4)  0.2367 (  5) -0.3701 (  6)
           0.1421 (  7)  0.2486 (  8) -0.1109 ( 13)  0.1315 ( 15)  0.1572 ( 17)
           0.1605 ( 18)  0.1015 ( 20) -0.2313 ( 23) -0.1656 ( 24)  0.2543 ( 28)
           0.1150 ( 29)  0.1762 ( 30) -0.2138 ( 31) -0.2919 ( 32) -0.3531 ( 33)
           0.1074 ( 34)  0.1508 ( 37)  0.1414 ( 38)
 CRD 20=  -0.4445 (  2)  0.2052 (  3)  0.1263 (  5)  0.2240 (  6)  0.2585 (  7)
          -0.1643 (  8) -0.2265 (  9)  0.2080 ( 10)  0.1578 ( 11) -0.1600 ( 14)
           0.1515 ( 16) -0.1553 ( 21)  0.2773 ( 24) -0.1692 ( 26)  0.1494 ( 27)
          -0.2813 ( 34) -0.1564 ( 36)  0.3282 ( 38)  0.1346 ( 39)
 CRD 21=  -0.1492 (  1)  0.1445 (  3) -0.2551 (  4)  0.2476 (  6) -0.1520 (  7)
           0.2805 (  8) -0.2510 (  9)  0.1750 ( 10) -0.1624 ( 13)  0.1650 ( 16)
          -0.1318 ( 18) -0.1037 ( 20)  0.1596 ( 21)  0.2884 ( 22) -0.1104 ( 23)
          -0.3063 ( 25) -0.1157 ( 28) -0.3040 ( 30)  0.1401 ( 33)  0.2543 ( 34)
           0.1287 ( 35) -0.1118 ( 36)  0.1700 ( 37) -0.1962 ( 39)
 CRD 22=  -0.1184 (  2) -0.1235 (  5)  0.3389 (  6) -0.2181 (  7) -0.1091 (  8)
           0.1984 (  9)  0.1002 ( 10)  0.1757 ( 11) -0.1531 ( 15)  0.1064 ( 16)
          -0.2009 ( 19) -0.1219 ( 20)  0.1477 ( 21)  0.2310 ( 23)  0.1570 ( 25)
          -0.1454 ( 27)  0.2505 ( 28)  0.3989 ( 29) -0.1508 ( 31) -0.3375 ( 32)
          -0.1782 ( 35)  0.1242 ( 36) -0.1657 ( 38)  0.1368 ( 39)
 CRD 23=   0.2567 (  2) -0.2163 (  4) -0.1224 (  5)  0.2274 (  7) -0.1812 (  8)
          -0.2327 ( 12) -0.2107 ( 17)  0.1396 ( 18)  0.1129 ( 20)  0.2473 ( 21)
          -0.1229 ( 22)  0.1819 ( 24) -0.2372 ( 26)  0.1257 ( 27)  0.1342 ( 29)
          -0.1586 ( 32)  0.3735 ( 35)  0.2767 ( 36) -0.3779 ( 37) -0.1117 ( 39)
 CRD 24=   0.1804 (  4) -0.2593 (  5)  0.1479 (  8) -0.1878 (  9) -0.1471 ( 10)
           0.1581 ( 11)  0.1737 ( 15) -0.1447 ( 18)  0.1696 ( 19) -0.1680 ( 20)
           0.1143 ( 22) -0.1329 ( 23)  0.2566 ( 26)  0.3142 ( 27)  0.3121 ( 29)
           0.2305 ( 30) -0.3542 ( 31) -0.2547 ( 36) -0.3249 ( 39)

 THE DETERMINANT OF THE G MATRIX IS 10**(    -8)


                     --------------------
                     INTERNAL COORDINATES
                     --------------------

                 - - ATOMS - -         COORDINATE      COORDINATE
 NO.   TYPE    I  J  K  L  M  N        (BOHR,RAD)       (ANG,DEG)
 ----------------------------------------------------------------
   1 STRETCH   1  5                     2.0838951       1.1027499
   2 STRETCH   1  3                     2.8517365       1.5090741
   3 STRETCH   1  2                     2.2853525       1.2093566
   4 STRETCH   3  7                     2.0940112       1.1081031
   5 STRETCH   3  6                     2.0948932       1.1085698
   6 STRETCH   3  4                     2.8552580       1.5109376
   7 STRETCH   4  8                     2.0738602       1.0974396
   8 STRETCH   4 10                     2.0755742       1.0983466
   9 STRETCH   4  9                     2.0745283       1.0977932
  10 BEND      1  3  7                  1.9460953     111.5030444
  11 BEND      1  3  6                  1.8796605     107.6966148
  12 BEND      1  3  4                  1.9390185     111.0975737
  13 BEND      2  1  3                  2.1482547     123.0859287
  14 BEND      2  1  5                  2.0971269     120.1565231
  15 BEND      3  4  9                  1.9475645     111.5872249
  16 BEND      3  1  5                  2.0377790     116.7561389
  17 BEND      3  4  8                  1.9391108     111.1028661
  18 BEND      3  4 10                  1.9524350     111.8662842
  19 BEND      4  3  6                  1.9268820     110.4022088
  20 BEND      4  3  7                  1.9260806     110.3562876
  21 BEND      6  3  7                  1.8432880     105.6126209
  22 BEND      8  4  9                  1.8731863     107.3256685
  23 BEND      8  4 10                  1.8737522     107.3580903
  24 BEND      9  4 10                  1.8737832     107.3598711
  25 TORSION   1  3  4  8               3.0851820     176.7679073
  26 TORSION   1  3  4  9              -1.1082345     -63.4971604
  27 TORSION   1  3  4 10               0.9914137      56.8038204
  28 TORSION   2  1  3  4               2.4494909     140.3454914
  29 TORSION   2  1  3  7               0.2930415      16.7900422
  30 TORSION   2  1  3  6              -1.7215170     -98.6356601
  31 TORSION   4  3  1  5              -0.6996418     -40.0865242
  32 TORSION   5  1  3  6               1.4125355      80.9323243
  33 TORSION   5  1  3  7              -2.8560912    -163.6419734
  34 TORSION   6  3  4  9               3.0907732     177.0882611
  35 TORSION   6  3  4 10              -1.0927639     -62.6107581
  36 TORSION   6  3  4  8               1.0010044      57.3533287
  37 TORSION   7  3  4  9               1.0596143      60.7114285
  38 TORSION   7  3  4 10              -3.1239228    -178.9875907
  39 TORSION   7  3  4  8              -1.0301545     -59.0235038

     ------------------------------------------
     THE POINT GROUP IS C1 , NAXIS= 1, ORDER= 1
     ------------------------------------------

     DIMENSIONS OF THE SYMMETRY SUBSPACES ARE
 A   =  112

 ..... DONE SETTING UP THE RUN .....
 STEP CPU TIME =     0.01 TOTAL CPU TIME =        0.0 (    0.0 MIN)
 TOTAL WALL CLOCK TIME=        0.0 SECONDS, CPU UTILIZATION IS  50.00%


          -----------------------------
          STATIONARY POINT LOCATION RUN
          -----------------------------

 OBTAINING INITIAL HESSIAN, HESS=GUESS   
 DIAGONAL GUESS HESSIAN IN INTERNAL COORDS IS
     1  0.3379     2  0.3824     3  0.5530     4  0.3344     5  0.3341
     6  0.3810     7  0.3414     8  0.3408     9  0.3412    10  0.2242
    11  0.2242    12  0.2513    13  0.2602    14  0.2318    15  0.2247
    16  0.2246    17  0.2248    18  0.2247    19  0.2241    20  0.2241
    21  0.2016    22  0.2026    23  0.2026    24  0.2026    25  0.2500
    26  0.2500    27  0.2500    28  0.2500    29  0.2500    30  0.2500
    31  0.2500    32  0.2500    33  0.2500    34  0.2500    35  0.2500
    36  0.2500    37  0.2500    38  0.2500    39  0.2500
 TRANSFORMING HESSIAN TO SYMMETRY COORDINATES

          PARAMETERS CONTROLLING GEOMETRY SEARCH ARE
          METHOD =QA                  UPHESS =BFGS    
          NNEG   =         0          NFRZ   =         3
          NSTEP  =        50          IFOLOW =         1
          HESS   =GUESS               RESTAR =         F
          IHREP  =         0          HSSEND =         F
          NPRT   =         0          NPUN   =         0
          OPTTOL = 5.000E-04          RMIN   = 1.500E-03
          RMAX   = 1.000E-01          RLIM   = 7.000E-02
          DXMAX  = 3.000E-01          PURIFY =         F
          MOVIE  =         F          TRUPD  =         T
          TRMAX  = 5.000E-01          TRMIN  = 5.000E-02
          ITBMAT =         5          STPT   =         F
          STSTEP = 1.000E-02          PROJCT=          F
          FROZEN COORD(S)=   1   2   3


      ***** EQUILIBRIUM GEOMETRY LOCATED *****
            (SUBJECT TO   3 CONSTRAINT(S))
 COORDINATES OF ALL ATOMS ARE (ANGS)
   ATOM   CHARGE       X              Y              Z
 ------------------------------------------------------------
 C           6.0   0.6001536345   1.2096857314   0.7318194798
 O           8.0   0.0527878041   1.9942971494   0.0212739605
 C           6.0   2.0744593915   0.9303152901   0.7245483325
 C           6.0   2.6316764697   0.8296320789   2.1455215050
 H           1.0   0.0176131326   0.6261943537   1.4528202458
 H           1.0   2.2071387055  -0.0248313189   0.2190054247
 H           1.0   2.5744710231   1.6924271160   0.1378357817
 H           1.0   3.6848495485   0.5762939647   2.1197928222
 H           1.0   2.5202997152   1.7671309753   2.6820406119
 H           1.0   2.1110636972   0.0557055258   2.7012817384


                     --------------------
                     INTERNAL COORDINATES
                     --------------------

                 - - ATOMS - -         COORDINATE      COORDINATE
 NO.   TYPE    I  J  K  L  M  N        (BOHR,RAD)       (ANG,DEG)
 ----------------------------------------------------------------
   1 STRETCH   1  5                     2.0697959       1.0952889
   2 STRETCH   1  3                     2.8356459       1.5005593
   3 STRETCH   1  2                     2.2519472       1.1916792
   4 STRETCH   3  7                     2.0484644       1.0840008
   5 STRETCH   3  6                     2.0575311       1.0887986
   6 STRETCH   3  4                     2.8905969       1.5296381
   7 STRETCH   4  8                     2.0475560       1.0835201
   8 STRETCH   4 10                     2.0517842       1.0857575
   9 STRETCH   4  9                     2.0520386       1.0858921
  10 BEND      1  3  7                  1.9017282     108.9610000
  11 BEND      1  3  6                  1.8601160     106.5767954
  12 BEND      1  3  4                  1.9451382     111.4482092
  13 BEND      2  1  3                  2.1784936     124.8184869
  14 BEND      2  1  5                  2.0931911     119.9310173
  15 BEND      3  4  9                  1.9442059     111.3947936
  16 BEND      3  1  5                  2.0114851     115.2496057
  17 BEND      3  4  8                  1.9256027     110.3289091
  18 BEND      3  4 10                  1.9259657     110.3497078
  19 BEND      4  3  6                  1.9062478     109.2199517
  20 BEND      4  3  7                  1.9617213     112.3983495
  21 BEND      6  3  7                  1.8851863     108.0132208
  22 BEND      8  4  9                  1.8894469     108.2573334
  23 BEND      8  4 10                  1.8876285     108.1531445
  24 BEND      9  4 10                  1.8894709     108.2587067
  25 TORSION   1  3  4  8               3.0896422     177.0234595
  26 TORSION   1  3  4  9              -1.0945528     -62.7132551
  27 TORSION   1  3  4 10               1.0047109      57.5656952
  28 TORSION   2  1  3  4               2.3852430     136.6643562
  29 TORSION   2  1  3  7               0.2105442      12.0632930
  30 TORSION   2  1  3  6              -1.8196712    -104.2594824
  31 TORSION   4  3  1  5              -0.7623713     -43.6806593
  32 TORSION   5  1  3  6               1.3158998      75.3955021
  33 TORSION   5  1  3  7              -2.9370701    -168.2817225
  34 TORSION   6  3  4  9               3.1380544     179.7972723
  35 TORSION   6  3  4 10              -1.0458672     -59.9237774
  36 TORSION   6  3  4  8               1.0390641      59.5339870
  37 TORSION   7  3  4  9               1.0460881      59.9364329
  38 TORSION   7  3  4 10              -3.1378335    -179.7846168
  39 TORSION   7  3  4  8              -1.0529022     -60.3268524

          INTERNUCLEAR DISTANCES (ANGS.)


 =====================================================
   GAMESS/COSab RESULTS
 =====================================================

   Dielectric Constant                  = INFTY
   Basic Grid Size                      =                 1082
   Number of Segments                   =                   92
   Number of Segments located on spheres=                  188
   Number of Segments of the cavity     =                  404
   Solvent Radius (rsolv)               = 1.40
   Outlying Charge Error Method         = double cavity

 =====================================================

  Total solvated Energy (a.u.)          =  -192.0118777816
  Total Energy corrected (a.u.)         =  -192.0115188298

  Outlying charge effect (a.u.)         =     0.0003589517
  Outlying charge effect (kcal/mol)     =     0.2252458102

  Dielectric Energy (a.u.)              =    -0.0128329195
  Dielectric energy corr. (a.u.)        =    -0.0124739677

  Sum of polarization charges           =     0.0171301035
  Sum of polarization charges(cor.)     =    -0.0171301035

  Total surface area of cavity (A**2)   =  101.78
  Total volume of cavity (A**3)         =   84.82

 =====================================================
 NPS=                   404
NR.  ATOM  (X, Y, Z)(a.u.)                  CHARGE(e)  AREA(A**2) SIGMA(e/A**2)
   1   1   2.222328   5.787607   2.298690  -0.000583   0.232280  -0.002511
   2   1  -0.997667   4.358941   3.715841  -0.000391   0.278737  -0.001402
   3   1  -2.513813   1.358279   1.042123   0.000099   0.185824   0.000531
   4   1  -0.284985  -1.038544   0.279310  -0.002029   0.325193  -0.006239
   5   1  -0.234966  -1.235072   1.272932  -0.001586   0.278737  -0.005689
   6   1  -2.500445   1.282658   1.642685  -0.000374   0.185824  -0.002015
   7   1  -1.445693   3.264847   3.965671  -0.001255   0.371649  -0.003378
   8   1   1.190326   0.817939  -2.099310  -0.001110   0.371649  -0.002987
   9   1   0.449498   3.672343   4.831624  -0.001782   0.232280  -0.007670
  10   1  -0.395747   3.950873   4.411430  -0.001704   0.371649  -0.004585
  11   1  -1.827892   3.712714   3.247082  -0.000256   0.278737  -0.000917
  12   1  -2.593981   2.161637   1.991181  -0.000310   0.185824  -0.001667
  13   1  -2.116613   0.592611   0.461273  -0.000664   0.418105  -0.001588
  14   1  -1.219598  -0.471032   0.313743  -0.002161   0.464561  -0.004651
  15   1   0.690427  -1.447523   0.997668  -0.001623   0.278737  -0.005821
  16   1   1.194116   5.575619   3.242729  -0.001312   0.371649  -0.003530
  17   1  -0.049813   5.098179   3.613176  -0.000854   0.371649  -0.002299
  18   1  -0.010594   0.372704  -1.668837  -0.000714   0.371649  -0.001920
  19   1  -0.282367  -0.409341  -0.856065  -0.002416   0.418105  -0.005779
  20   1   0.554633  -1.076146  -0.243301  -0.003204   0.371649  -0.008620
  21   1  -1.733566  -0.155114   1.064058  -0.000978   0.232280  -0.004213
  22   1  -2.345963   2.864909   2.738667  -0.000136   0.278737  -0.000488
  23   1  -0.138529   3.034244   4.862107  -0.001195   0.232280  -0.005143
  24   1   0.814742  -1.427835   2.007357  -0.001872   0.232280  -0.008060
  25   1   0.852163  -0.119183  -1.518794  -0.002103   0.325193  -0.006465
  26   1   0.636213   4.716618   4.233943  -0.002066   0.325193  -0.006354
  27   1  -1.262156   0.282346  -0.744877  -0.000675   0.418105  -0.001615
  28   2  -1.308063   5.941141  -1.925262   0.004883   0.377948   0.012921
  29   2   0.594410   3.715892  -3.171838   0.003715   0.274871   0.013517
  30   2   1.859138   6.066866  -1.438818   0.004856   0.274871   0.017666
  31   2  -0.294467   6.799647   1.145808   0.003735   0.343589   0.010870
  32   2  -2.921632   4.711130   0.780208   0.005745   0.343589   0.016721
  33   2  -2.238574   2.555016  -1.863458   0.003855   0.309230   0.012465
  34   2  -0.778632   5.218634  -2.733007   0.005381   0.412307   0.013051
  35   2   0.053787   4.511879  -3.123686   0.004711   0.343589   0.013711
  36   2  -0.170479   6.283762  -2.000856   0.005795   0.412307   0.014056
  37   2   0.967198   6.307074  -1.795195   0.005502   0.343589   0.016012
  38   2  -1.110157   6.620897  -0.942414   0.005188   0.412307   0.012583
  39   2  -0.950669   6.840484   0.198873   0.004456   0.377948   0.011791
  40   2  -2.160509   5.804048  -1.105689   0.005226   0.377948   0.013827
  41   2  -2.743856   5.314382  -0.258583   0.005377   0.343589   0.015650
  42   2  -2.038432   4.954685  -2.101331   0.006343   0.481025   0.013187
  43   2  -2.315372   3.775830  -2.135059   0.005420   0.412307   0.013146
  44   2   1.241440   4.555165  -2.899635   0.004359   0.274871   0.015857
  45   2   1.703682   5.430410  -2.246867   0.005971   0.309230   0.019308
  46   2   1.238992   6.738990  -0.626100   0.004985   0.343589   0.014507
  47   2   0.498435   6.974477   0.398614   0.004867   0.412307   0.011804
  48   2  -1.440237   6.337401   1.302995   0.005070   0.412307   0.012297
  49   2  -2.361687   5.606164   1.102994   0.006218   0.412307   0.015082
  50   2  -3.141970   3.997547  -0.018634   0.006550   0.377948   0.017331
  51   2  -2.902525   3.192455  -1.063852   0.006420   0.412307   0.015570
  52   2  -1.517491   2.783387  -2.601464   0.005073   0.446666   0.011357
  53   2  -0.344332   3.167128  -3.122962   0.005206   0.446666   0.011656
  54   2   1.506539   3.473921  -2.875060   0.003198   0.240512   0.013295
  55   2   2.001212   6.361893  -0.433381   0.003414   0.206154   0.016563
  56   2   1.215389   6.530640   1.340774   0.002205   0.206154   0.010696
  57   2   0.511723   6.535585   1.695214   0.002000   0.240512   0.008316
  58   2  -0.569334   6.184574   2.109096   0.004016   0.377948   0.010625
  59   2  -2.460159   4.591491   1.866239   0.004966   0.343589   0.014454
  60   2  -2.960029   3.538473   1.112282   0.006081   0.377948   0.016091
  61   2  -2.461464   2.025987  -0.943602   0.004750   0.377948   0.012567
  62   2  -1.569308   1.746365  -1.880522   0.002906   0.274871   0.010572
  63   2   0.773512   2.584838  -2.910945   0.004337   0.377948   0.011474
  64   2   0.532635   5.494635  -2.679781   0.006382   0.412307   0.015478
  65   2   0.073387   6.901049  -0.827050   0.006384   0.481025   0.013271
  66   2  -2.030141   6.223668   0.073973   0.005611   0.412307   0.013610
  67   2  -2.859038   4.482253  -1.100402   0.006952   0.446666   0.015564
  68   2  -1.240607   4.050386  -2.907462   0.004940   0.412307   0.011981
  69   2   1.881809   4.449344  -2.591456   0.003062   0.171795   0.017821
  70   2   1.696923   6.560361   0.509378   0.004365   0.343589   0.012705
  71   2  -1.707640   5.452041   2.153064   0.003859   0.343589   0.011232
  72   2  -2.986878   2.750208   0.048796   0.005528   0.377948   0.014625
  73   2  -0.466219   2.012452  -2.635625   0.003728   0.412307   0.009041
  74   3   3.459685   1.338763  -2.358591  -0.000263   0.232280  -0.001134
  75   3   6.638828   1.408635  -1.232910   0.000873   0.371649   0.002350
  76   3   4.101535   5.505923   1.821616  -0.000522   0.232280  -0.002245
  77   3   6.287379   0.533612  -1.310592   0.000260   0.278737   0.000934
  78   3   3.519499   0.572423  -2.197037  -0.000194   0.278737  -0.000695
  79   3   2.905078  -1.785134   2.205771  -0.000319   0.092912  -0.003433
  80   3   4.531679   1.686071  -2.359754   0.000508   0.278737   0.001823
  81   3   5.670162   1.470236  -1.968297   0.000866   0.325193   0.002662
  82   3   7.065909   0.574611  -0.359379   0.000237   0.325193   0.000728
  83   3   7.288362   0.335154   0.412729   0.000041   0.139368   0.000295
  84   3   3.840147   2.256871  -2.376331  -0.000063   0.278737  -0.000225
  85   3   7.265293   1.768566  -0.389829   0.000215   0.278737   0.000771
  86   3   7.566173   2.374552   0.587729  -0.000056   0.185824  -0.000304
  87   3   4.906002   5.375082   1.848070  -0.000060   0.092912  -0.000643
  88   3   6.885747  -0.333330   0.312929  -0.000278   0.185824  -0.001498
  89   3   4.920514   1.009234  -2.197706   0.000401   0.278737   0.001440
  90   3   2.626936  -1.749981   1.922092  -0.000166   0.046456  -0.003578
  91   3   7.516350   1.430860   0.253592   0.000010   0.232280   0.000042
  92   4   3.739565   2.083369   7.589528   0.001426   0.371649   0.003837
  93   4   6.107500  -1.976306   3.393440   0.000573   0.325193   0.001763
  94   4   7.542429   4.130221   2.997629   0.000386   0.278737   0.001383
  95   4   7.310514   3.190768   6.541793   0.001322   0.418105   0.003162
  96   4   6.206121  -0.607258   6.888753   0.000972   0.371649   0.002616
  97   4   2.193424   2.406336   6.474018   0.000669   0.278737   0.002401
  98   4   7.103084  -0.642343   6.259667   0.001058   0.371649   0.002847
  99   4   7.982855   2.730251   6.022836   0.000741   0.278737   0.002658
 100   4   8.053155   3.710080   3.598067   0.000638   0.278737   0.002288
 101   4   6.912941  -1.641814   3.585481   0.000343   0.185824   0.001847
 102   4   2.835937   2.670724   6.969958   0.000690   0.232280   0.002969
 103   4   2.935077   1.658897   7.236008   0.000891   0.278737   0.003198
 104   4   7.945580   3.282467   2.470573   0.000214   0.232280   0.000921
 105   4   7.404713   4.452307   4.280717   0.000982   0.325193   0.003020
 106   4   7.630798   3.852688   5.468773   0.001350   0.325193   0.004151
 107   4   7.318427   1.920241   6.997186   0.000921   0.464561   0.001983
 108   4   6.751846   0.467927   7.202597   0.000816   0.464561   0.001756
 109   4   6.386636  -1.484872   5.777130   0.001417   0.371649   0.003812
 110   4   5.971544  -2.046963   4.524659   0.001191   0.371649   0.003204
 111   4   5.009292  -2.187084   3.625557   0.000537   0.371649   0.001444
 112   4   6.811275   4.810084   3.427588   0.000563   0.325193   0.001733
 113   4   6.327571   2.671544   7.405796   0.000696   0.418105   0.001664
 114   4   5.007526   2.200698   7.780379   0.000872   0.418105   0.002086
 115   4   4.553604   1.134952   7.785531   0.001034   0.464561   0.002225
 116   4   5.561653   0.191729   7.524961   0.000521   0.325193   0.001601
 117   4   2.175090   1.570664   6.595162   0.000285   0.185824   0.001535
 118   4   7.530296   0.864926   6.747263   0.000398   0.278737   0.001429
 119   4   8.013443   3.731800   4.652628   0.000935   0.278737   0.003355
 120   4   6.809174  -1.446273   2.702156   0.000227   0.232280   0.000976
 121   4   6.859598  -1.625184   4.782821   0.001010   0.325193   0.003104
 122   4   4.009065  -2.021117   3.365509  -0.000110   0.092912  -0.001188
 123   4   5.966856   5.139217   3.318519   0.000049   0.139368   0.000350
 124   4   6.073348   1.437382   7.667876   0.000586   0.464561   0.001261
 125   5  -1.630516   0.351855   4.350269  -0.003162   0.372926  -0.008479
 126   5  -0.114984  -1.212692   3.267083  -0.002924   0.333671  -0.008763
 127   5  -1.165937  -0.959100   2.662391  -0.002714   0.392554  -0.006914
 128   5  -2.356283   0.868369   3.220685  -0.002707   0.372926  -0.007259
 129   5  -1.354142   1.782613   4.682191  -0.002414   0.372926  -0.006472
 130   5  -0.669946  -0.083541   4.729260  -0.003463   0.353299  -0.009801
 131   5  -0.821680  -0.807108   3.903981  -0.003432   0.392554  -0.008743
 132   5  -1.781460  -0.307439   3.466107  -0.002746   0.333671  -0.008228
 133   5  -2.066655   1.418195   3.998513  -0.002624   0.372926  -0.007037
 134   5  -0.664723   1.133358   5.100299  -0.003771   0.431809  -0.008734
 135   5  -2.081080  -0.050502   2.540041  -0.001943   0.314043  -0.006188
 136   6   4.335927  -2.009104  -1.055062  -0.003233   0.412182  -0.007845
 137   6   2.963966  -2.177704   0.218450  -0.002427   0.372926  -0.006508
 138   6   3.888096  -2.392189   1.088269  -0.001847   0.392554  -0.004704
 139   6   5.930172  -1.759931   0.338697  -0.002000   0.333671  -0.005995
 140   6   5.464646  -0.841668  -1.517390  -0.001897   0.372926  -0.005087
 141   6   3.523331  -0.922378  -1.788269  -0.002000   0.353299  -0.005662
 142   6   3.951129  -2.447948  -0.057182  -0.002579   0.353299  -0.007299
 143   6   5.010346  -2.354460   0.489268  -0.002799   0.431809  -0.006482
 144   6   5.372032  -1.870108  -0.712366  -0.002732   0.372926  -0.007325
 145   6   4.534614  -0.918905  -1.853847  -0.002247   0.412182  -0.005452
 146   6   3.153154  -1.722785  -1.066277  -0.002716   0.431809  -0.006289
 147   6   6.139142  -1.117077  -0.594057  -0.001430   0.314043  -0.004553
 148   7   6.115005   4.846605  -1.064490  -0.003776   0.529948  -0.007126
 149   7   6.450139   5.048825   0.573235  -0.001577   0.294415  -0.005355
 150   7   4.868564   5.654736   0.236292  -0.001740   0.333671  -0.005213
 151   7   5.864897   3.218376  -1.983410  -0.001347   0.372926  -0.003612
 152   7   7.210438   3.418443  -0.436484  -0.001272   0.353299  -0.003600
 153   7   5.726805   5.497466   0.337379  -0.002126   0.392554  -0.005416
 154   7   5.003834   5.262644  -1.063905  -0.003295   0.471065  -0.006994
 155   7   5.066559   4.124031  -2.006104  -0.003245   0.549575  -0.005905
 156   7   6.646814   3.577780  -1.387663  -0.002462   0.471065  -0.005226
 157   7   6.977167   4.402707  -0.090601  -0.002613   0.471065  -0.005548
 158   8   9.341319   0.472445   4.018497  -0.004218   0.608459  -0.006932
 159   8   8.735013   0.347104   2.474226  -0.001678   0.353299  -0.004750
 160   8   8.148709  -1.053254   3.804313  -0.001066   0.333671  -0.003193
 161   8   8.465731  -0.102137   5.541757  -0.001172   0.353299  -0.003316
 162   8   8.947215   1.993875   5.137486  -0.001162   0.372926  -0.003115
 163   8   8.895055   2.308600   3.102366  -0.001120   0.353299  -0.003169
 164   8   8.526854  -0.498642   2.971515  -0.002288   0.490692  -0.004662
 165   8   8.577303  -0.648355   4.647489  -0.002277   0.490692  -0.004641
 166   8   8.961884   0.881522   5.419302  -0.002417   0.510320  -0.004736
 167   8   9.242050   1.998755   4.128380  -0.002395   0.490692  -0.004882
 168   8   9.069328   1.296027   2.758002  -0.002344   0.490692  -0.004777
 169   9   4.694521   5.406276   6.394403  -0.003405   0.529948  -0.006424
 170   9   3.096410   4.145984   6.683279  -0.001221   0.353299  -0.003456
 171   9   5.000500   5.713730   4.484274  -0.001447   0.353299  -0.004097
 172   9   6.357611   5.025904   5.872680  -0.001076   0.372926  -0.002885
 173   9   5.333125   4.049727   7.349796  -0.001318   0.412182  -0.003197
 174   9   3.398256   5.048922   6.186806  -0.002615   0.471065  -0.005552
 175   9   4.001081   5.671421   5.197806  -0.002860   0.490692  -0.005828
 176   9   5.653692   5.621231   5.253933  -0.002082   0.471065  -0.004421
 177   9   5.841084   4.787491   6.734207  -0.002028   0.451437  -0.004493
 178   9   4.146233   4.193102   7.287848  -0.002252   0.549575  -0.004098
 179  10   3.100284  -1.701648   6.511704  -0.002844   0.451437  -0.006299
 180  10   2.181121   0.149965   6.767032  -0.001466   0.353299  -0.004149
 181  10   3.527167  -0.259381   7.489736  -0.001098   0.353299  -0.003108
 182  10   4.743661  -1.778555   6.489346  -0.001108   0.372926  -0.002970
 183  10   3.792747  -2.315528   4.735614  -0.001175   0.372926  -0.003152
 184  10   2.188297  -1.184442   6.166741  -0.002711   0.392554  -0.006907
 185  10   2.684827  -0.498000   7.097010  -0.001610   0.333671  -0.004826
 186  10   4.100353  -1.148891   7.214143  -0.002077   0.471065  -0.004408
 187  10   4.103177  -2.246286   5.806346  -0.002142   0.471065  -0.004547
 188  10   2.755019  -2.018623   5.079329  -0.003039   0.490692  -0.006193
 189   1   2.727707   5.721905   1.380441   0.000020   0.037171   0.000549
 190   2   2.476989   5.875415   1.118837   0.000212   0.037171   0.005693
 191   3   3.197659   5.586089   1.374188  -0.000147   0.037171  -0.003957
 192   1   1.981815   1.881022  -2.286213   0.000032   0.037171   0.000850
 193   2   1.759975   2.183238  -2.405857   0.000345   0.037171   0.009269
 194   3   2.461835   1.797049  -2.242974  -0.000158   0.037171  -0.004255
 195   2   1.115531   2.110378  -2.563674   0.001039   0.134958   0.007701
 196   2  -0.313596   1.507250  -2.128741   0.001961   0.284310   0.006897
 197   2  -1.872884   1.500161  -0.935369   0.002369   0.284310   0.008332
 198   2  -2.669745   2.367179   0.635891   0.003395   0.284310   0.011942
 199   2  -2.396610   3.773657   1.978569   0.003267   0.284310   0.011490
 200   2  -1.158902   5.176727   2.574422   0.002481   0.284310   0.008728
 201   2   0.565653   6.034836   2.193466   0.001999   0.284310   0.007030
 202   2   1.902025   6.160337   1.302573   0.001136   0.134958   0.008419
 203   1   0.839733   1.416430  -2.196356   0.000882   0.280747   0.003141
 204   1  -0.951716   0.932641  -1.350529   0.001061   0.280747   0.003779
 205   1  -2.238915   1.402432   0.159829   0.001597   0.280747   0.005688
 206   1  -2.525034   2.644476   1.751755   0.001783   0.280747   0.006351
 207   1  -1.699638   4.179373   2.810802   0.001526   0.280747   0.005436
 208   1  -0.081311   5.414687   2.928204   0.000981   0.280747   0.003493
 209   1   1.705310   5.873617   2.058645   0.000713   0.280747   0.002538
 210   1   1.819600  -1.533407   1.412407  -0.000491   0.030798  -0.015934
 211   3   2.291545  -1.662493   1.413217  -0.000382   0.030798  -0.012392
 212   6   2.470456  -1.767847   1.190813  -0.000310   0.030798  -0.010079
 213   1   2.125372   0.161374  -1.709305  -0.000426   0.030798  -0.013847
 214   3   2.601020   0.052820  -1.746313  -0.000313   0.030798  -0.010163
 215   6   2.752487  -0.204650  -1.688526  -0.000263   0.030798  -0.008550
 216   1   3.136124   5.367354   2.731285  -0.000990   0.103254  -0.009586
 217   3   3.625189   5.314883   2.735025  -0.000735   0.103254  -0.007118
 218   9   3.824943   5.310838   3.469639  -0.000719   0.103254  -0.006964
 219   1   1.855047  -1.296175   2.770571  -0.001243   0.103764  -0.011975
 220   3   2.330409  -1.423020   2.774149  -0.000910   0.103764  -0.008772
 221  10   2.484916  -1.468668   3.512945  -0.000819   0.103764  -0.007895
 222   3   2.206919  -1.569421   2.076929  -0.001101   0.153669  -0.007164
 223   1   1.511215  -1.469441   1.895475  -0.001389   0.153669  -0.009040
 224   3   2.622656   0.730723  -2.008332  -0.001297   0.254137  -0.005102
 225   1   1.987899   1.149987  -2.099488  -0.001051   0.254137  -0.004137
 226   3   3.548792   5.517375   1.866584  -0.000576   0.149986  -0.003838
 227   1   2.855224   5.619127   2.050651  -0.000644   0.149986  -0.004292
 228   1   0.593732   2.251418   5.163946  -0.000713   0.068173  -0.010452
 229   4   1.304030   2.113801   5.561936  -0.000597   0.068173  -0.008750
 230   5   0.422974   1.994069   5.156776  -0.000809   0.068173  -0.011873
 231   1   1.494304   3.585485   5.163166  -0.000811   0.062195  -0.013032
 232   4   2.119855   3.496441   5.694261  -0.000281   0.062195  -0.004515
 233   9   2.302065   3.732965   5.751270  -0.000269   0.062195  -0.004328
 234   4   1.808949   2.944531   5.824603  -0.000679   0.352106  -0.001929
 235   1   0.779791   2.880642   5.198916  -0.002172   0.352106  -0.006170
 236   1   1.275818  -1.167029   3.076148  -0.001042   0.089027  -0.011706
 237   5   1.040422  -1.124568   3.273940  -0.001007   0.089027  -0.011313
 238  10   1.938135  -1.281213   3.798937  -0.000859   0.089027  -0.009646
 239   5  -0.246739   2.086514   5.014350  -0.000760   0.068776  -0.011053
 240   5  -1.166289   2.343472   4.479336  -0.001400   0.151699  -0.009227
 241   5  -2.058139   2.071243   3.538453  -0.001367   0.151699  -0.009013
 242   5  -2.367871   1.203918   2.586309  -0.001421   0.151699  -0.009364
 243   5  -1.973143   0.084087   1.998997  -0.001351   0.151699  -0.008907
 244   5  -1.029872  -0.845920   2.008503  -0.001580   0.151699  -0.010416
 245   5   0.089355  -1.218755   2.611073  -0.001637   0.151699  -0.010788
 246   1  -0.427562   2.597279   4.762499  -0.001487   0.151791  -0.009798
 247   1  -1.619103   2.690877   3.875526  -0.001211   0.151791  -0.007978
 248   1  -2.330157   2.016529   2.755300  -0.001207   0.151791  -0.007951
 249   1  -2.279860   0.840600   1.844304  -0.001251   0.151791  -0.008242
 250   1  -1.488079  -0.372421   1.502379  -0.001369   0.151791  -0.009016
 251   1  -0.267565  -1.143397   1.864584  -0.001521   0.151791  -0.010022
 252   1   0.720512  -1.290534   2.543839  -0.000946   0.084025  -0.011260
 253   6   2.486605  -1.848049   0.755492  -0.001308   0.176065  -0.007431
 254   6   2.414559  -1.419017  -0.503095  -0.003573   0.359416  -0.009941
 255   6   2.709556  -0.612308  -1.520688  -0.001260   0.176065  -0.007158
 256   1   1.430216  -1.393738   0.475499  -0.004076   0.484260  -0.008418
 257   1   1.589611  -0.510264  -1.151821  -0.004083   0.484260  -0.008431
 258   9   3.722427   5.484753   4.077499  -0.000998   0.230396  -0.004330
 259   9   2.932664   5.057324   4.977256  -0.002707   0.464509  -0.005827
 260   9   2.414983   4.180008   5.737723  -0.000772   0.230396  -0.003351
 261   1   2.308972   5.413998   3.430058  -0.003864   0.646434  -0.005977
 262   1   1.368416   4.475385   4.624399  -0.004204   0.646434  -0.006503
 263  10   2.401792  -1.639515   4.005455  -0.000319   0.074704  -0.004273
 264   1   1.498566  -1.401540   2.886660  -0.000187   0.105989  -0.001763
 265   2   2.793180   3.660879  -2.170536   0.000712   0.064916   0.010961
 266   3   3.535269   3.329651  -2.088161  -0.000050   0.064916  -0.000775
 267   7   3.751746   3.535576  -2.035669  -0.000223   0.064916  -0.003432
 268   2   2.912588   5.740951   0.633121   0.000354   0.064916   0.005448
 269   3   3.661907   5.535677   0.885266  -0.000198   0.064916  -0.003053
 270   7   3.866615   5.536566   0.661396  -0.000281   0.064916  -0.004331
 271   3   2.990957   2.356316  -2.312095  -0.000390   0.471940  -0.000826
 272   2   2.111333   3.177779  -2.494895   0.004145   0.427510   0.009697
 273   3   3.525287   5.661178   1.151783   0.000026   0.112052   0.000233
 274   2   2.454096   6.049656   0.864611   0.000636   0.101472   0.006268
 275   7   3.912664   3.939291  -2.055680  -0.000288   0.218443  -0.001317
 276   7   3.999945   4.912859  -1.422579  -0.001005   0.439268  -0.002289
 277   7   4.020503   5.570392  -0.164475  -0.001036   0.439268  -0.002359
 278   2   2.591198   4.592641  -2.105387   0.006412   0.537518   0.011928
 279   2   2.673981   5.705536  -1.014150   0.006341   0.537518   0.011798
 280   2   2.661092   6.067553   0.202228   0.002181   0.270668   0.008058
 281   3   3.640644  -1.910950   2.266793  -0.000171   0.028337  -0.006023
 282   4   3.831451  -1.902524   2.727547  -0.000123   0.028337  -0.004355
 283   6   3.731958  -1.997718   1.989978  -0.000250   0.028337  -0.008827
 284   3   6.583824  -0.928072   1.182306  -0.000138   0.028337  -0.004853
 285   4   6.736397  -0.932414   1.657148  -0.000092   0.028337  -0.003263
 286   6   6.411629  -1.102839   1.002587  -0.000166   0.028337  -0.005855
 287   3   7.402407   3.226008   1.143837  -0.000088   0.023625  -0.003736
 288   4   7.544558   3.176908   1.619262  -0.000056   0.023625  -0.002350
 289   7   7.314072   3.422422   0.932607  -0.000144   0.023625  -0.006088
 290   3   5.529553   5.123678   2.012702  -0.000093   0.023625  -0.003932
 291   4   5.697272   5.048672   2.476265  -0.000053   0.023625  -0.002234
 292   7   5.610142   5.148930   1.723104  -0.000108   0.023625  -0.004587
 293   3   7.033138  -0.566232   1.516508  -0.000081   0.026547  -0.003066
 294   4   7.243362  -0.627412   1.964603  -0.000078   0.026547  -0.002939
 295   8   7.487097  -0.538636   2.118347  -0.000095   0.026547  -0.003571
 296   3   7.750104   2.421359   1.447035  -0.000058   0.026547  -0.002172
 297   4   7.969922   2.400156   1.894200  -0.000071   0.026547  -0.002664
 298   8   8.148478   2.217335   2.054261  -0.000120   0.026547  -0.004515
 299   3   4.919933   5.248857   2.761582  -0.000090   0.025273  -0.003560
 300   4   5.108992   5.259139   3.222926  -0.000087   0.025273  -0.003429
 301   9   5.039581   5.334893   3.507572  -0.000097   0.025273  -0.003830
 302   3   3.356352  -1.782884   2.872375  -0.000144   0.026691  -0.005395
 303   4   3.526796  -1.857276   3.335130  -0.000123   0.026691  -0.004600
 304  10   3.422187  -1.883585   3.617860  -0.000163   0.026691  -0.006123
 305   4   3.675335  -1.924965   3.144878  -0.000062   0.053932  -0.001149
 306   3   3.473175  -1.892738   2.456845  -0.000139   0.053932  -0.002575
 307   4   7.043208  -0.838857   1.901167  -0.000030   0.050767  -0.000594
 308   3   6.821805  -0.746634   1.224931  -0.000076   0.050767  -0.001505
 309   4   7.859449   2.742768   1.834853  -0.000054   0.106498  -0.000511
 310   3   7.564136   2.910581   1.192956  -0.000097   0.106498  -0.000909
 311   4   5.522029   5.179015   2.924050  -0.000056   0.115847  -0.000483
 312   3   5.136716   5.258430   2.311182  -0.000143   0.115847  -0.001235
 313   6   3.311626  -2.058235   1.454467  -0.000788   0.107572  -0.007324
 314   3   2.931249  -1.848098   1.683150  -0.000869   0.131422  -0.006610
 315   6   3.255172  -0.316874  -1.850318  -0.000396   0.068603  -0.005766
 316   6   4.326499  -0.096516  -1.985460  -0.000843   0.151841  -0.005554
 317   6   5.578657  -0.162319  -1.532494  -0.000781   0.151841  -0.005144
 318   6   6.319964  -0.598496  -0.513856  -0.000865   0.151841  -0.005696
 319   6   6.387771  -1.105702   0.462210  -0.000386   0.068603  -0.005621
 320   3   3.542927   0.184491  -1.996496  -0.000847   0.150857  -0.005613
 321   3   5.029557   0.341703  -1.903334  -0.000519   0.150857  -0.003442
 322   3   6.210602   0.044301  -1.031470  -0.000585   0.150857  -0.003877
 323   3   6.608882  -0.587555   0.266834  -0.000780   0.150857  -0.005171
 324   7   7.307929   3.376258   0.379118  -0.000333   0.074373  -0.004478
 325   7   7.045477   2.777224  -0.622662  -0.000847   0.168180  -0.005038
 326   7   6.098642   2.576880  -1.689817  -0.000707   0.168180  -0.004203
 327   7   4.820886   3.079390  -2.126026  -0.000861   0.168180  -0.005118
 328   3   7.308836   2.777980   0.218562  -0.000746   0.160215  -0.004656
 329   3   6.646898   2.175277  -1.128438  -0.000554   0.160215  -0.003456
 330   3   5.315258   2.356153  -2.028351  -0.000576   0.160215  -0.003598
 331   3   4.164793   2.981344  -2.196723  -0.000307   0.090863  -0.003375
 332   7   4.548406   5.555860   0.858552  -0.000364   0.073567  -0.004946
 333   7   5.341467   5.370955   1.294240  -0.000334   0.073567  -0.004535
 334   3   4.738699   5.389501   1.420434  -0.000858   0.158871  -0.005403
 335   8   7.829336  -0.218373   2.072931  -0.000724   0.206007  -0.003514
 336   8   8.223585   1.206839   1.979511  -0.002222   0.422499  -0.005260
 337   3   7.427351   0.371302   1.054890  -0.000904   0.563451  -0.001604
 338   3   7.775360   2.019687   1.071466  -0.000054   0.290170  -0.000187
 339   9   4.681593   5.450448   3.735047  -0.000801   0.190053  -0.004214
 340   3   4.271706   5.401345   2.668133  -0.000469   0.267651  -0.001752
 341  10   2.972211  -1.815250   3.846530  -0.000718   0.146529  -0.004902
 342   3   2.939367  -1.762302   2.716596  -0.000463   0.206512  -0.002240
 343   4   1.662581   1.126744   5.960128  -0.000317   0.086362  -0.003674
 344   5   0.854965   1.061353   5.415034  -0.000844   0.086362  -0.009778
 345  10   1.689893   0.826377   6.009746  -0.000419   0.086362  -0.004846
 346   5   0.279312   1.456903   5.298143  -0.001429   0.195028  -0.007325
 347   4   1.510292   1.750556   6.001452  -0.000148   0.276320  -0.000537
 348   6   6.094004  -1.481940   1.048454  -0.001158   0.217852  -0.005313
 349   6   4.730369  -2.025915   1.590210  -0.003528   0.448784  -0.007862
 350   4   5.996370  -1.599543   2.291441  -0.000995   0.594072  -0.001674
 351   4   4.372845  -2.061034   2.853883  -0.000172   0.306887  -0.000559
 352   7   5.962460   5.079864   1.490378  -0.000746   0.185941  -0.004013
 353   7   6.898319   4.217773   1.093239  -0.002024   0.378788  -0.005343
 354   4   6.602279   4.614015   2.436675  -0.000344   0.511221  -0.000673
 355   4   7.571709   3.553225   1.953191   0.000050   0.261809   0.000191
 356   8   8.447226   2.326875   2.488800  -0.000229   0.068136  -0.003364
 357   8   8.582325   2.787603   3.482300  -0.000559   0.151100  -0.003697
 358   8   8.586325   2.669235   4.811582  -0.000402   0.151100  -0.002659
 359   8   8.399711   1.792996   5.800721  -0.000541   0.151100  -0.003581
 360   8   8.098594   0.516266   6.046294  -0.000563   0.151100  -0.003725
 361   8   7.805786  -0.640233   5.448140  -0.000454   0.151100  -0.003004
 362   8   7.640711  -1.204819   4.250221  -0.000474   0.151100  -0.003135
 363   8   7.670695  -0.947220   2.941115  -0.000635   0.151100  -0.004203
 364   4   8.230274   2.824427   2.730133  -0.000458   0.149507  -0.003064
 365   4   8.347037   3.161946   4.186259  -0.000208   0.149507  -0.001390
 366   4   8.238793   2.572390   5.560510  -0.000210   0.149507  -0.001407
 367   4   7.949689   1.296212   6.292389  -0.000333   0.149507  -0.002227
 368   4   7.597638  -0.146091   6.083396  -0.000320   0.149507  -0.002144
 369   4   7.326226  -1.166270   5.018769  -0.000197   0.149507  -0.001319
 370   4   7.246150  -1.348237   3.532722  -0.000397   0.149507  -0.002655
 371   4   7.328991  -0.889586   2.407546  -0.000199   0.083244  -0.002391
 372   9   2.690458   3.744613   6.325141  -0.000218   0.067974  -0.003207
 373   9   3.425601   3.407606   7.066630  -0.000421   0.150440  -0.002796
 374   9   4.686821   3.325208   7.472422  -0.000497   0.150440  -0.003304
 375   9   5.929754   3.659025   7.147125  -0.000519   0.150440  -0.003447
 376   9   6.654963   4.274922   6.221449  -0.000389   0.150440  -0.002585
 377   9   6.571045   4.925420   5.067351  -0.000472   0.150440  -0.003139
 378   9   5.711721   5.349135   4.148569  -0.000602   0.150440  -0.004000
 379   4   2.777863   3.218366   6.585398  -0.000341   0.149459  -0.002283
 380   4   3.982545   2.893850   7.402530  -0.000260   0.149459  -0.001738
 381   4   5.465725   3.042763   7.450206  -0.000316   0.149459  -0.002115
 382   4   6.631433   3.605267   6.709270  -0.000256   0.149459  -0.001712
 383   4   7.011262   4.355338   5.477444  -0.000209   0.149459  -0.001398
 384   4   6.452591   4.991582   4.249701  -0.000270   0.149459  -0.001806
 385   4   5.505270   5.278365   3.551926  -0.000177   0.083046  -0.002134
 386  10   3.669350  -2.092407   4.056972  -0.000284   0.070257  -0.004043
 387  10   4.561377  -2.197920   4.745650  -0.000583   0.156592  -0.003723
 388  10   5.204821  -1.810359   5.888112  -0.000449   0.156592  -0.002870
 389  10   5.083700  -0.963169   6.954433  -0.000551   0.156592  -0.003518
 390  10   4.249949  -0.019626   7.487375  -0.000600   0.156592  -0.003828
 391  10   3.061082   0.615680   7.258413  -0.000461   0.156592  -0.002947
 392  10   2.151703   0.753734   6.598798  -0.000243   0.070257  -0.003459
 393   4   4.264019  -2.093268   3.959131  -0.000540   0.153434  -0.003521
 394   4   5.319356  -2.004524   5.071308  -0.000198   0.153434  -0.001288
 395   4   5.629810  -1.270621   6.384150  -0.000215   0.153434  -0.001401
 396   4   5.062260  -0.206257   7.334710  -0.000348   0.153434  -0.002270
 397   4   3.860070   0.732169   7.515387  -0.000321   0.153434  -0.002092
 398   4   2.538740   1.142260   6.848708  -0.000296   0.153434  -0.001928
 399  10   1.536130   0.422217   6.127078  -0.000319   0.236406  -0.001349
 400  10   1.522744  -0.574402   5.694108  -0.001828   0.472707  -0.003866
 401  10   1.876781  -1.405707   4.720571  -0.001989   0.472707  -0.004207
 402   5   0.259332   0.375957   5.233508  -0.002789   0.472707  -0.005901
 403   5   0.390575  -0.729144   4.508447  -0.003087   0.472707  -0.006531
 404   5   0.779562  -1.231280   3.626722  -0.001117   0.236406  -0.004726
 =====================================================

              1191270  WORDS OF DYNAMIC MEMORY USED
 EXECUTION OF GAMESS TERMINATED NORMALLY Fri Nov 25 05:00:13 2016
 DDI: 263640 bytes (0.3 MB / 0 MWords) used by master data server.

 ----------------------------------------
 CPU timing information for all processes
 ========================================
 0: 247.312 + 0.172 = 247.484
 ----------------------------------------
 ddikick.x: exited gracefully.
