----- GAMESS execution script -----

          ******************************************************
          *         GAMESS VERSION =  5 DEC 2014 (R1)          *
          *             FROM IOWA STATE UNIVERSITY             *
          * M.W.SCHMIDT, K.K.BALDRIDGE, J.A.BOATZ, S.T.ELBERT, *
          *   M.S.GORDON, J.H.JENSEN, S.KOSEKI, N.MATSUNAGA,   *
          *          K.A.NGUYEN, S.J.SU, T.L.WINDUS,           *
          *       TOGETHER WITH M.DUPUIS, J.A.MONTGOMERY       *
          *         J.COMPUT.CHEM.  14, 1347-1363(1993)        *
          **************** 64 BIT LINUX VERSION ****************

 EXECUTION OF GAMESS BEGUN Fri Nov 25 05:44:27 2016

            ECHO OF THE FIRST FEW INPUT CARDS -
 INPUT CARD>! SELECT RESTRICTED HARTREE-FOCK AS DEFAULT                                     
 INPUT CARD>$contrl scftyp=rhf $end                                                         
 INPUT CARD>                                                                                
 INPUT CARD>! THEORY: HF OR DFT                                                             
 INPUT CARD> $contrl mplevl=0 $end                                                          
 INPUT CARD>                                                                                
 INPUT CARD> $system timlim=10000 mwords=20 $end                                            
 INPUT CARD> $SCF DIRSCF=.TRUE. $end                                                        
 INPUT CARD>                                                                                
 INPUT CARD>                                                                                
 INPUT CARD>! BASIS SETS                                                                    
 INPUT CARD>! 6-311G(d,p)                                                                   
 INPUT CARD> $BASIS GBASIS=N311 NGAUSS=6 NDFUNC=1 NPFUNC=1 $END                             
 INPUT CARD>                                                                                
 INPUT CARD>! One of the following                                                          
 INPUT CARD> $guess guess=HUCKEL $end                                                       
 INPUT CARD>                                                                                
 INPUT CARD> $statpt projct=.FALSE. $end                                                    
 INPUT CARD> $STATPT IFREEZ(1)=1,2,3 $END                                                   
 INPUT CARD>                                                                                
 INPUT CARD>! Optimize the geometry with COSMO effects                                      
 INPUT CARD> $statpt opttol=0.0005 nstep=50 $end                                            
 INPUT CARD> $contrl nzvar=1 $end                                                           
 INPUT CARD> $zmat dlc=.t. auto=.t. $end                                                    
 INPUT CARD> $contrl runtyp=OPTIMIZE maxit=200 $end                                         
 INPUT CARD>                                                                                
 INPUT CARD>! Run COSMO on perfect conductor                                                
 INPUT CARD> $COSGMS PRFCND=.TRUE. $end                                                     
 INPUT CARD>                                                                                
 INPUT CARD>! Specifying RSOLV                                                              
 INPUT CARD> $COSGMS COSRAD = 1.4 $end                                                      
 INPUT CARD>                                                                                
 INPUT CARD>! available memory                                                              
 INPUT CARD> $SYSTEM MWORDS=40 $END                                                         
 INPUT CARD>                                                                                
 INPUT CARD> $DATA                                                                          
 INPUT CARD>http://cactus.nci.nih.gov/chemical/structure/N-TETRADECANOIC%20ACID/file?format=
 INPUT CARD>C1                                                                              
 INPUT CARD>C      6.0      0.7123000000   -0.5611000000    0.0000000000                    
 INPUT CARD>C      6.0     -0.5097000000    0.3595000000    0.0000000000                    
 INPUT CARD>C      6.0      1.9877000000    0.2841000000    0.0000000000                    
 INPUT CARD>C      6.0     -1.7850000000   -0.4858000000    0.0000000000                    
 INPUT CARD>C      6.0      3.2097000000   -0.6365000000    0.0000000000                    
 INPUT CARD>C      6.0     -3.0070000000    0.4349000000    0.0000000000                    
 INPUT CARD>C      6.0      4.4850000000    0.2088000000    0.0000000000                    
 INPUT CARD>C      6.0     -4.2823000000   -0.4104000000    0.0000000000                    
 INPUT CARD>C      6.0      5.7070000000   -0.7119000000    0.0000000000                    
 INPUT CARD>C      6.0     -5.5044000000    0.5102000000    0.0000000000                    
 INPUT CARD>C      6.0     -6.7797000000   -0.3350000000    0.0000000000                    
 INPUT CARD>C      6.0     -8.0017000000    0.5856000000    0.0000000000                    
   40000000 WORDS OF MEMORY AVAILABLE

     BASIS OPTIONS
     -------------
     GBASIS=N311         IGAUSS=       6      POLAR=POPN311 
     NDFUNC=       1     NFFUNC=       0     DIFFSP=       F
     NPFUNC=       1      DIFFS=       F     BASNAM=        


     RUN TITLE
     ---------
 http://cactus.nci.nih.gov/chemical/structure/N-TETRADECANOIC%20ACID/file?format=

 THE POINT GROUP OF THE MOLECULE IS C1      
 THE ORDER OF THE PRINCIPAL AXIS IS     0

 ATOM      ATOMIC                      COORDINATES (BOHR)
           CHARGE         X                   Y                   Z
 C           6.0     1.3460518211       -1.0603252517        0.0000000000
 C           6.0    -0.9631933359        0.6793564926        0.0000000000
 C           6.0     3.7562083458        0.5368711531        0.0000000000
 C           6.0    -3.3731608881       -0.9180288848        0.0000000000
 C           6.0     6.0654535028       -1.2028105912        0.0000000000
 C           6.0    -5.6824060451        0.8218418321        0.0000000000
 C           6.0     8.4754210549        0.3945747862        0.0000000000
 C           6.0    -8.0923735972       -0.7755435454        0.0000000000
 C           6.0    10.7846662119       -1.3452959307        0.0000000000
 C           6.0   -10.4018077268        0.9641381989        0.0000000000
 C           6.0   -12.8117752790       -0.6330582059        0.0000000000
 C           6.0   -15.1210204360        1.1066235384        0.0000000000
 C           6.0   -17.5309879881       -0.4905728664        0.0000000000
 O           8.0    13.0177554116        2.5069104953        0.0000000000
 O           8.0    15.4292347446       -0.9023441591        0.0000000000
 C           6.0    13.1585399977        0.2280899267        0.0000000000
 H           1.0    16.8975518370        0.1855710920        0.0000000000
 H           1.0     1.3103359999       -2.2489628980        1.6818561291
 H           1.0     1.3103359999       -2.2489628980       -1.6818561291
 H           1.0    -0.9272885422        1.8679941389        1.6818561291
 H           1.0    -0.9272885422        1.8679941389       -1.6818561291
 H           1.0     3.7921131396        1.7256977720       -1.6818561291
 H           1.0     3.7921131396        1.7256977720        1.6818561291
 H           1.0    -3.4090656819       -2.1066665311       -1.6818561291
 H           1.0    -3.4090656819       -2.1066665311        1.6818561291
 H           1.0     6.0295487090       -2.3914482375        1.6818561291
 H           1.0     6.0295487090       -2.3914482375       -1.6818561291
 H           1.0    -5.6465012513        2.0104794783        1.6818561291
 H           1.0    -5.6465012513        2.0104794783       -1.6818561291
 H           1.0     8.5113258487        1.5832124325       -1.6818561291
 H           1.0     8.5113258487        1.5832124325        1.6818561291
 H           1.0    -8.1282783910       -1.9641811916       -1.6818561291
 H           1.0    -8.1282783910       -1.9641811916        1.6818561291
 H           1.0    10.7487614182       -2.5339335769        1.6818561291
 H           1.0    10.7487614182       -2.5339335769       -1.6818561291
 H           1.0   -10.3659029330        2.1529648178        1.6818561291
 H           1.0   -10.3659029330        2.1529648178       -1.6818561291
 H           1.0   -12.8476800727       -1.8216958522       -1.6818561291
 H           1.0   -12.8476800727       -1.8216958522        1.6818561291
 H           1.0   -15.0851156422        2.2952611847        1.6818561291
 H           1.0   -15.0851156422        2.2952611847       -1.6818561291
 H           1.0   -17.5668927819       -1.6793994853       -1.6818561291
 H           1.0   -17.5668927819       -1.6793994853        1.6818561291
 H           1.0   -19.1761834330        0.7487094363        0.0000000000

          INTERNUCLEAR DISTANCES (ANGS.)




     $CONTRL OPTIONS
     ---------------
 SCFTYP=RHF          RUNTYP=OPTIMIZE     EXETYP=RUN     
 MPLEVL=       0     CITYP =NONE         CCTYP =NONE         VBTYP =NONE    
 DFTTYP=NONE         TDDFT =NONE    
 MULT  =       1     ICHARG=       0     NZVAR =       1     COORD =UNIQUE  
 PP    =NONE         RELWFN=NONE         LOCAL =NONE         NUMGRD=       F
 ISPHER=      -1     NOSYM =       0     MAXIT =     200     UNITS =ANGS    
 PLTORB=       F     MOLPLT=       F     AIMPAC=       F     FRIEND=        
 NPRINT=       7     IREST =       0     GEOM  =INPUT   
 NORMF =       0     NORMP =       0     ITOL  =      20     ICUT  =       9
 INTTYP=BEST         GRDTYP=BEST         QMTTOL= 1.0E-06

     $SYSTEM OPTIONS
     ---------------
  REPLICATED MEMORY=    40000000 WORDS (ON EVERY NODE).
 DISTRIBUTED MEMDDI=           0 MILLION WORDS IN AGGREGATE,
 MEMDDI DISTRIBUTED OVER   1 PROCESSORS IS           0 WORDS/PROCESSOR.
 TOTAL MEMORY REQUESTED ON EACH PROCESSOR=    40000000 WORDS.
 TIMLIM=       10000.00 MINUTES, OR       6.9 DAYS.
 PARALL= F  BALTYP=  DLB     KDIAG=    0  COREFL= F
 MXSEQ2=     300 MXSEQ3=     150  mem10=         0

     $COSGMS OPTIONS
     ---------------
     EPSI  =   INFTY     NSPA  =      92     COSRAD=    1.40
     DISEX =   10.00     OUTCHG=DBLCAV       COSBUG=       F
     COSWRT=       F     DCOSMO=       F

     SYMMETRY COORDINATES WILL NOT BE USED FOR 
     THE COSMO CALCULATION, EVEN IF SPECIFIED:
         -- SWITCHING TO C1 POINT GROUP --


     DEFINITION OF CAVITY
     ---------------------------
     ATOM         COORDINATES           RADIUS 
     1    1.3461   -1.0603    0.0000    2.0000
     2   -0.9632    0.6794    0.0000    2.0000
     3    3.7562    0.5369    0.0000    2.0000
     4   -3.3732   -0.9180    0.0000    2.0000
     5    6.0655   -1.2028    0.0000    2.0000
     6   -5.6824    0.8218    0.0000    2.0000
     7    8.4754    0.3946    0.0000    2.0000
     8   -8.0924   -0.7755    0.0000    2.0000
     9   10.7847   -1.3453    0.0000    2.0000
    10  -10.4018    0.9641    0.0000    2.0000
    11  -12.8118   -0.6331    0.0000    2.0000
    12  -15.1210    1.1066    0.0000    2.0000
    13  -17.5310   -0.4906    0.0000    2.0000
    14   13.0178    2.5069    0.0000    1.7200
    15   15.4292   -0.9023    0.0000    1.7200
    16   13.1585    0.2281    0.0000    2.0000
    17   16.8976    0.1856    0.0000    1.3000
    18    1.3103   -2.2490    1.6819    1.3000
    19    1.3103   -2.2490   -1.6819    1.3000
    20   -0.9273    1.8680    1.6819    1.3000
    21   -0.9273    1.8680   -1.6819    1.3000
    22    3.7921    1.7257   -1.6819    1.3000
    23    3.7921    1.7257    1.6819    1.3000
    24   -3.4091   -2.1067   -1.6819    1.3000
    25   -3.4091   -2.1067    1.6819    1.3000
    26    6.0295   -2.3914    1.6819    1.3000
    27    6.0295   -2.3914   -1.6819    1.3000
    28   -5.6465    2.0105    1.6819    1.3000
    29   -5.6465    2.0105   -1.6819    1.3000
    30    8.5113    1.5832   -1.6819    1.3000
    31    8.5113    1.5832    1.6819    1.3000
    32   -8.1283   -1.9642   -1.6819    1.3000
    33   -8.1283   -1.9642    1.6819    1.3000
    34   10.7488   -2.5339    1.6819    1.3000
    35   10.7488   -2.5339   -1.6819    1.3000
    36  -10.3659    2.1530    1.6819    1.3000
    37  -10.3659    2.1530   -1.6819    1.3000
    38  -12.8477   -1.8217   -1.6819    1.3000
    39  -12.8477   -1.8217    1.6819    1.3000
    40  -15.0851    2.2953    1.6819    1.3000
    41  -15.0851    2.2953   -1.6819    1.3000
    42  -17.5669   -1.6794   -1.6819    1.3000
    43  -17.5669   -1.6794    1.6819    1.3000
    44  -19.1762    0.7487    0.0000    1.3000

          ----------------
          PROPERTIES INPUT
          ----------------

     MOMENTS            FIELD           POTENTIAL          DENSITY
 IEMOM =       1   IEFLD =       0   IEPOT =       0   IEDEN =       0
 WHERE =COMASS     WHERE =NUCLEI     WHERE =NUCLEI     WHERE =NUCLEI  
 OUTPUT=BOTH       OUTPUT=BOTH       OUTPUT=BOTH       OUTPUT=BOTH    
 IEMINT=       0   IEFINT=       0                     IEDINT=       0
                                                       MORB  =       0
          EXTRAPOLATION IN EFFECT
          SOSCF IN EFFECT
 ORBITAL PRINTING OPTION: NPREO=     1   472     2     1

     -------------------------------
     INTEGRAL TRANSFORMATION OPTIONS
     -------------------------------
     NWORD  =            0
     CUTOFF = 1.0E-09     MPTRAN =       0
     DIRTRF =       T     AOINTS =DUP     

          ----------------------
          INTEGRAL INPUT OPTIONS
          ----------------------
 NOPK  =       1 NORDER=       0 SCHWRZ=       T


 -----------------------------------------------
  STATISTICS ON AUTOMATIC COORDINATE GENERATION 
 -----------------------------------------------
  NUMBER OF USER SPECIFIED BONDS                             0
  NUMBER OF BONDS                                           43
  NUMBER OF ANGLES                                          82
  NUMBER OF TORSIONS                                       116
  NUMBER OF EXTRA COORD.                                     0
  NUMBER OF EXTRA COORD. FOR CONSTRAINTS                     0
  NUMBER OF CONSTRAINED COORD.                               0

  TOTAL NUMBER OF PRIMITIVES                               241
 -----------------------------------------------

   --- ENCODED Z MATRIX ---
 COORD  TYPE   I   J   K   L   M   N
    1      1    1   2
    2      1    1  18
    3      1    1   3
    4      1    1  19
    5      1    2  21
    6      1    2  20
    7      1    2   4
    8      1    3  23
    9      1    3   5
   10      1    3  22
   11      1    4  25
   12      1    4  24
   13      1    4   6
   14      1    5  27
   15      1    5   7
   16      1    5  26
   17      1    6  28
   18      1    6   8
   19      1    6  29
   20      1    7  31
   21      1    7  30
   22      1    7   9
   23      1    8  32
   24      1    8  10
   25      1    8  33
   26      1    9  16
   27      1    9  35
   28      1    9  34
   29      1   10  11
   30      1   10  37
   31      1   10  36
   32      1   11  12
   33      1   11  39
   34      1   11  38
   35      1   12  13
   36      1   12  41
   37      1   12  40
   38      1   13  44
   39      1   13  43
   40      1   13  42
   41      1   14  16
   42      1   15  16
   43      1   15  17
   44      2    1   3  22
   45      2    1   3  23
   46      2    1   2  20
   47      2    1   2  21
   48      2    1   3   5
   49      2    1   2   4
   50      2    2   1   3
   51      2    2   4   6
   52      2    2   1  18
   53      2    2   4  25
   54      2    2   1  19
   55      2    2   4  24
   56      2    3   5  26
   57      2    3   1  19
   58      2    3   5   7
   59      2    3   5  27
   60      2    3   1  18
   61      2    4   6  28
   62      2    4   2  20
   63      2    4   6  29
   64      2    4   6   8
   65      2    4   2  21
   66      2    5   7   9
   67      2    5   7  31
   68      2    5   7  30
   69      2    5   3  23
   70      2    5   3  22
   71      2    6   8  32
   72      2    6   4  25
   73      2    6   8  33
   74      2    6   8  10
   75      2    6   4  24
   76      2    7   9  34
   77      2    7   9  35
   78      2    7   9  16
   79      2    7   5  27
   80      2    7   5  26
   81      2    8  10  36
   82      2    8  10  37
   83      2    8  10  11
   84      2    8   6  29
   85      2    8   6  28
   86      2    9  16  15
   87      2    9  16  14
   88      2    9   7  30
   89      2    9   7  31
   90      2   10  11  39
   91      2   10  11  12
   92      2   10   8  33
   93      2   10   8  32
   94      2   10  11  38
   95      2   11  10  36
   96      2   11  10  37
   97      2   11  12  41
   98      2   11  12  40
   99      2   11  12  13
  100      2   12  13  42
  101      2   12  13  44
  102      2   12  13  43
  103      2   12  11  38
  104      2   12  11  39
  105      2   13  12  40
  106      2   13  12  41
  107      2   14  16  15
  108      2   16   9  34
  109      2   16   9  35
  110      2   16  15  17
  111      2   18   1  19
  112      2   20   2  21
  113      2   22   3  23
  114      2   24   4  25
  115      2   26   5  27
  116      2   28   6  29
  117      2   30   7  31
  118      2   32   8  33
  119      2   34   9  35
  120      2   36  10  37
  121      2   38  11  39
  122      2   40  12  41
  123      2   42  13  43
  124      2   42  13  44
  125      2   43  13  44
  126      3    1   2   4   6
  127      3    1   2   4  24
  128      3    1   2   4  25
  129      3    1   3   5  26
  130      3    1   3   5   7
  131      3    1   3   5  27
  132      3    2   1   3   5
  133      3    2   1   3  22
  134      3    2   4   6  29
  135      3    2   4   6   8
  136      3    2   4   6  28
  137      3    2   1   3  23
  138      3    3   5   7   9
  139      3    3   5   7  30
  140      3    3   5   7  31
  141      3    3   1   2  21
  142      3    3   1   2   4
  143      3    3   1   2  20
  144      3    4   2   1  19
  145      3    4   6   8  33
  146      3    4   6   8  10
  147      3    4   6   8  32
  148      3    4   2   1  18
  149      3    5   3   1  19
  150      3    5   3   1  18
  151      3    5   7   9  34
  152      3    5   7   9  35
  153      3    5   7   9  16
  154      3    6   8  10  36
  155      3    6   8  10  37
  156      3    6   8  10  11
  157      3    6   4   2  20
  158      3    6   4   2  21
  159      3    7   5   3  22
  160      3    7   5   3  23
  161      3    7   9  16  15
  162      3    7   9  16  14
  163      3    8   6   4  24
  164      3    8   6   4  25
  165      3    8  10  11  38
  166      3    8  10  11  39
  167      3    8  10  11  12
  168      3    9   7   5  26
  169      3    9   7   5  27
  170      3    9  16  15  17
  171      3   10   8   6  29
  172      3   10   8   6  28
  173      3   10  11  12  40
  174      3   10  11  12  41
  175      3   10  11  12  13
  176      3   11  12  13  42
  177      3   11  12  13  44
  178      3   11  10   8  33
  179      3   11  10   8  32
  180      3   11  12  13  43
  181      3   12  11  10  36
  182      3   12  11  10  37
  183      3   13  12  11  38
  184      3   13  12  11  39
  185      3   14  16  15  17
  186      3   14  16   9  34
  187      3   14  16   9  35
  188      3   15  16   9  34
  189      3   15  16   9  35
  190      3   16   9   7  30
  191      3   16   9   7  31
  192      3   18   1   2  20
  193      3   18   1   3  22
  194      3   18   1   2  21
  195      3   18   1   3  23
  196      3   19   1   3  22
  197      3   19   1   2  21
  198      3   19   1   3  23
  199      3   19   1   2  20
  200      3   20   2   4  24
  201      3   20   2   4  25
  202      3   21   2   4  24
  203      3   21   2   4  25
  204      3   22   3   5  27
  205      3   22   3   5  26
  206      3   23   3   5  27
  207      3   23   3   5  26
  208      3   24   4   6  29
  209      3   24   4   6  28
  210      3   25   4   6  29
  211      3   25   4   6  28
  212      3   26   5   7  30
  213      3   26   5   7  31
  214      3   27   5   7  30
  215      3   27   5   7  31
  216      3   28   6   8  33
  217      3   28   6   8  32
  218      3   29   6   8  33
  219      3   29   6   8  32
  220      3   30   7   9  35
  221      3   30   7   9  34
  222      3   31   7   9  35
  223      3   31   7   9  34
  224      3   32   8  10  37
  225      3   32   8  10  36
  226      3   33   8  10  37
  227      3   33   8  10  36
  228      3   36  10  11  38
  229      3   36  10  11  39
  230      3   37  10  11  38
  231      3   37  10  11  39
  232      3   38  11  12  40
  233      3   38  11  12  41
  234      3   39  11  12  40
  235      3   39  11  12  41
  236      3   40  12  13  43
  237      3   40  12  13  44
  238      3   40  12  13  42
  239      3   41  12  13  43
  240      3   41  12  13  44
  241      3   41  12  13  42

          INDEP./SYM. INTERNAL COORDINATES
          --------------------------------
 CRD  1=  -0.2758 ( 48) -0.3371 ( 49)  0.3180 ( 50)  0.3322 ( 51)  0.2192 ( 58)
          -0.3035 ( 64) -0.1519 ( 66)  0.2535 ( 74) -0.1911 ( 83)  0.1210 ( 91)
 CRD  2=   0.2639 (126)  0.1154 (127)  0.1154 (128) -0.1013 (129) -0.2066 (130)
          -0.1013 (131)  0.2320 (132)  0.1073 (133) -0.1230 (134) -0.2663 (135)
          -0.1230 (136)  0.1073 (137)  0.1403 (138) -0.1183 (141) -0.2734 (142)
          -0.1183 (143) -0.1248 (144)  0.1026 (145)  0.2189 (146)  0.1026 (147)
          -0.1248 (148) -0.1043 (153) -0.1882 (156)  0.1141 (157)  0.1141 (158)
          -0.1138 (163) -0.1138 (164)  0.1195 (167)
 CRD  3=   0.2751 ( 48) -0.1907 ( 50)  0.1061 ( 51) -0.3278 ( 58) -0.2483 ( 64)
           0.2797 ( 66)  0.2998 ( 74) -0.2105 ( 78) -0.3135 ( 83)  0.2322 ( 91)
          -0.1408 ( 99)
 CRD  4=  -0.2721 (  1) -0.2488 (  3) -0.2699 (  7) -0.2182 (  9) -0.2717 ( 13)
          -0.1845 ( 15) -0.2490 ( 18) -0.1275 ( 22) -0.2173 ( 24) -0.1844 ( 29)
          -0.1266 ( 32) -0.2037 ( 48) -0.2082 ( 49) -0.1638 ( 50) -0.2105 ( 51)
          -0.1238 ( 58) -0.1624 ( 64) -0.1186 ( 66) -0.2028 ( 74) -0.1259 ( 83)
          -0.1145 ( 91)
 CRD  5=   0.2857 ( 49) -0.1879 ( 50) -0.2493 ( 51)  0.2101 ( 58) -0.3041 ( 66)
           0.1195 ( 74)  0.3033 ( 78) -0.2944 ( 83) -0.1373 ( 86)  0.3004 ( 91)
          -0.2293 ( 99)
 CRD  6=  -0.1243 ( 46)  0.1243 ( 47) -0.1173 ( 52)  0.1111 ( 53)  0.1173 ( 54)
          -0.1111 ( 55) -0.1016 ( 57)  0.1016 ( 60) -0.1196 ( 61)  0.1108 ( 62)
           0.1196 ( 63) -0.1108 ( 65) -0.1019 ( 71) -0.1254 ( 72)  0.1019 ( 73)
           0.1254 ( 75) -0.1041 ( 84)  0.1041 ( 85) -0.1027 ( 92)  0.1027 ( 93)
          -0.2066 (126) -0.1210 (127) -0.1210 (128) -0.1317 (130) -0.1746 (132)
          -0.1145 (133) -0.1542 (135) -0.1145 (137) -0.1521 (142) -0.1166 (145)
          -0.1800 (146) -0.1166 (147) -0.1376 (156) -0.1222 (157) -0.1222 (158)
          -0.1094 (167)
 CRD  7=  -0.1111 (129) -0.2558 (130) -0.1111 (131)  0.1870 (132)  0.1470 (135)
           0.2325 (138)  0.1112 (139)  0.1112 (140) -0.2157 (146) -0.1067 (151)
          -0.1067 (152) -0.2100 (153)  0.1195 (154)  0.1195 (155)  0.2612 (156)
          -0.1234 (159) -0.1234 (160)  0.1303 (161) -0.1056 (165) -0.1056 (166)
          -0.2104 (167) -0.1067 (171) -0.1067 (172)  0.1663 (175)  0.1201 (178)
           0.1201 (179)
 CRD  8=   0.2480 ( 48) -0.2859 ( 50)  0.1698 ( 51) -0.3166 ( 64) -0.2014 ( 66)
           0.1392 ( 74)  0.3301 ( 78) -0.1691 ( 86)  0.1242 ( 87) -0.2996 ( 91)
           0.2905 ( 99)
 CRD  9=  -0.1085 (  1) -0.1771 (  3) -0.2410 (  9)  0.1106 ( 13) -0.2527 ( 15)
           0.1795 ( 18) -0.2026 ( 22)  0.2346 ( 24) -0.1476 ( 26)  0.2579 ( 29)
           0.2009 ( 32)  0.1507 ( 35) -0.2204 ( 48) -0.1442 ( 50) -0.1130 ( 58)
          -0.2203 ( 66)  0.2466 ( 74) -0.1914 ( 78)  0.1331 ( 83)  0.1693 ( 91)
           0.2287 ( 99)
 CRD 10=  -0.1713 ( 48)  0.2952 ( 49) -0.2065 ( 51) -0.1032 ( 56)  0.3133 ( 58)
          -0.1032 ( 59) -0.1057 ( 62) -0.1674 ( 64) -0.1057 ( 65)  0.2190 ( 74)
          -0.2608 ( 78) -0.1853 ( 83)  0.1813 ( 86) -0.1237 ( 87) -0.2472 ( 91)
          -0.1034 ( 97) -0.1034 ( 98)  0.2817 ( 99)
 CRD 11=  -0.1074 ( 90)  0.1074 ( 94)  0.1129 (100) -0.1129 (102)  0.1842 (126)
          -0.1035 (134) -0.1391 (135) -0.1035 (136) -0.2422 (138) -0.1104 (139)
          -0.1104 (140) -0.2204 (142) -0.1228 (144) -0.1228 (148)  0.2126 (153)
           0.1861 (156) -0.2091 (161) -0.1085 (162) -0.1752 (167) -0.1278 (168)
          -0.1278 (169)  0.1212 (170)  0.1457 (173)  0.1457 (174)  0.2579 (175)
           0.1264 (178)  0.1264 (179)  0.1078 (183)  0.1078 (184)  0.1020 (190)
           0.1020 (191)
 CRD 12=  -0.1553 (  1) -0.1833 (  7) -0.1561 ( 13)  0.1496 ( 15)  0.1819 ( 22)
           0.1635 ( 26)  0.1524 ( 29)  0.1738 ( 32)  0.1818 ( 35) -0.2199 ( 49)
          -0.2946 ( 51)  0.2812 ( 66) -0.1046 ( 67) -0.1046 ( 68)  0.1061 ( 72)
           0.1061 ( 75)  0.2422 ( 78)  0.1962 ( 91)  0.3208 ( 99) -0.1082 (105)
          -0.1082 (106)
 CRD 13=   0.1061 ( 56) -0.1061 ( 59) -0.1263 ( 67)  0.1263 ( 68)  0.1218 ( 69)
          -0.1218 ( 70)  0.1204 ( 79) -0.1204 ( 80) -0.1418 ( 81)  0.1418 ( 82)
          -0.1233 ( 92)  0.1233 ( 93)  0.1188 (103) -0.1188 (104)  0.1639 (130)
           0.1805 (132)  0.1110 (138) -0.1635 (146)  0.1143 (149)  0.1143 (150)
           0.1294 (151)  0.1294 (152)  0.1901 (153)  0.1169 (159)  0.1169 (160)
          -0.1445 (165) -0.1445 (166) -0.2368 (167) -0.1265 (171) -0.1265 (172)
          -0.1209 (181) -0.1209 (182)
 CRD 14=  -0.1151 (  1) -0.1417 (  7) -0.1101 ( 13)  0.1406 ( 15)  0.1330 ( 22)
           0.1405 ( 29)  0.1406 ( 32) -0.3144 ( 50) -0.1201 ( 56)  0.1131 ( 57)
           0.3542 ( 58) -0.1201 ( 59)  0.1131 ( 60) -0.2430 ( 64) -0.1143 ( 74)
          -0.1095 ( 78) -0.1287 ( 81) -0.1287 ( 82)  0.3352 ( 83)  0.1668 ( 86)
           0.2037 ( 91) -0.1563 ( 99)
 CRD 15=  -0.1494 (  3) -0.1076 (  9)  0.1405 ( 18)  0.1280 ( 22)  0.1229 ( 24)
           0.1305 ( 26) -0.1111 ( 32) -0.1618 ( 35) -0.3260 ( 48)  0.1119 ( 49)
          -0.1044 ( 58)  0.2742 ( 66) -0.1156 ( 67) -0.1156 ( 68)  0.1038 ( 69)
           0.1038 ( 70)  0.2798 ( 74)  0.1842 ( 78)  0.1991 ( 83)  0.1071 ( 90)
          -0.2111 ( 91)  0.1071 ( 94) -0.1073 ( 95) -0.1073 ( 96) -0.2755 ( 99)
 CRD 16=   0.1647 (  1)  0.1340 (  3) -0.1571 ( 13) -0.1604 ( 18) -0.1007 ( 22)
           0.1021 ( 29)  0.1147 ( 32)  0.2770 ( 49)  0.3175 ( 50) -0.1810 ( 51)
           0.1181 ( 53)  0.1181 ( 55) -0.1178 ( 57) -0.1912 ( 58) -0.1178 ( 60)
           0.1132 ( 61) -0.1352 ( 62)  0.1132 ( 63) -0.3874 ( 64) -0.1352 ( 65)
          -0.1018 ( 81) -0.1018 ( 82)  0.2342 ( 83)  0.1236 ( 84)  0.1236 ( 85)
          -0.1233 ( 86)  0.1284 ( 91)
 CRD 17=  -0.1111 (  3)  0.1684 (  7) -0.1304 (  9) -0.1461 ( 24) -0.1234 ( 46)
          -0.1234 ( 47) -0.3068 ( 48)  0.2605 ( 49) -0.1443 ( 50)  0.3278 ( 51)
           0.1006 ( 52)  0.1006 ( 54)  0.1732 ( 66)  0.1131 ( 71) -0.1287 ( 72)
           0.1131 ( 73) -0.3176 ( 74) -0.1287 ( 75) -0.1425 ( 83)  0.1450 ( 91)
           0.1513 ( 99)
 CRD 18=  -0.1050 ( 46)  0.1050 ( 47)  0.1233 ( 53) -0.1233 ( 55) -0.1050 ( 72)
           0.1050 ( 75)  0.1457 ( 76) -0.1457 ( 77)  0.1011 ( 79) -0.1011 ( 80)
          -0.1312 ( 88)  0.1312 ( 89) -0.1240 ( 90)  0.1240 ( 94)  0.1665 (100)
          -0.1665 (102) -0.1220 (105)  0.1220 (106) -0.1550 (126) -0.1019 (127)
          -0.1019 (128)  0.1109 (130) -0.1111 (134) -0.1800 (135) -0.1111 (136)
           0.1861 (138)  0.1767 (161)  0.1615 (162)  0.1014 (167)  0.1328 (168)
           0.1328 (169)  0.1189 (173)  0.1189 (174)  0.2164 (175)  0.1255 (183)
           0.1255 (184)
 CRD 19=   0.1433 (100) -0.1433 (102)  0.1012 (103) -0.1012 (104)  0.1026 (108)
          -0.1026 (109)  0.1178 (126)  0.1039 (129)  0.1039 (131) -0.1548 (132)
          -0.1355 (135)  0.1218 (141)  0.1812 (142)  0.1218 (143)  0.1170 (145)
           0.1468 (146)  0.1170 (147) -0.1131 (151) -0.1131 (152) -0.2496 (153)
           0.1683 (161) -0.1018 (163) -0.1018 (164) -0.2118 (167) -0.1584 (170)
           0.1538 (175) -0.1179 (176) -0.1657 (177) -0.1179 (180) -0.1406 (181)
          -0.1406 (182) -0.1475 (190) -0.1475 (191)
 CRD 20=  -0.1033 (  9)  0.3872 ( 26) -0.1248 ( 41)  0.1367 ( 42)  0.1866 ( 43)
          -0.1586 ( 58) -0.2104 ( 66) -0.1412 ( 76) -0.1412 ( 77)  0.1584 ( 78)
           0.5411 ( 86) -0.1304 ( 87)  0.1102 ( 88)  0.1102 ( 89) -0.4107 (107)
          -0.1732 (110)  0.1024 (221) -0.1024 (222)
 CRD 21=  -0.1311 ( 52)  0.1311 ( 54) -0.1123 ( 57)  0.1123 ( 60)  0.1192 ( 61)
          -0.1192 ( 63)  0.1216 ( 71) -0.1216 ( 73)  0.1738 ( 76) -0.1738 ( 77)
           0.1072 ( 84) -0.1072 ( 85) -0.1232 ( 88)  0.1232 ( 89)  0.1281 ( 97)
          -0.1281 ( 98) -0.1773 (100)  0.1773 (102)  0.1089 (103) -0.1089 (104)
           0.1283 (105) -0.1283 (106) -0.1798 (132) -0.1152 (133) -0.1152 (137)
          -0.1140 (142)  0.1043 (145)  0.1388 (146)  0.1043 (147)  0.1082 (154)
           0.1082 (155)  0.1261 (156)  0.1846 (161)  0.1846 (162) -0.1087 (167)
           0.1101 (168)  0.1101 (169) -0.1065 (175) -0.1032 (176) -0.1032 (180)
          -0.1067 (181) -0.1067 (182) -0.1031 (183) -0.1031 (184)
 CRD 22=   0.1299 ( 15) -0.1540 ( 22) -0.4776 ( 42) -0.1840 ( 43)  0.4188 ( 87)
          -0.3628 (107) -0.5807 (110)
 CRD 23=   0.1143 ( 44) -0.1143 ( 45)  0.1051 ( 53) -0.1051 ( 55) -0.1076 ( 95)
           0.1076 ( 96) -0.3315 (100)  0.3315 (102)  0.1137 (108) -0.1137 (109)
           0.1108 (124) -0.1108 (125)  0.1357 (129)  0.1949 (130)  0.1357 (131)
          -0.1207 (134) -0.1414 (135) -0.1207 (136) -0.1064 (146) -0.1592 (153)
           0.1836 (156)  0.1085 (161) -0.1425 (170)  0.1486 (177)  0.1261 (178)
           0.1261 (179) -0.1332 (190) -0.1332 (191)
 CRD 24=   0.1461 (  1) -0.1233 (  3) -0.1663 (  7)  0.1007 (  9)  0.1705 ( 13)
          -0.1978 ( 18)  0.2351 ( 24) -0.1500 ( 29)  0.1897 ( 32) -0.4913 ( 35)
           0.1030 ( 99) -0.3017 (101) -0.1546 (105) -0.1546 (106)  0.1095 (123)
           0.1720 (124)  0.1720 (125)  0.1028 (233) -0.1028 (234)
 CRD 25=  -0.2225 (  1)  0.2168 (  3)  0.2154 (  7) -0.1884 (  9) -0.2142 ( 13)
           0.1519 ( 15)  0.1768 ( 18) -0.1257 ( 22)  0.1445 ( 29) -0.1177 ( 32)
          -0.3623 ( 35)  0.1232 ( 91) -0.3856 (101)  0.1610 (124)  0.1610 (125)
 CRD 26=  -0.1448 (  1)  0.2151 (  3) -0.2432 (  9)  0.2422 ( 15) -0.1444 ( 18)
          -0.2337 ( 22)  0.1744 ( 24)  0.1116 ( 26) -0.2661 ( 29)  0.3518 ( 32)
          -0.1279 (100)  0.2775 (101) -0.1279 (102)  0.1175 (103)  0.1175 (104)
           0.1208 (110)  0.1021 (123)
 CRD 27=   0.1619 (  1) -0.2573 (  7) -0.1163 (  9)  0.2577 ( 13)  0.2331 ( 15)
          -0.1759 ( 18) -0.3142 ( 22)  0.1607 ( 26)  0.1023 ( 29) -0.3217 ( 32)
           0.1122 ( 35)  0.1530 (100) -0.1988 (101)  0.1530 (102)  0.1184 (110)
          -0.1343 (123)
 CRD 28=   0.1011 ( 44) -0.1011 ( 45) -0.1244 ( 46)  0.1244 ( 47)  0.1159 ( 56)
          -0.1159 ( 59)  0.1458 ( 69) -0.1458 ( 70)  0.1004 ( 71) -0.1048 ( 72)
          -0.1004 ( 73)  0.1048 ( 75) -0.1931 ( 76)  0.1931 ( 77)  0.1524 ( 92)
          -0.1524 ( 93)  0.1770 ( 97) -0.1770 ( 98)  0.1163 (105) -0.1163 (106)
           0.1213 (108) -0.1213 (109) -0.1829 (126) -0.1151 (127) -0.1151 (128)
           0.1175 (139)  0.1175 (140)  0.1493 (146)  0.1287 (149)  0.1287 (150)
          -0.1962 (161) -0.1957 (162)  0.1415 (171)  0.1415 (172) -0.1531 (176)
          -0.1470 (177) -0.1531 (180)
 CRD 29=   0.2515 (  1) -0.2604 (  3)  0.1393 (  9) -0.1140 ( 13)  0.2533 ( 18)
          -0.3096 ( 22) -0.2780 ( 24)  0.1873 ( 26)  0.1102 ( 29)  0.2039 ( 32)
          -0.1346 ( 35)  0.1100 ( 41) -0.1468 (100)  0.1617 (101) -0.1468 (102)
           0.1303 (123)
 CRD 30=   0.1932 (  3) -0.2736 (  7) -0.3060 (  9)  0.2312 ( 13)  0.1121 ( 15)
           0.2347 ( 22) -0.2818 ( 24) -0.1901 ( 26)  0.2571 ( 29) -0.1199 ( 35)
          -0.1089 ( 41) -0.1115 ( 87) -0.1311 (100)  0.1416 (101) -0.1311 (102)
           0.1157 (123)
 CRD 31=  -0.1105 ( 62)  0.1105 ( 65) -0.1276 ( 79)  0.1276 ( 80) -0.1354 ( 84)
           0.1354 ( 85) -0.1212 ( 90)  0.1212 ( 94) -0.1127 ( 95)  0.1127 ( 96)
          -0.2644 (100)  0.2644 (102) -0.1454 (108)  0.1454 (109)  0.1043 (124)
          -0.1043 (125) -0.1767 (130) -0.1267 (135)  0.1892 (142)  0.1194 (144)
           0.1194 (148) -0.1357 (159) -0.1357 (160) -0.1352 (163) -0.1352 (164)
           0.1346 (170)  0.1393 (173)  0.1393 (174)  0.1354 (190)  0.1354 (191)
 CRD 32=   0.3129 (  1) -0.1192 (  3) -0.2523 (  9) -0.2578 ( 13)  0.2591 ( 15)
           0.2550 ( 18)  0.1323 ( 22)  0.1133 ( 24) -0.1794 ( 26) -0.3036 ( 29)
          -0.1028 ( 41) -0.1251 ( 87)  0.1142 (100) -0.1294 (101)  0.1142 (102)
 CRD 33=   0.1001 ( 33) -0.1001 ( 34)  0.1410 ( 52) -0.1410 ( 54) -0.1374 ( 56)
           0.1374 ( 59) -0.1070 ( 61)  0.1070 ( 63) -0.1187 ( 72)  0.1187 ( 75)
           0.1705 ( 76) -0.1705 ( 77)  0.1146 ( 81) -0.1146 ( 82)  0.1306 ( 97)
          -0.1306 ( 98)  0.2385 (100) -0.2385 (102)  0.1080 (105) -0.1080 (106)
          -0.1155 (108)  0.1155 (109) -0.1100 (124)  0.1100 (125)  0.1222 (133)
           0.1222 (137) -0.1345 (138) -0.1279 (139) -0.1279 (140) -0.1191 (145)
          -0.1191 (147)  0.1768 (161)  0.1673 (162)  0.1139 (165)  0.1139 (166)
          -0.1150 (175) -0.1083 (177)
 CRD 34=   0.3281 (  3) -0.3238 (  7) -0.3086 ( 15)  0.3104 ( 18) -0.1071 ( 24)
           0.1677 ( 26) -0.2691 ( 29)  0.1334 ( 87)  0.1032 (100) -0.1266 (101)
           0.1032 (102)
 CRD 35=  -0.1064 ( 44)  0.1064 ( 45)  0.1080 ( 46) -0.1080 ( 47) -0.1009 ( 53)
           0.1009 ( 55) -0.1128 ( 57)  0.1128 ( 60) -0.1240 ( 61) -0.1171 ( 62)
           0.1240 ( 63)  0.1171 ( 65) -0.1372 ( 67)  0.1372 ( 68) -0.1460 ( 76)
           0.1460 ( 77)  0.1070 ( 79) -0.1070 ( 80)  0.1079 ( 81) -0.1079 ( 82)
          -0.1221 ( 84)  0.1221 ( 85) -0.1089 ( 95)  0.1089 ( 96)  0.1765 ( 97)
          -0.1765 ( 98)  0.1672 (105) -0.1672 (106)  0.1643 (108) -0.1643 (109)
           0.1044 (151)  0.1044 (152)  0.1044 (167) -0.1202 (176) -0.1093 (177)
          -0.1202 (180) -0.1009 (183) -0.1009 (184) -0.1145 (190) -0.1145 (191)
 CRD 36=   0.2938 (  1)  0.1051 (  2)  0.1874 (  3)  0.1051 (  4) -0.1994 (  9)
          -0.3180 ( 13) -0.1024 ( 14) -0.2615 ( 15) -0.1024 ( 16)  0.2657 ( 24)
           0.1654 ( 26)  0.1822 ( 29)  0.1007 ( 30)  0.1007 ( 31) -0.1393 ( 32)
           0.1079 ( 41)  0.1457 ( 87) -0.1046 (100)  0.1386 (101) -0.1046 (102)
 CRD 37=   0.1571 ( 46) -0.1571 ( 47)  0.1561 ( 53) -0.1561 ( 55) -0.1435 ( 62)
           0.1435 ( 65) -0.1733 ( 67)  0.1733 ( 68) -0.1613 ( 72)  0.1613 ( 75)
          -0.1189 ( 76)  0.1189 ( 77) -0.1745 ( 88)  0.1745 ( 89)  0.1968 ( 90)
          -0.1968 ( 94) -0.1356 ( 97)  0.1356 ( 98)  0.1881 (103) -0.1881 (104)
          -0.1452 (105)  0.1452 (106)  0.1251 (108) -0.1251 (109)  0.1048 (127)
           0.1048 (128)  0.1078 (151)  0.1078 (152) -0.1018 (157) -0.1018 (158)
           0.1127 (168)  0.1127 (169) -0.1286 (173) -0.1286 (174) -0.1149 (181)
          -0.1149 (182)
 CRD 38=  -0.1920 ( 44)  0.1920 ( 45)  0.1762 ( 52) -0.1762 ( 54)  0.1700 ( 57)
          -0.1700 ( 60) -0.1638 ( 61)  0.1638 ( 63) -0.2055 ( 69)  0.2055 ( 70)
           0.1879 ( 71) -0.1879 ( 73)  0.1137 ( 79) -0.1137 ( 80) -0.1555 ( 84)
           0.1555 ( 85)  0.1943 ( 92) -0.1943 ( 93)  0.1102 ( 95) -0.1102 ( 96)
          -0.1137 (129) -0.1137 (131)  0.1110 (133)  0.1110 (137)  0.1030 (141)
           0.1030 (143) -0.1057 (145) -0.1057 (147) -0.1348 (149) -0.1348 (150)
           0.1165 (154)  0.1165 (155)  0.1225 (171)  0.1225 (172)
 CRD 39=   0.1701 (  1) -0.1148 (  3)  0.1077 (  5)  0.1077 (  6)  0.2788 (  7)
          -0.2768 (  9) -0.1021 ( 14) -0.1426 ( 15) -0.1021 ( 16) -0.1871 ( 18)
           0.1155 ( 22) -0.1103 ( 23) -0.2724 ( 24) -0.1103 ( 25)  0.1675 ( 26)
           0.1904 ( 32)  0.1230 ( 41)  0.1132 ( 48) -0.1311 ( 49) -0.1098 ( 51)
           0.1272 ( 58)  0.1309 ( 74) -0.1004 ( 78)  0.1015 ( 83) -0.1013 ( 86)
           0.1573 ( 87) -0.1025 ( 99)  0.1111 (100) -0.1536 (101)  0.1111 (102)
 CRD 40=  -0.1122 ( 44)  0.1122 ( 45)  0.2033 ( 56) -0.2033 ( 59)  0.1760 ( 67)
          -0.1760 ( 68) -0.1295 ( 71)  0.1295 ( 73)  0.1850 ( 79) -0.1850 ( 80)
           0.1985 ( 81) -0.1985 ( 82)  0.1873 ( 88) -0.1873 ( 89)  0.1569 ( 90)
          -0.1064 ( 92)  0.1064 ( 93) -0.1569 ( 94) -0.1972 ( 95)  0.1972 ( 96)
           0.1742 (103) -0.1742 (104)  0.1376 (139)  0.1376 (140) -0.1046 (151)
          -0.1046 (152)  0.1046 (159)  0.1046 (160)  0.1227 (165)  0.1227 (166)
          -0.1197 (168) -0.1197 (169)  0.1239 (178)  0.1239 (179) -0.1169 (181)
          -0.1169 (182)
 CRD 41=   0.1430 ( 44) -0.1430 ( 45) -0.2105 ( 52) -0.1199 ( 53)  0.2105 ( 54)
           0.1199 ( 55) -0.1920 ( 57)  0.1920 ( 60) -0.2083 ( 61) -0.1107 ( 62)
           0.2083 ( 63)  0.1107 ( 65)  0.1672 ( 69) -0.1672 ( 70)  0.1408 ( 71)
          -0.1408 ( 73) -0.2046 ( 84)  0.2046 ( 85)  0.1639 ( 92) -0.1639 ( 93)
          -0.1419 (133) -0.1419 (137) -0.1090 (141) -0.1090 (143) -0.1306 (145)
          -0.1306 (147)  0.1155 (149)  0.1155 (150) -0.1283 (163) -0.1283 (164)
           0.1138 (171)  0.1138 (172)
 CRD 42=   0.2071 ( 46) -0.2071 ( 47)  0.1821 ( 53) -0.1821 ( 55)  0.1532 ( 56)
          -0.1532 ( 59) -0.1874 ( 62)  0.1874 ( 65)  0.1057 ( 67) -0.1057 ( 68)
           0.1044 ( 71) -0.2021 ( 72) -0.1044 ( 73)  0.2021 ( 75)  0.1481 ( 79)
          -0.1481 ( 80) -0.1490 ( 81)  0.1490 ( 82)  0.1201 ( 88) -0.1201 ( 89)
           0.1460 ( 95) -0.1460 ( 96) -0.1128 (103)  0.1128 (104)  0.1393 (127)
           0.1393 (128) -0.1032 (134) -0.1032 (136)  0.1064 (144)  0.1064 (148)
          -0.1356 (157) -0.1356 (158)
 CRD 43=  -0.1510 (  1) -0.1054 (  2) -0.2432 (  3) -0.1054 (  4) -0.1130 (  8)
          -0.1781 (  9) -0.1130 ( 10)  0.2012 ( 13)  0.1178 ( 17)  0.2398 ( 18)
           0.1178 ( 19)  0.1661 ( 22)  0.1218 ( 24)  0.1636 ( 26) -0.2225 ( 32)
           0.1345 ( 41)  0.1544 ( 48)  0.1445 ( 50) -0.1613 ( 64) -0.1305 ( 74)
          -0.1402 ( 78) -0.1097 ( 86)  0.1587 ( 87)  0.1365 ( 99) -0.1098 (100)
           0.1541 (101) -0.1098 (102)  0.1003 (123)
 CRD 44=  -0.1955 (  1) -0.1127 (  3) -0.1203 (  5) -0.1203 (  6) -0.2113 (  7)
          -0.1085 ( 11) -0.1085 ( 12) -0.1554 ( 13)  0.1318 ( 15)  0.1912 ( 22)
           0.1506 ( 26)  0.1113 ( 27)  0.1113 ( 28)  0.1911 ( 29)  0.2186 ( 32)
           0.1207 ( 33)  0.1207 ( 34)  0.1359 ( 41)  0.1724 ( 49)  0.1303 ( 50)
           0.1555 ( 51) -0.1354 ( 66) -0.1634 ( 78) -0.1103 ( 83) -0.1080 ( 86)
           0.1481 ( 87) -0.1578 ( 91) -0.1463 ( 99) -0.1354 (101) -0.1050 (119)
 CRD 45=   0.1466 (  2) -0.1466 (  4) -0.1500 ( 11)  0.1500 ( 12)  0.1287 ( 14)
          -0.1287 ( 16) -0.1375 ( 23)  0.1375 ( 25) -0.1043 ( 27)  0.1043 ( 28)
          -0.1203 ( 33)  0.1203 ( 34)  0.1188 ( 36) -0.1188 ( 37)  0.1111 ( 39)
          -0.1111 ( 40) -0.1903 (100)  0.1903 (102)  0.1048 (124) -0.1048 (125)
          -0.1007 (126)  0.1284 (132)  0.1063 (133)  0.1105 (134)  0.1167 (135)
           0.1105 (136)  0.1063 (137) -0.1455 (138) -0.1089 (141) -0.1089 (143)
          -0.1389 (156) -0.1107 (157) -0.1107 (158)  0.1646 (161) -0.1529 (170)
           0.1062 (171)  0.1062 (172)  0.1595 (175)  0.1221 (183)  0.1221 (184)
           0.1142 (188)  0.1142 (189)
 CRD 46=  -0.1077 (  3) -0.1609 (  9)  0.1010 ( 13) -0.1118 ( 14) -0.1912 ( 15)
          -0.1118 ( 16)  0.1543 ( 18) -0.1203 ( 20) -0.1203 ( 21) -0.1805 ( 22)
           0.1087 ( 23)  0.1870 ( 24)  0.1087 ( 25) -0.1250 ( 26) -0.1059 ( 27)
          -0.1059 ( 28)  0.2004 ( 29)  0.1220 ( 30)  0.1220 ( 31)  0.1720 ( 32)
           0.1184 ( 33)  0.1184 ( 34) -0.1206 ( 41)  0.1238 ( 48)  0.1605 ( 58)
          -0.1181 ( 64)  0.1724 ( 66) -0.1583 ( 74)  0.1569 ( 78) -0.1759 ( 83)
          -0.1235 ( 87) -0.1617 ( 91) -0.1216 ( 99) -0.1005 (120)
 CRD 47=  -0.1778 (  1) -0.1167 (  2) -0.1726 (  3) -0.1167 (  4) -0.1181 (  5)
          -0.1181 (  6) -0.1769 (  7) -0.1115 (  8) -0.1625 (  9) -0.1115 ( 10)
          -0.1155 ( 11) -0.1155 ( 12) -0.1700 ( 13) -0.1028 ( 14) -0.1468 ( 15)
          -0.1028 ( 16) -0.1090 ( 17) -0.1571 ( 18) -0.1090 ( 19) -0.1179 ( 22)
          -0.1396 ( 24) -0.1210 ( 29)  0.1617 ( 48)  0.1712 ( 49)  0.1692 ( 50)
           0.1674 ( 51)  0.1482 ( 58)  0.1580 ( 64)  0.1289 ( 66)  0.1436 ( 74)
           0.1037 ( 78)  0.1244 ( 83)
 CRD 48=   0.1866 (  5) -0.1866 (  6)  0.1830 (  8) -0.1830 ( 10)  0.1876 ( 17)
          -0.1876 ( 19) -0.1765 ( 20)  0.1765 ( 21)  0.1859 ( 30) -0.1859 ( 31)
          -0.1789 ( 36)  0.1789 ( 37) -0.1066 (127) -0.1066 (128) -0.1040 (129)
          -0.1040 (131) -0.1086 (138)  0.1061 (144)  0.1070 (145)  0.1070 (147)
           0.1061 (148)  0.1052 (149)  0.1052 (150)  0.1273 (161) -0.1070 (163)
          -0.1070 (164) -0.1065 (165) -0.1065 (166) -0.1059 (168) -0.1059 (169)
          -0.1339 (170) -0.1047 (175)  0.1067 (178)  0.1067 (179) -0.1117 (183)
          -0.1117 (184)  0.1171 (188)  0.1171 (189)
 CRD 49=  -0.1790 (  2)  0.1790 (  4)  0.1543 (  8) -0.1543 ( 10)  0.2084 ( 11)
          -0.2084 ( 12) -0.2080 ( 20)  0.2080 ( 21)  0.1684 ( 23) -0.1684 ( 25)
          -0.1664 ( 30)  0.1664 ( 31)  0.2016 ( 36) -0.2016 ( 37) -0.1093 (170)
           0.1135 (188)  0.1135 (189)
 CRD 50=  -0.1761 (  2)  0.1761 (  4) -0.2057 (  5)  0.2057 (  6) -0.2026 ( 14)
           0.2026 ( 16) -0.1708 ( 17)  0.1708 ( 19) -0.1868 ( 20)  0.1868 ( 21)
          -0.2088 ( 23)  0.2088 ( 25) -0.1650 ( 33)  0.1650 ( 34) -0.2018 ( 36)
           0.2018 ( 37)  0.1080 (188)  0.1080 (189)
 CRD 51=  -0.1165 (  5)  0.1165 (  6) -0.2002 (  8)  0.2002 ( 10) -0.2239 ( 11)
           0.2239 ( 12) -0.2247 ( 14)  0.2247 ( 16)  0.2002 ( 17) -0.2002 ( 19)
          -0.1258 ( 20)  0.1258 ( 21)  0.1160 ( 30) -0.1160 ( 31)  0.2227 ( 33)
          -0.2227 ( 34)  0.1872 ( 36) -0.1872 ( 37)
 CRD 52=  -0.1817 ( 35) -0.4902 ( 38) -0.5103 ( 39) -0.5103 ( 40)  0.1711 (100)
           0.1868 (101)  0.1711 (102) -0.1684 (123) -0.1803 (124) -0.1803 (125)
 CRD 53=  -0.2381 (  2)  0.2381 (  4) -0.1826 (  5)  0.1826 (  6)  0.2286 (  8)
          -0.2286 ( 10)  0.1573 ( 14) -0.1573 ( 16) -0.1626 ( 23)  0.1626 ( 25)
           0.2308 ( 30) -0.2308 ( 31)  0.2344 ( 33) -0.2344 ( 34)  0.1608 ( 36)
          -0.1608 ( 37)
 CRD 54=  -0.1776 (  2)  0.1776 (  4) -0.2207 (  5)  0.2207 (  6)  0.1221 (  8)
          -0.1221 ( 10) -0.2481 ( 11)  0.2481 ( 12)  0.2579 ( 17) -0.2579 ( 19)
           0.2494 ( 23) -0.2494 ( 25) -0.2230 ( 30)  0.2230 ( 31) -0.1795 ( 33)
           0.1795 ( 34) -0.1121 ( 36)  0.1121 ( 37)
 CRD 55=  -0.1329 (  8)  0.1329 ( 10) -0.1801 ( 14)  0.1801 ( 16) -0.2249 ( 20)
           0.2249 ( 21) -0.3068 ( 27)  0.3068 ( 28) -0.1289 ( 67)  0.1289 ( 68)
           0.1459 ( 76) -0.1459 ( 77)  0.1386 (170)  0.1223 (185) -0.2113 (186)
          -0.2113 (187) -0.2276 (188) -0.2276 (189) -0.1594 (190) -0.1594 (191)
          -0.1062 (220) -0.1062 (221) -0.1062 (222) -0.1062 (223)
 CRD 56=   0.1043 ( 46) -0.1043 ( 47) -0.1107 ( 53)  0.1107 ( 55)  0.1101 ( 61)
          -0.1101 ( 63)  0.1023 ( 71)  0.1064 ( 72) -0.1023 ( 73) -0.1064 ( 75)
           0.1112 ( 84) -0.1112 ( 85)  0.1089 ( 92) -0.1089 ( 93) -0.1176 (192)
          -0.1176 (194) -0.1176 (197) -0.1176 (199) -0.1332 (200) -0.1332 (201)
          -0.1332 (202) -0.1332 (203) -0.1403 (208) -0.1403 (209) -0.1403 (210)
          -0.1403 (211) -0.1384 (216) -0.1384 (217) -0.1384 (218) -0.1384 (219)
          -0.1277 (224) -0.1277 (225) -0.1277 (226) -0.1277 (227) -0.1087 (228)
          -0.1087 (229) -0.1087 (230) -0.1087 (231)
 CRD 57=   0.1421 ( 27) -0.1421 ( 28) -0.1141 (192) -0.1362 (193) -0.1141 (194)
          -0.1362 (195) -0.1362 (196) -0.1141 (197) -0.1362 (198) -0.1141 (199)
          -0.1246 (204) -0.1246 (205) -0.1246 (206) -0.1246 (207)  0.1166 (224)
           0.1166 (225)  0.1166 (226)  0.1166 (227)  0.1365 (228)  0.1365 (229)
           0.1365 (230)  0.1365 (231)  0.1238 (232)  0.1238 (233)  0.1238 (234)
           0.1238 (235)
 CRD 58=  -0.6072 ( 27) -0.6072 ( 28)  0.1146 ( 76)  0.1146 ( 77) -0.2636 (119)
          -0.1295 (186)  0.1295 (187) -0.1295 (188)  0.1295 (189)
 CRD 59=   0.1063 (  2) -0.1063 (  4)  0.1033 ( 23) -0.1033 ( 25)  0.1764 ( 27)
          -0.1764 ( 28)  0.1165 (200)  0.1165 (201)  0.1165 (202)  0.1165 (203)
          -0.1256 (204) -0.1256 (205) -0.1256 (206) -0.1256 (207)  0.1323 (208)
           0.1323 (209)  0.1323 (210)  0.1323 (211) -0.1252 (212) -0.1252 (213)
          -0.1252 (214) -0.1252 (215) -0.1030 (228) -0.1030 (229) -0.1030 (230)
          -0.1030 (231) -0.1376 (232) -0.1376 (233) -0.1376 (234) -0.1376 (235)
 CRD 60=   0.2584 ( 36)  0.2584 ( 37) -0.6031 ( 38)  0.2687 ( 39)  0.2687 ( 40)
           0.3182 (123) -0.1503 (124) -0.1503 (125) -0.1600 (176)  0.1600 (180)
           0.1896 (236) -0.1303 (238)  0.1303 (239) -0.1896 (241)
 CRD 61=  -0.5482 ( 39)  0.5482 ( 40)  0.2979 (124) -0.2979 (125) -0.2231 (177)
           0.1001 (236) -0.2141 (237)  0.1001 (238)  0.1001 (239) -0.2141 (240)
           0.1001 (241)
 CRD 62=   0.2409 (  2)  0.2409 (  4) -0.2641 (  5) -0.2641 (  6) -0.2001 (  8)
          -0.2001 ( 10)  0.2684 ( 11)  0.2684 ( 12)  0.1464 ( 14)  0.1464 ( 16)
          -0.2534 ( 17) -0.2534 ( 19)  0.2199 ( 23)  0.2199 ( 25) -0.1709 ( 30)
          -0.1709 ( 31)  0.1094 ( 33)  0.1094 ( 34)
 CRD 63=   0.2135 (  2)  0.2135 (  4) -0.1024 (  5) -0.1024 (  6) -0.2644 (  8)
          -0.2644 ( 10)  0.2437 ( 14)  0.2437 ( 16)  0.1666 ( 17)  0.1666 ( 19)
          -0.1509 ( 20) -0.1509 ( 21) -0.2490 ( 23) -0.2490 ( 25)  0.2621 ( 30)
           0.2621 ( 31) -0.2014 ( 33) -0.2014 ( 34)
 CRD 64=   0.2141 (  5)  0.2141 (  6) -0.1570 (  8) -0.1570 ( 10) -0.2580 ( 11)
          -0.2580 ( 12)  0.2622 ( 14)  0.2622 ( 16)  0.1456 ( 17)  0.1456 ( 19)
          -0.2035 ( 20) -0.2035 ( 21) -0.2226 ( 30) -0.2226 ( 31)  0.2550 ( 33)
           0.2550 ( 34) -0.1295 ( 36) -0.1295 ( 37)
 CRD 65=  -0.2429 (  2) -0.2429 (  4)  0.1966 (  5)  0.1966 (  6)  0.2049 ( 14)
           0.2049 ( 16) -0.2463 ( 17) -0.2463 ( 19) -0.2353 ( 20) -0.2353 ( 21)
           0.1897 ( 23)  0.1897 ( 25) -0.2487 ( 33) -0.2487 ( 34)  0.1764 ( 36)
           0.1764 ( 37)
 CRD 66=  -0.1969 (  2) -0.1969 (  4) -0.1086 (  5) -0.1086 (  6)  0.2068 (  8)
           0.2068 ( 10)  0.2508 ( 11)  0.2508 ( 12) -0.2477 ( 20) -0.2477 ( 21)
          -0.2433 ( 23) -0.2433 ( 25)  0.1353 ( 30)  0.1353 ( 31)  0.1752 ( 33)
           0.1752 ( 34) -0.2151 ( 36) -0.2151 ( 37) -0.1014 ( 38)
 CRD 67=   0.2490 (  5)  0.2490 (  6) -0.2505 (  8) -0.2505 ( 10) -0.2482 ( 17)
          -0.2482 ( 19)  0.2439 ( 20)  0.2439 ( 21)  0.2470 ( 30)  0.2470 ( 31)
          -0.2376 ( 36) -0.2376 ( 37)
 CRD 68=  -0.2285 (  2) -0.2285 (  4) -0.1581 (  8) -0.1581 ( 10)  0.2471 ( 11)
           0.2471 ( 12)  0.1416 ( 14)  0.1416 ( 16)  0.2268 ( 20)  0.2268 ( 21)
          -0.1946 ( 23) -0.1946 ( 25) -0.2021 ( 30) -0.2021 ( 31)  0.2389 ( 36)
           0.2389 ( 37)  0.1019 (114)
 CRD 69=  -0.2039 (  2) -0.2039 (  4) -0.2234 (  5) -0.2234 (  6)  0.2171 ( 14)
           0.2171 ( 16)  0.1992 ( 17)  0.1992 ( 19)  0.1991 ( 20)  0.1991 ( 21)
           0.2267 ( 23)  0.2267 ( 25) -0.1934 ( 33) -0.1934 ( 34) -0.2190 ( 36)
          -0.2190 ( 37)
 CRD 70=  -0.1626 (  5) -0.1626 (  6)  0.1767 (  8)  0.1767 ( 10) -0.2430 ( 11)
          -0.2430 ( 12)  0.2405 ( 14)  0.2405 ( 16) -0.1855 ( 17) -0.1855 ( 19)
           0.1620 ( 20)  0.1620 ( 21)  0.1528 ( 30)  0.1528 ( 31)  0.2400 ( 33)
           0.2400 ( 34)  0.1818 ( 36)  0.1818 ( 37) -0.1112 (114)  0.1100 (115)
           0.1096 (121)
 CRD 71=   0.2093 (  2)  0.2093 (  4)  0.1260 (  5)  0.1260 (  6)  0.2389 (  8)
           0.2389 ( 10)  0.2056 ( 14)  0.2056 ( 16) -0.1075 ( 17) -0.1075 ( 19)
           0.1157 ( 20)  0.1157 ( 21) -0.1982 ( 23) -0.1982 ( 25) -0.2384 ( 30)
          -0.2384 ( 31) -0.2161 ( 33) -0.2161 ( 34) -0.1314 ( 36) -0.1314 ( 37)
           0.1136 (113) -0.1133 (120) -0.1026 (121)
 CRD 72=   0.2030 (  2)  0.2030 (  4)  0.2261 (  5)  0.2261 (  6)  0.1667 (  8)
           0.1667 ( 10)  0.2349 ( 11)  0.2349 ( 12)  0.1186 ( 14)  0.1186 ( 16)
           0.2287 ( 17)  0.2287 ( 19)  0.2081 ( 23)  0.2081 ( 25)  0.1741 ( 30)
           0.1741 ( 31)  0.1280 ( 33)  0.1280 ( 34)  0.1103 (112)  0.1146 (114)
           0.1116 (116)  0.1015 (118)
 CRD 73=  -0.1028 (  8)  0.1028 ( 10) -0.1058 ( 11)  0.1058 ( 12)  0.2016 ( 27)
          -0.2016 ( 28)  0.1039 ( 30) -0.1039 ( 31)  0.1341 (192)  0.1341 (194)
           0.1341 (197)  0.1341 (199) -0.1250 (212) -0.1250 (213) -0.1250 (214)
          -0.1250 (215) -0.1339 (216) -0.1339 (217) -0.1339 (218) -0.1339 (219)
          -0.1206 (220) -0.1206 (221) -0.1206 (222) -0.1206 (223)  0.1291 (232)
           0.1291 (233)  0.1291 (234)  0.1291 (235)
 CRD 74=  -0.1132 ( 26) -0.5796 ( 41) -0.2879 ( 42)  0.2418 ( 43)  0.2409 ( 87)
          -0.2906 (107)  0.5653 (110)
 CRD 75=  -0.1038 ( 17)  0.1038 ( 19)  0.2088 ( 27) -0.2088 ( 28) -0.1163 (170)
           0.1247 (193)  0.1247 (195)  0.1247 (196)  0.1247 (198) -0.1242 (200)
          -0.1242 (201) -0.1242 (202) -0.1242 (203) -0.1526 (220) -0.1526 (221)
          -0.1526 (222) -0.1526 (223)  0.1338 (224)  0.1338 (225)  0.1338 (226)
           0.1338 (227) -0.1049 (232) -0.1049 (233) -0.1049 (234) -0.1049 (235)
          -0.1037 (236) -0.1037 (238) -0.1037 (239) -0.1037 (241)
 CRD 76=  -0.1766 ( 20)  0.1766 ( 21)  0.1084 ( 23) -0.1084 ( 25)  0.1884 ( 27)
          -0.1884 ( 28)  0.1121 ( 33) -0.1121 ( 34) -0.1124 (170) -0.1327 (192)
          -0.1327 (194) -0.1327 (197) -0.1327 (199)  0.1221 (204)  0.1221 (205)
           0.1221 (206)  0.1221 (207)  0.1230 (208)  0.1230 (209)  0.1230 (210)
           0.1230 (211) -0.1410 (220) -0.1410 (221) -0.1410 (222) -0.1410 (223)
          -0.1003 (224) -0.1003 (225) -0.1003 (226) -0.1003 (227) -0.1026 (228)
          -0.1026 (229) -0.1026 (230) -0.1026 (231)  0.1042 (236)  0.1042 (238)
           0.1042 (239)  0.1042 (241)
 CRD 77=   0.1167 (  5) -0.1167 (  6) -0.1115 ( 11)  0.1115 ( 12)  0.1713 ( 14)
          -0.1713 ( 16) -0.2392 ( 20)  0.2392 ( 21)  0.1398 ( 27) -0.1398 ( 28)
          -0.1319 ( 33)  0.1319 ( 34)  0.1112 (139)  0.1112 (140)  0.1338 (200)
           0.1338 (201)  0.1338 (202)  0.1338 (203)  0.1675 (212)  0.1675 (213)
           0.1675 (214)  0.1675 (215) -0.1116 (216) -0.1116 (217) -0.1116 (218)
          -0.1116 (219)  0.1321 (228)  0.1321 (229)  0.1321 (230)  0.1321 (231)
 CRD 78=  -0.2127 (  2)  0.2127 (  4)  0.1969 (  5) -0.1969 (  6) -0.1837 (  8)
           0.1837 ( 10) -0.2139 ( 11)  0.2139 ( 12) -0.2540 ( 17)  0.2540 ( 19)
           0.2358 ( 23) -0.2358 ( 25)  0.1538 ( 30) -0.1538 ( 31)  0.1054 (193)
           0.1054 (195)  0.1054 (196)  0.1054 (198)  0.1259 (216)  0.1259 (217)
           0.1259 (218)  0.1259 (219)
 CRD 79=   0.1511 (  2) -0.1511 (  4)  0.2450 (  8) -0.2450 ( 10) -0.2298 ( 14)
           0.2298 ( 16)  0.1193 ( 20) -0.1193 ( 21)  0.1681 ( 23) -0.1681 ( 25)
           0.2516 ( 30) -0.2516 ( 31) -0.2156 ( 33)  0.2156 ( 34)  0.1034 ( 36)
          -0.1034 ( 37)  0.1340 (204)  0.1340 (205)  0.1340 (206)  0.1340 (207)
          -0.1093 (224) -0.1093 (225) -0.1093 (226) -0.1093 (227)  0.1297 (228)
           0.1297 (229)  0.1297 (230)  0.1297 (231)
 CRD 80=  -0.1488 (  2)  0.1488 (  4)  0.2674 (  5) -0.2674 (  6) -0.1600 ( 11)
           0.1600 ( 12) -0.2062 ( 14)  0.2062 ( 16)  0.1478 ( 20) -0.1478 ( 21)
          -0.1236 ( 23)  0.1236 ( 25) -0.1040 ( 30)  0.1040 ( 31) -0.1079 ( 36)
           0.1079 ( 37) -0.1115 (141) -0.1115 (143)  0.1035 (157)  0.1035 (158)
          -0.1476 (192) -0.1476 (194) -0.1476 (197) -0.1476 (199)  0.1401 (200)
           0.1401 (201)  0.1401 (202)  0.1401 (203)  0.1191 (204)  0.1191 (205)
           0.1191 (206)  0.1191 (207) -0.1049 (212) -0.1049 (213) -0.1049 (214)
          -0.1049 (215)
 CRD 81=   0.1944 (  2) -0.1944 (  4)  0.1693 (  8) -0.1693 ( 10) -0.2056 ( 11)
           0.2056 ( 12) -0.2413 ( 17)  0.2413 ( 19) -0.1304 ( 30)  0.1304 ( 31)
           0.1570 ( 33) -0.1570 ( 34) -0.1162 (134) -0.1162 (136) -0.1081 (163)
          -0.1081 (164) -0.1300 (193) -0.1300 (195) -0.1300 (196) -0.1300 (198)
          -0.1658 (208) -0.1658 (209) -0.1658 (210) -0.1658 (211) -0.1126 (228)
          -0.1126 (229) -0.1126 (230) -0.1126 (231)
 CRD 82=   0.1417 ( 23) -0.1417 ( 25)  0.1458 ( 33) -0.1458 ( 34) -0.3242 ( 36)
           0.3242 ( 37)  0.1179 (173)  0.1179 (174) -0.1429 (176) -0.1582 (177)
          -0.1429 (180)  0.1019 (183)  0.1019 (184) -0.1111 (224) -0.1111 (225)
          -0.1111 (226) -0.1111 (227)  0.1410 (232)  0.1410 (233)  0.1410 (234)
           0.1410 (235) -0.2253 (236) -0.2406 (237) -0.2253 (238) -0.2253 (239)
          -0.2406 (240) -0.2253 (241)
 CRD 83=  -0.2630 ( 26)  0.2681 ( 41)  0.3413 ( 42)  0.6796 ( 43)  0.1175 ( 76)
           0.1175 ( 77)  0.1987 ( 87) -0.1763 (107) -0.1314 (108) -0.1314 (109)
          -0.1893 (110) -0.1255 (221)  0.1255 (222)
 CRD 84=   0.1035 ( 20) -0.1035 ( 21)  0.1128 (151)  0.1128 (152) -0.2546 (162)
          -0.5647 (170) -0.3665 (185) -0.3495 (186) -0.3495 (187) -0.1513 (188)
          -0.1513 (189)  0.1122 (190)  0.1122 (191)  0.1252 (220)  0.1252 (221)
           0.1252 (222)  0.1252 (223)
 CRD 85=   0.1037 ( 38)  0.1127 ( 43)  0.1153 ( 46)  0.1153 ( 47) -0.1019 ( 52)
           0.1198 ( 53) -0.1019 ( 54)  0.1198 ( 55)  0.1061 ( 57)  0.1061 ( 60)
           0.1196 ( 61) -0.1126 ( 62)  0.1196 ( 63) -0.1126 ( 65)  0.1146 ( 71)
          -0.1188 ( 72)  0.1146 ( 73) -0.1188 ( 75)  0.1049 ( 81)  0.1049 ( 82)
          -0.1202 ( 84) -0.1202 ( 85) -0.1168 ( 92) -0.1168 ( 93) -0.1089 ( 95)
          -0.1089 ( 96)  0.1188 (193)  0.1335 (194) -0.1188 (198) -0.1335 (199)
          -0.1429 (200)  0.1429 (203) -0.1466 (209)  0.1466 (210) -0.1443 (217)
           0.1443 (218) -0.1364 (225)  0.1364 (226) -0.1217 (228)  0.1217 (231)
          -0.1152 (232)  0.1152 (235)
 CRD 86=  -0.1667 ( 38) -0.1312 ( 42)  0.2269 ( 43) -0.1117 ( 44) -0.1117 ( 45)
          -0.1096 ( 56) -0.1096 ( 59)  0.1087 ( 69)  0.1087 ( 70)  0.1118 ( 79)
           0.1118 ( 80)  0.1020 ( 88)  0.1020 ( 89) -0.1121 ( 90) -0.1121 ( 94)
          -0.1028 ( 97) -0.1028 ( 98) -0.1069 (100) -0.1361 (101) -0.1069 (102)
           0.1055 (103)  0.1055 (104)  0.1307 (105)  0.1307 (106)  0.1374 (124)
           0.1374 (125)  0.1247 (193) -0.1247 (198)  0.1353 (205) -0.1353 (206)
           0.1289 (212) -0.1289 (215)  0.1220 (228) -0.1220 (231)  0.1549 (232)
          -0.1549 (235)
 CRD 87=   0.1030 ( 35) -0.1684 ( 38) -0.1073 ( 39) -0.1073 ( 40)  0.2582 ( 42)
          -0.3242 ( 43)  0.1047 ( 53)  0.1047 ( 55)  0.1024 ( 67)  0.1024 ( 68)
          -0.1025 ( 72) -0.1025 ( 75) -0.1028 ( 88) -0.1028 ( 89) -0.1230 (100)
          -0.1453 (101) -0.1230 (102)  0.1092 (105)  0.1092 (106)  0.1473 (124)
           0.1473 (125) -0.1139 (200)  0.1139 (203) -0.1218 (209)  0.1218 (210)
          -0.1101 (212)  0.1101 (215) -0.1106 (221)  0.1106 (222)  0.1123 (232)
          -0.1123 (235)
 CRD 88=  -0.1045 (  7)  0.1066 ( 15)  0.1559 ( 35) -0.1413 ( 38) -0.1116 ( 39)
          -0.1116 ( 40) -0.3312 ( 42)  0.3146 ( 43)  0.1029 ( 52)  0.1029 ( 54)
           0.1035 ( 71)  0.1035 ( 73) -0.1025 ( 92) -0.1025 ( 93) -0.1242 (100)
          -0.1347 (101) -0.1242 (102)  0.1470 (107)  0.1117 (123)  0.1357 (124)
           0.1357 (125) -0.1182 (193)  0.1182 (198) -0.1096 (217)  0.1096 (218)
          -0.1128 (225)  0.1128 (226)
 CRD 89=   0.1195 (  1)  0.1275 (  3) -0.1369 ( 18) -0.1344 ( 22) -0.1104 ( 26)
           0.1076 ( 32)  0.2087 ( 35) -0.1125 ( 39) -0.1125 ( 40)  0.2898 ( 42)
          -0.2320 ( 43) -0.1024 ( 56) -0.1024 ( 59)  0.1054 ( 72)  0.1054 ( 75)
           0.1062 ( 79)  0.1062 ( 80)  0.1062 ( 81)  0.1062 ( 82)  0.1199 ( 87)
          -0.1165 (100) -0.1146 (101) -0.1165 (102) -0.1726 (107)  0.1251 (123)
           0.1112 (124)  0.1112 (125)  0.1160 (200) -0.1160 (203)  0.1120 (205)
          -0.1120 (206) -0.1195 (228)  0.1195 (231)
 CRD 90=   0.2732 ( 26) -0.5922 ( 41)  0.1921 ( 42)  0.2333 ( 43) -0.3124 ( 86)
           0.3159 (107) -0.3815 (110) -0.1617 (119)
 CRD 91=   0.1154 (  3) -0.1601 (  7)  0.1560 (  9) -0.1031 ( 13) -0.1307 ( 22)
           0.1633 ( 24) -0.1173 ( 26) -0.2404 ( 35)  0.1092 ( 39)  0.1092 ( 40)
          -0.1408 ( 41)  0.2832 ( 42) -0.1050 ( 57) -0.1050 ( 60)  0.1053 ( 61)
           0.1053 ( 63) -0.1006 ( 84) -0.1006 ( 85)  0.1306 ( 87)  0.1011 ( 88)
           0.1011 ( 89) -0.1028 ( 90) -0.1028 ( 94)  0.1097 (103)  0.1097 (104)
          -0.1344 (123) -0.1065 (194)  0.1065 (199)  0.1078 (212) -0.1078 (215)
          -0.1024 (217)  0.1024 (218)
 CRD 92=   0.1834 (  1) -0.1459 (  9) -0.1603 ( 13) -0.1478 ( 15) -0.1329 ( 18)
           0.1819 ( 26)  0.1754 ( 29) -0.2389 ( 35)  0.1076 ( 39)  0.1076 ( 40)
          -0.2170 ( 42)  0.1004 ( 67)  0.1004 ( 68)  0.1022 ( 69)  0.1022 ( 70)
           0.1031 ( 71)  0.1031 ( 73) -0.1324 ( 87) -0.1441 (123)  0.1010 (200)
          -0.1010 (203)  0.1196 (238) -0.1196 (239)
 CRD 93=  -0.1047 (  2)  0.1047 (  4)  0.2113 ( 20) -0.2113 ( 21) -0.2874 ( 27)
           0.2874 ( 28) -0.1085 (108)  0.1085 (109)  0.1020 (153) -0.1340 (161)
          -0.1776 (170) -0.3602 (185)  0.2018 (186)  0.2018 (187)  0.1240 (212)
           0.1240 (213)  0.1240 (214)  0.1240 (215) -0.2096 (220) -0.2096 (221)
          -0.2096 (222) -0.2096 (223)
 CRD 94=   0.1972 (  3) -0.1890 (  7) -0.1913 ( 15)  0.1763 ( 18)  0.1042 ( 24)
           0.1930 ( 26) -0.1456 ( 29) -0.1607 ( 32)  0.1889 ( 35)  0.1029 ( 38)
          -0.1075 ( 39) -0.1075 ( 40) -0.1677 ( 42) -0.1253 ( 87)  0.1026 ( 95)
           0.1026 ( 96)  0.1128 ( 97)  0.1128 ( 98) -0.1068 (108) -0.1068 (109)
           0.1544 (123) -0.1597 (238)  0.1597 (239)
 CRD 95=   0.1104 ( 11) -0.1104 ( 12)  0.1401 ( 17) -0.1401 ( 19) -0.1908 ( 33)
           0.1908 ( 34)  0.2511 ( 36) -0.2511 ( 37) -0.1752 ( 39)  0.1752 ( 40)
          -0.1370 (124)  0.1370 (125)  0.1254 (177) -0.1100 (208) -0.1100 (209)
          -0.1100 (210) -0.1100 (211) -0.1079 (228) -0.1079 (229) -0.1079 (230)
          -0.1079 (231)  0.1921 (232)  0.1921 (233)  0.1921 (234)  0.1921 (235)
          -0.1757 (236) -0.1757 (238) -0.1757 (239) -0.1757 (241)
 CRD 96=  -0.1564 (  2)  0.1564 (  4)  0.1045 (  5) -0.1045 (  6) -0.1476 (  8)
           0.1476 ( 10)  0.1084 ( 14) -0.1084 ( 16)  0.1107 ( 17) -0.1107 ( 19)
          -0.1730 ( 23)  0.1730 ( 25) -0.1662 ( 30)  0.1662 ( 31)  0.1135 ( 33)
          -0.1135 ( 34)  0.1152 (192) -0.1372 (193)  0.1152 (194) -0.1372 (195)
          -0.1372 (196)  0.1152 (197) -0.1372 (198)  0.1152 (199)  0.1191 (204)
           0.1191 (205)  0.1191 (206)  0.1191 (207)  0.1258 (216)  0.1258 (217)
           0.1258 (218)  0.1258 (219) -0.1521 (224) -0.1521 (225) -0.1521 (226)
          -0.1521 (227)  0.1286 (228)  0.1286 (229)  0.1286 (230)  0.1286 (231)
 CRD 97=  -0.1867 (  5)  0.1867 (  6) -0.1307 (  8)  0.1307 ( 10)  0.1990 ( 11)
          -0.1990 ( 12)  0.1565 ( 14) -0.1565 ( 16)  0.1001 ( 30) -0.1001 ( 31)
          -0.1273 ( 36)  0.1273 ( 37)  0.1238 ( 39) -0.1238 ( 40) -0.1001 (126)
          -0.1034 (161) -0.1205 (177) -0.1734 (185)  0.1615 (200)  0.1615 (201)
           0.1615 (202)  0.1615 (203)  0.1161 (204)  0.1161 (205)  0.1161 (206)
           0.1161 (207) -0.1132 (208) -0.1132 (209) -0.1132 (210) -0.1132 (211)
 CRD 98=   0.1394 (  2) -0.1394 (  4) -0.1160 (  5)  0.1160 (  6)  0.1504 (  8)
          -0.1504 ( 10)  0.1149 ( 11) -0.1149 ( 12) -0.1210 ( 14)  0.1210 ( 16)
           0.1389 ( 17) -0.1389 ( 19) -0.1559 ( 23)  0.1559 ( 25) -0.1340 ( 30)
           0.1340 ( 31) -0.1202 (192)  0.1322 (193) -0.1202 (194)  0.1322 (195)
           0.1322 (196) -0.1202 (197)  0.1322 (198) -0.1202 (199)  0.1113 (200)
           0.1113 (201)  0.1113 (202)  0.1113 (203) -0.1223 (204) -0.1223 (205)
          -0.1223 (206) -0.1223 (207) -0.1201 (208) -0.1201 (209) -0.1201 (210)
          -0.1201 (211)  0.1349 (216)  0.1349 (217)  0.1349 (218)  0.1349 (219)
          -0.1308 (224) -0.1308 (225) -0.1308 (226) -0.1308 (227)
 CRD 99=  -0.1744 (  1)  0.1198 (  3)  0.1475 (  9)  0.1916 ( 13) -0.1378 ( 15)
          -0.1385 ( 22) -0.1912 ( 24)  0.1673 ( 26)  0.2262 ( 32) -0.1755 ( 38)
           0.1039 ( 39)  0.1039 ( 40) -0.1258 ( 42) -0.1121 ( 87) -0.1033 ( 97)
          -0.1033 ( 98) -0.1052 (108) -0.1052 (109)  0.1209 (122) -0.1589 (123)
           0.1888 (238) -0.1888 (239)
 CRD100=  -0.1452 (  2)  0.1452 (  4) -0.1547 ( 14)  0.1547 ( 16)  0.1465 ( 17)
          -0.1465 ( 19)  0.1520 ( 30) -0.1520 ( 31)  0.1508 ( 39) -0.1508 ( 40)
           0.1188 (124) -0.1188 (125)  0.1179 (135) -0.1165 (138) -0.1182 (142)
           0.1548 (161)  0.1153 (167) -0.1681 (177)  0.2432 (185) -0.1094 (186)
          -0.1094 (187)
 CRD101=  -0.1091 (  5) -0.1091 (  6)  0.1063 ( 11)  0.1063 ( 12) -0.1739 (111)
           0.1894 (112)  0.1507 (113) -0.1846 (114) -0.1286 (115)  0.1626 (116)
           0.1008 (117) -0.1376 (118)  0.1134 (120) -0.1419 (193)  0.1711 (194)
           0.1419 (198) -0.1711 (199)  0.1811 (200) -0.1811 (203)  0.1214 (205)
          -0.1214 (206) -0.1596 (209)  0.1596 (210) -0.1099 (212)  0.1099 (215)
           0.1290 (217) -0.1290 (218) -0.1117 (225)  0.1117 (226)
 CRD102=  -0.1443 (  1)  0.1340 (  7)  0.1198 (  9) -0.1039 ( 18) -0.1092 ( 22)
           0.1303 ( 29) -0.1264 ( 35)  0.1443 ( 38) -0.1050 (111)  0.1317 (113)
          -0.1178 (115)  0.1114 (117) -0.1002 (119) -0.1151 (120)  0.1487 (121)
          -0.1434 (122) -0.1424 (193)  0.1424 (198)  0.1116 (205) -0.1116 (206)
          -0.1138 (228)  0.1138 (231)  0.1662 (232) -0.1662 (235) -0.1247 (238)
           0.1247 (239)
 CRD103=   0.1664 (  9) -0.1492 ( 18) -0.1586 ( 22)  0.1724 ( 26)  0.1840 ( 29)
          -0.1544 ( 32)  0.1501 ( 38)  0.1523 (115)  0.1111 (116) -0.1475 (117)
          -0.1525 (118)  0.1181 (120)  0.1074 (123) -0.1095 (205)  0.1095 (206)
           0.1740 (212) -0.1740 (215)  0.1281 (217) -0.1281 (218) -0.1202 (221)
           0.1202 (222) -0.1623 (225)  0.1623 (226) -0.1228 (238)  0.1228 (239)
 CRD104=   0.1524 ( 18) -0.1517 ( 24)  0.1013 ( 30)  0.1013 ( 31)  0.1451 ( 32)
          -0.1047 ( 33) -0.1047 ( 34) -0.1495 ( 35)  0.1453 (112) -0.1474 (114)
          -0.1432 (117)  0.1362 (119) -0.1731 (120)  0.1789 (121)  0.1357 (200)
          -0.1357 (203) -0.1207 (209)  0.1207 (210) -0.1296 (221)  0.1296 (222)
           0.1205 (225) -0.1205 (226) -0.1877 (228)  0.1877 (231)  0.1305 (232)
          -0.1305 (235)
 CRD105=   0.1717 (  3) -0.2055 (  7) -0.1921 (  9)  0.1793 ( 13)  0.1457 ( 22)
          -0.1916 ( 24) -0.1508 ( 26)  0.1617 ( 29) -0.1568 ( 35)  0.1145 ( 38)
           0.1404 (111) -0.1146 (112)  0.1275 (116)  0.1243 (117) -0.1284 (118)
          -0.1143 (122)  0.1038 (193) -0.1516 (194) -0.1038 (198)  0.1516 (199)
          -0.1254 (212)  0.1254 (215)  0.1512 (217) -0.1512 (218)  0.1002 (221)
          -0.1002 (222)  0.1238 (232) -0.1238 (235)
 CRD106=  -0.1752 (  1)  0.1784 (  3)  0.1192 ( 13) -0.2278 ( 15) -0.1282 ( 18)
           0.2554 ( 22) -0.1177 ( 27) -0.1177 ( 28) -0.1172 ( 76) -0.1172 ( 77)
          -0.1185 ( 86)  0.1170 ( 87)  0.1632 (113)  0.1194 (114)  0.1853 (119)
           0.1056 (159) -0.1056 (160)  0.1506 (186) -0.1506 (187)  0.1506 (188)
          -0.1506 (189) -0.1229 (193)  0.1229 (198) -0.1022 (200)  0.1022 (203)
           0.1484 (205) -0.1484 (206) -0.1339 (221)  0.1339 (222)
 CRD107=   0.1011 (  5) -0.1011 (  6)  0.1193 (  8) -0.1193 ( 10) -0.1084 ( 11)
           0.1084 ( 12) -0.1351 ( 20)  0.1351 ( 21) -0.1248 ( 23)  0.1248 ( 25)
          -0.1370 ( 33)  0.1370 ( 34)  0.1620 ( 39) -0.1620 ( 40)  0.1266 (124)
          -0.1266 (125)  0.1365 (126) -0.1346 (132)  0.1260 (138) -0.1323 (146)
          -0.1637 (161)  0.1202 (167) -0.1712 (177) -0.2514 (185)  0.1126 (186)
           0.1126 (187) -0.1130 (188) -0.1130 (189) -0.1381 (237) -0.1381 (240)
 CRD108=  -0.1417 (  1)  0.1359 (  3) -0.1448 ( 18)  0.1624 ( 22)  0.1292 ( 24)
          -0.1166 ( 26) -0.1017 ( 32)  0.1622 ( 35) -0.1081 ( 38) -0.1052 ( 57)
          -0.1052 ( 60) -0.1051 ( 92) -0.1051 ( 93) -0.1126 (114) -0.1744 (192)
           0.1744 (197)  0.1151 (213) -0.1151 (214)  0.1778 (216) -0.1778 (219)
           0.1243 (233) -0.1243 (234)
 CRD109=  -0.1039 (  7) -0.1082 (  9)  0.1332 ( 15)  0.1119 ( 29) -0.1047 ( 32)
           0.1035 ( 53)  0.1035 ( 55)  0.1381 (112)  0.1065 (115) -0.1294 (116)
           0.1109 (118) -0.1313 (121) -0.1025 (134)  0.1025 (136)  0.1073 (157)
          -0.1073 (158)  0.1011 (165) -0.1011 (166) -0.1403 (195)  0.1403 (196)
           0.1586 (201) -0.1586 (202) -0.1736 (208)  0.1736 (211)  0.1676 (224)
          -0.1676 (227) -0.1327 (229)  0.1327 (230)
 CRD110=  -0.1997 (  7) -0.1064 (  9)  0.2029 ( 13)  0.1581 ( 15) -0.1810 ( 22)
           0.1325 ( 26)  0.1143 ( 29) -0.1583 ( 32)  0.1741 ( 35) -0.1295 ( 38)
           0.1055 ( 88)  0.1055 ( 89) -0.1069 (105) -0.1069 (106)  0.1033 (192)
          -0.1033 (197) -0.1674 (213)  0.1674 (214)  0.1006 (220) -0.1006 (223)
           0.1689 (233) -0.1689 (234) -0.1144 (236)  0.1144 (241)
 CRD111=   0.1455 (  1) -0.1322 (  3)  0.1392 (  9) -0.1665 ( 15)  0.1781 ( 18)
           0.1056 ( 22) -0.1589 ( 24)  0.1221 ( 29) -0.1271 ( 32)  0.1058 ( 44)
           0.1058 ( 45) -0.1060 ( 69) -0.1060 ( 70)  0.1091 ( 81)  0.1091 ( 82)
           0.1120 (111) -0.1103 (115)  0.1019 (118)  0.1066 (129) -0.1066 (131)
          -0.1030 (149)  0.1030 (150)  0.1020 (165) -0.1020 (166)  0.1661 (195)
          -0.1661 (196) -0.1732 (204)  0.1732 (207)  0.1283 (224) -0.1283 (227)
          -0.1925 (229)  0.1925 (230)
 CRD112=   0.1107 (  8) -0.1107 ( 10) -0.1194 ( 20)  0.1194 ( 21)  0.1101 ( 33)
          -0.1101 ( 34) -0.1492 ( 39)  0.1492 ( 40) -0.1155 (124)  0.1155 (125)
           0.1331 (130)  0.1400 (135) -0.1382 (142) -0.1302 (153) -0.1382 (156)
          -0.1395 (161)  0.1192 (162)  0.1458 (175)  0.1267 (177) -0.2384 (185)
           0.1053 (186)  0.1053 (187) -0.1533 (188) -0.1533 (189)  0.1662 (237)
           0.1662 (240)
 CRD113=   0.1726 (  3) -0.1854 (  9)  0.1151 ( 15) -0.1048 ( 22)  0.1455 ( 24)
           0.1429 ( 26) -0.1929 ( 29)  0.1318 ( 32) -0.1002 ( 35)  0.1406 ( 38)
          -0.1051 (114) -0.1021 (115)  0.1009 (119) -0.1062 (192)  0.1062 (197)
          -0.1024 (201)  0.1024 (202) -0.1612 (213)  0.1612 (214)  0.1231 (216)
          -0.1231 (219)  0.1353 (220) -0.1353 (223) -0.1329 (233)  0.1329 (234)
           0.1608 (236) -0.1608 (241)
 CRD114=  -0.2308 (  1)  0.1995 (  3)  0.2284 (  7) -0.1517 (  9) -0.2216 ( 13)
           0.1180 ( 15)  0.2248 ( 18) -0.2079 ( 24)  0.1594 ( 29) -0.1120 ( 32)
          -0.1065 ( 53) -0.1065 ( 55)  0.1046 ( 72)  0.1046 ( 75) -0.1022 ( 84)
          -0.1022 ( 85) -0.1298 (201)  0.1298 (202)  0.1061 (204) -0.1061 (207)
           0.1425 (208) -0.1425 (211) -0.1095 (216)  0.1095 (219)
 CRD115=   0.1135 (  9) -0.1251 ( 26) -0.1131 ( 29)  0.1136 ( 38) -0.1361 (112)
           0.1095 (113)  0.1142 (115)  0.1459 (116) -0.1286 (119) -0.1375 (120)
           0.1150 (122)  0.1450 (192) -0.1450 (197)  0.1392 (204) -0.1392 (207)
           0.1117 (208) -0.1117 (211)  0.1173 (216) -0.1173 (219) -0.1580 (220)
           0.1580 (223) -0.1263 (229)  0.1263 (230)  0.1720 (236) -0.1720 (241)
 CRD116=  -0.1022 (  3)  0.1029 (  7) -0.1094 ( 24)  0.1020 ( 26)  0.1046 ( 48)
          -0.1057 ( 51) -0.1002 ( 78) -0.1053 ( 99) -0.1407 (113)  0.1416 (114)
           0.1181 (117) -0.1147 (118)  0.1139 (119) -0.1242 (120)  0.1386 (122)
          -0.1448 (195)  0.1448 (196)  0.1416 (201) -0.1416 (202) -0.1079 (204)
           0.1079 (207)  0.1137 (208) -0.1137 (211)  0.1637 (220) -0.1637 (223)
          -0.1564 (224)  0.1564 (227)  0.1584 (236) -0.1584 (241)
 CRD117=  -0.1101 (  2)  0.1101 (  4) -0.1136 ( 14)  0.1136 ( 16) -0.1037 ( 17)
           0.1037 ( 19) -0.1160 ( 30)  0.1160 ( 31)  0.1177 ( 39) -0.1177 ( 40)
          -0.1372 (126)  0.1034 (130)  0.1140 (132)  0.1240 (146) -0.1508 (153)
           0.1817 (162) -0.1425 (175)  0.1059 (176)  0.1059 (180) -0.2102 (185)
          -0.1791 (188) -0.1791 (189) -0.1610 (237) -0.1610 (240)
 CRD118=   0.1193 (  1) -0.1058 ( 15) -0.1248 ( 18) -0.1034 ( 22)  0.1240 ( 32)
          -0.1172 ( 50)  0.1037 ( 64)  0.1184 ( 66)  0.1084 ( 74) -0.1199 ( 99)
           0.1373 (111)  0.1005 (112) -0.1216 (116) -0.1375 (117) -0.1269 (118)
           0.1393 (122) -0.1515 (192)  0.1278 (195) -0.1278 (196)  0.1515 (197)
          -0.1247 (213)  0.1247 (214) -0.1583 (216)  0.1583 (219) -0.1560 (220)
           0.1560 (223) -0.1001 (224)  0.1001 (227)  0.1432 (233) -0.1432 (234)
           0.1399 (236) -0.1399 (241)
 CRD119=  -0.1285 (  7) -0.1200 ( 13)  0.1355 ( 15)  0.1085 ( 29)  0.1369 ( 32)
           0.1050 ( 49)  0.1273 ( 51) -0.1156 ( 58) -0.1242 ( 66) -0.1233 ( 91)
          -0.1158 ( 99) -0.1112 (112) -0.1348 (114)  0.1229 (115)  0.1308 (117)
           0.1313 (121)  0.1220 (122) -0.1552 (201)  0.1552 (202)  0.1142 (204)
          -0.1142 (207) -0.1449 (208)  0.1449 (211)  0.1585 (213) -0.1585 (214)
           0.1332 (220) -0.1332 (223)  0.1334 (229) -0.1334 (230)  0.1574 (233)
          -0.1574 (234)  0.1138 (236) -0.1138 (241)
 CRD120=   0.1042 (  8) -0.1042 ( 10)  0.1036 ( 23) -0.1036 ( 25) -0.1207 ( 27)
           0.1207 ( 28)  0.1111 ( 36) -0.1111 ( 37)  0.1071 (129)  0.1071 (131)
          -0.1017 (132)  0.1187 (135)  0.1341 (138) -0.1196 (142)  0.1031 (146)
           0.1031 (153) -0.1070 (154) -0.1070 (155) -0.2127 (162) -0.1301 (167)
           0.1261 (176)  0.1261 (180) -0.1196 (183) -0.1196 (184)  0.1584 (185)
           0.1699 (188)  0.1699 (189)  0.1346 (190)  0.1346 (191) -0.1375 (237)
          -0.1375 (240)
 CRD121=  -0.1238 (  3) -0.1379 (  9) -0.1251 ( 15)  0.1305 ( 24)  0.1366 ( 29)
           0.1175 ( 32)  0.1308 ( 48)  0.1028 ( 50)  0.1303 ( 58)  0.1030 ( 66)
          -0.1126 ( 74) -0.1336 ( 83) -0.1254 ( 91) -0.1014 (111) -0.1288 (113)
          -0.1288 (115) -0.1012 (117)  0.1110 (118)  0.1316 (120)  0.1240 (121)
          -0.1442 (195)  0.1442 (196) -0.1617 (204)  0.1617 (207) -0.1433 (213)
           0.1433 (214)  0.1114 (216) -0.1114 (219)  0.1519 (224) -0.1519 (227)
           0.1606 (229) -0.1606 (230)  0.1329 (233) -0.1329 (234)
 CRD122=  -0.1343 (  1) -0.1204 (  3) -0.1410 (  7) -0.1400 ( 13) -0.1314 ( 18)
          -0.1158 ( 24)  0.1083 ( 48)  0.1353 ( 49)  0.1252 ( 50)  0.1381 ( 51)
           0.1334 ( 64)  0.1214 ( 74)  0.1030 ( 83) -0.1183 (111) -0.1279 (112)
          -0.1023 (113) -0.1305 (114) -0.1261 (116) -0.1148 (118)  0.1537 (192)
          -0.1377 (195)  0.1377 (196) -0.1537 (197) -0.1614 (201)  0.1614 (202)
          -0.1144 (204)  0.1144 (207) -0.1602 (208)  0.1602 (211) -0.1504 (216)
           0.1504 (219) -0.1323 (224)  0.1323 (227) -0.1074 (229)  0.1074 (230)
 CRD123=  -0.1065 (  2)  0.1065 (  4) -0.1032 ( 17)  0.1032 ( 19) -0.1069 ( 27)
           0.1069 ( 28) -0.1035 ( 36)  0.1035 ( 37) -0.1221 (126)  0.1188 (130)
           0.1250 (133)  0.1250 (137)  0.1016 (138) -0.1228 (141) -0.1228 (143)
           0.1233 (145)  0.1233 (147) -0.1256 (151) -0.1256 (152)  0.1112 (156)
          -0.1901 (162) -0.1168 (163) -0.1168 (164)  0.1092 (167)  0.1131 (168)
           0.1131 (169) -0.1055 (171) -0.1055 (172) -0.1109 (173) -0.1109 (174)
          -0.1293 (176) -0.1293 (180)  0.1336 (183)  0.1336 (184)  0.1278 (188)
           0.1278 (189)  0.1453 (190)  0.1453 (191)  0.1097 (237)  0.1097 (240)
 CRD124=   0.1020 ( 11) -0.1020 ( 12)  0.1040 ( 20) -0.1040 ( 21) -0.1055 ( 33)
           0.1055 ( 34)  0.1289 (127)  0.1289 (128) -0.1045 (132)  0.1331 (134)
           0.1331 (136)  0.1269 (139)  0.1269 (140) -0.1197 (144)  0.1010 (146)
          -0.1197 (148)  0.1420 (151)  0.1420 (152) -0.1380 (157) -0.1380 (158)
          -0.1163 (159) -0.1163 (160)  0.1401 (162) -0.1090 (165) -0.1090 (166)
          -0.1442 (168) -0.1442 (169) -0.1416 (173) -0.1416 (174) -0.1146 (176)
          -0.1146 (180)  0.1400 (181)  0.1400 (182)  0.1244 (183)  0.1244 (184)
          -0.1196 (190) -0.1196 (191)
 CRD125=   0.1009 ( 14) -0.1009 ( 16)  0.1033 ( 30) -0.1033 ( 31)  0.1484 (129)
           0.1484 (131)  0.1161 (133)  0.1161 (137)  0.1468 (139)  0.1468 (140)
          -0.1064 (141) -0.1064 (143) -0.1446 (149) -0.1446 (150)  0.1153 (151)
           0.1153 (152)  0.1392 (154)  0.1392 (155) -0.1497 (159) -0.1497 (160)
           0.1516 (165)  0.1516 (166) -0.1235 (168) -0.1235 (169) -0.1329 (171)
          -0.1329 (172)  0.1298 (173)  0.1298 (174) -0.1519 (178) -0.1519 (179)
          -0.1364 (181) -0.1364 (182)
 CRD126=   0.1006 (  5) -0.1006 (  6)  0.1019 ( 11) -0.1019 ( 12)  0.1573 (127)
           0.1573 (128) -0.1229 (129) -0.1229 (131) -0.1437 (133)  0.1584 (134)
           0.1584 (136) -0.1437 (137)  0.1468 (141)  0.1468 (143) -0.1560 (144)
           0.1502 (145)  0.1502 (147) -0.1560 (148)  0.1275 (149)  0.1275 (150)
           0.1330 (154)  0.1330 (155) -0.1590 (157) -0.1590 (158)  0.1008 (159)
           0.1008 (160) -0.1525 (163) -0.1525 (164)  0.1080 (165)  0.1080 (166)
          -0.1369 (171) -0.1369 (172) -0.1133 (178) -0.1133 (179)

 THE DETERMINANT OF THE G MATRIX IS 10**(   -55)


                     --------------------
                     INTERNAL COORDINATES
                     --------------------

                 - - ATOMS - -         COORDINATE      COORDINATE
 NO.   TYPE    I  J  K  L  M  N        (BOHR,RAD)       (ANG,DEG)
 ----------------------------------------------------------------
   1 STRETCH   1  2                     2.8912118       1.5299635
   2 STRETCH   1 18                     2.0597998       1.0899992
   3 STRETCH   1  3                     2.8913476       1.5300354
   4 STRETCH   1 19                     2.0597998       1.0899992
   5 STRETCH   2 21                     2.0598031       1.0900009
   6 STRETCH   2 20                     2.0598031       1.0900009
   7 STRETCH   2  4                     2.8912945       1.5300072
   8 STRETCH   3 23                     2.0599121       1.0900586
   9 STRETCH   3  5                     2.8912118       1.5299635
  10 STRETCH   3 22                     2.0599121       1.0900586
  11 STRETCH   4 25                     2.0598031       1.0900009
  12 STRETCH   4 24                     2.0598031       1.0900009
  13 STRETCH   4  6                     2.8913255       1.5300237
  14 STRETCH   5 27                     2.0598031       1.0900009
  15 STRETCH   5  7                     2.8912945       1.5300072
  16 STRETCH   5 26                     2.0598031       1.0900009
  17 STRETCH   6 28                     2.0598031       1.0900009
  18 STRETCH   6  8                     2.8912945       1.5300072
  19 STRETCH   6 29                     2.0598031       1.0900009
  20 STRETCH   7 31                     2.0598031       1.0900009
  21 STRETCH   7 30                     2.0598031       1.0900009
  22 STRETCH   7  9                     2.8913255       1.5300237
  23 STRETCH   8 32                     2.0598031       1.0900009
  24 STRETCH   8 10                     2.8913628       1.5300434
  25 STRETCH   8 33                     2.0598031       1.0900009
  26 STRETCH   9 16                     2.8479501       1.5070704
  27 STRETCH   9 35                     2.0598031       1.0900009
  28 STRETCH   9 34                     2.0598031       1.0900009
  29 STRETCH  10 11                     2.8911901       1.5299520
  30 STRETCH  10 37                     2.0599121       1.0900586
  31 STRETCH  10 36                     2.0599121       1.0900586
  32 STRETCH  11 12                     2.8912118       1.5299635
  33 STRETCH  11 39                     2.0598031       1.0900009
  34 STRETCH  11 38                     2.0598031       1.0900009
  35 STRETCH  12 13                     2.8911901       1.5299520
  36 STRETCH  12 41                     2.0598031       1.0900009
  37 STRETCH  12 40                     2.0598031       1.0900009
  38 STRETCH  13 44                     2.0597302       1.0899624
  39 STRETCH  13 43                     2.0599121       1.0900586
  40 STRETCH  13 42                     2.0599121       1.0900586
  41 STRETCH  14 16                     2.2831652       1.2081991
  42 STRETCH  15 16                     2.5365204       1.3422689
  43 STRETCH  15 17                     1.8274339       0.9670364
  44 BEND      1  3 22                  1.9106365     109.4714091
  45 BEND      1  3 23                  1.9106365     109.4714091
  46 BEND      1  2 20                  1.9106028     109.4694783
  47 BEND      1  2 21                  1.9106028     109.4694783
  48 BEND      1  3  5                  1.9107004     109.4750695
  49 BEND      1  2  4                  1.9106098     109.4698792
  50 BEND      2  1  3                  1.9107004     109.4750695
  51 BEND      2  4  6                  1.9105576     109.4668882
  52 BEND      2  1 18                  1.9106811     109.4739637
  53 BEND      2  4 25                  1.9106468     109.4719968
  54 BEND      2  1 19                  1.9106811     109.4739637
  55 BEND      2  4 24                  1.9106468     109.4719968
  56 BEND      3  5 26                  1.9106028     109.4694783
  57 BEND      3  1 19                  1.9105209     109.4647867
  58 BEND      3  5  7                  1.9106098     109.4698792
  59 BEND      3  5 27                  1.9106028     109.4694783
  60 BEND      3  1 18                  1.9105209     109.4647867
  61 BEND      4  6 28                  1.9106289     109.4709738
  62 BEND      4  2 20                  1.9106468     109.4719968
  63 BEND      4  6 29                  1.9106289     109.4709738
  64 BEND      4  6  8                  1.9105576     109.4668882
  65 BEND      4  2 21                  1.9106468     109.4719968
  66 BEND      5  7  9                  1.9105576     109.4668882
  67 BEND      5  7 31                  1.9106468     109.4719968
  68 BEND      5  7 30                  1.9106468     109.4719968
  69 BEND      5  3 23                  1.9106427     109.4717606
  70 BEND      5  3 22                  1.9106427     109.4717606
  71 BEND      6  8 32                  1.9106468     109.4719968
  72 BEND      6  4 25                  1.9106289     109.4709738
  73 BEND      6  8 33                  1.9106468     109.4719968
  74 BEND      6  8 10                  1.9106492     109.4721325
  75 BEND      6  4 24                  1.9106289     109.4709738
  76 BEND      7  9 34                  1.9106289     109.4709738
  77 BEND      7  9 35                  1.9106289     109.4709738
  78 BEND      7  9 16                  1.9105798     109.4681575
  79 BEND      7  5 27                  1.9106468     109.4719968
  80 BEND      7  5 26                  1.9106468     109.4719968
  81 BEND      8 10 36                  1.9106230     109.4706338
  82 BEND      8 10 37                  1.9106230     109.4706338
  83 BEND      8 10 11                  1.9107036     109.4752540
  84 BEND      8  6 29                  1.9106468     109.4719968
  85 BEND      8  6 28                  1.9106468     109.4719968
  86 BEND      9 16 15                  2.0943618     119.9980944
  87 BEND      9 16 14                  2.0944109     120.0009043
  88 BEND      9  7 30                  1.9106289     109.4709738
  89 BEND      9  7 31                  1.9106289     109.4709738
  90 BEND     10 11 39                  1.9106195     109.4704361
  91 BEND     10 11 12                  1.9106643     109.4730007
  92 BEND     10  8 33                  1.9105832     109.4683517
  93 BEND     10  8 32                  1.9105832     109.4683517
  94 BEND     10 11 38                  1.9106195     109.4704361
  95 BEND     11 10 36                  1.9106546     109.4724436
  96 BEND     11 10 37                  1.9106546     109.4724436
[...]
1248  13 -17.321873  -4.074046  -1.038047   0.000164   0.148843   0.001103
1249  13 -18.799931  -4.011288  -1.006570   0.000114   0.148843   0.000765
1250  13 -19.967597  -3.248675  -1.501104  -0.000013   0.148843  -0.000090
1251  13 -20.364739  -2.086722  -2.326771   0.000046   0.148843   0.000310
1252  13 -19.834861  -0.983308  -3.158211   0.000124   0.148843   0.000832
1253  13 -18.586766  -0.373245  -3.667785  -0.000091   0.148843  -0.000612
1254  13 -17.388522  -0.352514  -3.745465   0.000029   0.082513   0.000352
1255  43 -17.452836  -0.767191   3.854979  -0.000074   0.067539  -0.001091
1256  43 -18.539009  -0.775355   3.791968  -0.000212   0.149133  -0.001423
1257  43 -19.649657  -1.318383   3.338117  -0.000174   0.149133  -0.001169
1258  43 -20.120982  -2.300503   2.598055  -0.000178   0.149133  -0.001191
1259  43 -19.767256  -3.334703   1.863408  -0.000236   0.149133  -0.001580
1260  43 -18.727867  -4.013451   1.423668  -0.000143   0.149133  -0.000960
1261  43 -17.412393  -4.069281   1.452118  -0.000240   0.149133  -0.001606
1262  13 -17.842121  -0.338955   3.730475  -0.000128   0.148844  -0.000862
1263  13 -19.275768  -0.595147   3.468563   0.000090   0.148844   0.000604
1264  13 -20.211810  -1.497566   2.762134   0.000092   0.148844   0.000615
1265  13 -20.281392  -2.690608   1.889559   0.000001   0.148844   0.000004
1266  13 -19.457097  -3.704146   1.194683   0.000058   0.148844   0.000391
1267  13 -18.063742  -4.138790   0.951326   0.000148   0.148844   0.000996
1268  13 -16.881760  -4.001415   1.113478   0.000165   0.082513   0.002005
1269  44 -19.656012   2.571058  -1.538709  -0.000085   0.069549  -0.001217
1270  44 -20.238034   1.750664  -2.031182  -0.000274   0.154598  -0.001771
1271  44 -21.018394   0.650913  -1.912857  -0.000146   0.154598  -0.000948
1272  44 -21.593420  -0.159237  -0.993391  -0.000278   0.154598  -0.001797
1273  44 -21.722152  -0.340301   0.341921  -0.000296   0.154598  -0.001913
1274  44 -21.350647   0.183596   1.533530  -0.000175   0.154598  -0.001133
1275  44 -20.634580   1.192918   2.082102  -0.000208   0.154598  -0.001344
1276  44 -19.874013   2.264719   1.757764  -0.000318   0.154598  -0.002055
1277  13 -19.519308   2.184396  -1.976481  -0.000116   0.152285  -0.000759
1278  13 -20.373553   0.980386  -2.341005   0.000132   0.152285   0.000866
1279  13 -21.178132  -0.153363  -1.724955   0.000102   0.152285   0.000670
1280  13 -21.595895  -0.741764  -0.386481  -0.000083   0.152285  -0.000543
1281  13 -21.451781  -0.538252   1.113541  -0.000071   0.152285  -0.000467
1282  13 -20.806180   0.371892   2.146542   0.000104   0.152285   0.000682
1283  13 -19.929625   1.607281   2.279651  -0.000022   0.152285  -0.000143
1284  13 -19.283194   2.518171   1.750191   0.000018   0.084969   0.000207
1285  14  16.030541   2.194565  -2.201404   0.000197   0.065300   0.003011
1286  16  16.093630   1.815736  -2.290548  -0.000389   0.065300  -0.005959
1287  17  16.646950   1.602106  -2.056287  -0.001217   0.065300  -0.018642
1288  14  16.027635   2.194578   2.204984   0.000247   0.065300   0.003780
1289  16  16.090605   1.815750   2.294214  -0.000396   0.065300  -0.006060
1290  17  16.644234   1.602119   2.060685  -0.001163   0.065300  -0.017805
1291  14  11.986263   2.506176  -2.989654   0.001082   0.115949   0.009329
1292  16  11.934616   2.125501  -3.090897   0.000178   0.115949   0.001531
1293  30  10.945406   2.251567  -3.111857   0.000095   0.115949   0.000818
1294  14  11.985246   2.506078   2.989387   0.001009   0.115935   0.008703
1295  16  11.933563   2.125398   3.090591   0.000171   0.115935   0.001477
1296  31  10.944454   2.251500   3.111145   0.000064   0.115935   0.000555
1297  16  12.875768   2.092035  -3.303386   0.000525   0.167965   0.003127
1298  16  14.763934   1.998793  -2.978143   0.000749   0.327147   0.002290
1299  14  13.630047   2.604008  -3.112593   0.002774   0.339616   0.008168
1300  14  15.421207   2.515551  -2.626882   0.001129   0.157413   0.007172
1301  16  15.454971   1.964502   2.740991   0.000309   0.167819   0.001842
1302  16  13.604455   2.055861   3.232010   0.001025   0.326859   0.003136
1303  14  14.742067   2.548922   2.870445   0.002952   0.339266   0.008700
1304  14  12.913027   2.639226   3.175430   0.001186   0.157276   0.007540
1305  17  17.135703   1.743657  -1.854080  -0.003353   0.216368  -0.015498
1306  17  17.546310   2.274334  -0.770758  -0.007442   0.436926  -0.017032
1307  17  17.545289   2.274339   0.776340  -0.007488   0.436926  -0.017138
1308  17  17.133254   1.743668   1.859122  -0.003201   0.216368  -0.014795
1309  14  16.446547   2.863638  -1.597477   0.003586   0.525817   0.006819
1310  14  16.791644   3.310238   0.002290   0.004911   0.525817   0.009340
1311  14  16.444436   2.863647   1.601603   0.003316   0.525817   0.006306
1312  30   9.539940   4.103693  -1.606278   0.000586   0.249875   0.002346
1313  30   9.984360   3.591821  -2.620116   0.000046   0.501954   0.000092
1314  30  10.400862   2.674176  -3.307025  -0.000133   0.249875  -0.000531
1315  14  11.128165   4.437588  -1.607910   0.008568   0.621695   0.013782
1316  14  11.718310   3.457683  -2.773738   0.006753   0.621695   0.010862
1317  31  10.399870   2.674140   3.306024  -0.000174   0.249895  -0.000696
1318  31   9.983570   3.591926   2.618834   0.000035   0.501997   0.000069
1319  31   9.539488   4.103807   1.604617   0.000621   0.249895   0.002486
1320  14  11.717333   3.457687   2.773288   0.006646   0.621735   0.010690
1321  14  11.127562   4.437689   1.607015   0.008795   0.621735   0.014146
1322  15  16.555558   0.691822   2.532961  -0.000581   0.036305  -0.015995
1323  16  16.221253   0.973112   2.583864  -0.000513   0.036305  -0.014144
1324  17  16.806932   0.826591   2.378429  -0.000798   0.036305  -0.021982
1325  15  16.559073   0.693396  -2.528251  -0.000568   0.036305  -0.015659
1326  16  16.224839   0.974718  -2.579443  -0.000548   0.036305  -0.015095
1327  17  16.810232   0.828069  -2.373286  -0.000688   0.036305  -0.018943
1328  15  14.252956  -1.932101   3.032368   0.000021   0.084695   0.000243
1329  16  13.884462  -1.722790   3.155592  -0.000672   0.084695  -0.007935
1330  34  13.314438  -2.174665   3.200255  -0.000861   0.084695  -0.010167
1331  15  14.255032  -1.933134  -3.030825   0.000078   0.084693   0.000924
1332  16  13.886627  -1.723872  -3.154396  -0.000573   0.084693  -0.006761
1333  35  13.316503  -2.175677  -3.199388  -0.000845   0.084693  -0.009983
1334  16  15.766004   0.738713  -2.952742  -0.000878   0.166697  -0.005266
1335  16  14.800122  -0.648328  -3.276291  -0.001193   0.326504  -0.003653
1336  15  15.887570  -0.165166  -3.001405  -0.000438   0.327150  -0.001338
1337  15  14.940466  -1.525146  -3.177799   0.000710   0.156225   0.004543
1338  16  14.423083  -1.185166   3.307650  -0.000432   0.166495  -0.002594
1339  16  15.399690   0.216923   3.119960  -0.001842   0.326112  -0.005647
1340  15  15.303847  -0.999054   3.156871   0.001054   0.326708   0.003226
1341  15  16.237833   0.341750   2.838543  -0.000711   0.156035  -0.004558
1342  17  17.275090   0.533859   2.368288  -0.001071   0.083329  -0.012858
1343  17  17.971722  -0.445698   2.111300  -0.002868   0.180542  -0.015887
1344  17  18.604614  -1.334622   1.095916  -0.003090   0.180542  -0.017116
1345  17  18.746851  -1.532800  -0.374538  -0.003174   0.180542  -0.017580
1346  17  18.339217  -0.957727  -1.687879  -0.003065   0.180542  -0.016978
1347  17  17.551419   0.151182  -2.297335  -0.002935   0.180542  -0.016258
1348  15  17.217312  -0.106934   2.491187  -0.002077   0.178671  -0.011622
1349  15  18.070554  -1.306264   1.832249  -0.002099   0.178671  -0.011746
1350  15  18.513551  -1.927558   0.411559  -0.002554   0.178671  -0.014293
1351  15  18.361873  -1.712157  -1.179418  -0.002364   0.178671  -0.013230
1352  15  17.678667  -0.749738  -2.278324  -0.002061   0.178671  -0.011534
1353  15  16.935677   0.295727  -2.564273  -0.000974   0.095409  -0.010212
1354  34  13.046935  -4.157455   1.881334  -0.000854   0.271798  -0.003141
1355  34  13.143831  -3.205633   2.922107  -0.003430   0.548653  -0.006251
1356  15  14.454665  -3.598904   1.939578   0.004826   0.667677   0.007228
1357  15  14.494831  -2.464296   2.980822   0.001656   0.336966   0.004915
1358  35  13.138424  -2.773570  -3.258454  -0.001471   0.271683  -0.005416
1359  35  13.105419  -3.820513  -2.310042  -0.002862   0.548412  -0.005219
1360  15  14.499996  -2.924216  -2.609828   0.004169   0.667408   0.006247
1361  15  14.398564  -3.968506  -1.482851   0.002650   0.336828   0.007869
1362  17  16.967596   1.104085  -2.280510  -0.001492   0.109018  -0.013686
1363  16  16.152584   1.447457  -2.515222  -0.000812   0.133189  -0.006096
1364  17  16.976819   1.214039   2.227363  -0.001597   0.109345  -0.014609
1365  16  16.139086   1.356030   2.566997  -0.000797   0.133589  -0.005970
1366  30  10.374663   1.846163  -3.518355  -0.000721   0.273342  -0.002638
1367  16  11.776806   1.368878  -3.465980  -0.000891   0.387853  -0.002297
1368  31  10.337071   1.646454   3.563473  -0.000777   0.273452  -0.002843
1369  16  11.809392   1.553852   3.422640  -0.000689   0.388004  -0.001776
1370  34  12.514584  -1.955244   3.577609  -0.002867   0.302493  -0.009478
1371  16  13.067910  -0.980138   3.553468  -0.003457   0.426211  -0.008111
1372  35  12.304414  -1.737063  -3.652063  -0.002751   0.302610  -0.009092
1373  16  13.263711  -1.180524  -3.485285  -0.003400   0.426373  -0.007974
1374  25  -1.951961  -4.293218   1.944134   0.000403   0.254827   0.001580
1375  25  -1.928516  -3.770559   2.955299  -0.000106   0.509525  -0.000208
1376  25  -1.874821  -2.575052   3.657392  -0.000065   0.509525  -0.000128
1377  18  -0.398721  -4.189828   2.344308   0.000240   0.509525   0.000471
1378  18  -0.358943  -3.303645   3.411150  -0.000199   0.509525  -0.000391
1379  18  -0.310351  -2.222043   3.763219   0.000185   0.254827   0.000725
1380  26   4.568656  -2.371928   3.758652   0.000105   0.254022   0.000413
1381  26   4.546817  -3.443720   3.407448  -0.000371   0.507884  -0.000731
1382  26   4.528836  -4.324939   2.351603   0.000043   0.507884   0.000085
1383  18   3.000573  -2.758628   3.652812  -0.000121   0.507884  -0.000239
1384  18   2.976404  -3.944273   2.956146  -0.000177   0.507884  -0.000349
1385  18   2.965743  -4.466122   1.956087   0.000357   0.254022   0.001405
1386  24  -1.856682  -2.152779  -3.762657   0.000197   0.254838   0.000774
1387  24  -1.905210  -3.234438  -3.410496  -0.000209   0.509546  -0.000410
1388  24  -1.944747  -4.120587  -2.343497   0.000245   0.509546   0.000480
1389  19  -0.330224  -2.644745  -3.657302  -0.000089   0.509546  -0.000175
1390  19  -0.383773  -3.840284  -2.955071  -0.000136   0.509546  -0.000267
1391  19  -0.406981  -4.362878  -1.943777   0.000433   0.254838   0.001699
1392  27   4.524904  -4.498078  -1.956887   0.000335   0.254015   0.001320
1393  27   4.535329  -3.976353  -2.956927  -0.000320   0.507868  -0.000630
1394  27   4.559338  -2.790870  -3.653697  -0.000253   0.507868  -0.000498
1395  19   2.968708  -4.293405  -2.352122   0.000170   0.507868   0.000334
1396  19   2.986441  -3.412350  -3.407993  -0.000234   0.507868  -0.000460
1397  19   3.008202  -2.340679  -3.759321   0.000168   0.254015   0.000662
1398  23   2.315632   3.800066   1.920511   0.000351   0.256096   0.001370
1399  23   2.297431   3.273898   2.953680  -0.000225   0.512134  -0.000440
1400  23   2.254888   2.055452   3.665703  -0.000262   0.512134  -0.000512
1401  20   0.791066   3.679991   2.330011   0.000153   0.512134   0.000298
1402  20   0.759813   2.781097   3.418317  -0.000301   0.512134  -0.000588
1403  20   0.721200   1.677182   3.771170   0.000143   0.256096   0.000559
1404  28  -4.088028   1.902484   3.766138   0.000195   0.255340   0.000765
1405  28  -4.035434   2.991604   3.413493  -0.000225   0.510576  -0.000440
1406  28  -3.992636   3.881760   2.338771   0.000261   0.510576   0.000512
1407  20  -2.531729   2.253726   3.660126  -0.000084   0.510576  -0.000164
1408  20  -2.473706   3.456847   2.954173  -0.000119   0.510576  -0.000233
1409  20  -2.448630   3.980332   1.935035   0.000396   0.255340   0.001552
1410  22   2.238752   1.623665  -3.771648   0.000118   0.256099   0.000461
1411  22   2.277478   2.727616  -3.418873  -0.000351   0.512141  -0.000685
1412  22   2.309056   3.626583  -2.330615   0.000081   0.512141   0.000158
1413  21   0.735303   2.108423  -3.666487  -0.000208   0.512141  -0.000407
1414  21   0.778065   3.326927  -2.954544  -0.000178   0.512141  -0.000347
1415  21   0.796571   3.853157  -1.921395   0.000423   0.256099   0.001651
1416  29  -3.984643   4.054499  -1.934881   0.000449   0.255353   0.001758
1417  29  -4.009896   3.530901  -2.954081  -0.000114   0.510601  -0.000223
1418  29  -4.068041   2.327591  -3.659957  -0.000076   0.510601  -0.000149
1419  21  -2.457338   3.807342  -2.338176   0.000215   0.510601   0.000421
1420  21  -2.500322   2.917018  -3.412917  -0.000229   0.510601  -0.000449
1421  21  -2.552977   1.827746  -3.765449   0.000190   0.255353   0.000745
1422  30   7.010214   1.550830  -3.772921  -0.000071   0.254796  -0.000279
1423  30   7.013659   2.654295  -3.425144  -0.000778   0.509539  -0.001527
1424  30   7.016305   3.558197  -2.344346  -0.000369   0.509539  -0.000725
1425  22   5.496759   1.986783  -3.669980  -0.000412   0.509539  -0.000808
1426  22   5.500498   3.206724  -2.965071  -0.000383   0.509539  -0.000752
1427  22   5.501968   3.738799  -1.937700   0.000269   0.254796   0.001055
1428  31   7.016887   3.734164   1.935362   0.000192   0.254813   0.000752
1429  31   7.015527   3.202115   2.962958  -0.000670   0.509574  -0.001314
1430  31   7.011845   1.982008   3.668016  -0.000672   0.509574  -0.001320
1431  23   5.501852   3.563285   2.342951  -0.000090   0.509574  -0.000176
1432  23   5.499314   2.659330   3.423988  -0.000501   0.509574  -0.000983
1433  23   5.495885   1.555685   3.771823   0.000051   0.254813   0.000201
1434  32  -6.672986  -1.921223  -3.768012   0.000189   0.255710   0.000739
1435  32  -6.722374  -3.017529  -3.415388  -0.000232   0.511338  -0.000454
1436  32  -6.762530  -3.912027  -2.334104   0.000226   0.511338   0.000442
1437  24  -5.165264  -2.418526  -3.662950  -0.000096   0.511338  -0.000187
1438  24  -5.219744  -3.629129  -2.954158  -0.000123   0.511338  -0.000240
1439  24  -5.243238  -4.154023  -1.928193   0.000438   0.255710   0.001715
1440  33  -6.770189  -4.084960   1.929307   0.000400   0.255698   0.001563
1441  33  -6.746625  -3.560023   2.955120  -0.000120   0.511314  -0.000235
1442  33  -6.692101  -2.349502   3.663788  -0.000134   0.511314  -0.000262
1443  25  -5.235284  -3.980707   2.335601   0.000234   0.511314   0.000458
1444  25  -5.195057  -3.086213   3.416714  -0.000239   0.511314  -0.000467
1445  25  -5.145649  -1.990006   3.769272   0.000189   0.255698   0.000739
1446  34   9.466452  -2.378047   3.753828  -0.000580   0.251358  -0.002307
1447  34   9.472540  -3.441775   3.413881  -0.001859   0.502544  -0.003699
1448  34   9.476474  -4.328662   2.379737  -0.001527   0.502544  -0.003039
1449  26   7.908159  -2.802538   3.654143  -0.000676   0.502544  -0.001345
1450  26   7.914461  -3.983757   2.975381  -0.000748   0.502544  -0.001489
1451  26   7.916273  -4.515881   1.993567   0.000078   0.251358   0.000309
1452  35   9.477353  -4.506297  -1.992353  -0.000348   0.251320  -0.001386
1453  35   9.475635  -3.974371  -2.973915  -0.001796   0.502468  -0.003574
1454  35   9.469402  -2.793592  -3.652712  -0.001697   0.502468  -0.003378
1455  27   7.915867  -4.338518  -2.383302  -0.000421   0.502468  -0.000839
1456  27   7.912032  -3.451973  -3.417257  -0.000787   0.502468  -0.001567
1457  27   7.905982  -2.388626  -3.757360  -0.000074   0.251320  -0.000293
1458  36  -8.942083   2.111390   3.761554   0.000204   0.254743   0.000799
1459  36  -8.902607   3.189780   3.408835  -0.000157   0.509346  -0.000308
1460  36  -8.870300   4.073475   2.344515   0.000280   0.509346   0.000549
1461  28  -7.375550   2.475765   3.655314  -0.000043   0.509346  -0.000085
1462  28  -7.331933   3.667716   2.953825  -0.000090   0.509346  -0.000176
1463  28  -7.312891   4.189144   1.945537   0.000404   0.254743   0.001587
1464  37  -8.863827   4.245850  -1.944913   0.000451   0.254761   0.001768
1465  37  -8.882829   3.724302  -2.953305  -0.000093   0.509380  -0.000183
1466  37  -8.926428   2.532125  -3.654743  -0.000046   0.509380  -0.000091
1467  29  -7.319130   4.016516  -2.343694   0.000261   0.509380   0.000513
1468  29  -7.351399   3.132631  -3.408076  -0.000153   0.509380  -0.000300
1469  29  -7.390872   2.054053  -3.760691   0.000205   0.254761   0.000805
1470  38 -11.463533  -1.761454  -3.770139   0.000181   0.256063   0.000705
1471  38 -11.491880  -2.863767  -3.417150  -0.000255   0.512062  -0.000498
1472  38 -11.515047  -3.761614  -2.330456   0.000198   0.512062   0.000387
1473  32  -9.952798  -2.231398  -3.664749  -0.000166   0.512062  -0.000325
1474  32  -9.984120  -3.448142  -2.953325  -0.000131   0.512062  -0.000255
1475  32  -9.997724  -3.973921  -1.921885   0.000406   0.256063   0.001585
1476  39 -11.519827  -3.934656   1.922972   0.000443   0.256056   0.001730
1477  39 -11.506388  -3.408834   2.954292  -0.000135   0.512048  -0.000264
1478  39 -11.475184  -2.192147   3.665614  -0.000172   0.512048  -0.000336
1479  33  -9.993488  -3.800505   2.331445   0.000180   0.512048   0.000353
1480  33  -9.970497  -2.902650   3.418002  -0.000250   0.512048  -0.000489
1481  33  -9.942210  -1.800412   3.770934   0.000184   0.256056   0.000718
1482  40 -13.812432   2.219567   3.760624   0.000182   0.254614   0.000713
1483  40 -13.796438   3.298228   3.408073  -0.000200   0.509088  -0.000394
1484  40 -13.783045   4.182445   2.344327   0.000236   0.509088   0.000464
1485  36 -12.254494   2.618022   3.655080  -0.000067   0.509088  -0.000131
1486  36 -12.236701   3.810374   2.953970  -0.000115   0.509088  -0.000227
1487  36 -12.228658   4.332293   1.946203   0.000391   0.254614   0.001534
1488  41 -13.779861   4.355048  -1.945687   0.000424   0.254629   0.001666
1489  41 -13.787696   3.833051  -2.953519  -0.000137   0.509117  -0.000269
1490  41 -13.805360   2.640552  -3.654594  -0.000099   0.509117  -0.000195
1491  37 -12.230822   4.159497  -2.344629   0.000235   0.509117   0.000462
1492  37 -12.244000   3.275157  -3.408414  -0.000177   0.509117  -0.000347
1493  37 -12.259939   2.196374  -3.760895   0.000194   0.254629   0.000764
1494  42 -16.308487  -1.698309  -3.767678   0.000086   0.249982   0.000343
1495  42 -16.320009  -2.761820  -3.434899  -0.000362   0.499800  -0.000725
1496  42 -16.331519  -3.655205  -2.409881   0.000049   0.499800   0.000099
1497  38 -14.758290  -2.128416  -3.664458  -0.000104   0.499800  -0.000207
1498  38 -14.771846  -3.311905  -2.995055  -0.000144   0.499800  -0.000288
1499  38 -14.779672  -3.851445  -2.019983   0.000343   0.249982   0.001370
1500  43 -16.334867  -3.835620   2.023537   0.000360   0.249975   0.001439
1501  43 -16.327320  -3.296033   2.998516  -0.000326   0.499786  -0.000653
1502  43 -16.313953  -2.112570   3.667826  -0.000264   0.499786  -0.000529
1503  39 -14.777539  -3.670657   2.406207   0.000151   0.499786   0.000303
1504  39 -14.766321  -2.777249   3.431114  -0.000238   0.499786  -0.000476
1505  39 -14.754892  -1.713782   3.763834   0.000167   0.249975   0.000668
 =====================================================


   1 warning(s) detected.
     A line exceeding 80 characters begins with "http://cactus.nci.ni".
 There may be a problem in your input file.

             19543853  WORDS OF DYNAMIC MEMORY USED
 EXECUTION OF GAMESS TERMINATED NORMALLY Fri Nov 25 08:11:56 2016
 DDI: 263640 bytes (0.3 MB / 0 MWords) used by master data server.

 ----------------------------------------
 CPU timing information for all processes
 ========================================
 0: 8844.944 + 2.176 = 8847.120
 ----------------------------------------
 ddikick.x: exited gracefully.
