----- GAMESS execution script -----

          ******************************************************
          *         GAMESS VERSION =  5 DEC 2014 (R1)          *
          *             FROM IOWA STATE UNIVERSITY             *
          * M.W.SCHMIDT, K.K.BALDRIDGE, J.A.BOATZ, S.T.ELBERT, *
          *   M.S.GORDON, J.H.JENSEN, S.KOSEKI, N.MATSUNAGA,   *
          *          K.A.NGUYEN, S.J.SU, T.L.WINDUS,           *
          *       TOGETHER WITH M.DUPUIS, J.A.MONTGOMERY       *
          *         J.COMPUT.CHEM.  14, 1347-1363(1993)        *
          **************** 64 BIT LINUX VERSION ****************

 EXECUTION OF GAMESS BEGUN Fri Nov 25 05:57:58 2016

            ECHO OF THE FIRST FEW INPUT CARDS -
 INPUT CARD>! SELECT RESTRICTED HARTREE-FOCK AS DEFAULT                                     
 INPUT CARD>$contrl scftyp=rhf $end                                                         
 INPUT CARD>                                                                                
 INPUT CARD>! THEORY: HF OR DFT                                                             
 INPUT CARD> $contrl mplevl=0 $end                                                          
 INPUT CARD>                                                                                
 INPUT CARD> $system timlim=10000 mwords=20 $end                                            
 INPUT CARD> $SCF DIRSCF=.TRUE. $end                                                        
 INPUT CARD>                                                                                
 INPUT CARD>                                                                                
 INPUT CARD>! BASIS SETS                                                                    
 INPUT CARD>! 6-311G(d,p)                                                                   
 INPUT CARD> $BASIS GBASIS=N311 NGAUSS=6 NDFUNC=1 NPFUNC=1 $END                             
 INPUT CARD>                                                                                
 INPUT CARD>! One of the following                                                          
 INPUT CARD> $guess guess=HUCKEL $end                                                       
 INPUT CARD>                                                                                
 INPUT CARD> $statpt projct=.FALSE. $end                                                    
 INPUT CARD> $STATPT IFREEZ(1)=1,2,3 $END                                                   
 INPUT CARD>                                                                                
 INPUT CARD>! Optimize the geometry with COSMO effects                                      
 INPUT CARD> $statpt opttol=0.0005 nstep=50 $end                                            
 INPUT CARD> $contrl nzvar=1 $end                                                           
 INPUT CARD> $zmat dlc=.t. auto=.t. $end                                                    
 INPUT CARD> $contrl runtyp=OPTIMIZE maxit=200 $end                                         
 INPUT CARD>                                                                                
 INPUT CARD>! Run COSMO on perfect conductor                                                
 INPUT CARD> $COSGMS PRFCND=.TRUE. $end                                                     
 INPUT CARD>                                                                                
 INPUT CARD>! Specifying RSOLV                                                              
 INPUT CARD> $COSGMS COSRAD = 1.4 $end                                                      
 INPUT CARD>                                                                                
 INPUT CARD>! available memory                                                              
 INPUT CARD> $SYSTEM MWORDS=40 $END                                                         
 INPUT CARD>                                                                                
 INPUT CARD> $DATA                                                                          
 INPUT CARD>http://cactus.nci.nih.gov/chemical/structure/tridecane/file?format=sdf&get3d=Tru
 INPUT CARD>C1                                                                              
 INPUT CARD>C      6.0      7.4685500000   -0.3092200000   -0.6846600000                    
 INPUT CARD>C      6.0      6.2353700000    0.5168900000   -0.3138200000                    
 INPUT CARD>C      6.0      4.9772000000   -0.3337100000   -0.4987200000                    
 INPUT CARD>C      6.0      3.7439200000    0.4924100000   -0.1278800000                    
 INPUT CARD>C      6.0      2.4857500000   -0.3582000000   -0.3127800000                    
 INPUT CARD>C      6.0      1.2524700000    0.4679200000    0.0580700000                    
 INPUT CARD>C      6.0     -0.0057000000   -0.3826900000   -0.1268400000                    
 INPUT CARD>C      6.0     -1.2388800000    0.4434300000    0.2440000000                    
 INPUT CARD>C      6.0     -2.4971600000   -0.4071700000    0.0591000000                    
 INPUT CARD>C      6.0     -3.7303300000    0.4189400000    0.4299400000                    
 INPUT CARD>C      6.0     -4.9886100000   -0.4316600000    0.2450400000                    
 INPUT CARD>C      6.0     -6.2217800000    0.3944500000    0.6158800000                    
   40000000 WORDS OF MEMORY AVAILABLE

     BASIS OPTIONS
     -------------
     GBASIS=N311         IGAUSS=       6      POLAR=POPN311 
     NDFUNC=       1     NFFUNC=       0     DIFFSP=       F
     NPFUNC=       1      DIFFS=       F     BASNAM=        


     RUN TITLE
     ---------
 http://cactus.nci.nih.gov/chemical/structure/tridecane/file?format=sdf&get3d=Tru

 THE POINT GROUP OF THE MOLECULE IS C1      
 THE ORDER OF THE PRINCIPAL AXIS IS     0

 ATOM      ATOMIC                      COORDINATES (BOHR)
           CHARGE         X                   Y                   Z
 C           6.0    14.1135130256       -0.5843410699       -1.2938197948
 C           6.0    11.7831407321        0.9767804658       -0.5930338095
 C           6.0     9.4055441861       -0.6306204594       -0.9424441446
 C           6.0     7.0749829200        0.9305199736       -0.2416581593
 C           6.0     4.6973863740       -0.6768998488       -0.5910684944
 C           6.0     2.3668251078        0.8842405842        0.1097363881
 C           6.0    -0.0107714381       -0.7231792382       -0.2396928443
 C           6.0    -2.3411437317        0.8379611947        0.4610931410
 C           6.0    -4.7189481475       -0.7694397304        0.1116828059
 C           6.0    -7.0493015438        0.7916818053        0.8124687912
 C           6.0    -9.4271059596       -0.8157191199        0.4630584560
 C           6.0   -11.7574593559        0.7454024159        1.1638444413
 C           6.0   -14.1350747991       -0.8619985093        0.8144341062
 H           1.0    15.8074445037        0.5608328786       -1.0448672931
 H           1.0    14.2206604891       -2.2425945214       -0.0764205189
 H           1.0    13.9726906450       -1.1838566395       -3.2595316644
 H           1.0    11.9239442154        1.5761259601        1.3726213684
 H           1.0    11.6759932686        2.6348638419       -1.8104708798
 H           1.0     9.2647218055       -1.2301360290       -2.9081749115
 H           1.0     9.5126916496       -2.2888739108        0.2749362340
 H           1.0     7.2157864033        1.5298465706        1.7240159159
 H           1.0     6.9678165592        2.5885844525       -1.4590952296
 H           1.0     4.5565639934       -1.2764154184       -2.5567992614
 H           1.0     4.8045338375       -2.3351533003        0.6263118841
 H           1.0     2.5076285912        1.4835671812        2.0753915660
 H           1.0     2.2596587471        2.5423050631       -1.1077195795
 H           1.0    -0.1515938187       -1.3226948078       -2.2054047140
 H           1.0     0.0963760254       -2.3814137925        0.9776875343
 H           1.0    -2.2003402483        1.4373066890        2.4267483189
 H           1.0    -2.4483100924        2.4960256736       -0.7563628266
 H           1.0    -4.8597516308       -1.3689741973       -1.8540290638
 H           1.0    -4.6117817867       -2.4276931819        1.3290631844
 H           1.0    -6.9084980604        1.3910272996        2.7781239691
 H           1.0    -7.1564679045        2.4497462842       -0.4049682792
 H           1.0    -9.5679094430       -1.4152346895       -1.5026534137
 H           1.0    -9.3199395988       -2.4739725713        1.6804577318
 H           1.0   -11.6166558725        1.3447479101        3.1294996192
 H           1.0   -11.8646257167        2.4034857920       -0.0535926290
 H           1.0   -14.2758782825       -1.4615140789       -1.1512966608
 H           1.0   -14.0279273356       -2.5202519608        2.0318144847
 H           1.0   -15.7953502574        0.2502186180        1.3136997121

          INTERNUCLEAR DISTANCES (ANGS.)




     $CONTRL OPTIONS
     ---------------
 SCFTYP=RHF          RUNTYP=OPTIMIZE     EXETYP=RUN     
 MPLEVL=       0     CITYP =NONE         CCTYP =NONE         VBTYP =NONE    
 DFTTYP=NONE         TDDFT =NONE    
 MULT  =       1     ICHARG=       0     NZVAR =       1     COORD =UNIQUE  
 PP    =NONE         RELWFN=NONE         LOCAL =NONE         NUMGRD=       F
 ISPHER=      -1     NOSYM =       0     MAXIT =     200     UNITS =ANGS    
 PLTORB=       F     MOLPLT=       F     AIMPAC=       F     FRIEND=        
 NPRINT=       7     IREST =       0     GEOM  =INPUT   
 NORMF =       0     NORMP =       0     ITOL  =      20     ICUT  =       9
 INTTYP=BEST         GRDTYP=BEST         QMTTOL= 1.0E-06

     $SYSTEM OPTIONS
     ---------------
  REPLICATED MEMORY=    40000000 WORDS (ON EVERY NODE).
 DISTRIBUTED MEMDDI=           0 MILLION WORDS IN AGGREGATE,
 MEMDDI DISTRIBUTED OVER   1 PROCESSORS IS           0 WORDS/PROCESSOR.
 TOTAL MEMORY REQUESTED ON EACH PROCESSOR=    40000000 WORDS.
 TIMLIM=       10000.00 MINUTES, OR       6.9 DAYS.
 PARALL= F  BALTYP=  DLB     KDIAG=    0  COREFL= F
 MXSEQ2=     300 MXSEQ3=     150  mem10=         0

     $COSGMS OPTIONS
     ---------------
     EPSI  =   INFTY     NSPA  =      92     COSRAD=    1.40
     DISEX =   10.00     OUTCHG=DBLCAV       COSBUG=       F
     COSWRT=       F     DCOSMO=       F

     SYMMETRY COORDINATES WILL NOT BE USED FOR 
     THE COSMO CALCULATION, EVEN IF SPECIFIED:
         -- SWITCHING TO C1 POINT GROUP --


     DEFINITION OF CAVITY
     ---------------------------
     ATOM         COORDINATES           RADIUS 
     1   14.1135   -0.5843   -1.2938    2.0000
     2   11.7831    0.9768   -0.5930    2.0000
     3    9.4055   -0.6306   -0.9424    2.0000
     4    7.0750    0.9305   -0.2417    2.0000
     5    4.6974   -0.6769   -0.5911    2.0000
     6    2.3668    0.8842    0.1097    2.0000
     7   -0.0108   -0.7232   -0.2397    2.0000
     8   -2.3411    0.8380    0.4611    2.0000
     9   -4.7189   -0.7694    0.1117    2.0000
    10   -7.0493    0.7917    0.8125    2.0000
    11   -9.4271   -0.8157    0.4631    2.0000
    12  -11.7575    0.7454    1.1638    2.0000
    13  -14.1351   -0.8620    0.8144    2.0000
    14   15.8074    0.5608   -1.0449    1.3000
    15   14.2207   -2.2426   -0.0764    1.3000
    16   13.9727   -1.1839   -3.2595    1.3000
    17   11.9239    1.5761    1.3726    1.3000
    18   11.6760    2.6349   -1.8105    1.3000
    19    9.2647   -1.2301   -2.9082    1.3000
    20    9.5127   -2.2889    0.2749    1.3000
    21    7.2158    1.5298    1.7240    1.3000
    22    6.9678    2.5886   -1.4591    1.3000
    23    4.5566   -1.2764   -2.5568    1.3000
    24    4.8045   -2.3352    0.6263    1.3000
    25    2.5076    1.4836    2.0754    1.3000
    26    2.2597    2.5423   -1.1077    1.3000
    27   -0.1516   -1.3227   -2.2054    1.3000
    28    0.0964   -2.3814    0.9777    1.3000
    29   -2.2003    1.4373    2.4267    1.3000
    30   -2.4483    2.4960   -0.7564    1.3000
    31   -4.8598   -1.3690   -1.8540    1.3000
    32   -4.6118   -2.4277    1.3291    1.3000
    33   -6.9085    1.3910    2.7781    1.3000
    34   -7.1565    2.4497   -0.4050    1.3000
    35   -9.5679   -1.4152   -1.5027    1.3000
    36   -9.3199   -2.4740    1.6805    1.3000
    37  -11.6167    1.3447    3.1295    1.3000
    38  -11.8646    2.4035   -0.0536    1.3000
    39  -14.2759   -1.4615   -1.1513    1.3000
    40  -14.0279   -2.5203    2.0318    1.3000
    41  -15.7954    0.2502    1.3137    1.3000

          ----------------
          PROPERTIES INPUT
          ----------------

     MOMENTS            FIELD           POTENTIAL          DENSITY
 IEMOM =       1   IEFLD =       0   IEPOT =       0   IEDEN =       0
 WHERE =COMASS     WHERE =NUCLEI     WHERE =NUCLEI     WHERE =NUCLEI  
 OUTPUT=BOTH       OUTPUT=BOTH       OUTPUT=BOTH       OUTPUT=BOTH    
 IEMINT=       0   IEFINT=       0                     IEDINT=       0
                                                       MORB  =       0
          EXTRAPOLATION IN EFFECT
          SOSCF IN EFFECT
 ORBITAL PRINTING OPTION: NPREO=     1   415     2     1

     -------------------------------
     INTEGRAL TRANSFORMATION OPTIONS
     -------------------------------
     NWORD  =            0
     CUTOFF = 1.0E-09     MPTRAN =       0
     DIRTRF =       T     AOINTS =DUP     

          ----------------------
          INTEGRAL INPUT OPTIONS
          ----------------------
 NOPK  =       1 NORDER=       0 SCHWRZ=       T


 -----------------------------------------------
  STATISTICS ON AUTOMATIC COORDINATE GENERATION 
 -----------------------------------------------
  NUMBER OF USER SPECIFIED BONDS                             0
  NUMBER OF BONDS                                           40
  NUMBER OF ANGLES                                          78
  NUMBER OF TORSIONS                                       108
  NUMBER OF EXTRA COORD.                                     0
  NUMBER OF EXTRA COORD. FOR CONSTRAINTS                     0
  NUMBER OF CONSTRAINED COORD.                               0

  TOTAL NUMBER OF PRIMITIVES                               226
 -----------------------------------------------

   --- ENCODED Z MATRIX ---
 COORD  TYPE   I   J   K   L   M   N
    1      1    1  14
    2      1    1   2
    3      1    1  15
    4      1    1  16
    5      1    2  17
    6      1    2   3
    7      1    2  18
    8      1    3   4
    9      1    3  19
   10      1    3  20
   11      1    4  21
   12      1    4  22
   13      1    4   5
   14      1    5  24
   15      1    5  23
   16      1    5   6
   17      1    6  25
   18      1    6   7
   19      1    6  26
   20      1    7   8
   21      1    7  28
   22      1    7  27
   23      1    8  29
   24      1    8   9
   25      1    8  30
   26      1    9  32
   27      1    9  31
   28      1    9  10
   29      1   10  11
   30      1   10  34
   31      1   10  33
   32      1   11  12
   33      1   11  36
   34      1   11  35
   35      1   12  13
   36      1   12  38
   37      1   12  37
   38      1   13  41
   39      1   13  40
   40      1   13  39
   41      2    1   2   3
   42      2    1   2  17
   43      2    1   2  18
   44      2    2   3   4
   45      2    2   1  16
   46      2    2   3  19
   47      2    2   1  15
   48      2    2   1  14
   49      2    2   3  20
   50      2    3   4  21
   51      2    3   2  18
   52      2    3   4  22
   53      2    3   4   5
   54      2    3   2  17
   55      2    4   5  24
   56      2    4   5  23
   57      2    4   5   6
   58      2    4   3  19
   59      2    4   3  20
   60      2    5   4  21
   61      2    5   4  22
   62      2    5   6  26
   63      2    5   6  25
   64      2    5   6   7
   65      2    6   7   8
   66      2    6   7  27
   67      2    6   7  28
   68      2    6   5  23
   69      2    6   5  24
   70      2    7   6  25
   71      2    7   6  26
   72      2    7   8  30
   73      2    7   8   9
   74      2    7   8  29
   75      2    8   9  10
   76      2    8   9  31
   77      2    8   9  32
   78      2    8   7  27
   79      2    8   7  28
   80      2    9  10  33
   81      2    9  10  34
   82      2    9  10  11
   83      2    9   8  30
   84      2    9   8  29
   85      2   10  11  35
   86      2   10  11  36
   87      2   10  11  12
   88      2   10   9  31
   89      2   10   9  32
   90      2   11  10  33
   91      2   11  10  34
   92      2   11  12  38
   93      2   11  12  37
   94      2   11  12  13
   95      2   12  13  39
   96      2   12  13  40
   97      2   12  13  41
   98      2   12  11  35
   99      2   12  11  36
  100      2   13  12  37
  101      2   13  12  38
  102      2   14   1  16
  103      2   14   1  15
  104      2   15   1  16
  105      2   17   2  18
  106      2   19   3  20
  107      2   21   4  22
  108      2   23   5  24
  109      2   25   6  26
  110      2   27   7  28
  111      2   29   8  30
  112      2   31   9  32
  113      2   33  10  34
  114      2   35  11  36
  115      2   37  12  38
  116      2   39  13  40
  117      2   39  13  41
  118      2   40  13  41
  119      3    1   2   3  20
  120      3    1   2   3  19
  121      3    1   2   3   4
  122      3    2   3   4   5
  123      3    2   3   4  22
  124      3    2   3   4  21
  125      3    3   2   1  14
  126      3    3   2   1  16
  127      3    3   4   5   6
  128      3    3   2   1  15
  129      3    3   4   5  23
  130      3    3   4   5  24
  131      3    4   5   6  26
  132      3    4   5   6   7
  133      3    4   5   6  25
  134      3    4   3   2  18
  135      3    4   3   2  17
  136      3    5   6   7   8
  137      3    5   4   3  20
  138      3    5   4   3  19
  139      3    5   6   7  27
  140      3    5   6   7  28
  141      3    6   5   4  22
  142      3    6   5   4  21
  143      3    6   7   8  30
  144      3    6   7   8   9
  145      3    6   7   8  29
  146      3    7   8   9  10
  147      3    7   8   9  31
  148      3    7   8   9  32
  149      3    7   6   5  23
  150      3    7   6   5  24
  151      3    8   9  10  11
  152      3    8   7   6  26
  153      3    8   7   6  25
  154      3    8   9  10  33
  155      3    8   9  10  34
  156      3    9   8   7  27
  157      3    9   8   7  28
  158      3    9  10  11  35
  159      3    9  10  11  36
  160      3    9  10  11  12
  161      3   10   9   8  30
  162      3   10   9   8  29
  163      3   10  11  12  38
  164      3   10  11  12  13
  165      3   10  11  12  37
  166      3   11  12  13  39
  167      3   11  12  13  40
  168      3   11  12  13  41
  169      3   11  10   9  31
  170      3   11  10   9  32
  171      3   12  11  10  33
  172      3   12  11  10  34
  173      3   13  12  11  35
  174      3   13  12  11  36
  175      3   14   1   2  17
  176      3   14   1   2  18
  177      3   15   1   2  18
  178      3   15   1   2  17
  179      3   16   1   2  18
  180      3   16   1   2  17
  181      3   17   2   3  19
  182      3   17   2   3  20
  183      3   18   2   3  19
  184      3   18   2   3  20
  185      3   19   3   4  22
  186      3   19   3   4  21
  187      3   20   3   4  22
  188      3   20   3   4  21
  189      3   21   4   5  23
  190      3   21   4   5  24
  191      3   22   4   5  23
  192      3   22   4   5  24
  193      3   23   5   6  25
  194      3   23   5   6  26
  195      3   24   5   6  25
  196      3   24   5   6  26
  197      3   25   6   7  28
  198      3   25   6   7  27
  199      3   26   6   7  28
  200      3   26   6   7  27
  201      3   27   7   8  29
  202      3   27   7   8  30
  203      3   28   7   8  29
  204      3   28   7   8  30
  205      3   29   8   9  32
  206      3   29   8   9  31
  207      3   30   8   9  32
  208      3   30   8   9  31
  209      3   31   9  10  34
  210      3   31   9  10  33
  211      3   32   9  10  34
  212      3   32   9  10  33
  213      3   33  10  11  36
  214      3   33  10  11  35
  215      3   34  10  11  36
  216      3   34  10  11  35
  217      3   35  11  12  37
  218      3   35  11  12  38
  219      3   36  11  12  37
  220      3   36  11  12  38
  221      3   37  12  13  41
  222      3   37  12  13  40
  223      3   37  12  13  39
  224      3   38  12  13  41
  225      3   38  12  13  40
  226      3   38  12  13  39

          INDEP./SYM. INTERNAL COORDINATES
          --------------------------------
 CRD  1=   0.1474 ( 44) -0.2298 ( 53)  0.2935 ( 57) -0.3422 ( 64)  0.3543 ( 65)
          -0.1031 ( 66) -0.1031 ( 67)  0.1000 ( 70)  0.1000 ( 71)  0.1000 ( 72)
          -0.3422 ( 73)  0.1000 ( 74)  0.2935 ( 75) -0.1031 ( 78) -0.1031 ( 79)
          -0.2298 ( 82)  0.1474 ( 87)
 CRD  2=   0.1479 (122) -0.2153 (127)  0.1046 (131)  0.2562 (132)  0.1046 (133)
          -0.2838 (136) -0.1233 (139) -0.1233 (140) -0.1055 (141) -0.1055 (142)
           0.1273 (143)  0.2838 (144)  0.1273 (145) -0.2562 (146) -0.1205 (147)
          -0.1205 (148)  0.1205 (149)  0.1205 (150)  0.2153 (151) -0.1273 (152)
          -0.1273 (153)  0.1055 (154)  0.1055 (155)  0.1233 (156)  0.1233 (157)
          -0.1479 (160) -0.1046 (161) -0.1046 (162)
 CRD  3=  -0.1726 ( 41)  0.2792 ( 44) -0.3401 ( 53)  0.2960 ( 57)  0.1015 ( 60)
           0.1015 ( 61) -0.1760 ( 64)  0.1760 ( 73) -0.2960 ( 75) -0.1015 ( 80)
          -0.1015 ( 81)  0.3401 ( 82) -0.2792 ( 87)  0.1726 ( 94)
 CRD  4=   0.1415 (  6)  0.2013 (  8)  0.2263 ( 13)  0.2701 ( 16)  0.2744 ( 18)
           0.2744 ( 20)  0.2701 ( 24)  0.2263 ( 28)  0.2013 ( 29)  0.1415 ( 32)
           0.1472 ( 41)  0.1889 ( 53)  0.1895 ( 57)  0.1600 ( 64)  0.2553 ( 65)
           0.1600 ( 73)  0.1895 ( 75)  0.1889 ( 82)  0.1472 ( 94)
 CRD  5=  -0.2445 ( 41)  0.3519 ( 44) -0.1069 ( 46) -0.1069 ( 49) -0.2100 ( 53)
          -0.1026 ( 58) -0.1027 ( 59)  0.2541 ( 64) -0.2600 ( 65)  0.2541 ( 73)
          -0.2100 ( 82) -0.1027 ( 85) -0.1026 ( 86)  0.3519 ( 87) -0.2445 ( 94)
          -0.1069 ( 98) -0.1069 ( 99)
 CRD  6=  -0.1044 ( 50)  0.1044 ( 52)  0.1189 ( 62) -0.1189 ( 63) -0.1207 ( 66)
           0.1207 ( 67)  0.1258 ( 68) -0.1258 ( 69)  0.1017 ( 70) -0.1017 ( 71)
           0.1017 ( 72) -0.1017 ( 74) -0.1258 ( 76)  0.1258 ( 77)  0.1207 ( 78)
          -0.1207 ( 79) -0.1189 ( 83)  0.1189 ( 84)  0.1044 ( 90) -0.1044 ( 91)
          -0.1377 (121) -0.2119 (127) -0.1104 (129) -0.1104 (130) -0.1202 (132)
          -0.1939 (136) -0.1200 (139) -0.1200 (140) -0.1274 (141) -0.1274 (142)
          -0.1106 (143) -0.1939 (144) -0.1106 (145) -0.1202 (146) -0.2119 (151)
          -0.1106 (152) -0.1106 (153) -0.1274 (154) -0.1274 (155) -0.1200 (156)
          -0.1200 (157) -0.1377 (164) -0.1104 (169) -0.1104 (170)
 CRD  7=  -0.1037 ( 60)  0.1037 ( 61)  0.1037 ( 80) -0.1037 ( 81) -0.1605 (121)
           0.2714 (122)  0.1112 (123)  0.1112 (124) -0.2090 (127)  0.1334 (131)
           0.2378 (132)  0.1334 (133)  0.1443 (137)  0.1443 (138)  0.2378 (146)
          -0.2090 (151)  0.1443 (158)  0.1443 (159)  0.2714 (160)  0.1334 (161)
           0.1334 (162) -0.1605 (164)  0.1112 (171)  0.1112 (172)
 CRD  8=   0.1005 (  2)  0.1064 (  6)  0.1644 (  8) -0.1644 ( 29) -0.1064 ( 32)
          -0.1005 ( 35)  0.3700 ( 41) -0.1099 ( 42) -0.1099 ( 43) -0.1141 ( 44)
          -0.1106 ( 51) -0.1106 ( 54)  0.3102 ( 57) -0.1777 ( 64) -0.1078 ( 68)
          -0.1078 ( 69)  0.1777 ( 73) -0.3102 ( 75)  0.1078 ( 76)  0.1078 ( 77)
           0.1141 ( 87)  0.1106 ( 92)  0.1106 ( 93) -0.3700 ( 94)  0.1099 (100)
           0.1099 (101)
 CRD  9=  -0.1263 (  2) -0.1990 (  6) -0.2159 (  8) -0.2313 ( 13) -0.1499 ( 16)
           0.1499 ( 24)  0.2313 ( 28)  0.2159 ( 29)  0.1990 ( 32)  0.1263 ( 35)
          -0.3439 ( 44)  0.1145 ( 46)  0.1145 ( 49) -0.1655 ( 53) -0.2388 ( 64)
           0.2388 ( 73)  0.1655 ( 82)  0.3439 ( 87) -0.1145 ( 98) -0.1145 ( 99)
 CRD 10=  -0.1169 (  2) -0.1169 ( 35) -0.3800 ( 41)  0.1110 ( 42)  0.1110 ( 43)
           0.1183 ( 51)  0.2137 ( 53)  0.1183 ( 54) -0.1819 ( 57)  0.3609 ( 65)
          -0.1098 ( 66) -0.1098 ( 67) -0.1819 ( 75) -0.1098 ( 78) -0.1098 ( 79)
           0.2137 ( 82)  0.1183 ( 92)  0.1183 ( 93) -0.3800 ( 94)  0.1110 (100)
           0.1110 (101)
 CRD 11=   0.1096 ( 45) -0.1096 ( 47) -0.1267 ( 50)  0.1267 ( 52)  0.1055 ( 55)
          -0.1055 ( 56)  0.1388 ( 58) -0.1388 ( 59)  0.1388 ( 85) -0.1388 ( 86)
          -0.1055 ( 88)  0.1055 ( 89) -0.1267 ( 90)  0.1267 ( 91)  0.1096 ( 95)
          -0.1096 ( 96) -0.1035 (119) -0.1035 (120) -0.2244 (121) -0.1731 (127)
          -0.1288 (129) -0.1288 (130) -0.1442 (132) -0.1449 (134) -0.1449 (135)
           0.1442 (146)  0.1731 (151)  0.1449 (163)  0.2244 (164)  0.1449 (165)
           0.1288 (169)  0.1288 (170)  0.1035 (173)  0.1035 (174)
 CRD 12=  -0.1551 (  2) -0.2140 (  6) -0.1704 (  8)  0.1084 ( 16)  0.1987 ( 18)
           0.1987 ( 20)  0.1084 ( 24) -0.1704 ( 29) -0.2140 ( 32) -0.1551 ( 35)
          -0.3109 ( 44) -0.1895 ( 53)  0.1798 ( 57)  0.1037 ( 60)  0.1037 ( 61)
           0.1857 ( 64)  0.1857 ( 73)  0.1798 ( 75)  0.1037 ( 80)  0.1037 ( 81)
          -0.1895 ( 82) -0.3109 ( 87)
 CRD 13=  -0.1192 (  2)  0.1127 ( 13) -0.1127 ( 28)  0.1192 ( 35) -0.3100 ( 41)
          -0.1236 ( 50) -0.1236 ( 52)  0.3242 ( 53)  0.1615 ( 57) -0.1916 ( 64)
           0.1916 ( 73) -0.1614 ( 75) -0.3242 ( 82)  0.1236 ( 90)  0.1236 ( 91)
           0.3100 ( 94)
 CRD 14=   0.1050 ( 46) -0.1050 ( 49) -0.1136 ( 60)  0.1136 ( 61) -0.1136 ( 80)
           0.1136 ( 81)  0.1050 ( 98) -0.1050 ( 99) -0.1732 (121)  0.2814 (122)
           0.1505 (123)  0.1505 (124)  0.1452 (125)  0.1041 (126)  0.1041 (128)
           0.2129 (136)  0.1356 (137)  0.1356 (138)  0.1082 (139)  0.1082 (140)
          -0.1032 (143) -0.2129 (144) -0.1032 (145)  0.1032 (152)  0.1032 (153)
          -0.1082 (156) -0.1082 (157) -0.1356 (158) -0.1356 (159) -0.2814 (160)
           0.1732 (164) -0.1041 (166) -0.1041 (167) -0.1452 (168) -0.1505 (171)
          -0.1505 (172)
 CRD 15=   0.1080 (  2)  0.1319 (  6) -0.1925 ( 16) -0.1008 ( 18)  0.1008 ( 20)
           0.1925 ( 24) -0.1319 ( 32) -0.1080 ( 35)  0.1954 ( 44)  0.1146 ( 53)
           0.1114 ( 55)  0.1114 ( 56) -0.2349 ( 57) -0.3541 ( 64)  0.1355 ( 70)
           0.1355 ( 71) -0.1355 ( 72)  0.3541 ( 73) -0.1355 ( 74)  0.2349 ( 75)
          -0.1146 ( 82) -0.1954 ( 87) -0.1114 ( 88) -0.1114 ( 89)
 CRD 16=   0.1340 ( 13) -0.1371 ( 18) -0.1371 ( 20)  0.1340 ( 28) -0.1726 ( 41)
           0.2274 ( 53)  0.2847 ( 57) -0.1116 ( 64) -0.3820 ( 65)  0.1172 ( 66)
           0.1172 ( 67) -0.1240 ( 68) -0.1240 ( 69) -0.1116 ( 73)  0.2847 ( 75)
          -0.1240 ( 76) -0.1240 ( 77)  0.1172 ( 78)  0.1172 ( 79)  0.2274 ( 82)
          -0.1726 ( 94)
 CRD 17=  -0.1248 ( 42)  0.1248 ( 43)  0.1688 ( 45) -0.1086 ( 46) -0.1688 ( 47)
           0.1086 ( 49)  0.1192 ( 58) -0.1192 ( 59)  0.1204 ( 66) -0.1204 ( 67)
          -0.1204 ( 78)  0.1204 ( 79) -0.1192 ( 85)  0.1192 ( 86) -0.1688 ( 95)
           0.1688 ( 96)  0.1086 ( 98) -0.1086 ( 99)  0.1248 (100) -0.1248 (101)
          -0.1239 (119) -0.1239 (120) -0.2034 (121) -0.1166 (122) -0.1089 (134)
          -0.1089 (135)  0.1706 (136)  0.1008 (143)  0.1706 (144)  0.1008 (145)
           0.1008 (152)  0.1008 (153) -0.1166 (160) -0.1089 (163) -0.2034 (164)
          -0.1089 (165) -0.1239 (173) -0.1239 (174)
 CRD 18=   0.2086 ( 45) -0.2086 ( 47)  0.1057 ( 51) -0.1057 ( 54) -0.1057 ( 92)
           0.1057 ( 93) -0.2086 ( 95)  0.2086 ( 96) -0.1225 (121)  0.1390 (122)
           0.1207 (123)  0.1207 (124)  0.1792 (125)  0.1242 (126)  0.1421 (127)
           0.1242 (128) -0.1891 (132) -0.1891 (146) -0.1247 (147) -0.1247 (148)
          -0.1248 (149) -0.1247 (150)  0.1421 (151)  0.1390 (160) -0.1225 (164)
           0.1242 (166)  0.1242 (167)  0.1792 (168)  0.1207 (171)  0.1207 (172)
 CRD 19=  -0.1330 ( 42)  0.1330 ( 43)  0.2160 ( 45) -0.2160 ( 47) -0.1186 ( 51)
           0.1186 ( 54) -0.1303 ( 68)  0.1303 ( 69) -0.1303 ( 76)  0.1303 ( 77)
          -0.1186 ( 92)  0.1186 ( 93)  0.2160 ( 95) -0.2160 ( 96) -0.1330 (100)
           0.1330 (101) -0.1117 (119) -0.1117 (120) -0.1040 (121)  0.1563 (127)
           0.1251 (132)  0.1171 (141)  0.1171 (142) -0.1251 (146) -0.1563 (151)
          -0.1171 (154) -0.1171 (155)  0.1040 (164)  0.1116 (173)  0.1116 (174)
 CRD 20=   0.3355 (  2) -0.1591 (  6)  0.1349 (  8) -0.1982 ( 13)  0.1874 ( 16)
          -0.1797 ( 18)  0.1797 ( 20) -0.1874 ( 24)  0.1982 ( 28) -0.1349 ( 29)
           0.1591 ( 32) -0.3355 ( 35)  0.1084 ( 42)  0.1084 ( 43)  0.1888 ( 48)
          -0.1888 ( 97) -0.1084 (100) -0.1084 (101) -0.1138 (102) -0.1138 (103)
           0.1138 (117)  0.1138 (118)
 CRD 21=   0.4326 (  2) -0.1109 ( 13) -0.1109 ( 28)  0.4326 ( 35)  0.1286 ( 42)
           0.1286 ( 43)  0.3150 ( 48)  0.3150 ( 97)  0.1286 (100)  0.1286 (101)
          -0.1619 (102) -0.1619 (103) -0.1619 (117) -0.1619 (118)
 CRD 22=  -0.2696 (  2) -0.1512 (  6)  0.1643 (  8) -0.1217 ( 13)  0.1869 ( 16)
          -0.2033 ( 18)  0.2033 ( 20) -0.1869 ( 24)  0.1217 ( 28) -0.1643 ( 29)
           0.1512 ( 32)  0.2696 ( 35)  0.1049 ( 44) -0.3301 ( 48) -0.1049 ( 87)
           0.3300 ( 97)  0.1288 (102)  0.1288 (103) -0.1288 (117) -0.1288 (118)
 CRD 23=   0.3353 (  6) -0.2552 (  8)  0.1672 ( 13) -0.1410 ( 16) -0.1410 ( 24)
           0.1673 ( 28) -0.2552 ( 29)  0.3353 ( 32) -0.1215 ( 45)  0.1123 ( 46)
          -0.1215 ( 47)  0.2657 ( 48)  0.1123 ( 49) -0.1215 ( 95) -0.1215 ( 96)
           0.2657 ( 97)  0.1123 ( 98)  0.1123 ( 99)
 CRD 24=  -0.2888 ( 45)  0.2889 ( 47) -0.1016 ( 51)  0.1016 ( 54) -0.1016 ( 92)
           0.1016 ( 93) -0.2889 ( 95)  0.2888 ( 96)  0.1090 (102) -0.1089 (103)
           0.1089 (117) -0.1090 (118) -0.1468 (125) -0.1033 (126) -0.1033 (128)
           0.1371 (136) -0.1371 (144)  0.1033 (166)  0.1033 (167)  0.1468 (168)
 CRD 25=  -0.1117 (  2)  0.3297 (  6) -0.1110 (  8)  0.1694 ( 16) -0.2610 ( 18)
           0.2610 ( 20) -0.1694 ( 24)  0.1111 ( 29) -0.3297 ( 32)  0.1117 ( 35)
          -0.1553 ( 45) -0.1552 ( 47)  0.2037 ( 48)  0.1552 ( 95)  0.1553 ( 96)
          -0.2037 ( 97)  0.1360 (104) -0.1360 (116)
 CRD 26=  -0.1287 ( 42)  0.1287 ( 43)  0.1564 ( 45) -0.1564 ( 47)  0.1136 ( 50)
          -0.1581 ( 51) -0.1136 ( 52)  0.1581 ( 54) -0.1250 ( 55)  0.1250 ( 56)
          -0.1072 ( 60)  0.1072 ( 61) -0.1233 ( 66)  0.1233 ( 67)  0.1233 ( 78)
          -0.1233 ( 79)  0.1072 ( 80) -0.1072 ( 81) -0.1250 ( 88)  0.1250 ( 89)
          -0.1136 ( 90)  0.1136 ( 91)  0.1581 ( 92) -0.1581 ( 93) -0.1564 ( 95)
           0.1564 ( 96)  0.1287 (100) -0.1287 (101) -0.1279 (126) -0.1279 (128)
           0.1240 (131)  0.1128 (132)  0.1240 (133) -0.1382 (136) -0.1382 (144)
           0.1129 (146)  0.1240 (161)  0.1240 (162) -0.1279 (166) -0.1279 (167)
 CRD 27=   0.1401 (  2) -0.2089 (  6) -0.1198 (  8)  0.2932 ( 13) -0.2609 ( 16)
           0.1064 ( 18)  0.1064 ( 20) -0.2610 ( 24)  0.2932 ( 28) -0.1198 ( 29)
          -0.2089 ( 32)  0.1401 ( 35)  0.1525 ( 45)  0.1525 ( 47) -0.1676 ( 48)
           0.1525 ( 95)  0.1525 ( 96) -0.1676 ( 97) -0.1353 (104) -0.1353 (116)
 CRD 28=   0.1234 (  2) -0.2828 (  8)  0.2817 ( 13) -0.2706 ( 18)  0.2706 ( 20)
          -0.2817 ( 28)  0.2828 ( 29) -0.1234 ( 35)  0.1358 ( 45)  0.1359 ( 47)
          -0.1472 ( 48) -0.1358 ( 95) -0.1359 ( 96)  0.1472 ( 97) -0.1198 (104)
           0.1198 (116)
 CRD 29=   0.1032 (  3) -0.1032 (  4)  0.1002 (  9) -0.1002 ( 10)  0.1002 ( 33)
          -0.1002 ( 34) -0.1032 ( 39)  0.1032 ( 40) -0.2808 ( 45)  0.2808 ( 47)
           0.1039 ( 58) -0.1039 ( 59) -0.1092 ( 68)  0.1093 ( 69)  0.1093 ( 76)
          -0.1092 ( 77) -0.1039 ( 85)  0.1039 ( 86)  0.2808 ( 95) -0.2808 ( 96)
           0.1245 (102) -0.1245 (103) -0.1245 (117)  0.1245 (118) -0.1363 (121)
          -0.1088 (134) -0.1088 (135) -0.1088 (163) -0.1363 (164) -0.1088 (165)
 CRD 30=   0.3207 (  8) -0.3154 ( 16)  0.2096 ( 18)  0.2096 ( 20) -0.3154 ( 24)
           0.3207 ( 29) -0.1178 ( 45) -0.1177 ( 47)  0.1358 ( 48) -0.1177 ( 95)
          -0.1178 ( 96)  0.1358 ( 97)  0.1028 (104)  0.1028 (116)
 CRD 31=  -0.1617 ( 42)  0.1617 ( 43)  0.1262 ( 50) -0.1887 ( 51) -0.1262 ( 52)
           0.1887 ( 54) -0.1366 ( 60)  0.1366 ( 61)  0.1443 ( 62) -0.1443 ( 63)
           0.1514 ( 70) -0.1514 ( 71) -0.1514 ( 72)  0.1514 ( 74) -0.1366 ( 80)
           0.1366 ( 81)  0.1443 ( 83) -0.1443 ( 84)  0.1262 ( 90) -0.1262 ( 91)
          -0.1887 ( 92)  0.1887 ( 93) -0.1617 (100)  0.1617 (101) -0.1272 (125)
          -0.1389 (126) -0.1389 (128)  0.1005 (137)  0.1005 (138)  0.1023 (147)
           0.1023 (148) -0.1023 (149) -0.1023 (150) -0.1005 (158) -0.1005 (159)
           0.1389 (166)  0.1389 (167)  0.1272 (168)
 CRD 32=   0.1136 (  6) -0.2580 (  8) -0.1956 ( 13)  0.2674 ( 16)  0.1072 ( 17)
           0.2410 ( 18)  0.1072 ( 19) -0.2410 ( 20) -0.1072 ( 23) -0.2674 ( 24)
          -0.1072 ( 25)  0.1956 ( 28)  0.2580 ( 29) -0.1136 ( 32)  0.1097 ( 45)
           0.1097 ( 47) -0.1390 ( 48) -0.1097 ( 95) -0.1097 ( 96)  0.1390 ( 97)
 CRD 33=   0.1699 ( 42) -0.1699 ( 43) -0.1481 ( 46)  0.1481 ( 49)  0.1615 ( 51)
          -0.1615 ( 54)  0.1586 ( 58) -0.1586 ( 59) -0.1623 ( 66)  0.1623 ( 67)
           0.1623 ( 78) -0.1623 ( 79) -0.1586 ( 85)  0.1586 ( 86) -0.1615 ( 92)
           0.1615 ( 93)  0.1481 ( 98) -0.1481 ( 99) -0.1699 (100)  0.1699 (101)
           0.1113 (119)  0.1114 (120)  0.1001 (126)  0.1001 (128) -0.1013 (134)
          -0.1013 (135) -0.1046 (143) -0.1046 (145) -0.1046 (152) -0.1046 (153)
          -0.1013 (163) -0.1013 (165)  0.1001 (166)  0.1001 (167)  0.1113 (173)
           0.1114 (174)
 CRD 34=   0.1762 (  6) -0.1249 (  8) -0.1019 ( 11) -0.1019 ( 12) -0.3070 ( 13)
           0.2621 ( 18)  0.2621 ( 20)  0.1198 ( 21)  0.1198 ( 22) -0.3070 ( 28)
          -0.1249 ( 29) -0.1019 ( 30) -0.1019 ( 31)  0.1762 ( 32)  0.1142 ( 45)
           0.1142 ( 47) -0.1554 ( 48)  0.1158 ( 53) -0.1305 ( 65)  0.1158 ( 82)
           0.1141 ( 95)  0.1142 ( 96) -0.1554 ( 97) -0.1006 (104) -0.1006 (116)
 CRD 35=  -0.1638 ( 50)  0.1638 ( 52) -0.1881 ( 55)  0.1881 ( 56)  0.1449 ( 60)
          -0.1449 ( 61)  0.1389 ( 62) -0.1389 ( 63)  0.1086 ( 66) -0.1086 ( 67)
          -0.1871 ( 68)  0.1871 ( 69)  0.1468 ( 70) -0.1468 ( 71)  0.1468 ( 72)
          -0.1468 ( 74)  0.1871 ( 76) -0.1871 ( 77) -0.1086 ( 78)  0.1086 ( 79)
          -0.1448 ( 80)  0.1448 ( 81) -0.1389 ( 83)  0.1389 ( 84) -0.1881 ( 88)
           0.1881 ( 89)  0.1637 ( 90) -0.1637 ( 91) -0.1098 (129) -0.1098 (130)
           0.1164 (131)  0.1164 (133)  0.1161 (141)  0.1161 (142)  0.1161 (154)
           0.1161 (155)  0.1164 (161)  0.1164 (162) -0.1097 (169) -0.1097 (170)
 CRD 36=  -0.1081 ( 42)  0.1081 ( 43)  0.2005 ( 46) -0.2005 ( 49) -0.1484 ( 50)
           0.1484 ( 52) -0.2062 ( 58)  0.2061 ( 59)  0.1639 ( 60) -0.1639 ( 61)
           0.1639 ( 80) -0.1639 ( 81) -0.2062 ( 85)  0.2062 ( 86) -0.1485 ( 90)
           0.1485 ( 91)  0.2005 ( 98) -0.2005 ( 99) -0.1081 (100)  0.1081 (101)
           0.1212 (123)  0.1212 (124)  0.1357 (134)  0.1357 (135) -0.1078 (137)
          -0.1078 (138)  0.1079 (158)  0.1079 (159) -0.1357 (163) -0.1357 (165)
          -0.1212 (171) -0.1212 (172)
 CRD 37=   0.1225 ( 50) -0.1225 ( 52)  0.2043 ( 55) -0.2043 ( 56) -0.1528 ( 62)
           0.1528 ( 63)  0.2067 ( 68) -0.2067 ( 69) -0.1821 ( 70)  0.1821 ( 71)
           0.1823 ( 72) -0.1823 ( 74)  0.2067 ( 76) -0.2067 ( 77) -0.1529 ( 83)
           0.1529 ( 84) -0.2044 ( 88)  0.2044 ( 89)  0.1224 ( 90) -0.1224 ( 91)
          -0.1250 (131) -0.1250 (133) -0.1320 (141) -0.1320 (142) -0.1282 (147)
          -0.1282 (148)  0.1282 (149)  0.1282 (150)  0.1320 (154)  0.1320 (155)
           0.1250 (161)  0.1250 (162)
 CRD 38=  -0.1410 ( 46)  0.1410 ( 49)  0.1281 ( 50) -0.1281 ( 52)  0.1281 ( 58)
          -0.1281 ( 59) -0.1433 ( 60)  0.1433 ( 61)  0.1623 ( 62) -0.1623 ( 63)
           0.2184 ( 66) -0.2184 ( 67)  0.1226 ( 70) -0.1226 ( 71)  0.1225 ( 72)
          -0.1225 ( 74) -0.2184 ( 78)  0.2184 ( 79)  0.1434 ( 80) -0.1434 ( 81)
          -0.1622 ( 83)  0.1622 ( 84) -0.1281 ( 85)  0.1281 ( 86) -0.1283 ( 90)
           0.1283 ( 91)  0.1410 ( 98) -0.1410 ( 99) -0.1220 (139) -0.1220 (140)
           0.1354 (143)  0.1354 (145)  0.1355 (152)  0.1355 (153) -0.1219 (156)
          -0.1219 (157)
 CRD 39=  -0.2218 (  6)  0.2009 ( 13)  0.1195 ( 14)  0.1195 ( 15)  0.2644 ( 16)
           0.1180 ( 18) -0.1180 ( 20) -0.2644 ( 24) -0.1195 ( 26) -0.1195 ( 27)
          -0.2009 ( 28)  0.2218 ( 32)  0.1301 ( 41) -0.1160 ( 45) -0.1160 ( 47)
           0.1621 ( 48) -0.1558 ( 57) -0.1293 ( 64)  0.1293 ( 73)  0.1558 ( 75)
          -0.1301 ( 94)  0.1160 ( 95)  0.1160 ( 96) -0.1621 ( 97)  0.1048 (104)
          -0.1048 (116)
 CRD 40=   0.1028 (  5)  0.2316 (  6)  0.1028 (  7)  0.1736 (  8)  0.1158 (  9)
           0.1158 ( 10) -0.1268 ( 16) -0.2171 ( 18) -0.2171 ( 20) -0.1248 ( 21)
          -0.1248 ( 22) -0.1268 ( 24)  0.1736 ( 29)  0.2316 ( 32)  0.1158 ( 33)
           0.1158 ( 34)  0.1028 ( 36)  0.1028 ( 37) -0.1514 ( 41) -0.1472 ( 44)
           0.1051 ( 45)  0.1051 ( 47) -0.1479 ( 48)  0.1398 ( 64)  0.1775 ( 65)
           0.1398 ( 73) -0.1472 ( 87) -0.1514 ( 94)  0.1051 ( 95)  0.1051 ( 96)
          -0.1479 ( 97)  0.1036 (110)
 CRD 41=  -0.1115 (  3)  0.1115 (  4)  0.1104 (  5) -0.1104 (  7) -0.1213 (  9)
           0.1213 ( 10) -0.1348 ( 14)  0.1348 ( 15)  0.1428 ( 21) -0.1428 ( 22)
          -0.1348 ( 26)  0.1348 ( 27)  0.1213 ( 33) -0.1213 ( 34) -0.1104 ( 36)
           0.1104 ( 37) -0.1115 ( 39)  0.1115 ( 40)  0.1935 ( 45) -0.1935 ( 47)
           0.1935 ( 95) -0.1935 ( 96) -0.1058 (102)  0.1058 (103) -0.1058 (117)
           0.1058 (118)  0.1216 (119)  0.1216 (120)  0.1570 (121) -0.1327 (127)
           0.1087 (131)  0.1087 (133)  0.1065 (136) -0.1091 (143) -0.1065 (144)
          -0.1091 (145)  0.1327 (151)  0.1091 (152)  0.1091 (153) -0.1087 (161)
          -0.1087 (162) -0.1570 (164) -0.1216 (173) -0.1216 (174)
 CRD 42=  -0.1942 (  6) -0.2150 (  8) -0.1281 (  9) -0.1281 ( 10) -0.1226 ( 11)
          -0.1226 ( 12) -0.1812 ( 13) -0.1229 ( 16)  0.1229 ( 24)  0.1812 ( 28)
           0.2150 ( 29)  0.1226 ( 30)  0.1226 ( 31)  0.1942 ( 32)  0.1281 ( 33)
           0.1281 ( 34)  0.1358 ( 41)  0.1738 ( 44)  0.1136 ( 48)  0.1764 ( 53)
           0.1390 ( 57) -0.1390 ( 75) -0.1764 ( 82) -0.1738 ( 87) -0.1358 ( 94)
          -0.1136 ( 97)  0.1033 (106)  0.1012 (107) -0.1012 (113) -0.1033 (114)
 CRD 43=  -0.1115 (  6) -0.1452 (  8) -0.1018 ( 11) -0.1018 ( 12) -0.1645 ( 13)
          -0.1144 ( 14) -0.1144 ( 15) -0.1807 ( 16) -0.1228 ( 17) -0.1896 ( 18)
          -0.1228 ( 19) -0.1896 ( 20) -0.1258 ( 21) -0.1258 ( 22) -0.1228 ( 23)
          -0.1807 ( 24) -0.1228 ( 25) -0.1144 ( 26) -0.1144 ( 27) -0.1645 ( 28)
          -0.1452 ( 29) -0.1018 ( 30) -0.1018 ( 31) -0.1115 ( 32)  0.1174 ( 44)
           0.1471 ( 53)  0.1663 ( 57)  0.1781 ( 64)  0.1822 ( 65)  0.1781 ( 73)
           0.1663 ( 75)  0.1471 ( 82)  0.1174 ( 87)  0.1009 (109)  0.1033 (110)
           0.1009 (111)
 CRD 44=  -0.1824 (  5)  0.1824 (  7)  0.1893 ( 11) -0.1893 ( 12) -0.1915 ( 17)
           0.1915 ( 19)  0.1915 ( 23) -0.1915 ( 25)  0.1893 ( 30) -0.1893 ( 31)
          -0.1824 ( 36)  0.1824 ( 37) -0.1033 ( 45)  0.1033 ( 47)  0.1033 ( 95)
          -0.1033 ( 96) -0.1150 (119) -0.1150 (120) -0.1096 (121)  0.1024 (125)
           0.1095 (129)  0.1095 (130) -0.1091 (137) -0.1091 (138) -0.1100 (139)
          -0.1100 (140)  0.1099 (147)  0.1099 (148)  0.1099 (149)  0.1099 (150)
          -0.1100 (156) -0.1100 (157) -0.1091 (158) -0.1091 (159) -0.1096 (164)
           0.1024 (168)  0.1095 (169)  0.1095 (170) -0.1150 (173) -0.1150 (174)
 CRD 45=  -0.2090 (  5)  0.2090 (  7)  0.1696 ( 11) -0.1696 ( 12) -0.1787 ( 14)
           0.1787 ( 15)  0.2165 ( 21) -0.2165 ( 22) -0.1787 ( 26)  0.1787 ( 27)
          -0.1696 ( 30)  0.1696 ( 31)  0.2090 ( 36) -0.2090 ( 37) -0.1028 (119)
          -0.1028 (120) -0.1019 (143) -0.1019 (145)  0.1019 (152)  0.1019 (153)
           0.1028 (173)  0.1028 (174)
 CRD 46=  -0.2082 (  5)  0.2082 (  7) -0.1794 (  9)  0.1794 ( 10) -0.2085 ( 14)
           0.2085 ( 15)  0.1954 ( 17) -0.1954 ( 19) -0.1954 ( 23)  0.1954 ( 25)
           0.2085 ( 26) -0.2085 ( 27) -0.1794 ( 33)  0.1794 ( 34) -0.2082 ( 36)
           0.2082 ( 37)
 CRD 47=   0.1886 (  5) -0.1886 (  7)  0.2348 (  9) -0.2348 ( 10)  0.1453 ( 11)
          -0.1453 ( 12) -0.1770 ( 17)  0.1770 ( 19)  0.2398 ( 21) -0.2398 ( 22)
          -0.1770 ( 23)  0.1770 ( 25) -0.1453 ( 30)  0.1453 ( 31) -0.2348 ( 33)
           0.2348 ( 34) -0.1886 ( 36)  0.1886 ( 37)
 CRD 48=  -0.1817 ( 35) -0.4902 ( 38) -0.5103 ( 39) -0.5103 ( 40)  0.1711 ( 95)
           0.1711 ( 96)  0.1868 ( 97) -0.1684 (116) -0.1803 (117) -0.1803 (118)
 CRD 49=  -0.4902 (  1) -0.1817 (  2) -0.5103 (  3) -0.5103 (  4)  0.1711 ( 45)
           0.1711 ( 47)  0.1868 ( 48) -0.1803 (102) -0.1803 (103) -0.1684 (104)
 CRD 50=   0.1535 (  5) -0.1535 (  7)  0.2300 (  9) -0.2300 ( 10)  0.2423 ( 11)
          -0.2423 ( 12) -0.1996 ( 14)  0.1996 ( 15)  0.1123 ( 17) -0.1123 ( 19)
          -0.1122 ( 23)  0.1122 ( 25)  0.1996 ( 26) -0.1996 ( 27)  0.2423 ( 30)
          -0.2423 ( 31)  0.2300 ( 33) -0.2300 ( 34)  0.1535 ( 36) -0.1535 ( 37)
 CRD 51=   0.1520 (  9) -0.1520 ( 10)  0.1924 ( 11) -0.1924 ( 12) -0.2221 ( 14)
           0.2221 ( 15)  0.2405 ( 17) -0.2405 ( 19) -0.2467 ( 21)  0.2467 ( 22)
           0.2405 ( 23) -0.2405 ( 25) -0.2221 ( 26)  0.2221 ( 27) -0.1924 ( 30)
           0.1924 ( 31) -0.1520 ( 33)  0.1520 ( 34)
 CRD 52=   0.1013 ( 55) -0.1013 ( 56)  0.1072 ( 62) -0.1072 ( 63) -0.1078 ( 66)
           0.1078 ( 67)  0.1029 ( 70) -0.1029 ( 71)  0.1030 ( 72) -0.1030 ( 74)
           0.1078 ( 78) -0.1078 ( 79) -0.1072 ( 83)  0.1072 ( 84)  0.1013 ( 88)
          -0.1013 ( 89)  0.1150 (189)  0.1150 (190)  0.1150 (191)  0.1150 (192)
           0.1282 (193)  0.1282 (194)  0.1282 (195)  0.1282 (196)  0.1350 (197)
           0.1350 (198)  0.1350 (199)  0.1350 (200)  0.1350 (201)  0.1350 (202)
           0.1350 (203)  0.1350 (204)  0.1282 (205)  0.1282 (206)  0.1282 (207)
           0.1282 (208)  0.1150 (209)  0.1150 (210)  0.1150 (211)  0.1150 (212)
 CRD 53=  -0.1009 ( 46)  0.1009 ( 49)  0.1016 ( 60) -0.1016 ( 61)  0.1016 ( 80)
          -0.1016 ( 81) -0.1008 ( 98)  0.1008 ( 99)  0.1202 (181)  0.1202 (182)
           0.1202 (183)  0.1202 (184)  0.1373 (185)  0.1373 (186)  0.1373 (187)
           0.1373 (188)  0.1263 (189)  0.1263 (190)  0.1263 (191)  0.1263 (192)
          -0.1263 (209) -0.1263 (210) -0.1263 (211) -0.1263 (212) -0.1373 (213)
          -0.1373 (214) -0.1373 (215) -0.1373 (216) -0.1202 (217) -0.1202 (218)
          -0.1202 (219) -0.1202 (220)
 CRD 54=   0.1093 ( 14) -0.1093 ( 15) -0.1093 ( 26)  0.1093 ( 27) -0.1419 (181)
          -0.1419 (182) -0.1419 (183) -0.1419 (184) -0.1130 (185) -0.1130 (186)
          -0.1129 (187) -0.1130 (188)  0.1312 (197)  0.1312 (198)  0.1312 (199)
           0.1312 (200)  0.1312 (201)  0.1312 (202)  0.1312 (203)  0.1312 (204)
          -0.1130 (213) -0.1130 (214) -0.1130 (215) -0.1130 (216) -0.1419 (217)
          -0.1419 (218) -0.1419 (219) -0.1419 (220)
 CRD 55=   0.2583 ( 36)  0.2584 ( 37) -0.6031 ( 38)  0.2688 ( 39)  0.2687 ( 40)
           0.3182 (116) -0.1503 (117) -0.1502 (118) -0.1600 (166)  0.1600 (167)
           0.1896 (222) -0.1304 (223)  0.1303 (225) -0.1896 (226)
 CRD 56=   0.6031 (  1) -0.2687 (  3) -0.2688 (  4) -0.2583 (  5) -0.2584 (  7)
           0.1503 (102)  0.1503 (103) -0.3182 (104) -0.1600 (126)  0.1600 (128)
           0.1303 (177)  0.1896 (178) -0.1896 (179) -0.1303 (180)
 CRD 57=  -0.3840 (  3)  0.3840 (  4) -0.3918 ( 39)  0.3919 ( 40)  0.2084 (102)
          -0.2084 (103)  0.2127 (117) -0.2127 (118)  0.1587 (125) -0.1619 (168)
           0.1540 (175)  0.1540 (176) -0.1571 (221) -0.1571 (224)
 CRD 58=  -0.3918 (  3)  0.3918 (  4)  0.3839 ( 39) -0.3840 ( 40)  0.2130 (102)
          -0.2130 (103) -0.2087 (117)  0.2087 (118)  0.1587 (125)  0.1555 (168)
           0.1518 (175)  0.1518 (176)  0.1486 (221)  0.1486 (224)
 CRD 59=   0.1177 (  9)  0.1177 ( 10) -0.1829 ( 11) -0.1829 ( 12)  0.2326 ( 14)
           0.2326 ( 15) -0.2645 ( 17) -0.2645 ( 19)  0.2750 ( 21)  0.2750 ( 22)
          -0.2642 ( 23) -0.2642 ( 25)  0.2321 ( 26)  0.2321 ( 27) -0.1824 ( 30)
          -0.1824 ( 31)  0.1174 ( 33)  0.1175 ( 34)
 CRD 60=  -0.2118 (  9) -0.2118 ( 10)  0.2692 ( 11)  0.2692 ( 12) -0.2429 ( 14)
          -0.2429 ( 15)  0.1433 ( 17)  0.1433 ( 19) -0.1438 ( 23) -0.1438 ( 25)
           0.2432 ( 26)  0.2432 ( 27) -0.2694 ( 30) -0.2694 ( 31)  0.2120 ( 33)
           0.2120 ( 34)
 CRD 61=  -0.1361 (  5) -0.1361 (  7)  0.2593 (  9)  0.2593 ( 10) -0.2106 ( 11)
          -0.2106 ( 12)  0.1787 ( 17)  0.1787 ( 19) -0.2643 ( 21) -0.2643 ( 22)
           0.1785 ( 23)  0.1785 ( 25) -0.2107 ( 30) -0.2107 ( 31)  0.2594 ( 33)
           0.2594 ( 34) -0.1362 ( 36) -0.1362 ( 37)
 CRD 62=   0.1820 (  5)  0.1820 (  7) -0.2428 (  9) -0.2428 ( 10)  0.2109 ( 14)
           0.2109 ( 15) -0.2297 ( 17) -0.2297 ( 19)  0.2298 ( 23)  0.2298 ( 25)
          -0.2108 ( 26) -0.2108 ( 27)  0.2428 ( 33)  0.2428 ( 34) -0.1819 ( 36)
          -0.1819 ( 37)
 CRD 63=   0.1010 (  1)  0.2180 (  5)  0.2180 (  7) -0.1615 (  9) -0.1615 ( 10)
          -0.1546 ( 11) -0.1546 ( 12)  0.2290 ( 14)  0.2290 ( 15) -0.2528 ( 21)
          -0.2528 ( 22)  0.2291 ( 26)  0.2291 ( 27) -0.1546 ( 30) -0.1545 ( 31)
          -0.1614 ( 33) -0.1614 ( 34)  0.2179 ( 36)  0.2179 ( 37)  0.1009 ( 38)
 CRD 64=   0.2365 (  5)  0.2365 (  7) -0.2475 ( 11) -0.2475 ( 12)  0.2490 ( 17)
           0.2490 ( 19) -0.2490 ( 23) -0.2490 ( 25)  0.2475 ( 30)  0.2475 ( 31)
          -0.2365 ( 36) -0.2365 ( 37)
 CRD 65=   0.2350 (  5)  0.2350 (  7) -0.1893 ( 11) -0.1893 ( 12) -0.2058 ( 14)
          -0.2058 ( 15)  0.2468 ( 21)  0.2468 ( 22) -0.2056 ( 26) -0.2056 ( 27)
          -0.1893 ( 30) -0.1893 ( 31)  0.2350 ( 36)  0.2350 ( 37)  0.1022 (110)
 CRD 66=   0.2148 (  5)  0.2148 (  7)  0.1963 (  9)  0.1963 ( 10) -0.2177 ( 14)
          -0.2177 ( 15) -0.2079 ( 17) -0.2079 ( 19)  0.2078 ( 23)  0.2078 ( 25)
           0.2177 ( 26)  0.2177 ( 27) -0.1963 ( 33) -0.1963 ( 34) -0.2149 ( 36)
          -0.2149 ( 37)
 CRD 67=  -0.1786 (  5) -0.1786 (  7) -0.2389 (  9) -0.2389 ( 10) -0.1578 ( 11)
          -0.1578 ( 12)  0.1744 ( 17)  0.1744 ( 19)  0.2413 ( 21)  0.2413 ( 22)
           0.1745 ( 23)  0.1745 ( 25) -0.1578 ( 30) -0.1578 ( 31) -0.2388 ( 33)
          -0.2388 ( 34) -0.1785 ( 36) -0.1785 ( 37) -0.1093 (106)  0.1106 (110)
          -0.1092 (114)
 CRD 68=  -0.1290 (  5) -0.1290 (  7) -0.2131 (  9) -0.2131 ( 10) -0.2368 ( 11)
          -0.2368 ( 12) -0.2010 ( 14) -0.2010 ( 15) -0.1149 ( 17) -0.1149 ( 19)
           0.1142 ( 23)  0.1142 ( 25)  0.2006 ( 26)  0.2006 ( 27)  0.2365 ( 30)
           0.2366 ( 31)  0.2129 ( 33)  0.2129 ( 34)  0.1289 ( 36)  0.1289 ( 37)
          -0.1013 (106) -0.1127 (107)  0.1126 (113)  0.1012 (114)
 CRD 69=   0.1251 (  9)  0.1251 ( 10)  0.1704 ( 11)  0.1704 ( 12)  0.2047 ( 14)
           0.2047 ( 15)  0.2260 ( 17)  0.2260 ( 19)  0.2337 ( 21)  0.2337 ( 22)
           0.2264 ( 23)  0.2264 ( 25)  0.2053 ( 26)  0.2053 ( 27)  0.1709 ( 30)
           0.1709 ( 31)  0.1255 ( 33)  0.1255 ( 34)  0.1103 (109)  0.1140 (110)
           0.1105 (111)  0.1002 (112)
 CRD 70=  -0.1108 ( 11)  0.1108 ( 12) -0.1128 ( 21)  0.1128 ( 22)  0.1108 ( 30)
          -0.1108 ( 31) -0.1034 (177) -0.1034 (178) -0.1034 (179) -0.1034 (180)
          -0.1377 (181) -0.1377 (182) -0.1377 (183) -0.1377 (184)  0.1428 (193)
           0.1428 (194)  0.1428 (195)  0.1428 (196) -0.1428 (205) -0.1428 (206)
          -0.1428 (207) -0.1428 (208)  0.1377 (217)  0.1377 (218)  0.1377 (219)
           0.1377 (220)  0.1034 (222)  0.1034 (223)  0.1034 (225)  0.1034 (226)
 CRD 71=   0.1123 (  9) -0.1123 ( 10) -0.1088 ( 17)  0.1088 ( 19)  0.1088 ( 23)
          -0.1088 ( 25)  0.1123 ( 33) -0.1123 ( 34)  0.1009 (175)  0.1009 (176)
           0.1142 (177)  0.1142 (178)  0.1142 (179)  0.1142 (180)  0.1094 (181)
           0.1094 (182)  0.1094 (183)  0.1094 (184) -0.1461 (189) -0.1461 (190)
          -0.1461 (191) -0.1461 (192)  0.1197 (197)  0.1197 (198)  0.1197 (199)
           0.1197 (200)  0.1197 (201)  0.1197 (202)  0.1197 (203)  0.1197 (204)
          -0.1461 (209) -0.1461 (210) -0.1461 (211) -0.1461 (212)  0.1094 (217)
           0.1094 (218)  0.1094 (219)  0.1094 (220)  0.1009 (221)  0.1142 (222)
           0.1142 (223)  0.1009 (224)  0.1142 (225)  0.1142 (226)
 CRD 72=  -0.1300 (  9)  0.1300 ( 10) -0.1233 ( 14)  0.1233 ( 15)  0.1267 ( 21)
          -0.1267 ( 22) -0.1233 ( 26)  0.1233 ( 27)  0.1300 ( 33) -0.1300 ( 34)
          -0.1028 (175) -0.1028 (176) -0.1133 (177) -0.1133 (178) -0.1133 (179)
          -0.1133 (180)  0.1318 (185)  0.1318 (186)  0.1318 (187)  0.1318 (188)
          -0.1155 (193) -0.1155 (194) -0.1155 (195) -0.1155 (196)  0.1155 (205)
           0.1155 (206)  0.1155 (207)  0.1155 (208) -0.1318 (213) -0.1318 (214)
          -0.1318 (215) -0.1318 (216)  0.1028 (221)  0.1133 (222)  0.1133 (223)
           0.1028 (224)  0.1133 (225)  0.1133 (226)
 CRD 73=   0.1184 (  9) -0.1184 ( 10) -0.1740 ( 11)  0.1740 ( 12) -0.2141 ( 14)
           0.2141 ( 15) -0.2260 ( 17)  0.2260 ( 19) -0.2255 ( 21)  0.2255 ( 22)
          -0.2260 ( 23)  0.2260 ( 25) -0.2141 ( 26)  0.2141 ( 27)  0.1740 ( 30)
          -0.1740 ( 31) -0.1184 ( 33)  0.1184 ( 34)
 CRD 74=  -0.2228 (  9)  0.2228 ( 10)  0.2521 ( 11) -0.2520 ( 12)  0.1421 ( 14)
          -0.1421 ( 15) -0.1421 ( 26)  0.1421 ( 27)  0.2521 ( 30) -0.2521 ( 31)
          -0.2228 ( 33)  0.2228 ( 34)  0.1438 (185)  0.1438 (186)  0.1438 (187)
           0.1438 (188) -0.1044 (189) -0.1044 (190) -0.1044 (191) -0.1044 (192)
          -0.1044 (209) -0.1044 (210) -0.1044 (211) -0.1044 (212)  0.1438 (213)
           0.1438 (214)  0.1438 (215)  0.1438 (216)
 CRD 75=  -0.1840 ( 14)  0.1840 ( 15) -0.2155 ( 17)  0.2155 ( 19)  0.2155 ( 23)
          -0.2155 ( 25)  0.1840 ( 26) -0.1840 ( 27) -0.1109 (131) -0.1109 (133)
          -0.1075 (147) -0.1075 (148) -0.1075 (149) -0.1075 (150) -0.1109 (161)
          -0.1109 (162) -0.1641 (193) -0.1641 (194) -0.1641 (195) -0.1641 (196)
           0.1003 (197)  0.1003 (198)  0.1003 (199)  0.1003 (200)  0.1003 (201)
           0.1003 (202)  0.1003 (203)  0.1003 (204) -0.1641 (205) -0.1641 (206)
          -0.1641 (207) -0.1641 (208)
 CRD 76=   0.1179 (  5) -0.1179 (  7) -0.1821 (  9)  0.1821 ( 10)  0.1676 ( 11)
          -0.1676 ( 12) -0.1644 ( 17)  0.1644 ( 19) -0.2572 ( 21)  0.2572 ( 22)
          -0.1644 ( 23)  0.1644 ( 25) -0.1676 ( 30)  0.1676 ( 31)  0.1821 ( 33)
          -0.1821 ( 34) -0.1179 ( 36)  0.1179 ( 37)  0.1304 (197)  0.1304 (198)
           0.1304 (199)  0.1304 (200) -0.1304 (201) -0.1304 (202) -0.1304 (203)
          -0.1304 (204)
 CRD 77=   0.2358 (  5) -0.2358 (  7) -0.1190 (  9)  0.1190 ( 10) -0.1116 ( 14)
           0.1116 ( 15)  0.1116 ( 26) -0.1116 ( 27) -0.1189 ( 33)  0.1189 ( 34)
           0.2357 ( 36) -0.2357 ( 37)  0.1101 (125)  0.1101 (168)  0.1688 (175)
           0.1688 (176)  0.1574 (177)  0.1574 (178)  0.1574 (179)  0.1574 (180)
          -0.1031 (181) -0.1031 (182) -0.1031 (183) -0.1031 (184) -0.1031 (217)
          -0.1031 (218) -0.1031 (219) -0.1031 (220)  0.1687 (221)  0.1574 (222)
           0.1574 (223)  0.1687 (224)  0.1574 (225)  0.1574 (226)
 CRD 78=   0.2230 (  5) -0.2230 (  7) -0.2231 ( 36)  0.2231 ( 37)  0.1133 (125)
           0.1030 (126)  0.1030 (128) -0.1030 (166) -0.1030 (167) -0.1133 (168)
           0.1711 (175)  0.1711 (176)  0.1608 (177)  0.1608 (178)  0.1608 (179)
           0.1608 (180) -0.1711 (221) -0.1608 (222) -0.1608 (223) -0.1711 (224)
          -0.1608 (225) -0.1608 (226)
 CRD 79=   0.1009 ( 50)  0.1009 ( 52)  0.1099 ( 55)  0.1099 ( 56)  0.1152 ( 62)
           0.1152 ( 63)  0.1165 ( 66)  0.1165 ( 67) -0.1072 ( 68) -0.1072 ( 69)
          -0.1138 ( 70) -0.1138 ( 71)  0.1138 ( 72)  0.1138 ( 74)  0.1072 ( 76)
           0.1072 ( 77) -0.1165 ( 78) -0.1165 ( 79) -0.1152 ( 83) -0.1152 ( 84)
          -0.1099 ( 88) -0.1099 ( 89) -0.1009 ( 90) -0.1009 ( 91) -0.1047 (181)
           0.1047 (184) -0.1120 (186)  0.1120 (187) -0.1271 (189)  0.1271 (192)
          -0.1366 (193)  0.1366 (196) -0.1415 (198)  0.1415 (199) -0.1415 (201)
           0.1415 (204) -0.1366 (206)  0.1366 (207) -0.1271 (210)  0.1271 (211)
          -0.1120 (214)  0.1120 (215) -0.1047 (217)  0.1047 (220)
 CRD 80=   0.1606 (  1)  0.1606 ( 38) -0.1282 ( 42) -0.1282 ( 43)  0.1016 ( 45)
          -0.1084 ( 46)  0.1016 ( 47)  0.1304 ( 48) -0.1084 ( 49)  0.1005 ( 51)
           0.1005 ( 54)  0.1131 ( 58)  0.1131 ( 59)  0.1032 ( 60)  0.1032 ( 61)
           0.1032 ( 80)  0.1032 ( 81)  0.1131 ( 85)  0.1131 ( 86)  0.1005 ( 92)
           0.1005 ( 93)  0.1016 ( 95)  0.1016 ( 96)  0.1304 ( 97) -0.1084 ( 98)
          -0.1084 ( 99) -0.1282 (100) -0.1282 (101) -0.1316 (102) -0.1316 (103)
          -0.1316 (117) -0.1316 (118)  0.1537 (181) -0.1537 (184)  0.1279 (186)
          -0.1279 (187)  0.1077 (189) -0.1077 (192) -0.1077 (210)  0.1077 (211)
          -0.1279 (214)  0.1279 (215) -0.1537 (217)  0.1537 (220)
 CRD 81=  -0.1795 (  1)  0.1042 (  2) -0.1128 (  3) -0.1128 (  4) -0.1042 ( 35)
           0.1795 ( 38)  0.1128 ( 39)  0.1128 ( 40)  0.1187 ( 42)  0.1187 ( 43)
          -0.1295 ( 45) -0.1295 ( 47) -0.1540 ( 48) -0.1000 ( 62) -0.1000 ( 63)
          -0.1107 ( 66) -0.1107 ( 67)  0.1107 ( 78)  0.1107 ( 79)  0.1000 ( 83)
           0.1000 ( 84)  0.1295 ( 95)  0.1295 ( 96)  0.1540 ( 97) -0.1187 (100)
          -0.1187 (101)  0.1561 (102)  0.1561 (103)  0.1008 (104) -0.1008 (116)
          -0.1561 (117) -0.1561 (118) -0.1241 (181)  0.1241 (184)  0.1264 (198)
          -0.1264 (199)  0.1264 (201) -0.1264 (204) -0.1241 (217)  0.1241 (220)
 CRD 82=  -0.1490 (  1)  0.1718 (  2) -0.1202 (  3) -0.1202 (  4)  0.1026 (  6)
          -0.1106 ( 18) -0.1106 ( 20)  0.1026 ( 32)  0.1718 ( 35) -0.1490 ( 38)
          -0.1202 ( 39) -0.1202 ( 40) -0.1332 ( 45) -0.1332 ( 47) -0.1436 ( 48)
          -0.1087 ( 55) -0.1087 ( 56)  0.1117 ( 68)  0.1117 ( 69)  0.1117 ( 76)
           0.1117 ( 77) -0.1087 ( 88) -0.1087 ( 89) -0.1332 ( 95) -0.1332 ( 96)
          -0.1435 ( 97)  0.1444 (102)  0.1444 (103)  0.1211 (104)  0.1211 (116)
           0.1444 (117)  0.1444 (118)  0.1236 (189) -0.1236 (192)  0.1133 (193)
          -0.1133 (196) -0.1133 (206)  0.1133 (207) -0.1236 (210)  0.1236 (211)
 CRD 83=  -0.2263 (  2)  0.1170 (  3)  0.1170 (  4) -0.1086 (  6)  0.1109 ( 13)
           0.1459 ( 16) -0.1459 ( 24) -0.1109 ( 28)  0.1086 ( 32)  0.2263 ( 35)
          -0.1170 ( 39) -0.1170 ( 40)  0.1187 ( 45)  0.1081 ( 46)  0.1187 ( 47)
           0.1146 ( 48)  0.1081 ( 49) -0.1083 ( 60) -0.1083 ( 61) -0.1100 ( 66)
          -0.1100 ( 67)  0.1100 ( 78)  0.1100 ( 79)  0.1083 ( 80)  0.1083 ( 81)
          -0.1187 ( 95) -0.1187 ( 96) -0.1146 ( 97) -0.1081 ( 98) -0.1081 ( 99)
          -0.1096 (102) -0.1096 (103) -0.1327 (104)  0.1327 (116)  0.1096 (117)
           0.1096 (118) -0.1271 (186)  0.1271 (187)  0.1094 (198) -0.1094 (199)
           0.1094 (201) -0.1094 (204) -0.1271 (214)  0.1271 (215)
 CRD 84=  -0.2510 (  2)  0.1120 (  3)  0.1120 (  4)  0.1166 (  8)  0.1656 ( 13)
          -0.1469 ( 18) -0.1469 ( 20)  0.1656 ( 28)  0.1166 ( 29) -0.2510 ( 35)
           0.1120 ( 39)  0.1120 ( 40)  0.1078 ( 46)  0.1078 ( 49) -0.1060 ( 58)
          -0.1060 ( 59)  0.1040 ( 70)  0.1040 ( 71)  0.1040 ( 72)  0.1040 ( 74)
          -0.1060 ( 85) -0.1060 ( 86)  0.1078 ( 98)  0.1078 ( 99) -0.1408 (104)
          -0.1408 (116)  0.1118 (193) -0.1118 (196) -0.1118 (206)  0.1118 (207)
 CRD 85=   0.2337 (  2) -0.1089 (  3) -0.1089 (  4) -0.1844 (  8)  0.1743 ( 16)
           0.1178 ( 18) -0.1178 ( 20) -0.1743 ( 24)  0.1844 ( 29) -0.2337 ( 35)
           0.1089 ( 39)  0.1089 ( 40)  0.1003 ( 51)  0.1003 ( 54) -0.1015 ( 66)
          -0.1015 ( 67)  0.1015 ( 78)  0.1015 ( 79) -0.1003 ( 92) -0.1003 ( 93)
           0.1488 (104) -0.1488 (116) -0.1331 (177)  0.1331 (180) -0.1039 (189)
           0.1039 (192) -0.1039 (210)  0.1039 (211)  0.1331 (223) -0.1331 (225)
 CRD 86=   0.1159 (  3) -0.1159 (  4)  0.1736 (  5) -0.1736 (  7) -0.1483 (  9)
           0.1483 ( 10) -0.1032 ( 17)  0.1032 ( 19) -0.1286 ( 21)  0.1286 ( 22)
          -0.1032 ( 23)  0.1032 ( 25)  0.1483 ( 33) -0.1483 ( 34) -0.1736 ( 36)
           0.1736 ( 37)  0.1159 ( 39) -0.1159 ( 40) -0.1209 (177) -0.1209 (178)
          -0.1209 (179) -0.1209 (180)  0.1416 (181)  0.1416 (182)  0.1416 (183)
           0.1416 (184) -0.1035 (197) -0.1035 (198) -0.1035 (199) -0.1035 (200)
           0.1035 (201)  0.1035 (202)  0.1035 (203)  0.1035 (204) -0.1415 (217)
          -0.1415 (218) -0.1416 (219) -0.1416 (220)  0.1209 (222)  0.1209 (223)
           0.1209 (225)  0.1209 (226)
 CRD 87=   0.1441 (  3) -0.1441 (  4)  0.1935 (  5) -0.1935 (  7) -0.1183 (  9)
           0.1183 ( 10) -0.1133 ( 14)  0.1133 ( 15)  0.1133 ( 26) -0.1133 ( 27)
          -0.1183 ( 33)  0.1183 ( 34)  0.1935 ( 36) -0.1935 ( 37) -0.1441 ( 39)
           0.1441 ( 40)  0.1130 (102) -0.1130 (103) -0.1130 (117)  0.1130 (118)
           0.1141 (125)  0.1141 (168) -0.1362 (177) -0.1362 (178) -0.1362 (179)
          -0.1362 (180)  0.1326 (181)  0.1326 (182)  0.1326 (183)  0.1326 (184)
           0.1326 (217)  0.1326 (218)  0.1326 (219)  0.1326 (220) -0.1362 (222)
          -0.1362 (223) -0.1362 (225) -0.1362 (226)
 CRD 88=   0.1228 (  1)  0.1617 (  2) -0.1065 (  3) -0.1065 (  4) -0.1878 (  6)
          -0.1083 (  8)  0.1495 ( 13)  0.1326 ( 16) -0.1432 ( 18) -0.1432 ( 20)
           0.1326 ( 24)  0.1495 ( 28) -0.1083 ( 29) -0.1878 ( 32)  0.1617 ( 35)
           0.1228 ( 38) -0.1065 ( 39) -0.1065 ( 40)  0.1131 ( 51)  0.1131 ( 54)
           0.1131 ( 92)  0.1131 ( 93)  0.1557 (104)  0.1557 (116) -0.1682 (177)
           0.1682 (180) -0.1682 (223)  0.1682 (225)
 CRD 89=  -0.1148 (  9)  0.1148 ( 10)  0.1601 ( 11) -0.1602 ( 12)  0.1649 ( 14)
          -0.1649 ( 15)  0.1065 ( 17) -0.1065 ( 19) -0.1064 ( 23)  0.1064 ( 25)
          -0.1649 ( 26)  0.1649 ( 27)  0.1601 ( 30) -0.1601 ( 31) -0.1147 ( 33)
           0.1148 ( 34) -0.1267 (185) -0.1267 (186) -0.1267 (187) -0.1267 (188)
           0.1463 (189)  0.1463 (190)  0.1463 (191)  0.1463 (192) -0.1204 (193)
          -0.1204 (194) -0.1204 (195) -0.1204 (196) -0.1204 (205) -0.1204 (206)
          -0.1204 (207) -0.1204 (208)  0.1463 (209)  0.1463 (210)  0.1463 (211)
           0.1463 (212) -0.1267 (213) -0.1267 (214) -0.1267 (215) -0.1267 (216)
 CRD 90=   0.1076 ( 14) -0.1076 ( 15)  0.1697 ( 17) -0.1697 ( 19)  0.1995 ( 21)
          -0.1995 ( 22)  0.1698 ( 23) -0.1698 ( 25)  0.1076 ( 26) -0.1077 ( 27)
          -0.1291 (193) -0.1291 (194) -0.1291 (195) -0.1291 (196)  0.1668 (197)
           0.1668 (198)  0.1668 (199)  0.1668 (200) -0.1668 (201) -0.1668 (202)
          -0.1668 (203) -0.1668 (204)  0.1292 (205)  0.1292 (206)  0.1292 (207)
           0.1292 (208)
 CRD 91=   0.1288 (  3) -0.1288 (  4) -0.1871 ( 11)  0.1871 ( 12) -0.1322 ( 14)
           0.1322 ( 15)  0.1336 ( 21) -0.1336 ( 22) -0.1322 ( 26)  0.1322 ( 27)
           0.1871 ( 30) -0.1871 ( 31)  0.1288 ( 39) -0.1288 ( 40)  0.1019 (102)
          -0.1019 (103)  0.1019 (117) -0.1019 (118)  0.1444 (125)  0.1036 (127)
          -0.1036 (151) -0.1444 (168)  0.1017 (185)  0.1017 (186)  0.1017 (187)
           0.1017 (188) -0.1294 (189) -0.1294 (190) -0.1294 (191) -0.1294 (192)
           0.1294 (209)  0.1294 (210)  0.1294 (211)  0.1294 (212) -0.1018 (213)
          -0.1018 (214) -0.1018 (215) -0.1018 (216)
 CRD 92=  -0.1797 (  1)  0.2090 (  6) -0.1610 ( 13)  0.1491 ( 18) -0.1491 ( 20)
           0.1610 ( 28) -0.2090 ( 32)  0.1797 ( 38) -0.1481 (104)  0.1278 (105)
          -0.1278 (115)  0.1481 (116)  0.1816 (177) -0.1816 (180) -0.1816 (223)
           0.1816 (225)
 CRD 93=  -0.1023 ( 17) -0.1023 ( 19)  0.1107 ( 21)  0.1107 ( 22) -0.1023 ( 23)
          -0.1023 ( 25) -0.1072 (106)  0.1275 (107) -0.1498 (108)  0.1778 (109)
          -0.1917 (110)  0.1778 (111) -0.1498 (112)  0.1275 (113) -0.1071 (114)
          -0.1085 (186)  0.1086 (187)  0.1132 (189) -0.1132 (192) -0.1440 (193)
           0.1440 (196)  0.1815 (198) -0.1815 (199) -0.1815 (201)  0.1815 (204)
           0.1440 (206) -0.1440 (207) -0.1132 (210)  0.1132 (211)  0.1085 (214)
          -0.1085 (215)
 CRD 94=  -0.1771 (  1)  0.1111 (  2)  0.1098 (  6) -0.2039 (  8)  0.1270 ( 16)
           0.1269 ( 24) -0.2039 ( 29)  0.1097 ( 32)  0.1112 ( 35) -0.1771 ( 38)
          -0.1080 (104)  0.1422 (105)  0.1423 (115) -0.1079 (116)  0.1458 (177)
          -0.1458 (180)  0.1397 (181) -0.1397 (184) -0.1398 (217)  0.1398 (220)
           0.1458 (223) -0.1458 (225)
 CRD 95=  -0.1245 (  2)  0.1219 (  6)  0.1106 ( 11)  0.1106 ( 12) -0.1106 ( 30)
          -0.1106 ( 31) -0.1219 ( 32)  0.1245 ( 35)  0.1611 (106) -0.1905 (107)
           0.1501 (108) -0.1502 (112)  0.1905 (113) -0.1610 (114) -0.1022 (123)
           0.1022 (124)  0.1022 (171) -0.1022 (172) -0.1153 (181)  0.1153 (184)
           0.1823 (186) -0.1823 (187) -0.1595 (189)  0.1595 (192) -0.1596 (210)
           0.1595 (211)  0.1823 (214) -0.1822 (215) -0.1152 (217)  0.1152 (220)
 CRD 96=  -0.1615 (  3)  0.1615 (  4) -0.1215 (  9)  0.1215 ( 10)  0.1215 ( 11)
          -0.1215 ( 12) -0.1485 ( 17)  0.1485 ( 19)  0.1485 ( 23) -0.1485 ( 25)
           0.1214 ( 30) -0.1215 ( 31) -0.1215 ( 33)  0.1215 ( 34)  0.1615 ( 39)
          -0.1615 ( 40) -0.1268 (102)  0.1268 (103)  0.1268 (117) -0.1268 (118)
           0.1318 (122) -0.1789 (125) -0.1202 (132) -0.1202 (146)  0.1318 (160)
          -0.1789 (168) -0.1127 (175) -0.1127 (176) -0.1127 (221) -0.1127 (224)
 CRD 97=  -0.1022 (  2)  0.1547 (  6) -0.1205 ( 13)  0.2038 ( 16)  0.1062 ( 21)
           0.1062 ( 22)  0.2038 ( 24) -0.1205 ( 28)  0.1547 ( 32) -0.1022 ( 35)
           0.1453 (106) -0.1500 (107)  0.1116 (109) -0.1803 (110)  0.1116 (111)
          -0.1500 (113)  0.1453 (114)  0.1568 (186) -0.1568 (187) -0.1103 (189)
           0.1103 (192)  0.1588 (198) -0.1588 (199) -0.1588 (201)  0.1588 (204)
           0.1103 (210) -0.1103 (211) -0.1568 (214)  0.1568 (215)
 CRD 98=  -0.1245 (  1)  0.1542 (  2) -0.1766 (  8)  0.1865 ( 13) -0.1966 ( 18)
           0.1966 ( 20) -0.1865 ( 28)  0.1766 ( 29) -0.1542 ( 35)  0.1245 ( 38)
           0.1166 (105)  0.1355 (108) -0.1219 (109)  0.1219 (111) -0.1356 (112)
          -0.1166 (115)  0.1230 (181) -0.1230 (184)  0.1537 (193) -0.1537 (196)
           0.1537 (206) -0.1537 (207)  0.1230 (217) -0.1230 (220)
 CRD 99=   0.1071 (  1) -0.1599 (  2) -0.1301 ( 13)  0.1423 ( 16)  0.1424 ( 24)
          -0.1300 ( 28) -0.1599 ( 35)  0.1070 ( 38)  0.1047 ( 55)  0.1047 ( 56)
           0.1047 ( 88)  0.1047 ( 89)  0.1132 (110) -0.1221 (182)  0.1221 (183)
          -0.1761 (194)  0.1761 (195) -0.1761 (205)  0.1761 (208) -0.1221 (218)
           0.1221 (219)
 CRD100=  -0.1002 (  6)  0.1096 (  8) -0.1097 ( 29)  0.1001 ( 32) -0.1017 ( 67)
           0.1017 ( 78) -0.1233 (106) -0.1326 (109)  0.1327 (111)  0.1233 (114)
           0.1052 (143) -0.1033 (145)  0.1033 (152) -0.1052 (153) -0.1198 (185)
           0.1186 (188)  0.1569 (190) -0.1583 (191) -0.1654 (197)  0.1667 (200)
           0.1653 (202) -0.1666 (203) -0.1570 (209)  0.1584 (212)  0.1198 (213)
          -0.1185 (216)
 CRD101=   0.1611 (  3) -0.1624 (  4)  0.1367 (  9) -0.1347 ( 10)  0.1350 ( 14)
          -0.1366 ( 15) -0.1361 ( 21)  0.1361 ( 22)  0.1366 ( 26) -0.1350 ( 27)
          -0.1367 ( 33)  0.1347 ( 34)  0.1624 ( 39) -0.1611 ( 40)  0.1254 (102)
          -0.1263 (103)  0.1263 (117) -0.1254 (118)  0.1210 (121)  0.1587 (125)
          -0.1053 (127)  0.1009 (136) -0.1009 (144)  0.1053 (151) -0.1210 (164)
          -0.1587 (168)  0.1569 (175)  0.1577 (176) -0.1577 (221) -0.1569 (224)
 CRD102=   0.1252 (  1) -0.1768 (  2)  0.1621 (  6) -0.1148 (  8) -0.2022 ( 18)
           0.2022 ( 20)  0.1148 ( 29) -0.1621 ( 32)  0.1768 ( 35) -0.1252 ( 38)
           0.1067 ( 42)  0.1067 ( 43) -0.1067 (100) -0.1067 (101) -0.1088 (178)
           0.1088 (179) -0.1685 (182)  0.1685 (183)  0.1685 (218) -0.1685 (219)
          -0.1088 (222)  0.1088 (226)
 CRD103=   0.1059 (  6)  0.1290 ( 13) -0.1593 ( 16) -0.1593 ( 24)  0.1290 ( 28)
           0.1059 ( 32) -0.1046 ( 60) -0.1046 ( 61) -0.1046 ( 80) -0.1046 ( 81)
           0.1157 (106) -0.1227 (108)  0.1128 (110) -0.1227 (112)  0.1157 (114)
           0.1017 (129) -0.1017 (130) -0.1058 (137)  0.1058 (138) -0.1058 (158)
           0.1058 (159) -0.1018 (169)  0.1017 (170)  0.1871 (185) -0.1871 (188)
          -0.1421 (190)  0.1421 (191) -0.1421 (209)  0.1421 (212)  0.1871 (213)
          -0.1871 (216)
 CRD104=   0.1305 (  1) -0.1200 (  2)  0.1530 (  6) -0.2098 (  8)  0.1773 ( 13)
           0.1773 ( 28) -0.2099 ( 29)  0.1530 ( 32) -0.1200 ( 35)  0.1305 ( 38)
          -0.1438 (178)  0.1438 (179) -0.1458 (182)  0.1458 (183)  0.1127 (194)
          -0.1127 (195)  0.1127 (205) -0.1127 (208) -0.1458 (218)  0.1458 (219)
           0.1438 (222) -0.1438 (226)
 CRD105=  -0.1080 (  6)  0.1503 (  8) -0.2060 ( 13)  0.2316 ( 16) -0.2239 ( 18)
           0.2239 ( 20) -0.2316 ( 24)  0.2060 ( 28) -0.1503 ( 29)  0.1080 ( 32)
          -0.1014 ( 62) -0.1014 ( 63)  0.1080 ( 66)  0.1080 ( 67) -0.1080 ( 78)
          -0.1080 ( 79)  0.1014 ( 83)  0.1014 ( 84) -0.1049 (185)  0.1049 (188)
           0.1420 (197) -0.1420 (200) -0.1420 (202)  0.1420 (203)  0.1049 (213)
          -0.1049 (216)
 CRD106=  -0.1189 (  1)  0.1200 (  8) -0.1200 ( 29)  0.1189 ( 38) -0.1102 (105)
           0.1319 (107) -0.1449 (109)  0.1449 (111) -0.1318 (113)  0.1102 (115)
           0.1747 (178) -0.1747 (179)  0.1269 (185) -0.1269 (188) -0.1330 (194)
           0.1330 (195)  0.1330 (205) -0.1330 (208) -0.1268 (213)  0.1268 (216)
           0.1747 (222) -0.1747 (226)
 CRD107=  -0.1392 (  3)  0.1392 (  4) -0.1093 ( 11)  0.1093 ( 12)  0.1232 ( 17)
          -0.1232 ( 19) -0.1232 ( 23)  0.1232 ( 25) -0.1093 ( 30)  0.1093 ( 31)
           0.1392 ( 39) -0.1392 ( 40) -0.1073 (102)  0.1073 (103)  0.1073 (117)
          -0.1073 (118) -0.1573 (121)  0.1344 (127) -0.1101 (136) -0.1101 (144)
           0.1344 (151) -0.1573 (164) -0.1728 (175) -0.1728 (176) -0.1728 (221)
          -0.1728 (224)
 CRD108=  -0.1073 ( 13) -0.1073 ( 28) -0.1040 ( 41) -0.1069 ( 65) -0.1040 ( 94)
           0.1389 (105) -0.1320 (107) -0.1056 (108)  0.1454 (110) -0.1056 (112)
          -0.1320 (113)  0.1389 (115) -0.1618 (178)  0.1618 (179) -0.1562 (190)
           0.1562 (191)  0.1293 (197) -0.1293 (200)  0.1293 (202) -0.1293 (203)
          -0.1562 (209)  0.1562 (212)  0.1618 (222) -0.1618 (226)
 CRD109=   0.1231 (  6) -0.1243 ( 16)  0.1243 ( 24) -0.1231 ( 32) -0.1207 ( 41)
           0.1128 ( 57) -0.1128 ( 75)  0.1207 ( 94)  0.1416 (105) -0.1333 (108)
          -0.1151 (109)  0.1151 (111)  0.1333 (112) -0.1416 (115) -0.1434 (178)
           0.1434 (179)  0.1419 (182) -0.1419 (183) -0.1107 (190)  0.1107 (191)
          -0.1583 (194)  0.1583 (195)  0.1583 (205) -0.1583 (208)  0.1107 (209)
          -0.1107 (212) -0.1419 (218)  0.1419 (219) -0.1434 (222)  0.1434 (226)
 CRD110=  -0.1035 (  3)  0.1035 (  4)  0.1163 (  5) -0.1163 (  7) -0.1063 ( 11)
           0.1063 ( 12) -0.1187 ( 21)  0.1187 ( 22)  0.1063 ( 30) -0.1063 ( 31)
          -0.1163 ( 36)  0.1163 ( 37) -0.1035 ( 39)  0.1035 ( 40) -0.1148 (119)
          -0.1148 (120) -0.1230 (121) -0.1261 (122)  0.1277 (126)  0.1277 (128)
           0.1041 (129)  0.1041 (130)  0.1392 (132) -0.1087 (143) -0.1087 (145)
          -0.1392 (146)  0.1087 (152)  0.1087 (153)  0.1261 (160)  0.1230 (164)
          -0.1277 (166) -0.1277 (167) -0.1041 (169) -0.1041 (170)  0.1148 (173)
           0.1148 (174) -0.1571 (175) -0.1571 (176)  0.1571 (221)  0.1571 (224)
 CRD111=   0.1384 (  6)  0.1059 (  8) -0.1254 ( 18) -0.1254 ( 20)  0.1059 ( 29)
           0.1384 ( 32) -0.1179 ( 41) -0.1229 ( 44)  0.1287 ( 65) -0.1229 ( 87)
          -0.1179 ( 94)  0.1249 (105)  0.1315 (106) -0.1035 (109) -0.1370 (110)
          -0.1035 (111)  0.1315 (114)  0.1249 (115) -0.1169 (178)  0.1169 (179)
           0.1594 (182) -0.1594 (183)  0.1307 (185) -0.1307 (188) -0.1519 (197)
           0.1519 (200) -0.1519 (202)  0.1519 (203)  0.1307 (213) -0.1307 (216)
           0.1594 (218) -0.1594 (219)  0.1169 (222) -0.1169 (226)
 CRD112=  -0.1201 (  6) -0.1383 (  8) -0.1298 ( 13)  0.1298 ( 28)  0.1383 ( 29)
           0.1201 ( 32)  0.1276 ( 44)  0.1342 ( 53)  0.1103 ( 57) -0.1103 ( 75)
          -0.1342 ( 82) -0.1276 ( 87) -0.1264 (106) -0.1325 (107) -0.1090 (108)
           0.1090 (112)  0.1325 (113)  0.1264 (114) -0.1360 (182)  0.1360 (183)
          -0.1627 (185)  0.1627 (188) -0.1513 (190)  0.1513 (191) -0.1068 (194)
           0.1068 (195)  0.1068 (205) -0.1068 (208)  0.1513 (209) -0.1513 (212)
           0.1627 (213) -0.1627 (216)  0.1360 (218) -0.1360 (219)
 CRD113=  -0.1184 ( 13) -0.1339 ( 16) -0.1419 ( 18) -0.1419 ( 20) -0.1339 ( 24)
          -0.1184 ( 28)  0.1055 ( 53)  0.1240 ( 57)  0.1355 ( 64)  0.1395 ( 65)
           0.1356 ( 73)  0.1240 ( 75)  0.1055 ( 82) -0.1172 (108) -0.1282 (109)
          -0.1319 (110) -0.1282 (111) -0.1172 (112) -0.1102 (185)  0.1102 (188)
          -0.1354 (190)  0.1354 (191) -0.1532 (194)  0.1532 (195) -0.1624 (197)
           0.1624 (200) -0.1624 (202)  0.1624 (203) -0.1532 (205)  0.1532 (208)
          -0.1354 (209)  0.1354 (212) -0.1102 (213)  0.1102 (216)
 CRD114=  -0.1133 (  5)  0.1133 (  7) -0.1049 ( 14)  0.1049 ( 15)  0.1049 ( 26)
          -0.1049 ( 27) -0.1133 ( 36)  0.1133 ( 37)  0.1399 (119)  0.1398 (120)
           0.1283 (122) -0.1379 (126)  0.1038 (127) -0.1379 (128) -0.1225 (131)
          -0.1225 (133) -0.1030 (134) -0.1029 (135) -0.1174 (136)  0.1119 (141)
           0.1119 (142) -0.1174 (144)  0.1135 (147)  0.1135 (148)  0.1135 (149)
           0.1135 (150)  0.1038 (151)  0.1119 (154)  0.1119 (155)  0.1283 (160)
          -0.1225 (161) -0.1225 (162) -0.1030 (163) -0.1030 (165) -0.1379 (166)
          -0.1379 (167)  0.1399 (173)  0.1398 (174)  0.1243 (175)  0.1243 (176)
           0.1243 (221)  0.1243 (224)
 CRD115=   0.1092 (  9) -0.1092 ( 10)  0.1096 ( 21) -0.1096 ( 22) -0.1092 ( 33)
           0.1092 ( 34) -0.1327 (119) -0.1327 (120) -0.1411 (123) -0.1411 (124)
           0.1231 (126) -0.1074 (127)  0.1231 (128) -0.1017 (132)  0.1450 (134)
           0.1449 (135)  0.1118 (139)  0.1118 (140)  0.1428 (143)  0.1428 (145)
           0.1017 (146)  0.1074 (151) -0.1428 (152) -0.1428 (153) -0.1118 (156)
          -0.1118 (157) -0.1449 (163) -0.1449 (165) -0.1230 (166) -0.1230 (167)
           0.1411 (171)  0.1411 (172)  0.1327 (173)  0.1327 (174)
 CRD116=   0.1063 ( 11) -0.1063 ( 12)  0.1063 ( 30) -0.1063 ( 31) -0.1011 (119)
          -0.1011 (120) -0.1430 (123) -0.1430 (124) -0.1545 (129) -0.1545 (130)
          -0.1275 (131) -0.1275 (133)  0.1367 (134)  0.1367 (135)  0.1554 (137)
           0.1554 (138)  0.1357 (141)  0.1357 (142)  0.1357 (154)  0.1357 (155)
           0.1554 (158)  0.1554 (159) -0.1275 (161) -0.1275 (162)  0.1367 (163)
           0.1367 (165) -0.1545 (169) -0.1545 (170) -0.1430 (171) -0.1430 (172)
          -0.1011 (173) -0.1011 (174)
 CRD117=  -0.1012 ( 17)  0.1012 ( 19)  0.1046 ( 21) -0.1046 ( 22) -0.1012 ( 23)
           0.1012 ( 25)  0.1199 (129)  0.1199 (130)  0.1437 (131)  0.1437 (133)
          -0.1144 (137) -0.1144 (138)  0.1583 (139)  0.1583 (140) -0.1398 (141)
          -0.1398 (142)  0.1626 (143)  0.1626 (145)  0.1563 (147)  0.1563 (148)
          -0.1563 (149) -0.1563 (150) -0.1626 (152) -0.1626 (153)  0.1398 (154)
           0.1398 (155) -0.1584 (156) -0.1584 (157)  0.1144 (158)  0.1144 (159)
          -0.1438 (161) -0.1438 (162) -0.1199 (169) -0.1199 (170)

 THE DETERMINANT OF THE G MATRIX IS 10**(   -43)


                     --------------------
                     INTERNAL COORDINATES
                     --------------------

                 - - ATOMS - -         COORDINATE      COORDINATE
 NO.   TYPE    I  J  K  L  M  N        (BOHR,RAD)       (ANG,DEG)
 ----------------------------------------------------------------
   1 STRETCH   1 14                     2.0598069       1.0900030
   2 STRETCH   1  2                     2.8911652       1.5299389
   3 STRETCH   1 15                     2.0599384       1.0900725
   4 STRETCH   1 16                     2.0599206       1.0900631
   5 STRETCH   2 17                     2.0598157       1.0900076
   6 STRETCH   2  3                     2.8911573       1.5299347
   7 STRETCH   2 18                     2.0598238       1.0900119
   8 STRETCH   3  4                     2.8913278       1.5300249
   9 STRETCH   3 19                     2.0599387       1.0900727
  10 STRETCH   3 20                     2.0599272       1.0900666
  11 STRETCH   4 21                     2.0598283       1.0900143
  12 STRETCH   4 22                     2.0598096       1.0900044
  13 STRETCH   4  5                     2.8911678       1.5299402
  14 STRETCH   5 24                     2.0599272       1.0900666
  15 STRETCH   5 23                     2.0599387       1.0900727
  16 STRETCH   5  6                     2.8913323       1.5300273
  17 STRETCH   6 25                     2.0598103       1.0900047
  18 STRETCH   6  7                     2.8911701       1.5299414
  19 STRETCH   6 26                     2.0598207       1.0900103
  20 STRETCH   7  8                     2.8911754       1.5299443
  21 STRETCH   7 28                     2.0599120       1.0900586
  22 STRETCH   7 27                     2.0599206       1.0900631
  23 STRETCH   8 29                     2.0598157       1.0900076
  24 STRETCH   8  9                     2.8913283       1.5300251
  25 STRETCH   8 30                     2.0598207       1.0900103
  26 STRETCH   9 32                     2.0599282       1.0900671
  27 STRETCH   9 31                     2.0599248       1.0900654
  28 STRETCH   9 10                     2.8911500       1.5299308
  29 STRETCH  10 11                     2.8913283       1.5300251
  30 STRETCH  10 34                     2.0598096       1.0900044
  31 STRETCH  10 33                     2.0598157       1.0900076
  32 STRETCH  11 12                     2.8911500       1.5299308
  33 STRETCH  11 36                     2.0599394       1.0900730
  34 STRETCH  11 35                     2.0599193       1.0900625
  35 STRETCH  12 13                     2.8911729       1.5299429
  36 STRETCH  12 38                     2.0598248       1.0900124
  37 STRETCH  12 37                     2.0598157       1.0900076
  38 STRETCH  13 41                     2.0598077       1.0900034
  39 STRETCH  13 40                     2.0599272       1.0900666
  40 STRETCH  13 39                     2.0599374       1.0900720
  41 BEND      1  2  3                  1.9106591     109.4727028
  42 BEND      1  2 17                  1.9106227     109.4706184
  43 BEND      1  2 18                  1.9106160     109.4702340
  44 BEND      2  3  4                  1.9106924     109.4746096
  45 BEND      2  1 16                  1.9106512     109.4722524
  46 BEND      2  3 19                  1.9106555     109.4724970
  47 BEND      2  1 15                  1.9106484     109.4720869
  48 BEND      2  1 14                  1.9106675     109.4731811
  49 BEND      2  3 20                  1.9106632     109.4729370
  50 BEND      3  4 21                  1.9105951     109.4690347
  51 BEND      3  2 18                  1.9106287     109.4709621
  52 BEND      3  4 22                  1.9106104     109.4699100
  53 BEND      3  4  5                  1.9106874     109.4743215
  54 BEND      3  2 17                  1.9106152     109.4701881
  55 BEND      4  5 24                  1.9106675     109.4731832
  56 BEND      4  5 23                  1.9106562     109.4725390
  57 BEND      4  5  6                  1.9106860     109.4742414
  58 BEND      4  3 19                  1.9106279     109.4709155
  59 BEND      4  3 20                  1.9106419     109.4717195
  60 BEND      5  4 21                  1.9106096     109.4698642
  61 BEND      5  4 22                  1.9106221     109.4705797
  62 BEND      5  6 26                  1.9106014     109.4693982
  63 BEND      5  6 25                  1.9106019     109.4694239
  64 BEND      5  6  7                  1.9106840     109.4741291
  65 BEND      6  7  8                  1.9106470     109.4720101
  66 BEND      6  7 27                  1.9106645     109.4730120
  67 BEND      6  7 28                  1.9106603     109.4727721
  68 BEND      6  5 23                  1.9106340     109.4712624
  69 BEND      6  5 24                  1.9106373     109.4714527
  70 BEND      7  6 25                  1.9106178     109.4703372
  71 BEND      7  6 26                  1.9106146     109.4701517
  72 BEND      7  8 30                  1.9106211     109.4705256
  73 BEND      7  8  9                  1.9106946     109.4747343
  74 BEND      7  8 29                  1.9106235     109.4706625
  75 BEND      8  9 10                  1.9106958     109.4748068
  76 BEND      8  9 31                  1.9106384     109.4715179
  77 BEND      8  9 32                  1.9106302     109.4710438
  78 BEND      8  7 27                  1.9106520     109.4722965
  79 BEND      8  7 28                  1.9106543     109.4724287
  80 BEND      9 10 33                  1.9106251     109.4707523
  81 BEND      9 10 34                  1.9106225     109.4706083
  82 BEND      9 10 11                  1.9106958     109.4748068
  83 BEND      9  8 30                  1.9105898     109.4687314
  84 BEND      9  8 29                  1.9105995     109.4692891
  85 BEND     10 11 35                  1.9106340     109.4712621
  86 BEND     10 11 36                  1.9106271     109.4708666
  87 BEND     10 11 12                  1.9106958     109.4748068
  88 BEND     10  9 31                  1.9106660     109.4730953
  89 BEND     10  9 32                  1.9106618     109.4728577
  90 BEND     11 10 33                  1.9105995     109.4692891
  91 BEND     11 10 34                  1.9105929     109.4689086
  92 BEND     11 12 38                  1.9106252     109.4707598
  93 BEND     11 12 37                  1.9106251     109.4707523
  94 BEND     11 12 13                  1.9106590     109.4726941
  95 BEND     12 13 39                  1.9106463     109.4719695
  96 BEND     12 13 40                  1.9106609     109.4728075
  97 BEND     12 13 41                  1.9106657     109.4730828
  98 BEND     12 11 35                  1.9106616     109.4728483
  99 BEND     12 11 36                  1.9106575     109.4726127
 100 BEND     13 12 37                  1.9106138     109.4701064
 101 BEND     13 12 38                  1.9106183     109.4703644
 102 BEND     14  1 16                  1.9106622     109.4728778
 103 BEND     14  1 15                  1.9106470     109.4720106
 104 BEND     15  1 16                  1.9105232     109.4649147
 105 BEND     17  2 18                  1.9106576     109.4726183
 106 BEND     19  3 20                  1.9105185     109.4646447
 107 BEND     21  4 22                  1.9106750     109.4736137
 108 BEND     23  5 24                  1.9105185     109.4646447
 109 BEND     25  6 26                  1.9106797     109.4738837
 110 BEND     27  7 28                  1.9105213     109.4648043
 111 BEND     29  8 30                  1.9106709     109.4733808
 112 BEND     31  9 32                  1.9105072     109.4640019
 113 BEND     33 10 34                  1.9106636     109.4729586
 114 BEND     35 11 36                  1.9105234     109.4649269
 115 BEND     37 12 38                  1.9106581     109.4726468
 116 BEND     39 13 40                  1.9105182     109.4646284
 117 BEND     39 13 41                  1.9106538     109.4724009
 118 BEND     40 13 41                  1.9106544     109.4724345
 119 TORSION   1  2  3 20               1.0471396      59.9966801
 120 TORSION   1  2  3 19              -1.0471469     -59.9970987
 121 TORSION   1  2  3  4              -3.1415854    -179.9995822
 122 TORSION   2  3  4  5              -3.1415905    -179.9998750
 123 TORSION   2  3  4 22               1.0471943      59.9998137
 124 TORSION   2  3  4 21              -1.0472146     -60.0009760
[...]
1121  12 -13.301676   0.778548  -2.509705   0.000049   0.025863   0.001880
1122  13 -13.718859   0.524251  -2.607688   0.000025   0.025863   0.000959
1123  39 -13.813994   0.268950  -2.741194  -0.000017   0.025863  -0.000656
1124  12 -12.771025  -1.487688   4.304915   0.000033   0.025865   0.001291
1125  13 -13.181806  -1.769324   4.289144   0.000015   0.025865   0.000568
1126  40 -13.269118  -2.057996   4.255955  -0.000021   0.025865  -0.000821
1127  12 -14.913882   2.035398   3.407055   0.000088   0.025576   0.003456
1128  13 -15.348298   1.792645   3.381445   0.000028   0.025576   0.001080
1129  41 -15.628408   1.818755   3.268938  -0.000004   0.025576  -0.000168
1130  12 -15.132637   2.969611   0.597893   0.000054   0.025576   0.002096
1131  13 -15.570023   2.739539   0.534150   0.000025   0.025576   0.000964
1132  41 -15.830187   2.680473   0.677769  -0.000000   0.025576  -0.000018
1133  13 -15.177702   1.709325   3.588028   0.000117   0.045878   0.002550
1134  12 -14.598195   2.128475   3.630786   0.000125   0.045878   0.002715
1135  13 -15.444360   2.808450   0.351343   0.000105   0.045818   0.002295
1136  12 -14.836937   3.187431   0.378635   0.000114   0.045818   0.002496
1137  13 -13.834219   0.906288  -2.502050   0.000218   0.085263   0.002551
1138  12 -13.181464   1.209839  -2.451603   0.000195   0.085263   0.002285
1139  13 -13.237204  -1.485483   4.417925   0.000185   0.085200   0.002175
1140  12 -12.695745  -1.021845   4.530281   0.000151   0.085200   0.001777
1141  12 -10.144055   3.362937   3.183964   0.000196   0.089765   0.002187
1142  33  -9.166894   3.202921   3.351629   0.000231   0.089765   0.002575
1143  37 -10.235738   3.270197   3.462262   0.000023   0.089765   0.000256
1144  12 -10.321963   4.122578   0.900018   0.000218   0.089765   0.002433
1145  34  -9.386237   4.139480   0.535753   0.000252   0.089765   0.002807
1146  38 -10.455782   4.209738   0.637430  -0.000068   0.089765  -0.000756
1147  12 -12.328981   0.153497  -2.640406   0.000127   0.168077   0.000757
1148  35 -11.796851  -0.327118  -2.874391   0.000008   0.168077   0.000049
1149  39 -12.890158  -0.339974  -2.794701  -0.000086   0.168077  -0.000512
1150  35 -11.102803  -0.085224  -3.106702  -0.000151   0.146846  -0.001028
1151  12 -11.748025   0.748534  -2.715541   0.000422   0.207031   0.002039
1152  12 -11.819497  -2.021795   3.900206   0.000127   0.168078   0.000758
1153  36 -11.282806  -2.521886   3.724767  -0.000042   0.168078  -0.000248
1154  40 -12.375954  -2.535443   3.806612  -0.000037   0.168078  -0.000220
1155  36 -10.443558  -2.341110   3.997797  -0.000113   0.146821  -0.000772
1156  12 -11.306227  -1.647217   4.194746   0.000406   0.206995   0.001963
1157  37 -12.194161  -0.298266   4.922105  -0.000063   0.071354  -0.000882
1158  37 -11.306649  -0.283624   4.857825  -0.000069   0.071354  -0.000962
1159  12 -11.762559  -0.624330   4.646205  -0.000174   0.155667  -0.001119
1160  37 -10.926844   3.548945   3.552329   0.000028   0.067319   0.000413
1161  37 -11.998824   3.698766   3.574021  -0.000027   0.148432  -0.000184
1162  37 -13.205109   3.242057   3.807282  -0.000189   0.148432  -0.001277
1163  37 -13.859934   2.438454   4.119504  -0.000066   0.067319  -0.000986
1164  12 -11.298889   3.767691   3.148239   0.000264   0.148579   0.001778
1165  12 -12.764060   3.685590   3.273704   0.000203   0.148579   0.001363
1166  12 -13.874429   2.792571   3.646274  -0.000019   0.148579  -0.000128
1167  38 -14.170896   3.766134   0.127742  -0.000043   0.067320  -0.000635
1168  38 -13.442330   4.254917   0.762049  -0.000128   0.148433  -0.000865
1169  38 -12.195413   4.538162   1.050311  -0.000031   0.148433  -0.000211
1170  38 -11.139009   4.454845   0.828655  -0.000035   0.067320  -0.000520
1171  12 -14.102772   3.767516   0.715037  -0.000081   0.148580  -0.000548
1172  12 -12.911044   4.313189   1.386784   0.000225   0.148580   0.001512
1173  12 -11.440479   4.372272   1.330506   0.000227   0.148580   0.001531
1174  38 -11.874551   2.141694  -2.434019  -0.000061   0.071362  -0.000852
1175  38 -12.762164   2.127035  -2.369784  -0.000067   0.071362  -0.000939
1176  12 -12.311831   1.721266  -2.405980  -0.000158   0.155682  -0.001013
1177  39 -13.698460  -0.026752  -2.908351  -0.000168   0.138410  -0.001217
1178  12 -12.806849   0.629883  -2.655048   0.000362   0.195038   0.001855
1179  40 -13.049915  -2.474767   4.140879  -0.000193   0.138457  -0.001395
1180  12 -12.354882  -1.592823   4.312383   0.000364   0.195104   0.001865
1181  41 -15.847489   2.091457   2.976023  -0.000192   0.199544  -0.000964
1182  41 -15.959486   2.609996   1.646911  -0.001014   0.408190  -0.002484
1183  12 -14.867905   2.760827   2.610596   0.000901   0.546769   0.001647
1184  12 -14.981654   3.209940   1.050473   0.000691   0.281004   0.002460
1185  13 -12.843891  -3.433072  -1.530549   0.000090   0.088457   0.001023
1186  35 -11.905408  -3.246737  -1.823477   0.000214   0.088457   0.002420
1187  39 -12.992995  -3.339796  -1.781608  -0.000011   0.088457  -0.000129
1188  35 -11.329247  -3.482634  -1.915867   0.000037   0.033376   0.001119
1189  13 -12.720791  -3.659928  -1.453682   0.000205   0.047421   0.004321
1190  13 -12.650103  -4.260633   0.957795   0.000116   0.088459   0.001315
1191  36 -11.672301  -4.242157   1.169566   0.000234   0.088459   0.002647
1192  40 -12.758237  -4.342292   1.232758  -0.000092   0.088459  -0.001039
1193  36 -11.105757  -4.463225   1.046334   0.000074   0.033402   0.002222
1194  13 -12.544640  -4.387699   0.721728   0.000223   0.047459   0.004695
1195  37 -13.999759   1.749466   4.381506  -0.000167   0.217362  -0.000769
1196  37 -13.271675   0.442964   4.831658  -0.001155   0.447709  -0.002580
1197  13 -14.647884   0.684837   4.266080   0.000959   0.592798   0.001618
1198  13 -13.711780  -0.778287   4.635200   0.000786   0.306201   0.002566
1199  38 -13.463628   2.287270  -2.108872  -0.000149   0.217364  -0.000687
1200  38 -14.185084   3.093179  -0.982049  -0.001154   0.447712  -0.002577
1201  13 -14.587372   1.863675  -1.755890   0.001001   0.592802   0.001688
1202  13 -15.280318   2.718765  -0.362350   0.000753   0.306203   0.002460
1203  39 -13.685356  -3.643637  -1.770379  -0.000046   0.067683  -0.000673
1204  39 -14.740597  -3.847475  -1.587127  -0.000125   0.149518  -0.000835
1205  39 -15.995920  -3.440963  -1.577877  -0.000219   0.149518  -0.001467
1206  39 -16.774727  -2.404676  -1.824336  -0.000256   0.149518  -0.001709
1207  39 -16.768803  -1.148725  -2.228967  -0.000157   0.149518  -0.001048
1208  39 -15.980494  -0.170155  -2.631637  -0.000179   0.149518  -0.001198
1209  39 -14.721773   0.143764  -2.872989  -0.000326   0.149518  -0.002183
1210  13 -13.964797  -3.884752  -1.306832   0.000162   0.149098   0.001086
1211  13 -15.438652  -3.871513  -1.146716   0.000113   0.149098   0.000760
1212  13 -16.642496  -3.017631  -1.287101  -0.000015   0.149098  -0.000098
1213  13 -17.099905  -1.661033  -1.672431   0.000043   0.149098   0.000291
1214  13 -16.629861  -0.338593  -2.150210   0.000123   0.149098   0.000822
1215  13 -15.418382   0.426331  -2.531357  -0.000092   0.149098  -0.000617
1216  13 -14.226732   0.492354  -2.685494   0.000029   0.082690   0.000348
1217  40 -13.732052  -2.294495   4.380846  -0.000064   0.067683  -0.000941
1218  40 -14.822172  -2.301689   4.396074  -0.000215   0.149518  -0.001440
1219  40 -15.967573  -2.695614   3.872600  -0.000175   0.149518  -0.001169
1220  40 -16.495266  -3.405590   2.893508  -0.000180   0.149518  -0.001203
1221  40 -16.196421  -4.150651   1.846263  -0.000249   0.149518  -0.001663
1222  40 -15.189303  -4.635949   1.145302  -0.000146   0.149518  -0.000979
1223  40 -13.872469  -4.669431   1.068022  -0.000242   0.149518  -0.001617
1224  13 -14.127824  -1.855790   4.425628  -0.000129   0.149099  -0.000866
1225  13 -15.580883  -2.042751   4.198266   0.000087   0.149099   0.000583
1226  13 -16.571055  -2.696063   3.309015   0.000089   0.149099   0.000599
1227  13 -16.706492  -3.557185   2.109785  -0.000001   0.149099  -0.000007
1228  13 -15.933596  -4.285339   1.075160   0.000021   0.149099   0.000138
1229  13 -14.558231  -4.592364   0.614580   0.000142   0.149099   0.000954
1230  13 -13.365487  -4.486796   0.734329   0.000158   0.082690   0.001908
1231  41 -16.309604   2.528964   0.479363  -0.000084   0.069440  -0.001207
1232  41 -16.931386   1.893768  -0.198985  -0.000271   0.154294  -0.001757
1233  41 -17.706189   0.800160  -0.373520  -0.000145   0.154294  -0.000940
1234  41 -18.215163  -0.265741   0.283414  -0.000275   0.154294  -0.001781
1235  41 -18.245783  -0.858862   1.497511  -0.000293   0.154294  -0.001897
1236  41 -17.785263  -0.731544   2.761818  -0.000173   0.154294  -0.001123
1237  41 -17.025896   0.063053   3.548418  -0.000206   0.154294  -0.001333
1238  41 -16.284759   1.193139   3.528862  -0.000317   0.154294  -0.002056
1239  13 -16.208498   2.300935  -0.065715  -0.000116   0.152108  -0.000761
1240  13 -17.093951   1.257393  -0.723113   0.000133   0.152108   0.000876
1241  13 -17.855875  -0.024280  -0.436809   0.000103   0.152108   0.000677
1242  13 -18.176125  -1.008912   0.673651  -0.000081   0.152108  -0.000530
1243  13 -17.920979  -1.285367   2.144587  -0.000069   0.152108  -0.000455
1244  13 -17.196974  -0.738209   3.361804   0.000107   0.152108   0.000702
1245  13 -16.306422   0.404093   3.817046  -0.000018   0.152108  -0.000119
1246  13 -15.694634   1.444882   3.561248   0.000019   0.084836   0.000224
1247  20  11.380177  -4.360490  -0.195149   0.000340   0.249544   0.001363
1248  20  11.458285  -4.154432   0.890974  -0.000135   0.498907  -0.000271
1249  20  11.525298  -3.247178   1.891909  -0.000086   0.498907  -0.000173
1250  15  12.969097  -4.299188   0.110372   0.000066   0.498907   0.000131
1251  15  13.056568  -3.775507   1.354390  -0.000363   0.498907  -0.000727
1252  15  13.097733  -2.876772   2.001542   0.000107   0.249544   0.000428
1253  19  10.984661  -0.519474  -5.003610   0.000174   0.249542   0.000696
1254  19  10.992527  -1.627541  -5.021401  -0.000226   0.498903  -0.000453
1255  19  11.055255  -2.792605  -4.337212   0.000172   0.498903   0.000345
1256  16  12.543488  -0.928767  -5.159627  -0.000256   0.498903  -0.000512
1257  16  12.574745  -2.255626  -4.899064  -0.000202   0.498903  -0.000406
1258  16  12.639444  -3.071516  -4.151851   0.000339   0.249542   0.001358
1259  21   9.184506   0.839569   3.542424   0.000187   0.255154   0.000734
1260  21   9.179106   1.983599   3.550892  -0.000235   0.510196  -0.000461
1261  21   9.116700   3.166171   2.815592   0.000232   0.510196   0.000455
1262  17  10.719834   1.284540   3.458810  -0.000124   0.510196  -0.000244
1263  17  10.690544   2.647827   3.169627  -0.000150   0.510196  -0.000294
1264  17  10.625296   3.465258   2.371846   0.000423   0.255154   0.001659
1265  22   8.804588   4.676770  -1.177556   0.000399   0.255154   0.001565
1266  22   8.719912   4.499623  -2.304651  -0.000125   0.510198  -0.000245
1267  22   8.645295   3.580130  -3.349633  -0.000091   0.510198  -0.000178
1268  18  10.306862   4.647106  -1.729426   0.000219   0.510198   0.000429
1269  18  10.211151   4.139822  -3.024232  -0.000261   0.510198  -0.000512
1270  18  10.164597   3.217708  -3.699830   0.000177   0.255154   0.000692
1271  23   6.149640  -0.545532  -4.640290   0.000195   0.255458   0.000763
1272  23   6.156275  -1.692153  -4.649460  -0.000219   0.510812  -0.000428
1273  23   6.219769  -2.876810  -3.911913   0.000231   0.510812   0.000453
1274  19   7.682622  -0.973609  -4.790531  -0.000082   0.510812  -0.000160
1275  19   7.713314  -2.339847  -4.500926  -0.000109   0.510812  -0.000213
1276  19   7.779234  -3.158285  -3.700500   0.000450   0.255458   0.001762
1277  24   6.531657  -4.385675   0.076223   0.000409   0.255460   0.001602
1278  24   6.616122  -4.209312   1.206124  -0.000107   0.510815  -0.000209
1279  24   6.689582  -3.287732   2.253397  -0.000076   0.510815  -0.000149
1280  20   8.097222  -4.338776   0.396519   0.000245   0.510815   0.000480
1281  20   8.192311  -3.831181   1.694514  -0.000224   0.510815  -0.000438
1282  20   8.237686  -2.906594   2.371266   0.000191   0.255460   0.000748
1283  25   4.361857   0.807148   3.907662   0.000199   0.255398   0.000779
1284  25   4.354102   1.952217   3.916181  -0.000211   0.510686  -0.000413
1285  25   4.289841   3.135300   3.179578   0.000259   0.510686   0.000507
1286  21   5.896258   1.255683   3.825528  -0.000071   0.510686  -0.000139
1287  21   5.864392   2.620036   3.535832  -0.000102   0.510686  -0.000201
1288  21   5.798091   3.437497   2.736659   0.000451   0.255398   0.001767
1289  26   3.977703   4.644447  -0.810021   0.000414   0.255399   0.001620
1290  26   3.893853   4.468126  -1.938391  -0.000099   0.510688  -0.000194
1291  26   3.821652   3.548165  -2.984760  -0.000066   0.510688  -0.000130
1292  22   5.480150   4.618525  -1.361634   0.000272   0.510688   0.000533
1293  22   5.386048   4.111656  -2.658036  -0.000216   0.510688  -0.000422
1294  22   5.341779   3.188757  -3.334523   0.000196   0.255399   0.000769
1295  27   1.336174  -0.582351  -4.277902   0.000198   0.255553   0.000774
1296  27   1.345274  -1.730070  -4.287317  -0.000214   0.511006  -0.000419
1297  27   1.410851  -2.915502  -3.548752   0.000237   0.511006   0.000465
1298  23   2.868911  -1.007576  -4.427062  -0.000073   0.511006  -0.000142
1299  23   2.902357  -2.375018  -4.137211  -0.000103   0.511006  -0.000201
1300  23   2.969533  -3.193770  -3.335611   0.000452   0.255553   0.001767
1301  28   1.722898  -4.423264   0.436501   0.000413   0.255557   0.001616
1302  28   1.806317  -4.247383   1.567684  -0.000102   0.511014  -0.000199
1303  28   1.877164  -3.325091   2.616226  -0.000071   0.511014  -0.000139
1304  24   3.286940  -4.373300   0.758419   0.000253   0.511014   0.000496
1305  24   3.380168  -3.865760   2.057955  -0.000216   0.511014  -0.000423
1306  24   3.423136  -2.940247   2.735487   0.000197   0.255557   0.000770
1307  29  -0.460957   0.764135   4.268959   0.000201   0.255399   0.000786
1308  29  -0.471572   1.909032   4.277570  -0.000208   0.510689  -0.000406
1309  29  -0.538162   3.091907   3.541165   0.000282   0.510689   0.000552
1310  25   1.072659   1.216444   4.188101  -0.000063   0.510689  -0.000123
1311  25   1.037637   2.580578   3.898560  -0.000096   0.510689  -0.000188
1312  25   0.969969   3.397891   3.099562   0.000412   0.255399   0.001611
1313  30  -0.850725   4.600976  -0.448376   0.000415   0.255400   0.001626
1314  30  -0.933202   4.424696  -1.576693  -0.000096   0.510689  -0.000188
1315  30  -1.002265   3.504943  -2.623212  -0.000063   0.510689  -0.000123
1316  26   0.652519   4.578884  -0.998719   0.000280   0.510689   0.000548
1317  26   0.560745   4.072135  -2.295137  -0.000208   0.510689  -0.000407
1318  26   0.519314   3.149440  -2.971815   0.000201   0.255400   0.000785
1319  31  -3.476337  -0.631681  -3.919375   0.000197   0.255558   0.000771
1320  31  -3.464275  -1.779392  -3.929002  -0.000216   0.511015  -0.000422
1321  31  -3.396288  -2.964807  -3.190580   0.000256   0.511015   0.000500
1322  27  -1.942383  -1.052942  -4.067286  -0.000071   0.511015  -0.000139
1323  27  -1.905671  -2.420372  -3.777657  -0.000102   0.511015  -0.000199
1324  27  -1.837083  -3.239106  -2.976128   0.000409   0.255558   0.001602
1325  32  -3.083788  -4.472499   0.794647   0.000456   0.255555   0.001784
1326  32  -3.001792  -4.296622   1.925921  -0.000102   0.511009  -0.000200
1327  32  -2.934225  -3.374369   2.974692  -0.000073   0.511009  -0.000142
1328  28  -1.520148  -4.418559   1.117908   0.000236   0.511009   0.000461
1329  28  -1.429344  -3.911038   2.417606  -0.000214   0.511009  -0.000419
1330  28  -1.389346  -2.985565   3.095349   0.000198   0.255555   0.000774
1331  33  -5.283656   0.708559   4.626275   0.000196   0.255401   0.000769
1332  33  -5.297097   1.853591   4.635192  -0.000215   0.510692  -0.000422
1333  33  -5.366008   3.036623   3.898888   0.000275   0.510692   0.000538
1334  29  -3.751373   1.164727   4.546831  -0.000066   0.510692  -0.000130
1335  29  -3.789523   2.529031   4.257564  -0.000099   0.510692  -0.000194
1336  29  -3.858559   3.346451   3.458554   0.000410   0.255401   0.001606
1337  34  -5.679032   4.545689  -0.090602   0.000456   0.255402   0.001784
1338  34  -5.760150   4.369387  -1.219191  -0.000102   0.510695  -0.000200
1339  34  -5.826074   3.449461  -2.266030  -0.000071   0.510695  -0.000139
1340  30  -4.175574   4.527412  -0.639750   0.000257   0.510695   0.000504
1341  30  -4.265031   4.020571  -1.936513  -0.000211   0.510695  -0.000413
1342  30  -4.303618   3.097703  -2.613418   0.000199   0.255402   0.000779
1343  35  -8.291316  -0.692874  -3.564304   0.000191   0.255461   0.000748
1344  35  -8.276823  -1.839439  -3.574022  -0.000224   0.510819  -0.000438
1345  35  -8.206971  -3.024022  -2.836886   0.000248   0.510819   0.000485
1346  31  -6.755108  -1.110399  -3.711137  -0.000076   0.510819  -0.000149
1347  31  -6.715761  -2.476565  -3.422122  -0.000107   0.510819  -0.000209
1348  31  -6.646134  -3.294943  -2.621919   0.000406   0.255461   0.001588
1349  36  -7.893893  -4.532756   1.151294   0.000455   0.255460   0.001780
1350  36  -7.813143  -4.356399   2.281454  -0.000109   0.510815  -0.000213
1351  36  -7.748342  -3.434889   3.329338  -0.000082   0.510815  -0.000160
1352  32  -6.329375  -4.475252   1.475073   0.000230   0.510815   0.000450
1353  32  -6.240652  -3.967691   2.773514  -0.000218   0.510815  -0.000428
1354  32  -6.203137  -3.043176   3.450824   0.000195   0.255460   0.000763
1355  37 -10.107012   0.643158   4.979494   0.000177   0.255150   0.000692
1356  37 -10.122765   1.787067   4.988683  -0.000261   0.510190  -0.000512
1357  37 -10.193282   2.969514   4.253958   0.000221   0.510190   0.000433
1358  33  -8.575469   1.102013   4.901514  -0.000091   0.510190  -0.000178
1359  33  -8.616055   2.465155   4.613123  -0.000125   0.510190  -0.000244
1360  33  -8.685902   3.282501   3.815672   0.000396   0.255150   0.001551
1361  38 -10.506814   4.479774   0.261553   0.000426   0.255155   0.001669
1362  38 -10.586905   4.302628  -0.865877  -0.000150   0.510198  -0.000294
1363  38 -10.650246   3.383207  -1.911664  -0.000125   0.510198  -0.000244
1364  34  -9.002895   4.464464  -0.286415   0.000230   0.510198   0.000451
1365  34  -9.090514   3.957210  -1.581805  -0.000235   0.510198  -0.000461
1366  34  -9.126730   3.035172  -2.258138   0.000187   0.255155   0.000734
1367  39 -13.151909  -0.759205  -3.206680   0.000093   0.249548   0.000371
1368  39 -13.140652  -1.867283  -3.224671  -0.000346   0.498916  -0.000694
1369  39 -13.078341  -3.032347  -2.540347   0.000061   0.498916   0.000122
1370  35 -11.591045  -1.163849  -3.353942  -0.000087   0.498916  -0.000175
1371  35 -11.557324  -2.490718  -3.093479  -0.000136   0.498916  -0.000272
1372  35 -11.494438  -3.306602  -2.346040   0.000338   0.249548   0.001354
1373  40 -12.753791  -4.602184   1.608389   0.000375   0.249544   0.001503
1374  40 -12.673852  -4.396054   2.694371  -0.000237   0.498908  -0.000475
1375  40 -12.609286  -3.488768   3.695447  -0.000233   0.498908  -0.000466
1376  36 -11.164414  -4.531829   1.909520   0.000174   0.498908   0.000348
1377  36 -11.076504  -4.008080   3.153484  -0.000224   0.498908  -0.000449
1378  36 -11.038721  -3.109340   3.800845   0.000173   0.249544   0.000695
 =====================================================


   1 warning(s) detected.
     A line exceeding 80 characters begins with "http://cactus.nci.ni".
 There may be a problem in your input file.

             15432183  WORDS OF DYNAMIC MEMORY USED
 EXECUTION OF GAMESS TERMINATED NORMALLY Fri Nov 25 07:27:20 2016
 DDI: 263640 bytes (0.3 MB / 0 MWords) used by master data server.

 ----------------------------------------
 CPU timing information for all processes
 ========================================
 0: 5359.392 + 1.380 = 5360.772
 ----------------------------------------
 ddikick.x: exited gracefully.
