----- GAMESS execution script -----

          ******************************************************
          *         GAMESS VERSION =  5 DEC 2014 (R1)          *
          *             FROM IOWA STATE UNIVERSITY             *
          * M.W.SCHMIDT, K.K.BALDRIDGE, J.A.BOATZ, S.T.ELBERT, *
          *   M.S.GORDON, J.H.JENSEN, S.KOSEKI, N.MATSUNAGA,   *
          *          K.A.NGUYEN, S.J.SU, T.L.WINDUS,           *
          *       TOGETHER WITH M.DUPUIS, J.A.MONTGOMERY       *
          *         J.COMPUT.CHEM.  14, 1347-1363(1993)        *
          **************** 64 BIT LINUX VERSION ****************

 EXECUTION OF GAMESS BEGUN Fri Nov 25 06:39:29 2016

            ECHO OF THE FIRST FEW INPUT CARDS -
 INPUT CARD>! SELECT RESTRICTED HARTREE-FOCK AS DEFAULT                                     
 INPUT CARD>$contrl scftyp=rhf $end                                                         
 INPUT CARD>                                                                                
 INPUT CARD>! THEORY: HF OR DFT                                                             
 INPUT CARD> $contrl mplevl=0 $end                                                          
 INPUT CARD>                                                                                
 INPUT CARD> $system timlim=10000 mwords=20 $end                                            
 INPUT CARD> $SCF DIRSCF=.TRUE. $end                                                        
 INPUT CARD>                                                                                
 INPUT CARD>                                                                                
 INPUT CARD>! BASIS SETS                                                                    
 INPUT CARD>! 6-311G(d,p)                                                                   
 INPUT CARD> $BASIS GBASIS=N311 NGAUSS=6 NDFUNC=1 NPFUNC=1 $END                             
 INPUT CARD>                                                                                
 INPUT CARD>! One of the following                                                          
 INPUT CARD> $guess guess=HUCKEL $end                                                       
 INPUT CARD>                                                                                
 INPUT CARD> $statpt projct=.FALSE. $end                                                    
 INPUT CARD> $STATPT IFREEZ(1)=1,2,3 $END                                                   
 INPUT CARD>                                                                                
 INPUT CARD>! Optimize the geometry with COSMO effects                                      
 INPUT CARD> $statpt opttol=0.0005 nstep=50 $end                                            
 INPUT CARD> $contrl nzvar=1 $end                                                           
 INPUT CARD> $zmat dlc=.t. auto=.t. $end                                                    
 INPUT CARD> $contrl runtyp=OPTIMIZE maxit=200 $end                                         
 INPUT CARD>                                                                                
 INPUT CARD>! Run COSMO on perfect conductor                                                
 INPUT CARD> $COSGMS PRFCND=.TRUE. $end                                                     
 INPUT CARD>                                                                                
 INPUT CARD>! Specifying RSOLV                                                              
 INPUT CARD> $COSGMS COSRAD = 1.4 $end                                                      
 INPUT CARD>                                                                                
 INPUT CARD>! available memory                                                              
 INPUT CARD> $SYSTEM MWORDS=40 $END                                                         
 INPUT CARD>                                                                                
 INPUT CARD> $DATA                                                                          
 INPUT CARD>Pentanenitrile, ID: C110598                                                     
 INPUT CARD>C1                                                                              
 INPUT CARD>C      6.0      4.5827000000    1.1283000000    0.9078000000                    
 INPUT CARD>C      6.0      3.2274000000    1.8213000000    0.9758000000                    
 INPUT CARD>C      6.0      2.1368000000    0.8345000000    1.3625000000                    
 INPUT CARD>C      6.0      5.6318000000    2.0611000000    0.5518000000                    
 INPUT CARD>C      6.0      0.7854000000    1.5088000000    1.4313000000                    
 INPUT CARD>N      7.0      6.4731000000    2.8062000000    0.2676000000                    
 INPUT CARD>H      1.0      4.5719000000    0.3082000000    0.1612000000                    
 INPUT CARD>H      1.0      4.8399000000    0.6631000000    1.8813000000                    
 INPUT CARD>H      1.0      2.9870000000    2.2882000000    0.0000000000                    
 INPUT CARD>H      1.0      3.2596000000    2.6548000000    1.7055000000                    
 INPUT CARD>H      1.0      2.3782000000    0.3687000000    2.3388000000                    
 INPUT CARD>H      1.0      2.1073000000    0.0000000000    0.6337000000                    
   40000000 WORDS OF MEMORY AVAILABLE

     BASIS OPTIONS
     -------------
     GBASIS=N311         IGAUSS=       6      POLAR=POPN311 
     NDFUNC=       1     NFFUNC=       0     DIFFSP=       F
     NPFUNC=       1      DIFFS=       F     BASNAM=        


     RUN TITLE
     ---------
 Pentanenitrile, ID: C110598                                                     

 THE POINT GROUP OF THE MOLECULE IS C1      
 THE ORDER OF THE PRINCIPAL AXIS IS     0

 ATOM      ATOMIC                      COORDINATES (BOHR)
           CHARGE         X                   Y                   Z
 C           6.0     8.6600472839        2.1321778319        1.7154932517
 C           6.0     6.0989016528        3.4417579414        1.8439946188
 C           6.0     4.0379664906        1.5769763368        2.5747516583
 C           6.0    10.6425588177        3.8949142333        1.0427508000
 C           6.0     1.4841907908        2.8512185703        2.7047648062
 N           7.0    12.2323852911        5.3029490667        0.5056906743
 H           1.0     8.6396382433        0.5824135494        0.3046238292
 H           1.0     9.1460848080        1.2530773025        3.5551415007
 H           1.0     5.6446115253        4.3240710051        0.0000000000
 H           1.0     6.1597508296        5.0168445522        3.2229276721
 H           1.0     4.4941463440        0.6967419717        4.4196911401
 H           1.0     3.9822195739        0.0000000000        1.1975193584
 H           1.0     1.4632148323        4.3837863463        4.1039179275
 H           1.0     0.9465637472        3.6766508817        0.8783446391
 H           1.0     0.0000000000        1.5042218862        3.2376675348

          INTERNUCLEAR DISTANCES (ANGS.)




     $CONTRL OPTIONS
     ---------------
 SCFTYP=RHF          RUNTYP=OPTIMIZE     EXETYP=RUN     
 MPLEVL=       0     CITYP =NONE         CCTYP =NONE         VBTYP =NONE    
 DFTTYP=NONE         TDDFT =NONE    
 MULT  =       1     ICHARG=       0     NZVAR =       1     COORD =UNIQUE  
 PP    =NONE         RELWFN=NONE         LOCAL =NONE         NUMGRD=       F
 ISPHER=      -1     NOSYM =       0     MAXIT =     200     UNITS =ANGS    
 PLTORB=       F     MOLPLT=       F     AIMPAC=       F     FRIEND=        
 NPRINT=       7     IREST =       0     GEOM  =INPUT   
 NORMF =       0     NORMP =       0     ITOL  =      20     ICUT  =       9
 INTTYP=BEST         GRDTYP=BEST         QMTTOL= 1.0E-06

     $SYSTEM OPTIONS
     ---------------
  REPLICATED MEMORY=    40000000 WORDS (ON EVERY NODE).
 DISTRIBUTED MEMDDI=           0 MILLION WORDS IN AGGREGATE,
 MEMDDI DISTRIBUTED OVER   1 PROCESSORS IS           0 WORDS/PROCESSOR.
 TOTAL MEMORY REQUESTED ON EACH PROCESSOR=    40000000 WORDS.
 TIMLIM=       10000.00 MINUTES, OR       6.9 DAYS.
 PARALL= F  BALTYP=  DLB     KDIAG=    0  COREFL= F
 MXSEQ2=     300 MXSEQ3=     150  mem10=         0

     $COSGMS OPTIONS
     ---------------
     EPSI  =   INFTY     NSPA  =      92     COSRAD=    1.40
     DISEX =   10.00     OUTCHG=DBLCAV       COSBUG=       F
     COSWRT=       F     DCOSMO=       F

     SYMMETRY COORDINATES WILL NOT BE USED FOR 
     THE COSMO CALCULATION, EVEN IF SPECIFIED:
         -- SWITCHING TO C1 POINT GROUP --


     DEFINITION OF CAVITY
     ---------------------------
     ATOM         COORDINATES           RADIUS 
     1    8.6600    2.1322    1.7155    2.0000
     2    6.0989    3.4418    1.8440    2.0000
     3    4.0380    1.5770    2.5748    2.0000
     4   10.6426    3.8949    1.0428    2.0000
     5    1.4842    2.8512    2.7048    2.0000
     6   12.2324    5.3029    0.5057    1.8300
     7    8.6396    0.5824    0.3046    1.3000
     8    9.1461    1.2531    3.5551    1.3000
     9    5.6446    4.3241    0.0000    1.3000
    10    6.1598    5.0168    3.2229    1.3000
    11    4.4941    0.6967    4.4197    1.3000
    12    3.9822    0.0000    1.1975    1.3000
    13    1.4632    4.3838    4.1039    1.3000
    14    0.9466    3.6767    0.8783    1.3000
    15    0.0000    1.5042    3.2377    1.3000

          ----------------
          PROPERTIES INPUT
          ----------------

     MOMENTS            FIELD           POTENTIAL          DENSITY
 IEMOM =       1   IEFLD =       0   IEPOT =       0   IEDEN =       0
 WHERE =COMASS     WHERE =NUCLEI     WHERE =NUCLEI     WHERE =NUCLEI  
 OUTPUT=BOTH       OUTPUT=BOTH       OUTPUT=BOTH       OUTPUT=BOTH    
 IEMINT=       0   IEFINT=       0                     IEDINT=       0
                                                       MORB  =       0
          EXTRAPOLATION IN EFFECT
          SOSCF IN EFFECT
 ORBITAL PRINTING OPTION: NPREO=     1   168     2     1

     -------------------------------
     INTEGRAL TRANSFORMATION OPTIONS
     -------------------------------
     NWORD  =            0
     CUTOFF = 1.0E-09     MPTRAN =       0
     DIRTRF =       T     AOINTS =DUP     

          ----------------------
          INTEGRAL INPUT OPTIONS
          ----------------------
 NOPK  =       1 NORDER=       0 SCHWRZ=       T


 -----------------------------------------------
  STATISTICS ON AUTOMATIC COORDINATE GENERATION 
 -----------------------------------------------
  NUMBER OF USER SPECIFIED BONDS                             0
  NUMBER OF BONDS                                           14
  NUMBER OF ANGLES                                          25
  NUMBER OF TORSIONS                                        30
  NUMBER OF EXTRA COORD.                                     0
  NUMBER OF EXTRA COORD. FOR CONSTRAINTS                     0
  NUMBER OF CONSTRAINED COORD.                               0

  TOTAL NUMBER OF PRIMITIVES                                69
 -----------------------------------------------

   --- ENCODED Z MATRIX ---
 COORD  TYPE   I   J   K   L   M   N
    1      1    1   2
    2      1    1   4
    3      1    1   7
    4      1    1   8
    5      1    2   3
    6      1    2   9
    7      1    2  10
    8      1    3  11
    9      1    3   5
   10      1    3  12
   11      1    4   6
   12      1    5  15
   13      1    5  14
   14      1    5  13
   15      2    1   2  10
   16      2    1   4   6
   17      2    1   2   3
   18      2    1   2   9
   19      2    2   1   8
   20      2    2   3   5
   21      2    2   3  12
   22      2    2   1   4
   23      2    2   1   7
   24      2    2   3  11
   25      2    3   2  10
   26      2    3   5  13
   27      2    3   5  14
   28      2    3   5  15
   29      2    3   2   9
   30      2    4   1   7
   31      2    4   1   8
   32      2    5   3  12
   33      2    5   3  11
   34      2    7   1   8
   35      2    9   2  10
   36      2   11   3  12
   37      2   13   5  14
   38      2   13   5  15
   39      2   14   5  15
   40      3    1   2   3  12
   41      3    1   2   3   5
   42      3    1   2   3  11
   43      3    2   3   5  13
   44      3    2   3   5  14
   45      3    2   3   5  15
   46      3    2   1   4   6
   47      3    3   2   1   4
   48      3    3   2   1   8
   49      3    3   2   1   7
   50      3    4   1   2   9
   51      3    4   1   2  10
   52      3    5   3   2  10
   53      3    5   3   2   9
   54      3    6   4   1   8
   55      3    6   4   1   7
   56      3    7   1   2   9
   57      3    7   1   2  10
   58      3    8   1   2   9
   59      3    8   1   2  10
   60      3    9   2   3  12
   61      3    9   2   3  11
   62      3   10   2   3  12
   63      3   10   2   3  11
   64      3   11   3   5  15
   65      3   11   3   5  14
   66      3   11   3   5  13
   67      3   12   3   5  15
   68      3   12   3   5  14
   69      3   12   3   5  13

          INDEP./SYM. INTERNAL COORDINATES
          --------------------------------
 CRD  1=  -0.1573 ( 15)  0.1910 ( 16)  0.5195 ( 17) -0.1566 ( 18)  0.1216 ( 19)
          -0.4532 ( 20)  0.1558 ( 21) -0.4032 ( 22)  0.1207 ( 23)  0.1571 ( 24)
          -0.1652 ( 25) -0.1671 ( 29)  0.1159 ( 30)  0.1187 ( 31)  0.1237 ( 32)
           0.1234 ( 33)
 CRD  2=  -0.3425 (  1) -0.1309 (  2) -0.3614 (  5) -0.3190 (  9)  0.1614 ( 15)
          -0.4449 ( 17)  0.1609 ( 18) -0.3883 ( 20)  0.1172 ( 25) -0.1171 ( 26)
          -0.1182 ( 27)  0.1152 ( 29)  0.1546 ( 32)  0.1552 ( 33)
 CRD  3=   0.1492 (  1)  0.1361 (  2)  0.1025 (  5) -0.3447 ( 16)  0.1421 ( 17)
          -0.1342 ( 19) -0.3954 ( 20)  0.1613 ( 21)  0.5725 ( 22) -0.1280 ( 23)
           0.1405 ( 24) -0.1180 ( 25)  0.1341 ( 28) -0.2011 ( 30) -0.2316 ( 31)
           0.1059 ( 32)
 CRD  4=   0.1241 ( 15) -0.1155 ( 18)  0.1318 ( 19) -0.1676 ( 23)  0.2479 ( 26)
          -0.2618 ( 27) -0.1251 ( 32)  0.1375 ( 33)  0.1975 ( 40)  0.4083 ( 41)
           0.2020 ( 42) -0.1056 ( 43) -0.1101 ( 44) -0.2135 ( 45)  0.1575 ( 46)
          -0.3552 ( 47) -0.1570 ( 48) -0.1654 ( 49) -0.1570 ( 50) -0.1625 ( 51)
           0.1922 ( 52)  0.2004 ( 53)
 CRD  5=   0.1759 ( 15) -0.1872 ( 18)  0.1429 ( 19)  0.2111 ( 21) -0.1129 ( 23)
          -0.2266 ( 24) -0.2458 ( 25)  0.1667 ( 26) -0.1561 ( 27)  0.2535 ( 29)
           0.1658 ( 30) -0.1302 ( 31) -0.1789 ( 32)  0.1711 ( 33)  0.1254 ( 40)
           0.1952 ( 41)  0.1226 ( 42)  0.1917 ( 43)  0.1945 ( 44)  0.1371 ( 45)
           0.3356 ( 47)  0.2313 ( 48)  0.2386 ( 49)  0.1409 ( 50)  0.1456 ( 51)
           0.1380 ( 52)  0.1317 ( 53)
 CRD  6=   0.6290 (  9) -0.1516 ( 17) -0.1077 ( 20) -0.1060 ( 24)  0.4563 ( 28)
           0.1888 ( 32)  0.1919 ( 33) -0.2395 ( 38) -0.2412 ( 39) -0.1015 ( 61)
           0.1025 ( 62) -0.1043 ( 65)  0.1042 ( 69)
 CRD  7=  -0.3749 (  1)  0.1254 (  2)  0.5646 (  5)  0.1118 ( 12) -0.1225 ( 15)
          -0.1300 ( 18) -0.1336 ( 19) -0.1257 ( 23)  0.1545 ( 25) -0.1762 ( 26)
          -0.1623 ( 27)  0.2993 ( 28)  0.1691 ( 29)  0.1015 ( 31)  0.1557 ( 37)
           0.1093 ( 54) -0.1081 ( 55) -0.1118 ( 56)  0.1115 ( 59) -0.1000 ( 60)
           0.1020 ( 63)
 CRD  8=   0.1129 ( 13) -0.1116 ( 14)  0.1707 ( 15) -0.1669 ( 18)  0.3124 ( 19)
          -0.3186 ( 23) -0.4506 ( 26)  0.4543 ( 27)  0.1239 ( 30) -0.1254 ( 31)
           0.1862 ( 38) -0.1843 ( 39)  0.1717 ( 40)  0.1716 ( 42)  0.2072 ( 46)
          -0.1033 ( 54) -0.1038 ( 55)
 CRD  9=  -0.4810 (  1)  0.1636 (  2) -0.1279 (  5) -0.1334 (  6) -0.1492 (  7)
           0.2131 (  9)  0.1029 ( 11) -0.1192 ( 12) -0.1111 ( 15)  0.1496 ( 17)
          -0.1024 ( 18) -0.1773 ( 19)  0.1251 ( 22) -0.2200 ( 23)  0.2876 ( 26)
           0.2486 ( 27) -0.3390 ( 28)  0.1538 ( 34)  0.1095 ( 35) -0.2526 ( 37)
           0.1215 ( 54) -0.1281 ( 55)
 CRD 10=   0.1900 (  2) -0.1079 (  6)  0.1032 (  7)  0.1212 ( 11)  0.1174 ( 13)
           0.1955 ( 16) -0.2575 ( 19)  0.2855 ( 21)  0.1507 ( 23) -0.2768 ( 24)
          -0.1774 ( 26)  0.2330 ( 27) -0.2108 ( 30)  0.2648 ( 31) -0.2279 ( 32)
           0.2477 ( 33)  0.1167 ( 38) -0.1027 ( 39)  0.1973 ( 43)  0.2011 ( 44)
           0.1985 ( 45) -0.1569 ( 47) -0.1650 ( 50) -0.1925 ( 51)  0.1080 ( 52)
           0.1288 ( 53)
 CRD 11=   0.1937 (  1)  0.5443 (  2)  0.1680 (  3)  0.3561 ( 11)  0.2404 ( 15)
           0.2149 ( 16) -0.1571 ( 19) -0.1640 ( 21)  0.1322 ( 24) -0.1931 ( 25)
           0.1422 ( 29)  0.1913 ( 31)  0.1693 ( 32) -0.1472 ( 33)  0.1786 ( 48)
          -0.1282 ( 52)  0.1087 ( 58)
 CRD 12=  -0.1032 (  1) -0.3517 (  2) -0.1514 (  4) -0.2323 ( 11)  0.2020 ( 15)
          -0.2810 ( 18) -0.2233 ( 19)  0.3007 ( 23)  0.1324 ( 24) -0.2142 ( 25)
           0.2508 ( 29) -0.3439 ( 30)  0.1665 ( 31)  0.1163 ( 32) -0.1201 ( 33)
           0.1507 ( 40)  0.1551 ( 42) -0.1039 ( 46)  0.1796 ( 49) -0.1597 ( 50)
          -0.1223 ( 51)
 CRD 13=   0.2160 (  1)  0.3977 (  5)  0.2055 (  6)  0.1742 (  7)  0.1861 (  8)
           0.1147 (  9)  0.2114 ( 10) -0.1191 ( 12)  0.1017 ( 16) -0.2429 ( 17)
           0.1114 ( 19) -0.2768 ( 20)  0.1720 ( 21)  0.1687 ( 24)  0.1269 ( 25)
           0.2348 ( 26)  0.1887 ( 27) -0.2996 ( 28)  0.1059 ( 29) -0.1472 ( 35)
          -0.1584 ( 36) -0.2131 ( 37)
 CRD 14=  -0.3175 (  3)  0.2399 (  4) -0.2945 (  8)  0.2774 ( 10) -0.1419 ( 13)
           0.1390 ( 14)  0.1780 ( 16)  0.1368 ( 19) -0.1906 ( 23) -0.1315 ( 25)
           0.1796 ( 26) -0.1883 ( 27)  0.1017 ( 29) -0.1250 ( 38)  0.1225 ( 39)
          -0.1854 ( 41)  0.1375 ( 43)  0.1380 ( 44)  0.1706 ( 45)  0.1577 ( 46)
          -0.1193 ( 47) -0.2152 ( 50) -0.2256 ( 51) -0.1934 ( 52) -0.1917 ( 53)
 CRD 15=  -0.1738 (  9) -0.4795 ( 12) -0.5004 ( 13) -0.5054 ( 14)  0.1753 ( 26)
           0.1780 ( 27)  0.1939 ( 28) -0.1876 ( 37) -0.1983 ( 38) -0.2007 ( 39)
 CRD 16=  -0.2630 (  3)  0.1943 (  4)  0.4105 (  6) -0.4291 (  7)  0.3597 (  8)
          -0.3645 ( 10)  0.2007 ( 16) -0.1047 ( 32) -0.1434 ( 40) -0.1412 ( 42)
          -0.1072 ( 43) -0.1069 ( 44) -0.1255 ( 45)  0.1222 ( 48)  0.1297 ( 49)
           0.1005 ( 53)
 CRD 17=   0.1151 (  1) -0.1626 (  2) -0.2745 (  4) -0.1626 ( 11)  0.7356 ( 16)
          -0.1503 ( 19)  0.2537 ( 22) -0.1724 ( 23) -0.1104 ( 29) -0.1518 ( 31)
           0.1905 ( 34)  0.1544 ( 50)
 CRD 18=  -0.5951 (  3) -0.5936 (  4)  0.1056 ( 11)  0.1250 ( 19)  0.1258 ( 23)
          -0.3045 ( 34)  0.1189 ( 48) -0.1006 ( 49) -0.1660 ( 54)  0.1658 ( 55)
          -0.1003 ( 56)  0.1191 ( 58)  0.1288 ( 59)
 CRD 19=  -0.1789 (  3)  0.2895 (  4) -0.1600 ( 15)  0.1509 ( 18) -0.1317 ( 21)
           0.1299 ( 24)  0.1247 ( 25) -0.1176 ( 29) -0.1229 ( 30)  0.1260 ( 31)
           0.1695 ( 32) -0.1677 ( 33)  0.1368 ( 40)  0.1359 ( 42)  0.1034 ( 45)
           0.1240 ( 48)  0.1395 ( 49)  0.1298 ( 52)  0.1240 ( 53)  0.1855 ( 56)
           0.1892 ( 57)  0.1700 ( 58)  0.1737 ( 59)  0.2480 ( 60)  0.2472 ( 61)
           0.2538 ( 62)  0.2529 ( 63)  0.1525 ( 64)  0.1445 ( 65)  0.1444 ( 66)
           0.1538 ( 67)  0.1458 ( 68)  0.1456 ( 69)
 CRD 20=   0.1699 (  8)  0.1697 ( 10) -0.6349 ( 12)  0.2951 ( 13)  0.2939 ( 14)
           0.3278 ( 37) -0.1591 ( 38) -0.1584 ( 39) -0.1716 ( 43)  0.1714 ( 44)
           0.1560 ( 65) -0.1870 ( 66)  0.1867 ( 68) -0.1563 ( 69)
 CRD 21=  -0.5485 ( 13)  0.5489 ( 14)  0.2945 ( 38) -0.2948 ( 39) -0.2228 ( 45)
          -0.2108 ( 64)  0.1066 ( 65)  0.1063 ( 66) -0.2106 ( 67)  0.1068 ( 68)
           0.1065 ( 69)
 CRD 22=   0.4844 (  6)  0.4848 (  7) -0.3792 (  8) -0.3795 ( 10) -0.1043 ( 12)
           0.1803 ( 35) -0.1332 ( 36) -0.1504 ( 61)  0.1497 ( 62)
 CRD 23=   0.1193 (  5) -0.3697 (  6) -0.3694 (  7) -0.4492 (  8) -0.4489 ( 10)
          -0.1059 ( 12) -0.1732 ( 35) -0.2018 ( 36)  0.1332 ( 60) -0.1336 ( 63)
           0.1261 ( 65) -0.1262 ( 69)
 CRD 24=  -0.2925 (  3)  0.2525 (  4) -0.3369 (  6)  0.3338 (  7) -0.1114 ( 43)
          -0.1106 ( 44)  0.1561 ( 48)  0.1532 ( 49)  0.1799 ( 50)  0.1717 ( 51)
           0.2587 ( 56)  0.2504 ( 57)  0.2616 ( 58)  0.2533 ( 59) -0.1104 ( 60)
          -0.1065 ( 61) -0.1207 ( 62) -0.1169 ( 63) -0.1174 ( 64) -0.1339 ( 65)
          -0.1347 ( 66) -0.1199 ( 67) -0.1364 ( 68) -0.1372 ( 69)
 CRD 25=   0.2206 (  6) -0.2204 (  7) -0.3719 (  8)  0.3720 ( 10)  0.1075 ( 40)
           0.1072 ( 42) -0.1590 ( 43) -0.1591 ( 44) -0.1703 ( 45)  0.1303 ( 60)
           0.1300 ( 61)  0.1313 ( 62)  0.1310 ( 63) -0.2623 ( 64) -0.2511 ( 65)
          -0.2510 ( 66) -0.2620 ( 67) -0.2508 ( 68) -0.2507 ( 69)
 CRD 26=   0.1332 (  2) -0.6105 ( 11)  0.1298 ( 12)  0.1425 ( 15) -0.1762 ( 16)
           0.1265 ( 18) -0.1582 ( 19) -0.1325 ( 23) -0.1441 ( 25) -0.1298 ( 29)
           0.2223 ( 30)  0.2273 ( 31) -0.1224 ( 32) -0.1212 ( 33)  0.1024 ( 48)
          -0.1355 ( 49) -0.2150 ( 57)  0.1746 ( 58)  0.1573 ( 61) -0.1524 ( 62)
 CRD 27=  -0.1351 (  1) -0.2794 (  2)  0.4969 ( 11)  0.2610 ( 12)  0.1524 ( 13)
           0.1512 ( 14)  0.1157 ( 15)  0.1142 ( 18)  0.1486 ( 21)  0.1494 ( 24)
           0.1628 ( 26)  0.1630 ( 27)  0.1971 ( 28) -0.1774 ( 32) -0.1775 ( 33)
          -0.1292 ( 37) -0.2153 ( 38) -0.2163 ( 39) -0.1171 ( 40)  0.1188 ( 42)
           0.1817 ( 61) -0.1809 ( 62)  0.1011 ( 65) -0.1005 ( 69)
 CRD 28=  -0.3412 (  2) -0.1843 (  3)  0.1445 (  5)  0.3138 (  9)  0.3035 ( 11)
          -0.1506 ( 12) -0.1697 ( 13) -0.1924 ( 14)  0.1428 ( 15) -0.1403 ( 16)
           0.1195 ( 18) -0.1636 ( 19) -0.1233 ( 22) -0.1067 ( 23) -0.1541 ( 25)
          -0.1681 ( 26) -0.1709 ( 27) -0.1687 ( 28) -0.1161 ( 29)  0.1698 ( 30)
           0.1257 ( 31)  0.1200 ( 34)  0.1965 ( 37)  0.1831 ( 38)  0.1646 ( 39)
           0.1086 ( 53)  0.1656 ( 54) -0.1323 ( 55) -0.1248 ( 57) -0.1018 ( 59)
           0.1375 ( 60) -0.1106 ( 63)
 CRD 29=   0.2062 (  1) -0.4199 (  3)  0.2263 (  4) -0.1316 (  6)  0.1856 (  7)
          -0.2216 (  9)  0.1429 ( 13) -0.1698 ( 19) -0.1163 ( 21)  0.1588 ( 29)
           0.1636 ( 30) -0.1033 ( 31)  0.1316 ( 34) -0.1447 ( 37) -0.1372 ( 46)
           0.1274 ( 47) -0.1376 ( 48)  0.1615 ( 54) -0.2380 ( 56) -0.1101 ( 57)
          -0.3029 ( 58) -0.1750 ( 59)  0.1206 ( 62)  0.1027 ( 63) -0.1261 ( 64)
          -0.1268 ( 65)
 CRD 30=  -0.2530 (  1)  0.1294 (  2)  0.3088 (  4) -0.1258 (  5) -0.1865 (  6)
           0.1342 (  8)  0.2288 (  9) -0.1601 ( 13) -0.1158 ( 14)  0.1661 ( 16)
           0.1064 ( 19)  0.1269 ( 21)  0.1810 ( 23)  0.1369 ( 24) -0.2156 ( 31)
          -0.1161 ( 33) -0.1582 ( 34) -0.1083 ( 36)  0.1841 ( 37) -0.1067 ( 43)
          -0.1208 ( 54)  0.1940 ( 55) -0.2055 ( 57) -0.1919 ( 59)  0.1249 ( 62)
           0.1461 ( 63)  0.1349 ( 65) -0.1507 ( 67) -0.2375 ( 69)
 CRD 31=   0.1121 (  3) -0.1230 (  4)  0.1014 (  7)  0.2628 (  8) -0.3054 ( 10)
          -0.2347 ( 13)  0.3019 ( 14)  0.1074 ( 18) -0.1069 ( 23) -0.1482 ( 24)
          -0.1916 ( 38)  0.2120 ( 39)  0.2411 ( 45) -0.1056 ( 47) -0.1221 ( 50)
          -0.1223 ( 51)  0.1827 ( 60)  0.1847 ( 61)  0.1563 ( 62)  0.1583 ( 63)
          -0.2788 ( 65) -0.2263 ( 66) -0.2199 ( 68) -0.1674 ( 69)
 CRD 32=   0.2191 (  1)  0.1933 (  2) -0.1439 (  3) -0.2246 (  4) -0.3689 (  5)
           0.1123 (  6)  0.1087 (  9)  0.2021 ( 12) -0.1674 ( 13) -0.1052 ( 16)
           0.1066 ( 21)  0.1465 ( 25)  0.1119 ( 29)  0.2611 ( 34) -0.1450 ( 35)
           0.1871 ( 37) -0.1232 ( 43)  0.1211 ( 44) -0.1227 ( 48)  0.1273 ( 49)
          -0.1389 ( 50)  0.1039 ( 51)  0.1317 ( 54) -0.1525 ( 55)  0.2689 ( 57)
          -0.2239 ( 58)  0.1737 ( 65) -0.2168 ( 69)
 CRD 33=   0.2905 (  1) -0.2418 (  2) -0.1377 (  6) -0.1532 (  7)  0.1522 (  8)
          -0.2874 (  9)  0.1428 ( 10)  0.2189 ( 12) -0.1088 ( 15) -0.1096 ( 18)
           0.1079 ( 30)  0.1209 ( 31)  0.1088 ( 32)  0.1117 ( 33)  0.2262 ( 35)
          -0.2296 ( 36) -0.1263 ( 38) -0.1099 ( 39)  0.1378 ( 40) -0.1323 ( 42)
           0.1295 ( 52) -0.1352 ( 53) -0.1582 ( 57)  0.1709 ( 58) -0.2688 ( 61)
           0.2660 ( 62)  0.1656 ( 65) -0.1764 ( 69)
 CRD 34=  -0.2758 (  1)  0.1949 (  2)  0.2785 (  5) -0.2823 (  9)  0.1763 ( 12)
           0.1599 ( 15)  0.1687 ( 18) -0.1543 ( 21) -0.1521 ( 24) -0.1597 ( 25)
          -0.1544 ( 29)  0.1659 ( 32)  0.1580 ( 33)  0.1323 ( 40) -0.1395 ( 42)
           0.1051 ( 44) -0.1008 ( 48)  0.1110 ( 49) -0.1330 ( 52)  0.1319 ( 53)
           0.1604 ( 56) -0.1627 ( 59)  0.2721 ( 60) -0.2647 ( 63) -0.1462 ( 66)
           0.1503 ( 68)
 CRD 35=  -0.1503 (  3)  0.1097 (  4)  0.1540 (  6) -0.2166 (  7)  0.1153 ( 10)
          -0.2089 ( 13)  0.2590 ( 14)  0.1528 ( 15) -0.1172 ( 18)  0.1551 ( 23)
          -0.1594 ( 26)  0.1282 ( 27) -0.1353 ( 32)  0.1128 ( 33) -0.1572 ( 38)
           0.1904 ( 39)  0.1150 ( 40)  0.2523 ( 41) -0.1464 ( 44)  0.2062 ( 45)
          -0.1275 ( 46) -0.1850 ( 48) -0.1058 ( 49)  0.2158 ( 50)  0.1362 ( 51)
           0.1040 ( 56) -0.1131 ( 60) -0.1371 ( 61) -0.1053 ( 63)  0.3037 ( 64)
           0.2505 ( 67) -0.1022 ( 68)
 CRD 36=   0.1974 (  2) -0.1596 (  4) -0.1426 (  6)  0.1318 (  8) -0.2026 ( 12)
           0.1606 ( 13) -0.1164 ( 17)  0.1177 ( 20) -0.1556 ( 22) -0.1079 ( 27)
           0.1602 ( 28)  0.1732 ( 34)  0.1571 ( 35) -0.1607 ( 36) -0.1588 ( 37)
           0.1124 ( 38)  0.1819 ( 43) -0.1221 ( 44) -0.1091 ( 48)  0.1806 ( 49)
          -0.1720 ( 51)  0.2669 ( 56) -0.2681 ( 59)  0.1417 ( 62)  0.2906 ( 66)
          -0.1972 ( 67) -0.2754 ( 68)
 CRD 37=  -0.1407 (  1) -0.2506 (  5)  0.1444 (  6)  0.1435 (  7)  0.1401 (  8)
          -0.1324 (  9)  0.1508 ( 10) -0.1016 ( 12)  0.2124 ( 17)  0.2151 ( 20)
           0.1221 ( 22)  0.1299 ( 28) -0.2136 ( 35) -0.2157 ( 36)  0.1337 ( 40)
          -0.1342 ( 42) -0.1240 ( 50)  0.1390 ( 51) -0.1284 ( 52)  0.1390 ( 53)
          -0.2233 ( 56)  0.2182 ( 59)  0.2654 ( 60) -0.2699 ( 63)  0.1421 ( 64)
           0.2274 ( 66) -0.1253 ( 67) -0.2272 ( 68)
 CRD 38=   0.1731 (  6) -0.1700 (  7)  0.1820 (  8) -0.1807 ( 10)  0.1102 ( 15)
          -0.1109 ( 18)  0.1524 ( 21) -0.1534 ( 24)  0.1507 ( 25)  0.1131 ( 26)
          -0.1138 ( 27) -0.1508 ( 29)  0.1276 ( 32) -0.1273 ( 33)  0.2458 ( 40)
           0.2441 ( 42)  0.2480 ( 43)  0.2469 ( 44) -0.1267 ( 47) -0.2217 ( 48)
          -0.2257 ( 49)  0.1366 ( 50)  0.1397 ( 51) -0.2638 ( 52) -0.2611 ( 53)
          -0.2002 ( 64) -0.2012 ( 67)
 CRD 39=  -0.5770 ( 46) -0.5776 ( 54) -0.5774 ( 55)

 THE DETERMINANT OF THE G MATRIX IS 10**(   -10)


                     --------------------
                     INTERNAL COORDINATES
                     --------------------

                 - - ATOMS - -         COORDINATE      COORDINATE
 NO.   TYPE    I  J  K  L  M  N        (BOHR,RAD)       (ANG,DEG)
 ----------------------------------------------------------------
   1 STRETCH   1  2                     2.8794061       1.5237162
   2 STRETCH   1  4                     2.7368182       1.4482619
   3 STRETCH   1  7                     2.0958861       1.1090952
   4 STRETCH   1  8                     2.0960334       1.1091732
   5 STRETCH   2  3                     2.8738250       1.5207628
   6 STRETCH   2  9                     2.0940802       1.1081396
   7 STRETCH   2 10                     2.0942915       1.1082514
   8 STRETCH   3 11                     2.0944484       1.1083345
   9 STRETCH   3  5                     2.8569857       1.5118518
  10 STRETCH   3 12                     2.0944524       1.1083366
  11 STRETCH   4  6                     2.1905579       1.1591934
  12 STRETCH   5 15                     2.0739353       1.0974794
  13 STRETCH   5 14                     2.0751366       1.0981151
  14 STRETCH   5 13                     2.0752912       1.0981969
  15 BEND      1  2 10                  1.9236702     110.2181849
  16 BEND      1  4  6                  3.1395877     179.8851218
  17 BEND      1  2  3                  1.9327520     110.7385332
  18 BEND      1  2  9                  1.9233457     110.1995936
  19 BEND      2  1  8                  1.9367474     110.9674514
  20 BEND      2  3  5                  1.9424894     111.2964416
  21 BEND      2  3 12                  1.9181893     109.9041509
  22 BEND      2  1  4                  1.9415894     111.2448809
  23 BEND      2  1  7                  1.9365792     110.9578157
  24 BEND      2  3 11                  1.9182439     109.9072801
  25 BEND      3  2 10                  1.9192331     109.9639589
  26 BEND      3  5 13                  1.9488216     111.6592537
  27 BEND      3  5 14                  1.9486665     111.6503649
  28 BEND      3  5 15                  1.9408922     111.2049321
  29 BEND      3  2  9                  1.9195592     109.9826416
  30 BEND      4  1  7                  1.8942443     108.5322028
  31 BEND      4  1  8                  1.8943166     108.5363483
  32 BEND      5  3 12                  1.9197832     109.9954748
  33 BEND      5  3 11                  1.9198912     110.0016627
  34 BEND      7  1  8                  1.8576675     106.4365087
  35 BEND      9  2 10                  1.8433731     105.6175009
  36 BEND     11  3 12                  1.8427258     105.5804118
  37 BEND     13  5 14                  1.8723698     107.2788844
  38 BEND     13  5 15                  1.8746154     107.4075534
  39 BEND     14  5 15                  1.8745411     107.4032951
  40 TORSION   1  2  3 12              -1.0086864     -57.7934716
  41 TORSION   1  2  3  5              -3.1398130    -179.8980358
  42 TORSION   1  2  3 11               1.0120713      57.9874126
  43 TORSION   2  3  5 13              -1.0450737     -59.8783125
  44 TORSION   2  3  5 14               1.0510330      60.2197522
  45 TORSION   2  3  5 15              -3.1387127    -179.8349930
  46 TORSION   2  1  4  6               2.8547394     163.5645195
  47 TORSION   3  2  1  4              -3.1326842    -179.4895826
  48 TORSION   3  2  1  8              -1.0217467     -58.5417727
  49 TORSION   3  2  1  7               1.0397704      59.5744537
  50 TORSION   4  1  2  9               1.0226747      58.5949436
  51 TORSION   4  1  2 10              -1.0050500     -57.5851237
  52 TORSION   5  3  2 10               1.0131387      58.0485704
  53 TORSION   5  3  2  9              -1.0097683     -57.8554637
  54 TORSION   6  4  1  8               0.7190880      41.2007076
  55 TORSION   6  4  1  7              -1.2930535     -74.0865107
  56 TORSION   7  1  2  9              -1.0880561     -62.3410202
  57 TORSION   7  1  2 10              -3.1157808    -178.5210874
  58 TORSION   8  1  2  9               3.1336122     179.5427534
  59 TORSION   8  1  2 10               1.1058875      63.3626862
  60 TORSION   9  2  3 12               1.1213583      64.2491005
  61 TORSION   9  2  3 11              -3.1410693    -179.9700153
  62 TORSION  10  2  3 12              -3.1389200    -179.8468654
  63 TORSION  10  2  3 11              -1.1181623     -64.0659812
  64 TORSION  11  3  5 15              -1.0083656     -57.7750957
  65 TORSION  11  3  5 14              -3.1018053    -177.7203504
  66 TORSION  11  3  5 13               1.0852734      62.1815849
  67 TORSION  12  3  5 15               1.0142690      58.1133311
  68 TORSION  12  3  5 14              -1.0791707     -61.8319237
  69 TORSION  12  3  5 13               3.1079080     178.0700116

     ------------------------------------------
     THE POINT GROUP IS C1 , NAXIS= 1, ORDER= 1
     ------------------------------------------

     DIMENSIONS OF THE SYMMETRY SUBSPACES ARE
 A   =  168

 ..... DONE SETTING UP THE RUN .....
 STEP CPU TIME =     0.01 TOTAL CPU TIME =        0.0 (    0.0 MIN)
 TOTAL WALL CLOCK TIME=        0.0 SECONDS, CPU UTILIZATION IS  50.00%


          -----------------------------
          STATIONARY POINT LOCATION RUN
          -----------------------------

 OBTAINING INITIAL HESSIAN, HESS=GUESS   
 DIAGONAL GUESS HESSIAN IN INTERNAL COORDS IS
     1  0.3717     2  0.4304     3  0.3337     4  0.3337     5  0.3738
     6  0.3344     7  0.3343     8  0.3342     9  0.3804    10  0.3342
    11  0.6589    12  0.3414    13  0.3409    14  0.3409    15  0.2234
    16  0.2741    17  0.2496    18  0.2234    19  0.2233    20  0.2504
    21  0.2235    22  0.2548    23  0.2233    24  0.2235    25  0.2235
    26  0.2247    27  0.2247    28  0.2247    29  0.2235    30  0.2279
    31  0.2278    32  0.2241    33  0.2241    34  0.2015    35  0.2016
    36  0.2016    37  0.2026    38  0.2026    39  0.2026    40  0.2500
    41  0.2500    42  0.2500    43  0.2500    44  0.2500    45  0.2500
    46  0.2500    47  0.2500    48  0.2500    49  0.2500    50  0.2500
    51  0.2500    52  0.2500    53  0.2500    54  0.2500    55  0.2500
    56  0.2500    57  0.2500    58  0.2500    59  0.2500    60  0.2500
    61  0.2500    62  0.2500    63  0.2500    64  0.2500    65  0.2500
    66  0.2500    67  0.2500    68  0.2500    69  0.2500
 TRANSFORMING HESSIAN TO SYMMETRY COORDINATES

          PARAMETERS CONTROLLING GEOMETRY SEARCH ARE
          METHOD =QA                  UPHESS =BFGS    
          NNEG   =         0          NFRZ   =         3
          NSTEP  =        50          IFOLOW =         1
          HESS   =GUESS               RESTAR =         F
          IHREP  =         0          HSSEND =         F
          NPRT   =         0          NPUN   =         0
          OPTTOL = 5.000E-04          RMIN   = 1.500E-03
          RMAX   = 1.000E-01          RLIM   = 7.000E-02
          DXMAX  = 3.000E-01          PURIFY =         F
          MOVIE  =         F          TRUPD  =         T
          TRMAX  = 5.000E-01          TRMIN  = 5.000E-02
          ITBMAT =         5          STPT   =         F
          STSTEP = 1.000E-02          PROJCT=          F
          FROZEN COORD(S)=   1   2   3


      ***** EQUILIBRIUM GEOMETRY LOCATED *****
            (SUBJECT TO   3 CONSTRAINT(S))
 COORDINATES OF ALL ATOMS ARE (ANGS)
   ATOM   CHARGE       X              Y              Z
 ------------------------------------------------------------
 C           6.0   4.5803800564   1.1394459111   0.9081432671
 C           6.0   3.2178898906   1.8308686067   0.9790194097
 C           6.0   2.1338198407   0.8311584250   1.3622227587
 C           6.0   5.6570824275   2.0697431644   0.5467073426
 C           6.0   0.7665711098   1.4976777748   1.4350334985
 N           7.0   6.4811755105   2.7907846093   0.2660977836
 H           1.0   4.5662514829   0.3481376786   0.1681231410
 H           1.0   4.8321495752   0.6976247582   1.8648959798
 H           1.0   2.9838814663   2.2785832970   0.0170512371
 H           1.0   3.2526047364   2.6360306713   1.7077828403
 H           1.0   2.3825981657   0.3819237051   2.3215192938
 H           1.0   2.1173864749   0.0230861380   0.6336955766
 H           1.0   0.7730847997   2.2962110442   2.1721909869
 H           1.0   0.5050607643   1.9316422291   0.4735911521
 H           1.0  -0.0066199079   0.7880083565   1.7093862617


                     --------------------
                     INTERNAL COORDINATES
                     --------------------

                 - - ATOMS - -         COORDINATE      COORDINATE
 NO.   TYPE    I  J  K  L  M  N        (BOHR,RAD)       (ANG,DEG)
 ----------------------------------------------------------------
   1 STRETCH   1  2                     2.8903964       1.5295320
   2 STRETCH   1  4                     2.7743449       1.4681202
   3 STRETCH   1  7                     2.0475407       1.0835119
   4 STRETCH   1  8                     2.0475158       1.0834988
   5 STRETCH   2  3                     2.8792586       1.5236381
   6 STRETCH   2  9                     2.0532820       1.0865501
   7 STRETCH   2 10                     2.0532786       1.0865483
   8 STRETCH   3 11                     2.0562028       1.0880957
   9 STRETCH   3  5                     2.8776739       1.5227996
  10 STRETCH   3 12                     2.0562466       1.0881189
  11 STRETCH   4  6                     2.1361193       1.1303857
  12 STRETCH   5 15                     2.0499168       1.0847693
  13 STRETCH   5 14                     2.0537107       1.0867770
  14 STRETCH   5 13                     2.0537235       1.0867838
  15 BEND      1  2 10                  1.9151622     109.7307083
  16 BEND      1  4  6                  3.1352018     179.6338338
  17 BEND      1  2  3                  1.9271372     110.4168298
  18 BEND      1  2  9                  1.9146202     109.6996566
  19 BEND      2  1  8                  1.9288001     110.5121041
  20 BEND      2  3  5                  1.9429931     111.3253057
  21 BEND      2  3 12                  1.9066988     109.2457912
  22 BEND      2  1  4                  1.9587065     112.2256186
  23 BEND      2  1  7                  1.9285510     110.4978349
  24 BEND      2  3 11                  1.9070500     109.2659151
  25 BEND      3  2 10                  1.9179864     109.8925255
  26 BEND      3  5 13                  1.9269301     110.4049632
  27 BEND      3  5 14                  1.9267952     110.3972303
  28 BEND      3  5 15                  1.9451922     111.4513041
  29 BEND      3  2  9                  1.9174947     109.8643516
  30 BEND      4  1  7                  1.8798919     107.7098707
  31 BEND      4  1  8                  1.8811200     107.7802343
  32 BEND      5  3 12                  1.9214355     110.0901425
  33 BEND      5  3 11                  1.9217944     110.1107107
  34 BEND      7  1  8                  1.8842174     107.9577068
  35 BEND      9  2 10                  1.8706190     107.1785715
  36 BEND     11  3 12                  1.8620188     106.6858206
  37 BEND     13  5 14                  1.8839991     107.9451959
  38 BEND     13  5 15                  1.8895850     108.2652470
  39 BEND     14  5 15                  1.8896393     108.2683564
  40 TORSION   1  2  3 12              -1.0131029     -58.0465180
  41 TORSION   1  2  3  5              -3.1388163    -179.8409249
  42 TORSION   1  2  3 11               1.0179670      58.3252149
  43 TORSION   2  3  5 13              -1.0392061     -59.5421218
  44 TORSION   2  3  5 14               1.0425893      59.7359659
  45 TORSION   2  3  5 15              -3.1399122    -179.9037196
  46 TORSION   2  1  4  6              -0.2864784     -16.4140056
  47 TORSION   3  2  1  4              -3.1373534    -179.7571080
  48 TORSION   3  2  1  8              -1.0370829     -59.4204708
  49 TORSION   3  2  1  7               1.0472959      60.0056326
  50 TORSION   4  1  2  9               1.0300727      59.0188158
  51 TORSION   4  1  2 10              -1.0206272     -58.4776296
  52 TORSION   5  3  2 10               1.0293207      58.9757340
  53 TORSION   5  3  2  9              -1.0247658     -58.7147538
  54 TORSION   6  4  1  8              -2.4141699    -138.3217475
  55 TORSION   6  4  1  7               1.8400662     105.4280264
  56 TORSION   7  1  2  9              -1.0684634     -61.2184437
  57 TORSION   7  1  2 10              -3.1191632    -178.7148890
  58 TORSION   8  1  2  9               3.1303432     179.3554529
  59 TORSION   8  1  2 10               1.0796434      61.8590076
  60 TORSION   9  2  3 12               1.1009476      63.0796530
  61 TORSION   9  2  3 11               3.1320175     179.4513859
  62 TORSION  10  2  3 12              -3.1281512    -179.2298591
  63 TORSION  10  2  3 11              -1.0970813     -62.8581262
  64 TORSION  11  3  5 15              -1.0220902     -58.5614539
  65 TORSION  11  3  5 14              -3.1227740    -178.9217684
  66 TORSION  11  3  5 13               1.0786160      61.8001439
  67 TORSION  12  3  5 15               1.0261387      58.7934173
  68 TORSION  12  3  5 14              -1.0745451     -61.5668971
  69 TORSION  12  3  5 13               3.1268449     179.1550151

          INTERNUCLEAR DISTANCES (ANGS.)


 =====================================================
   GAMESS/COSab RESULTS
 =====================================================

   Dielectric Constant                  = INFTY
   Basic Grid Size                      =                 1082
   Number of Segments                   =                   92
   Number of Segments located on spheres=                  240
   Number of Segments of the cavity     =                  579
   Solvent Radius (rsolv)               = 1.40
   Outlying Charge Error Method         = double cavity

 =====================================================

  Total solvated Energy (a.u.)          =  -249.1065946599
  Total Energy corrected (a.u.)         =  -249.1063406469

  Outlying charge effect (a.u.)         =     0.0002540130
  Outlying charge effect (kcal/mol)     =     0.1593956953

  Dielectric Energy (a.u.)              =    -0.0151458188
  Dielectric energy corr. (a.u.)        =    -0.0148918058

  Sum of polarization charges           =     0.0223158208
  Sum of polarization charges(cor.)     =    -0.0223158208

  Total surface area of cavity (A**2)   =  140.59
  Total volume of cavity (A**3)         =  128.31

 =====================================================
 NPS=                   579
NR.  ATOM  (X, Y, Z)(a.u.)                  CHARGE(e)  AREA(A**2) SIGMA(e/A**2)
   1   1  11.491384  -0.343830   1.628683  -0.000792   0.278737  -0.002841
   2   1   8.411674  -1.440472   2.860683  -0.000342   0.371649  -0.000921
   3   1   9.181591   3.667167   5.138949  -0.000687   0.139368  -0.004931
   4   1   8.469483  -1.615415   1.932637  -0.000732   0.278737  -0.002624
   5   1  10.991019  -0.682560   0.828062  -0.000990   0.278737  -0.003552
   6   1   7.686321   1.936376  -1.930454  -0.000632   0.139368  -0.004532
   7   1  10.813407  -0.912917   2.192728  -0.000275   0.371649  -0.000741
   8   1   9.590871  -1.410555   2.558192  -0.000046   0.325193  -0.000143
   9   1  11.443810  -0.154961   2.803682  -0.000925   0.278737  -0.003320
  10   1   8.845837   3.291629   5.315043  -0.000180   0.046456  -0.003866
  11   1  10.138563  -1.321030   1.837677  -0.000229   0.278737  -0.000821
  12   1   8.230419   2.024347  -2.037107  -0.000273   0.046456  -0.005878
  13   2   6.549041   7.171323   1.311597   0.000876   0.325193   0.002694
  14   2   6.755461   3.511364   5.568489  -0.000115   0.092912  -0.001238
  15   2   6.217149   6.993853   0.517262   0.000540   0.278737   0.001938
  16   2   5.892341   2.185945  -1.703221  -0.000233   0.139368  -0.001670
  17   2   4.452072   6.865366   1.667307   0.000544   0.232280   0.002341
  18   2   5.325939   7.128010   1.341443   0.001106   0.325193   0.003401
  19   2   7.023342   3.794557   5.494807  -0.000074   0.046456  -0.001584
  20   2   4.598273   6.777328   0.810751   0.000287   0.139368   0.002060
  21   2   5.344241   2.115307  -1.604460  -0.000046   0.046456  -0.000987
  22   3   2.110006  -1.586633   3.361937   0.000350   0.232280   0.001508
  23   3   5.490618  -1.907776   2.815430   0.000910   0.232280   0.003916
  24   3   3.329017   1.526206  -1.138938   0.000054   0.092912   0.000582
  25   3   5.421484  -1.808581   3.541333   0.000825   0.232280   0.003550
  26   3   2.631440  -1.442886   4.374330   0.000883   0.418105   0.002112
  27   3   4.795292   2.913004   6.023904   0.000080   0.139368   0.000573
  28   3   3.126596  -2.034041   3.259858   0.001273   0.371649   0.003425
  29   3   4.538449  -2.141507   3.072193   0.001264   0.278737   0.004535
  30   3   2.307347  -1.790745   2.475761   0.000544   0.278737   0.001951
  31   3   3.669349   1.326479  -1.179816   0.000017   0.046456   0.000365
  32   3   3.879384  -2.038440   3.685678   0.001066   0.278737   0.003823
  33   3   4.249756   2.833463   6.129833   0.000041   0.046456   0.000872
  34   4  12.934425   3.924789   4.074205   0.000946   0.232280   0.004073
  35   4  13.535518   1.539575   0.281937   0.000814   0.278737   0.002922
  36   4  11.231107   3.365801  -2.667444   0.000891   0.185824   0.004796
  37   4   9.112810   6.409149  -1.324021   0.000670   0.139368   0.004807
  38   4   9.734355   7.205116   2.620845   0.000501   0.139368   0.003595
  39   4  10.326993   6.434318   3.823544   0.000679   0.464561   0.001461
  40   4  10.273075   5.153148   4.578253  -0.001047   0.278737  -0.003758
  41   4  11.120742   4.427176   4.752387  -0.001063   0.325193  -0.003267
  42   4  12.161009   4.564892   4.452801   0.000355   0.325193   0.001093
  43   4  13.047117   2.976128   3.835875   0.000042   0.418105   0.000101
  44   4  12.883802   2.055141   3.488292  -0.000624   0.232280  -0.002686
  45   4  12.968955   1.153744   2.253085  -0.001697   0.464561  -0.003653
  46   4  13.614413   1.539997   1.366505   0.000377   0.418105   0.000903
  47   4  13.069422   1.411646  -0.508338   0.000235   0.325193   0.000723
  48   4  12.267270   0.867219  -0.557897  -0.001350   0.371649  -0.003633
  49   4  11.453663   1.563328  -1.828478  -0.000956   0.325193  -0.002940
  50   4  11.502158   2.489248  -2.373195   0.000164   0.371649   0.000440
  51   4  10.445927   3.753477  -2.735103   0.000346   0.278737   0.001242
  52   4   9.398948   3.664769  -2.510286  -0.001251   0.371649  -0.003366
  53   4   9.270057   5.767872  -1.936719   0.000288   0.232280   0.001242
  54   4   8.984237   6.981437  -0.362379   0.000447   0.139368   0.003204
  55   4  12.009363   3.447436   4.544444  -0.000782   0.371649  -0.002104
  56   4  12.804940   0.793469   0.729639  -0.000647   0.325193  -0.001989
  57   4  10.304960   2.647753  -2.507954  -0.000859   0.371649  -0.002310
  58   4  11.306365   5.504267   4.404642   0.000944   0.418105   0.002258
  59   4  13.612588   2.213556   2.725025   0.001226   0.511017   0.002400
  60   4  12.504605   1.903761  -1.605545   0.001286   0.511017   0.002517
  61   4   9.601821   4.754165  -2.486651   0.000982   0.464561   0.002114
  62   4   9.136228   7.350689   1.231344   0.000822   0.185824   0.004423
  63   5  -1.864846   2.549783   0.915537   0.002046   0.418105   0.004893
  64   5   1.288057   1.728388   6.323535   0.000704   0.278737   0.002527
  65   5  -0.373918   6.050556   1.942388   0.001751   0.418105   0.004188
  66   5  -1.812595   3.407518   4.532681   0.001336   0.371649   0.003596
  67   5   0.275136  -0.388037   1.114917   0.000577   0.278737   0.002068
  68   5   0.794157   1.260347  -0.663305   0.000598   0.232280   0.002574
  69   5   0.204189   0.527385  -0.014471   0.000901   0.325193   0.002772
  70   5  -0.914637   1.118272   0.310032   0.001369   0.325193   0.004211
  71   5  -1.174367   4.060956   5.138657   0.001432   0.371649   0.003853
  72   5   0.029792   6.332696   2.773561   0.001097   0.278737   0.003936
  73   5   2.363111   6.497302   2.731354   0.000080   0.046456   0.001728
  74   5   1.132281   2.782068   6.477705   0.000902   0.278737   0.003234
  75   5  -1.149393   1.991911   0.098031   0.000975   0.232280   0.004199
  76   5  -1.591684   1.471764   0.924226   0.001158   0.278737   0.004153
  77   5   1.800355   6.434180   1.629263   0.001009   0.232280   0.004343
  78   5   0.904218   6.461342   1.815841   0.001878   0.371649   0.005053
  79   5  -1.162221   5.555041   2.919489   0.001365   0.464561   0.002938
  80   5  -1.789270   4.431646   3.823489   0.001220   0.464561   0.002626
  81   5  -0.979824   2.965080   5.604707   0.001804   0.371649   0.004854
  82   5   0.397478   2.158334   6.279449   0.000821   0.232280   0.003534
  83   5   0.784007   1.013689   5.958791   0.000896   0.325193   0.002756
  84   5  -1.395255   5.109486   1.711022   0.001132   0.418105   0.002707
  85   5  -1.950145   3.810443   1.380702   0.001341   0.418105   0.003207
  86   5  -2.272459   2.927068   2.057199   0.001501   0.464561   0.003231
  87   5  -2.233768   3.325737   3.403786   0.000834   0.325193   0.002566
  88   5  -0.091557   1.321806  -0.392508   0.000734   0.232280   0.003161
  89   5  -0.466357   0.255709   0.714548   0.000925   0.278737   0.003317
  90   5  -1.204033   5.210956   3.968725   0.000689   0.278737   0.002473
  91   5   1.640072   6.597196   2.472203   0.000536   0.139368   0.003846
  92   5   2.002638   2.806116   6.450368   0.000528   0.232280   0.002273
  93   5  -0.041137   3.136390   6.171760   0.001375   0.325193   0.004227
  94   5   1.068860   0.221860   5.420430   0.000098   0.092912   0.001060
  95   5  -2.000903   4.368194   2.571341   0.000994   0.464561   0.002139
  96   5  -0.244174   2.004947   5.988663   0.000945   0.232280   0.004069
  97   6  14.735423   7.543297  -0.284323   0.007063   0.427836   0.016509
  98   6  14.463734   6.145485   3.010497   0.004041   0.388942   0.010391
  99   6  12.026156   8.467188   1.811461   0.004009   0.388942   0.010308
 100   6  11.459275   7.872902  -1.637805   0.004080   0.388942   0.010490
 101   6  13.551128   5.152208  -2.697987   0.004072   0.388942   0.010470
 102   6  15.414288   3.907492   0.248438   0.003562   0.350048   0.010175
 103   6  15.098822   7.191169   0.894972   0.007172   0.466730   0.015367
 104   6  14.913721   6.830979   2.060561   0.005019   0.388942   0.012905
 105   6  14.047601   8.226541   0.530751   0.007170   0.466730   0.015363
 106   6  13.134847   8.519342   1.301981   0.005014   0.388942   0.012891
 107   6  13.753913   8.014002  -0.974227   0.007202   0.466730   0.015431
 108   6  12.681160   7.976124  -1.611104   0.005529   0.427836   0.012923
 109   6  14.603970   6.948746  -1.394931   0.006744   0.427836   0.015764
 110   6  14.287796   6.074268  -2.172274   0.005142   0.388942   0.013222
 111   6  15.394829   6.404491  -0.378077   0.008503   0.544519   0.015616
 112   6  15.647163   5.166658  -0.122459   0.006004   0.466730   0.012865
 113   6  13.840248   7.189649   2.901256   0.004154   0.388942   0.010679
 114   6  12.987879   8.001763   2.495212   0.004622   0.427836   0.010804
 115   6  11.912086   8.709768   0.704840   0.004713   0.427836   0.011015
 116   6  11.567034   8.468806  -0.632043   0.005027   0.466730   0.010770
 117   6  12.088186   7.047309  -2.461689   0.004976   0.466730   0.010660
 118   6  12.882264   6.113248  -2.791360   0.005073   0.466730   0.010870
 119   6  14.393534   4.593103  -2.122222   0.004557   0.427836   0.010651
 120   6  15.148271   4.139190  -0.999881   0.004983   0.466730   0.010675
 121   6  15.558941   4.533569   1.171087   0.005373   0.505625   0.010626
 122   6  15.279685   5.504504   2.149876   0.004790   0.427836   0.011195
 123   6  13.455771   6.306666   3.574133   0.003104   0.311154   0.009976
 124   6  12.711792   6.295861   3.773798   0.001166   0.155577   0.007492
 125   6  11.934118   7.089268   3.429442   0.001974   0.194471   0.010150
 126   6  11.598304   7.828829   2.741015   0.003403   0.388942   0.008748
 127   6  10.896996   8.190564   1.778566   0.003844   0.388942   0.009884
 128   6  10.235048   8.051851   0.939988   0.001711   0.233365   0.007332
 129   6  10.215890   7.945261  -0.330512   0.002391   0.233365   0.010246
 130   6  10.449311   7.757871  -1.095467   0.002777   0.311154   0.008925
 131   6  10.889189   7.015517  -2.158023   0.003093   0.311154   0.009939
 132   6  10.837200   6.258848  -2.497070   0.001656   0.194471   0.008514
 133   6  12.300750   4.774009  -2.918635   0.004196   0.466730   0.008990
 134   6  13.192488   3.942462  -2.545749   0.003872   0.388942   0.009956
 135   6  13.663107   3.261260  -1.927226   0.002247   0.272259   0.008255
 136   6  14.336632   2.901809  -0.900322   0.002402   0.233365   0.010292
 137   6  14.816907   3.046736  -0.128171   0.003321   0.388942   0.008538
 138   6  14.970414   3.224102   1.089677   0.003455   0.350048   0.009869
 139   6  14.677140   3.438787   2.142779   0.001817   0.233365   0.007787
 140   6  14.329065   4.278206   3.078813   0.002248   0.233365   0.009633
 141   6  14.692688   5.089250   2.941467   0.002939   0.311154   0.009446
 142   6  14.192249   7.823909   1.796961   0.006296   0.466730   0.013489
 143   6  12.877797   8.598111  -0.212110   0.007451   0.544519   0.013684
 144   6  13.510327   7.090633  -2.154975   0.006355   0.466730   0.013616
 145   6  15.102547   5.438988  -1.441754   0.006717   0.505625   0.013285
 146   6  15.589399   5.948255   1.083382   0.006281   0.466730   0.013457
 147   6  12.700682   7.227586   3.320059   0.002864   0.311154   0.009204
 148   6  10.828098   8.425011   0.384539   0.003292   0.350048   0.009404
 149   6  11.545565   5.742062  -2.850806   0.004050   0.427836   0.009467
 150   6  14.395784   3.533623  -1.574751   0.002526   0.272259   0.009276
 151   6  15.052071   4.204474   2.220657   0.002919   0.311154   0.009380
 152   6  10.181695   7.119679  -1.566881   0.001478   0.194471   0.007602
 153   6  13.806259   5.315571   3.589613   0.002366   0.272259   0.008691
 154   7   8.838573  -1.038678  -1.446630  -0.004329   0.451437  -0.009588
 155   7   9.423649   0.135954  -1.947507  -0.002364   0.314043  -0.007528
 156   7   7.674784   0.480013  -1.939064  -0.002488   0.294415  -0.008452
 157   7   8.621777  -1.791527   0.506053  -0.002699   0.372926  -0.007237
 158   7  10.332939  -0.971177  -0.373505  -0.002532   0.353299  -0.007168
 159   7   8.565757   0.382569  -2.122647  -0.003000   0.372926  -0.008045
 160   7   7.773005  -0.661909  -1.569251  -0.004219   0.412182  -0.010237
 161   7   8.157974  -1.596919  -0.536209  -0.004161   0.412182  -0.010094
 162   7   9.486486  -1.588661  -0.185125  -0.003265   0.451437  -0.007231
 163   7   9.945159  -0.622553  -1.314240  -0.003543   0.412182  -0.008596
 164   8   9.955889   0.167260   5.531746  -0.004559   0.471065  -0.009679
 165   8   9.903878   2.204757   5.681151  -0.003093   0.392554  -0.007879
 166   8  11.108042   0.456058   4.700847  -0.003216   0.372926  -0.008625
 167   8   9.827497  -0.909753   4.289848  -0.002254   0.353299  -0.006381
 168   8   9.014166   1.648878   5.955629  -0.004796   0.510320  -0.009398
 169   8  10.591901   1.246477   5.498224  -0.003800   0.471065  -0.008067
 170   8  10.645598  -0.391283   4.429502  -0.002606   0.372926  -0.006988
 171   8   8.994156  -0.788641   4.779931  -0.003998   0.451437  -0.008855
 172   8   8.931869   0.320978   5.760352  -0.004004   0.372926  -0.010736
 173   9   5.261506   5.396833  -2.136347  -0.002618   0.431809  -0.006064
 174   9   5.801740   3.557023  -2.301807  -0.001762   0.392554  -0.004488
 175   9   5.494842   6.602960  -0.826818  -0.001236   0.412182  -0.002998
 176   9   4.747888   3.808190  -2.202459  -0.002688   0.490692  -0.005478
 177   9   6.175227   4.755385  -2.322608  -0.002604   0.451437  -0.005769
 178   9   6.049984   6.096314  -1.598853  -0.002198   0.392554  -0.005599
 179   9   4.503481   6.234660  -0.980819  -0.002273   0.451437  -0.005034
 180   9   4.372411   5.107634  -1.914263  -0.002489   0.353299  -0.007045
 181  10   6.042446   6.831776   4.839768  -0.002312   0.372926  -0.006199
 182  10   7.345267   5.370124   5.336030  -0.001571   0.294415  -0.005335
 183  10   6.111361   5.035587   5.683026  -0.001608   0.372926  -0.004312
 184  10   5.514046   7.351335   3.091838  -0.000891   0.333671  -0.002670
 185  10   6.854149   7.333146   3.167620  -0.001339   0.314043  -0.004265
 186  10   6.741569   5.968936   5.396509  -0.001701   0.314043  -0.005417
 187  10   5.633973   6.057338   5.375411  -0.002185   0.333671  -0.006548
 188  10   5.248802   7.098542   4.091385  -0.002226   0.353299  -0.006300
 189  10   6.365907   7.346858   3.852900  -0.001629   0.314043  -0.005186
 190  10   7.219187   6.717881   4.594372  -0.002371   0.412182  -0.005752
 191  11   4.806610  -0.294155   6.603024  -0.002247   0.431809  -0.005204
 192  11   3.698333   0.721097   6.708354  -0.000949   0.294415  -0.003224
 193  11   5.275868   1.662172   6.520696  -0.001026   0.314043  -0.003266
 194  11   5.322199  -1.502390   5.032360  -0.000886   0.372926  -0.002375
 195  11   3.384000  -1.040775   5.682326  -0.000817   0.353299  -0.002314
 196  11   4.494059   1.163124   6.803691  -0.001452   0.412182  -0.003523
 197  11   5.632096   0.471852   6.554198  -0.002162   0.392554  -0.005508
 198  11   5.685870  -0.811226   5.898561  -0.002113   0.412182  -0.005126
 199  11   4.417689  -1.379733   5.656607  -0.001525   0.451437  -0.003378
 200  11   3.563821  -0.312101   6.408249  -0.001499   0.451437  -0.003321
 201  12   3.683790  -1.921108  -0.242654  -0.002463   0.471065  -0.005229
 202  12   3.174286  -0.233541  -1.099083  -0.001138   0.412182  -0.002761
 203  12   2.389340  -1.657294   0.460217  -0.001151   0.353299  -0.003257
 204  12   4.162844  -2.405767   1.294587  -0.000869   0.372926  -0.002330
 205  12   4.169621  -0.479521  -1.196866  -0.002196   0.490692  -0.004476
 206  12   2.663678  -1.127443  -0.497923  -0.001605   0.471065  -0.003407
 207  12   3.119981  -2.240254   0.991913  -0.001343   0.451437  -0.002975
 208  12   4.926296  -2.196365   0.795232  -0.001543   0.392554  -0.003930
 209  12   4.649014  -1.587887  -0.521109  -0.002502   0.431809  -0.005793
 210  13   1.082910   5.830244   6.020305  -0.002458   0.471065  -0.005217
 211  13   1.357450   4.458756   6.556386  -0.000935   0.372926  -0.002506
 212  13  -0.222994   5.381251   5.558677  -0.000975   0.392554  -0.002483
 213  13   0.686198   6.670178   4.143346  -0.000798   0.353299  -0.002259
 214  13   1.773912   6.771774   3.964214  -0.000960   0.333671  -0.002877
 215  13   2.372964   4.839804   6.330301  -0.002071   0.490692  -0.004221
 216  13   0.390682   4.753540   6.276932  -0.001019   0.392554  -0.002596
 217  13   0.145585   6.234339   4.949499  -0.001779   0.510320  -0.003487
 218  13   1.687794   6.603078   5.031407  -0.002119   0.412182  -0.005140
 219  13   2.230599   5.990395   5.752955  -0.002127   0.372926  -0.005703
 220  14  -0.138785   4.573023  -1.102163  -0.002495   0.471065  -0.005297
 221  14  -0.648517   3.064115  -0.871987  -0.000920   0.392554  -0.002344
 222  14   1.212994   2.982996  -1.455141  -0.001364   0.372926  -0.003657
 223  14   0.959691   5.918270  -0.049086  -0.001101   0.392554  -0.002805
 224  14  -1.034875   4.816785   0.048191  -0.000894   0.372926  -0.002397
 225  14   0.207394   3.007452  -1.355334  -0.001335   0.412182  -0.003240
 226  14   1.016146   4.148568  -1.509820  -0.002415   0.431809  -0.005592
 227  14   0.925492   5.288211  -0.935719  -0.002278   0.431809  -0.005275
 228  14  -0.221536   5.627627   0.033417  -0.001415   0.490692  -0.002884
 229  14  -1.055608   3.937910  -0.487837  -0.001062   0.372926  -0.002847
 230  15  -1.817480  -0.075104   3.805060  -0.003637   0.608459  -0.005978
 231  15  -0.413077  -0.918065   3.513235  -0.001355   0.353299  -0.003836
 232  15  -1.341481  -0.105136   1.916019  -0.000743   0.333671  -0.002228
 233  15  -2.424113   1.342520   2.785523  -0.000850   0.353299  -0.002407
 234  15  -1.829285   1.524585   4.883512  -0.000824   0.372926  -0.002209
 235  15  -0.334084   0.162016   5.272447  -0.000785   0.353299  -0.002222
 236  15  -0.867442  -0.736430   2.637750  -0.001799   0.490692  -0.003667
 237  15  -2.069929   0.420842   2.417309  -0.001811   0.490692  -0.003691
 238  15  -2.372418   1.324160   3.892653  -0.001938   0.510320  -0.003797
 239  15  -1.351243   0.612246   5.094138  -0.001909   0.490692  -0.003890
 240  15  -0.534845  -0.556428   4.486447  -0.001959   0.490692  -0.003992
 241   1   7.094615   1.569760  -1.684197  -0.000241   0.026322  -0.009160
 242   2   6.659203   1.804196  -1.619846  -0.000211   0.026322  -0.008022
 243   7   7.206917   1.290296  -1.698508  -0.000317   0.026322  -0.012060
 244   1   8.199120   3.022681   5.373337  -0.000287   0.026303  -0.010905
 245   2   7.750661   3.239951   5.354304  -0.000228   0.026303  -0.008673
 246   8   8.327493   2.764233   5.460745  -0.000268   0.026303  -0.010192
 247   1   6.975972   2.346981  -1.784063  -0.000203   0.027581  -0.007346
 248   2   6.527317   2.563976  -1.802495  -0.000164   0.027581  -0.005948
 249   9   6.407566   2.827216  -1.892990  -0.000202   0.027581  -0.007341
 250   1   8.086150   3.820919   5.180959  -0.000225   0.027543  -0.008162
 251   2   7.650620   4.055334   5.244835  -0.000187   0.027543  -0.006782
 252  10   7.546603   4.339758   5.255150  -0.000164   0.027543  -0.005963
 253   2   7.586754   3.660380   5.366433  -0.000274   0.085675  -0.003193
 254   1   8.267544   3.426521   5.307873  -0.000434   0.085675  -0.005069
 255   2   6.506276   2.262265  -1.764886  -0.000217   0.078250  -0.002779
 256   1   7.102932   1.857599  -1.774515  -0.000326   0.078250  -0.004165
 257   1   7.148690  -0.994168   3.682614  -0.000386   0.066997  -0.005765
 258   3   6.360756  -1.168629   3.862601  -0.000110   0.066997  -0.001643
 259  11   6.297267  -1.109037   4.155360  -0.000227   0.066997  -0.003388
 260   1   6.836671  -1.415114   1.712318  -0.000426   0.067117  -0.006341
 261   3   6.043450  -1.596448   1.859303  -0.000099   0.067117  -0.001469
 262  12   5.893454  -1.654312   1.599583  -0.000214   0.067117  -0.003185
 263   3   6.268191  -1.529608   2.692415  -0.000145   0.506625  -0.000286
 264   1   7.475906  -1.308829   2.832797  -0.001762   0.506625  -0.003478
 265   1  11.181113   0.000799  -0.110419  -0.000381   0.028852  -0.013202
 266   4  11.510637   0.332168  -0.213477  -0.000455   0.028852  -0.015756
 267   7  10.967906  -0.136157  -0.274098  -0.000340   0.028852  -0.011767
 268   1   8.928000   1.854916  -2.050029  -0.000441   0.028852  -0.015282
 269   4   9.283893   2.164586  -2.130388  -0.000451   0.028852  -0.015634
 270   7   8.914448   1.553662  -2.041834  -0.000355   0.028852  -0.012303
 271   1  10.046564   3.315254   5.042088  -0.000395   0.028782  -0.013740
 272   4  10.390749   3.609653   4.887566  -0.000453   0.028782  -0.015739
 273   8  10.048833   3.035674   5.155360  -0.000347   0.028782  -0.012072
 274   1  11.732501   0.727384   3.403412  -0.000410   0.028782  -0.014257
 275   4  12.056931   1.052106   3.268091  -0.000454   0.028782  -0.015781
 276   8  11.585349   0.677162   3.661917  -0.000339   0.028782  -0.011774
 277   1   7.921542   3.084975  -1.916866  -0.000973   0.100399  -0.009693
 278   4   8.282666   3.391998  -1.999608  -0.001141   0.100399  -0.011363
 279   9   7.305964   3.518128  -1.935288  -0.000823   0.100399  -0.008200
 280   1   8.964147   4.467722   4.741958  -0.000954   0.100535  -0.009489
 281   4   9.314331   4.760309   4.589325  -0.001113   0.100535  -0.011071
 282  10   8.357489   4.913145   4.768691  -0.000840   0.100535  -0.008359
 283   4  10.086851   4.403220   4.743004  -0.001360   0.188676  -0.007207
 284   1   9.742645   3.800363   4.952610  -0.001444   0.188676  -0.007655
 285   4  12.378510   0.957913   2.701763  -0.001300   0.192329  -0.006757
 286   4  12.147702   0.529339   0.911043  -0.003398   0.389932  -0.008714
 287   1  11.818928   0.324426   2.190920  -0.003294   0.389932  -0.008448
 288   1  11.486421   0.010539   0.392437  -0.001388   0.192329  -0.007216
 289   4   9.141396   2.784774  -2.239360  -0.001423   0.186359  -0.007638
 290   1   8.490253   2.527957  -2.053427  -0.001509   0.186359  -0.008097
 291   1   7.295695  -1.425271   1.356338  -0.000627   0.086227  -0.007271
 292   7   7.364770  -1.458834   1.061602  -0.000737   0.086227  -0.008549
 293  12   6.326526  -1.512460   1.248748  -0.000389   0.086227  -0.004516
 294   7   7.669721   1.118972  -1.897852  -0.000517   0.066402  -0.007785
 295   7   8.478348   1.257337  -2.061247  -0.000616   0.066402  -0.009279
 296   1   8.016311   1.592220  -1.923051  -0.001378   0.146439  -0.009412
 297   7  10.686860  -0.599248  -0.118147  -0.000624   0.076414  -0.008167
 298   7   9.984458  -1.280109   0.623320  -0.001441   0.174054  -0.008282
 299   7   8.603533  -1.622240   1.015533  -0.001614   0.174054  -0.009274
 300   1  10.674905  -0.719459   0.498094  -0.001459   0.163514  -0.008922
 301   1   9.435482  -1.458069   1.311566  -0.001158   0.163514  -0.007085
 302   1   8.094069  -1.572370   1.459403  -0.000693   0.093356  -0.007420
 303   1   7.672942  -0.912166   3.819823  -0.000627   0.086393  -0.007263
 304   8   7.828197  -0.834142   4.069990  -0.000766   0.086393  -0.008868
 305  11   6.787932  -0.886334   4.240066  -0.000385   0.086393  -0.004456
 306   8   8.570127  -1.031562   3.933170  -0.000706   0.076659  -0.009213
 307   8   9.765536  -0.976711   3.643941  -0.001521   0.174761  -0.008703
 308   8  10.996204  -0.156715   3.698768  -0.001704   0.174761  -0.009752
 309   1   8.910517  -1.141532   3.415788  -0.001328   0.163913  -0.008103
 310   1  10.500131  -0.713853   3.194995  -0.001344   0.163913  -0.008198
 311   1  11.450154   0.238320   3.384707  -0.000771   0.093656  -0.008229
 312   8   9.655026   2.797357   5.415831  -0.000533   0.066782  -0.007988
 313   8   8.839375   2.655926   5.565149  -0.000577   0.066782  -0.008636
 314   1   9.151400   3.079942   5.301818  -0.001400   0.147115  -0.009519
 315   9   6.625317   3.334549  -2.052182  -0.000880   0.169647  -0.005189
 316   1   7.402924   2.521753  -1.944923  -0.000864   0.239089  -0.003614
 317  10   7.665115   4.722110   5.201960  -0.000783   0.163422  -0.004793
 318   1   8.609591   4.116348   5.072892  -0.000870   0.230329  -0.003779
 319  11   6.283710  -1.177033   4.373700   0.000002   0.019708   0.000109
 320   1   7.581751  -1.126316   3.736886   0.000065   0.027946   0.002313
 321  12   5.825248  -1.802237   1.398812  -0.000007   0.031850  -0.000212
 322   1   7.242231  -1.584467   1.582436   0.000026   0.045157   0.000572
 323   2   4.604397   2.322956  -1.446803  -0.000103   0.027317  -0.003763
 324   3   4.259606   2.005940  -1.281280  -0.000072   0.027317  -0.002634
 325   9   4.618146   2.602890  -1.561993  -0.000116   0.027317  -0.004234
 326   2   5.721854   3.813841   5.603427  -0.000099   0.027282  -0.003624
 327   3   5.364074   3.479489   5.686969  -0.000072   0.027282  -0.002631
 328  10   5.751876   4.115014   5.588841  -0.000144   0.027282  -0.005294
 329   2   5.847419   3.034562   5.705755  -0.000077   0.028165  -0.002729
 330   3   5.502373   2.717596   5.870914  -0.000078   0.028165  -0.002761
 331  11   5.495707   2.436235   5.985282  -0.000110   0.028165  -0.003923
 332   2   4.750053   1.553164  -1.263586  -0.000080   0.028191  -0.002831
 333   3   4.392216   1.218938  -1.179630  -0.000077   0.028191  -0.002717
 334  12   4.370040   0.916289  -1.165289  -0.000086   0.028191  -0.003063
 335   3   5.393529   3.004112   5.856251  -0.000033   0.078170  -0.000427
 336   2   5.835621   3.539676   5.672739  -0.000077   0.078170  -0.000981
 337   3   4.205877   1.566921  -1.252880  -0.000027   0.079916  -0.000336
 338   2   4.778514   1.964250  -1.427710  -0.000083   0.079916  -0.001035
 339   2   7.145644   6.549993  -0.121054  -0.000254   0.064809  -0.003925
 340   4   7.958820   6.554807  -0.229380  -0.000325   0.064809  -0.005008
 341   9   6.986870   6.465225  -0.366703  -0.000272   0.064809  -0.004190
 342   2   7.482461   7.005857   2.026390  -0.000226   0.065005  -0.003476
 343   4   8.289833   7.003039   1.880863  -0.000335   0.065005  -0.005152
 344  10   7.409977   7.035349   2.320710  -0.000260   0.065005  -0.004005
 345   4   8.497447   6.975337   0.519575  -0.000656   0.547472  -0.001198
 346   2   7.409890   6.944681   1.107925  -0.000902   0.547472  -0.001647
 347   2   3.720475   6.151600   0.522998  -0.000077   0.066126  -0.001167
 348   5   2.932350   5.967930   0.705462   0.000016   0.066126   0.000249
 349   9   3.793923   6.093979   0.233045  -0.000251   0.066126  -0.003789
 350   2   4.054629   6.597448   2.641810  -0.000086   0.065994  -0.001309
 351   5   3.260733   6.405826   2.787295   0.000001   0.065994   0.000016
 352  10   4.214659   6.654591   2.894603  -0.000271   0.065994  -0.004100
 353   5   2.663318   6.366112   1.979518   0.000791   0.544197   0.001453
 354   2   3.757569   6.443297   1.386070   0.000085   0.544197   0.000157
 355   2   5.832038   1.117840  -1.207190  -0.000816   0.166595  -0.004898
 356   7   6.435130   0.657707  -1.245572  -0.001415   0.166595  -0.008496
 357  12   5.402121   0.520479  -1.050217  -0.000800   0.166595  -0.004802
 358   7   7.041369   0.845194  -1.622876  -0.001180   0.136043  -0.008673
 359   2   6.257479   1.659742  -1.602434  -0.000430   0.191750  -0.002243
 360   2   6.903311   2.530676   5.504595  -0.000808   0.166619  -0.004846
 361   8   7.515687   2.082540   5.539174  -0.001435   0.166619  -0.008612
 362  11   6.482759   1.949675   5.732726  -0.000776   0.166619  -0.004659
 363   8   8.266854   2.452988   5.596960  -0.001059   0.128842  -0.008222
 364   2   7.307190   3.045796   5.528377  -0.000412   0.181610  -0.002267
 365   9   4.426796   6.427501  -0.020356  -0.000277   0.085082  -0.003253
 366   9   5.738563   6.651769  -0.235078  -0.000961   0.199355  -0.004822
 367   2   4.954255   6.635243   0.326640  -0.000483   0.177688  -0.002718
 368   2   6.405883   6.742691   0.023523  -0.000215   0.103946  -0.002069
 369   9   5.884056   2.943706  -1.996304  -0.000298   0.070186  -0.004241
 370   9   5.026355   2.836395  -1.837604  -0.000285   0.070186  -0.004059
 371   2   5.535475   2.535479  -1.722891  -0.000718   0.153398  -0.004684
 372  10   6.209210   4.412210   5.615079  -0.000273   0.070474  -0.003880
 373  10   7.070233   4.519861   5.455120  -0.000314   0.070474  -0.004457
 374   2   6.680762   4.059567   5.482458  -0.000740   0.153896  -0.004809
 375  10   6.698383   7.238351   2.469333  -0.000297   0.085031  -0.003499
 376  10   5.366764   7.135404   2.646513  -0.000988   0.199200  -0.004962
 377   2   6.157310   7.148862   2.094211  -0.000543   0.177610  -0.003059
 378   2   4.719498   6.932857   2.401362  -0.000182   0.103884  -0.001754
 379  11   5.817693   2.060170   6.054669  -0.000476   0.140328  -0.003394
 380   2   6.286666   3.019981   5.713477  -0.000129   0.197877  -0.000650
 381  12   4.554083   0.604369  -1.187406  -0.000405   0.136408  -0.002967
 382   2   5.267119   1.446754  -1.383261  -0.000140   0.192357  -0.000729
 383   3   2.197302  -0.286758   5.317183  -0.000013   0.027115  -0.000471
 384   5   1.765318  -0.042113   5.311302   0.000019   0.027115   0.000693
 385  11   2.447908  -0.304218   5.487930  -0.000049   0.027115  -0.001808
 386   3   3.570564   2.430124   6.233352  -0.000006   0.027115  -0.000227
 387   5   3.120629   2.639254   6.215496   0.000038   0.027115   0.001405
 388  11   3.698026   2.169035   6.321945  -0.000037   0.027115  -0.001356
 389   3   2.465367   0.933022  -0.813868  -0.000014   0.027143  -0.000528
 390   5   2.028323   1.159619  -0.749498   0.000014   0.027143   0.000501
 391  12   2.577042   0.650739  -0.824496  -0.000051   0.027143  -0.001866
 392   3   1.592784  -1.106117   1.467575  -0.000003   0.027143  -0.000124
 393   5   1.167143  -0.852874   1.502132   0.000044   0.027143   0.001619
 394  12   1.782703  -1.205554   1.252375  -0.000036   0.027143  -0.001333
 395   3   3.441253   3.219381   6.044413  -0.000008   0.026637  -0.000299
 396   5   3.004163   3.445785   6.109041  -0.000021   0.026637  -0.000804
 397  13   2.889160   3.725900   6.122436  -0.000051   0.026637  -0.001918
 398   3   2.341148   1.723707  -0.922373  -0.000014   0.026646  -0.000534
 399   5   1.891020   1.932387  -0.940300  -0.000028   0.026646  -0.001060
 400  14   1.759772   2.190340  -1.030312  -0.000066   0.026646  -0.002460
 401   3   1.165450  -1.005670   2.063084   0.000038   0.025059   0.001530
 402   5   0.702461  -0.827121   2.077350  -0.000001   0.025059  -0.000020
 403  15   0.456318  -0.816417   2.252143  -0.000030   0.025059  -0.001210
 404   3   1.612561  -0.397896   4.895276   0.000015   0.025059   0.000596
 405   5   1.155618  -0.211128   4.947842  -0.000007   0.025059  -0.000272
 406  15   0.868722  -0.255820   4.864492  -0.000039   0.025059  -0.001574
 407   5   0.821015  -0.826065   1.747260   0.000104   0.067272   0.001547
 408   3   1.454959  -1.156558   1.791870   0.000108   0.067272   0.001603
 409   5   1.337255  -0.137283   5.136018   0.000087   0.065074   0.001339
 410   3   2.002158  -0.401937   5.159273   0.000079   0.065074   0.001215
 411   5   2.951929   3.055655   6.227504   0.000117   0.083811   0.001393
 412   3   3.632720   2.832579   6.168488   0.000075   0.083811   0.000892
 413   5   1.875328   1.625770  -0.899572   0.000087   0.080943   0.001076
 414   3   2.474115   1.229021  -0.908610   0.000072   0.080943   0.000884
 415   3   3.222238   2.494066  -1.082233  -0.000291   0.166928  -0.001742
 416   9   3.648640   3.074900  -1.308232  -0.000613   0.166928  -0.003674
 417  14   2.602491   2.928564  -1.115202  -0.000406   0.166928  -0.002430
 418   9   4.422372   2.891918  -1.651237  -0.000513   0.136361  -0.003762
 419   3   3.728394   2.091060  -1.274695   0.000009   0.192255   0.000048
 420   3   4.273965   3.921719   5.622586  -0.000294   0.166975  -0.001763
 421  10   4.712492   4.515710   5.463389  -0.000572   0.166975  -0.003424
 422  13   3.665912   4.372234   5.659063  -0.000444   0.166975  -0.002662
 423  10   5.451165   4.506685   5.593668  -0.000562   0.139287  -0.004033
 424   3   4.950921   3.523885   5.816632   0.000021   0.196374   0.000109
 425  11   2.822246  -0.685165   5.500283  -0.000143   0.067314  -0.002126
 426  11   3.493417  -1.375523   5.002933  -0.000385   0.148485  -0.002590
 427  11   4.689701  -1.672672   4.553541  -0.000234   0.148485  -0.001575
 428  11   5.730319  -1.407513   4.407845  -0.000198   0.067314  -0.002947
 429   3   2.770520  -0.983404   4.992517  -0.000288   0.148499  -0.001939
 430   3   3.890274  -1.706924   4.363304  -0.000035   0.148499  -0.000238
 431   3   5.324258  -1.617737   4.033188  -0.000112   0.148499  -0.000755
 432  11   5.087515   2.195452   6.261799  -0.000191   0.071035  -0.002689
 433  11   4.225282   2.064387   6.424029  -0.000164   0.071035  -0.002305
 434   3   4.566394   2.483835   6.150477  -0.000434   0.155035  -0.002797
 435  12   3.055840   0.481163  -1.026072  -0.000156   0.070833  -0.002199
 436  12   3.915340   0.611408  -1.189924  -0.000197   0.070833  -0.002777
 437   3   3.434116   0.952555  -1.055069  -0.000417   0.154687  -0.002697
 438  12   5.297238  -1.991735   1.666244  -0.000124   0.067250  -0.001842
 439  12   4.278998  -2.226551   1.949664  -0.000286   0.148315  -0.001926
 440  12   2.988591  -2.058183   1.792022  -0.000360   0.148315  -0.002425
 441  12   2.159882  -1.582383   1.282969  -0.000147   0.067250  -0.002178
 442   3   5.033064  -2.009674   2.194491  -0.000100   0.148387  -0.000675
 443   3   3.574977  -2.132146   2.363223  -0.000040   0.148387  -0.000268
 444   3   2.278092  -1.650214   1.857930  -0.000269   0.148387  -0.001814
 445  13   2.973693   4.076251   6.094088  -0.000320   0.138290  -0.002318
 446   3   3.916329   3.467639   5.975589   0.000126   0.194937   0.000647
 447  14   1.915774   2.632537  -1.190904  -0.000354   0.140913  -0.002509
 448   3   2.724775   1.853002  -1.084521   0.000154   0.198632   0.000775
 449  15   0.349618  -0.916545   2.678287  -0.000346   0.196320  -0.001763
 450  15   0.568543  -0.693361   4.055807  -0.001315   0.401317  -0.003276
 451   3   1.490146  -1.210345   3.055607   0.000279   0.538269   0.000518
 452   3   1.731618  -0.814317   4.593619   0.000381   0.276496   0.001378
 453   6  14.400152   2.968097   1.893556   0.001204   0.134372   0.008960
 454   6  14.202148   2.559760   0.262865   0.002535   0.279898   0.009056
 455   6  13.308516   2.865683  -1.575426   0.002539   0.279898   0.009072
 456   6  11.940965   4.031318  -2.596494   0.002448   0.279898   0.008746
 457   6  10.621851   5.611432  -2.410324   0.002538   0.279898   0.009067
 458   6   9.855032   7.002475  -1.088027   0.002270   0.279898   0.008109
 459   6   9.933406   7.673116   0.865323   0.002389   0.279898   0.008536
 460   6  10.827037   7.367193   2.703614   0.002548   0.279898   0.009102
 461   6  12.194589   6.201558   3.724681   0.002589   0.279898   0.009251
 462   6  13.513702   4.621444   3.538511   0.002529   0.279898   0.009036
 463   6  14.250468   3.416354   2.605755   0.001108   0.134372   0.008246
 464   4  14.020183   2.387468   1.422691   0.002044   0.278973   0.007327
 465   4  13.497154   2.191216  -0.617563   0.001986   0.278973   0.007119
 466   4  12.280428   2.983050  -2.156162   0.001995   0.278973   0.007152
 467   4  10.834754   4.460517  -2.605414   0.001976   0.278973   0.007083
 468   4   9.712329   6.059274  -1.793719   0.001903   0.278973   0.006820
 469   4   9.341882   7.168650  -0.031119   0.001817   0.278973   0.006513
 470   4   9.864911   7.364902   2.009135   0.001816   0.278973   0.006510
 471   4  11.081636   6.573068   3.547734   0.001952   0.278973   0.006998
 472   4  12.527311   5.095601   3.996986   0.002016   0.278973   0.007225
 473   4  13.649735   3.496844   3.185292   0.001984   0.278973   0.007110
 474   7   9.158022   1.200845  -2.053793  -0.001572   0.168179  -0.009347
 475   7  10.118719   0.487093  -1.576093  -0.003911   0.342879  -0.011407
 476   7  10.778428  -0.132609  -0.658853  -0.001613   0.168179  -0.009589
 477   4  10.184324   1.758498  -2.064624  -0.003063   0.463413  -0.006611
 478   4  11.343178   0.804861  -1.067015  -0.003044   0.463413  -0.006568
 479   8  11.517387   0.840001   4.051872  -0.001693   0.167852  -0.010087
 480   8  11.121299   1.802842   4.806231  -0.003970   0.342166  -0.011602
 481   8  10.304964   2.701040   5.230308  -0.001557   0.167852  -0.009277
 482   4  12.119755   1.825743   3.878900  -0.003209   0.462554  -0.006937
 483   4  11.252656   3.156718   4.721691  -0.003061   0.462554  -0.006617
 484   9   6.919540   6.357958  -0.834565  -0.000826   0.242298  -0.003410
 485   9   7.022481   5.358639  -1.748141  -0.002945   0.489650  -0.006014
 486   9   6.997364   4.057136  -2.134556  -0.001122   0.242298  -0.004630
 487   4   8.403369   6.168422  -1.167678  -0.000945   0.676591  -0.001396
 488   4   8.459269   4.515804  -2.101426  -0.002773   0.676591  -0.004098
 489  10   8.090293   5.508425   4.821383  -0.001193   0.244005  -0.004889
 490  10   7.922293   6.559008   3.961068  -0.003036   0.493232  -0.006156
 491  10   7.491614   7.125947   2.792657  -0.000783   0.244005  -0.003209
 492   4   9.445831   5.828198   4.183817  -0.002709   0.681089  -0.003978
 493   4   9.015876   6.989857   2.726842  -0.000896   0.681089  -0.001316
 494   5   2.413526   5.885487   0.584266  -0.000026   0.087757  -0.000297
 495   9   3.310594   5.867930   0.165723  -0.000120   0.087757  -0.001365
 496  14   2.256002   5.804107   0.334613  -0.000207   0.087757  -0.002357
 497   9   3.808713   6.162152   0.009678  -0.000004   0.015077  -0.000284
 498   5   2.504517   6.105341   0.666329   0.000108   0.021399   0.005062
 499   5   2.809192   6.411653   3.052166  -0.000030   0.087879  -0.000343
 500  10   3.789742   6.505185   3.161692  -0.000138   0.087879  -0.001570
 501  13   2.737146   6.447536   3.347618  -0.000148   0.087879  -0.001685
 502  10   4.292939   6.804849   3.036769  -0.000006   0.008566  -0.000757
 503   5   2.856190   6.574145   2.888129   0.000073   0.012159   0.005963
 504  11   3.554349   1.729473   6.452740  -0.000397   0.210232  -0.001888
 505  11   2.860676   0.435404   6.088515  -0.001553   0.431870  -0.003596
 506   5   2.329558   1.818090   6.243211   0.000460   0.574362   0.000801
 507   5   1.624780   0.352422   5.683247   0.000499   0.296145   0.001685
 508  12   1.853885  -1.138138   0.781475  -0.000386   0.210413  -0.001834
 509  12   2.208429  -0.197877  -0.351105  -0.001546   0.432274  -0.003576
 510   5   1.023407  -0.238601   0.550686   0.000473   0.574829   0.000823
 511   5   1.549769   0.889689  -0.638267   0.000507   0.296401   0.001712
 512  13   2.012908   6.619622   3.371188  -0.000116   0.066589  -0.001748
 513  13   0.939522   6.587441   3.415541  -0.000216   0.146691  -0.001469
 514  13  -0.156482   6.116002   3.935928  -0.000273   0.146691  -0.001863
 515  13  -0.627826   5.295090   4.829360  -0.000320   0.146691  -0.002181
 516  13  -0.293265   4.440367   5.752291  -0.000225   0.146691  -0.001532
 517  13   0.718553   3.880496   6.349829  -0.000251   0.146691  -0.001711
 518  13   2.018558   3.830763   6.392206  -0.000383   0.146691  -0.002611
 519   5   1.609156   6.557081   2.948074   0.000044   0.147080   0.000298
 520   5   0.193664   6.313529   3.224423   0.000029   0.147080   0.000198
 521   5  -0.732582   5.549796   4.059939  -0.000082   0.147080  -0.000561
 522   5  -0.813415   4.559556   5.133343  -0.000023   0.147080  -0.000154
 523   5  -0.017754   3.723583   6.031885   0.000044   0.147080   0.000299
 524   5   1.348449   3.363329   6.410052  -0.000194   0.147080  -0.001317
 525   5   2.522830   3.472074   6.281866  -0.000050   0.081353  -0.000613
 526  14   1.248606   2.292487  -1.133156  -0.000114   0.066535  -0.001716
 527  14   0.206543   2.211515  -0.886262  -0.000297   0.146549  -0.002027
 528  14  -0.873339   2.715520  -0.365048  -0.000235   0.146549  -0.001603
 529  14  -1.360632   3.759486   0.238699  -0.000261   0.146549  -0.001784
 530  14  -1.068253   4.942612   0.693186  -0.000308   0.146549  -0.002098
 531  14  -0.108453   5.810668   0.823926  -0.000216   0.146549  -0.001477
 532  14   1.150279   6.030388   0.580724  -0.000333   0.146549  -0.002271
 533   5   0.946242   1.865805  -0.864414  -0.000242   0.146982  -0.001649
 534   5  -0.435183   2.028041  -0.415441   0.000007   0.146982   0.000049
 535   5  -1.361254   2.942765   0.249319   0.000021   0.146982   0.000141
 536   5  -1.476432   4.258792   0.874648  -0.000077   0.146982  -0.000523
 537   5  -0.736498   5.470872   1.220469  -0.000068   0.146982  -0.000462
 538   5   0.574472   6.113659   1.154013   0.000054   0.146982   0.000368
 539   5   1.717540   6.106659   0.839939   0.000051   0.081287   0.000631
 540  15   0.410743  -0.069546   5.080530  -0.000138   0.069412  -0.001986
 541  15  -0.201302   0.764171   5.512218  -0.000368   0.154407  -0.002382
 542  15  -1.142743   1.722009   5.336651  -0.000229   0.154407  -0.001481
 543  15  -1.964357   2.255573   4.401318  -0.000357   0.154407  -0.002314
 544  15  -2.320582   2.140453   3.099612  -0.000380   0.154407  -0.002460
 545  15  -2.061592   1.425067   1.979017  -0.000282   0.154407  -0.001829
 546  15  -1.296317   0.410298   1.510844  -0.000320   0.154407  -0.002073
 547  15  -0.346624  -0.477051   1.892002  -0.000420   0.154407  -0.002721
 548   5   0.554774   0.410723   5.408645  -0.000237   0.151865  -0.001560
 549   5  -0.399211   1.560845   5.695106  -0.000101   0.151865  -0.000662
 550   5  -1.446001   2.446344   5.035525   0.000029   0.151865   0.000190
 551   5  -2.145327   2.694790   3.707313  -0.000131   0.151865  -0.000862
 552   5  -2.203059   2.201688   2.269105  -0.000122   0.151865  -0.000806
 553   5  -1.594916   1.174432   1.325795  -0.000013   0.151865  -0.000084
 554   5  -0.576676   0.045075   1.274131  -0.000171   0.151865  -0.001124
 555   5   0.268580  -0.655579   1.843883  -0.000071   0.084802  -0.000833
 556  12   5.231089  -0.088587  -1.175217  -0.000394   0.250439  -0.001573
 557  12   5.460468  -1.082973  -0.662944  -0.001515   0.500815  -0.003025
 558  12   5.773679  -1.758932   0.512579  -0.001185   0.500815  -0.002367
 559   7   6.786276  -0.287545  -1.285566  -0.002913   0.500815  -0.005817
 560   7   7.090098  -1.330551  -0.415676  -0.003077   0.500815  -0.006144
 561   7   7.336447  -1.661476   0.649050  -0.000960   0.250439  -0.003833
 562  11   6.466356  -1.048748   4.792747  -0.000239   0.251973  -0.000949
 563  11   6.535300  -0.312060   5.671937  -0.001426   0.503895  -0.002831
 564  11   6.447089   1.013101   6.114935  -0.001447   0.503895  -0.002871
 565   8   7.970196  -0.600861   4.873382  -0.002776   0.503895  -0.005508
 566   8   7.988190   0.503622   5.733542  -0.003144   0.503895  -0.006240
 567   8   7.865136   1.639253   5.858586  -0.001136   0.251973  -0.004509
 568  14   2.146202   5.830479  -0.112307   0.000085   0.251350   0.000337
 569  14   2.089263   5.099184  -0.977209  -0.000956   0.502595  -0.001902
 570  14   2.191315   3.792196  -1.416358  -0.000895   0.502595  -0.001780
 571   9   3.608203   5.782273  -0.735638  -0.001016   0.502595  -0.002021
 572   9   3.605039   4.689837  -1.583018  -0.001403   0.502595  -0.002792
 573   9   3.738235   3.570833  -1.710215  -0.000364   0.251350  -0.001448
 574  13   3.395117   4.919941   5.868475  -0.000177   0.251933  -0.000704
 575  13   3.163066   5.903276   5.349059  -0.001035   0.503762  -0.002055
 576  13   2.852116   6.564443   4.172658  -0.000593   0.503762  -0.001177
 577  10   4.800191   5.514271   5.416986  -0.001214   0.503762  -0.002410
 578  10   4.495213   6.542802   4.541279  -0.001315   0.503762  -0.002610
 579  10   4.252370   6.862264   3.478471  -0.000185   0.251933  -0.000735
 =====================================================

              2544149  WORDS OF DYNAMIC MEMORY USED
 EXECUTION OF GAMESS TERMINATED NORMALLY Fri Nov 25 06:50:21 2016
 DDI: 263640 bytes (0.3 MB / 0 MWords) used by master data server.

 ----------------------------------------
 CPU timing information for all processes
 ========================================
 0: 651.128 + 0.304 = 651.432
 ----------------------------------------
 ddikick.x: exited gracefully.
