----- GAMESS execution script -----

          ******************************************************
          *         GAMESS VERSION =  5 DEC 2014 (R1)          *
          *             FROM IOWA STATE UNIVERSITY             *
          * M.W.SCHMIDT, K.K.BALDRIDGE, J.A.BOATZ, S.T.ELBERT, *
          *   M.S.GORDON, J.H.JENSEN, S.KOSEKI, N.MATSUNAGA,   *
          *          K.A.NGUYEN, S.J.SU, T.L.WINDUS,           *
          *       TOGETHER WITH M.DUPUIS, J.A.MONTGOMERY       *
          *         J.COMPUT.CHEM.  14, 1347-1363(1993)        *
          **************** 64 BIT LINUX VERSION ****************

 EXECUTION OF GAMESS BEGUN Fri Nov 25 06:50:24 2016

            ECHO OF THE FIRST FEW INPUT CARDS -
 INPUT CARD>! SELECT RESTRICTED HARTREE-FOCK AS DEFAULT                                     
 INPUT CARD>$contrl scftyp=rhf $end                                                         
 INPUT CARD>                                                                                
 INPUT CARD>! THEORY: HF OR DFT                                                             
 INPUT CARD> $contrl mplevl=0 $end                                                          
 INPUT CARD>                                                                                
 INPUT CARD> $system timlim=10000 mwords=20 $end                                            
 INPUT CARD> $SCF DIRSCF=.TRUE. $end                                                        
 INPUT CARD>                                                                                
 INPUT CARD>                                                                                
 INPUT CARD>! BASIS SETS                                                                    
 INPUT CARD>! 6-311G(d,p)                                                                   
 INPUT CARD> $BASIS GBASIS=N311 NGAUSS=6 NDFUNC=1 NPFUNC=1 $END                             
 INPUT CARD>                                                                                
 INPUT CARD>! One of the following                                                          
 INPUT CARD> $guess guess=HUCKEL $end                                                       
 INPUT CARD>                                                                                
 INPUT CARD> $statpt projct=.FALSE. $end                                                    
 INPUT CARD> $STATPT IFREEZ(1)=1,2,3 $END                                                   
 INPUT CARD>                                                                                
 INPUT CARD>! Optimize the geometry with COSMO effects                                      
 INPUT CARD> $statpt opttol=0.0005 nstep=50 $end                                            
 INPUT CARD> $contrl nzvar=1 $end                                                           
 INPUT CARD> $zmat dlc=.t. auto=.t. $end                                                    
 INPUT CARD> $contrl runtyp=OPTIMIZE maxit=200 $end                                         
 INPUT CARD>                                                                                
 INPUT CARD>! Run COSMO on perfect conductor                                                
 INPUT CARD> $COSGMS PRFCND=.TRUE. $end                                                     
 INPUT CARD>                                                                                
 INPUT CARD>! Specifying RSOLV                                                              
 INPUT CARD> $COSGMS COSRAD = 1.4 $end                                                      
 INPUT CARD>                                                                                
 INPUT CARD>! available memory                                                              
 INPUT CARD> $SYSTEM MWORDS=40 $END                                                         
 INPUT CARD>                                                                                
 INPUT CARD> $DATA                                                                          
 INPUT CARD>Naphthacene, ID: C92240                                                         
 INPUT CARD>C1                                                                              
 INPUT CARD>C      6.0      4.1682000000    3.9432000000    4.4582000000                    
 INPUT CARD>C      6.0      3.0927000000    3.0057000000    4.5460000000                    
 INPUT CARD>C      6.0      2.0052000000    3.1087000000    3.6530000000                    
 INPUT CARD>C      6.0      3.1335000000    1.9889000000    5.5233000000                    
 INPUT CARD>C      6.0      5.2559000000    3.8345000000    5.3505000000                    
 INPUT CARD>C      6.0      4.1216000000    4.9614000000    3.4823000000                    
 INPUT CARD>C      6.0      1.9697000000    4.1125000000    2.6955000000                    
 INPUT CARD>C      6.0      4.2071000000    1.8915000000    6.3972000000                    
 INPUT CARD>C      6.0      5.2882000000    2.8282000000    6.3069000000                    
 INPUT CARD>C      6.0      3.0451000000    5.0563000000    2.6104000000                    
 INPUT CARD>C      6.0      0.8648000000    4.2363000000    1.7843000000                    
 INPUT CARD>C      6.0      4.2616000000    0.8643000000    7.4012000000                    
   40000000 WORDS OF MEMORY AVAILABLE

     BASIS OPTIONS
     -------------
     GBASIS=N311         IGAUSS=       6      POLAR=POPN311 
     NDFUNC=       1     NFFUNC=       0     DIFFSP=       F
     NPFUNC=       1      DIFFS=       F     BASNAM=        


     RUN TITLE
     ---------
 Naphthacene, ID: C92240                                                         

 THE POINT GROUP OF THE MOLECULE IS C1      
 THE ORDER OF THE PRINCIPAL AXIS IS     0

 ATOM      ATOMIC                      COORDINATES (BOHR)
           CHARGE         X                   Y                   Z
 C           6.0     7.8767558620        7.4515675148        8.4247763985
 C           6.0     5.8443555622        5.6799494013        8.5906943402
 C           6.0     3.7892785506        5.8745911780        6.9031690331
 C           6.0     5.9214563825        3.7584760170       10.4375235480
 C           6.0     9.9322108189        7.2461542999       10.1109788973
 C           6.0     7.7886946310        9.3756865155        6.5805928070
 C           6.0     3.7221932780        7.7714981245        5.0937563999
 C           6.0     7.9502662029        3.5744167058       12.0889550887
 C           6.0     9.9932489683        5.3445230385       11.9183128320
 C           6.0     5.7544046052        9.5550215117        4.9329407183
 C           6.0     1.6342350342        8.0054462018        3.3718380799
 C           6.0     8.0532562693        1.6332901712       13.9862399803
 C           6.0    12.0781836505        5.1043388654       13.6423098506
 C           6.0     5.6474461143       11.4899119505        3.0297976761
 C           6.0     1.5937948980        9.8787315734        1.6223297605
 C           6.0    10.0535312273        1.4779546950       15.5815466592
 C           6.0    12.1067185129        3.2369116444       15.3988101561
 C           6.0     3.6396122524       11.6465702349        1.4433727094
 H           1.0     2.2351678983        4.5096420971        7.0348829345
 H           1.0     4.3550625113        2.4075109084       10.5622454632
 H           1.0    11.4910457861        8.6056231755        9.9811547219
 H           1.0     9.3471516531       10.7364781992        6.4581385630
 H           1.0     0.0823920531        6.6416309564        3.5107329400
 H           1.0     6.4789255489        0.2940413637       14.1060486079
 H           1.0    13.6339950562        6.4628628780       13.4964230043
 H           1.0     7.2223437525       12.8280269225        2.8975168570
 H           1.0     0.0000000000       10.0609011586        0.3153952674
 H           1.0    10.1321438284        0.0000000000       17.0277539576
 H           1.0    13.6948442330        3.0560648673       16.7129256080
 H           1.0     3.5549525281       13.1267926011        0.0000000000

          INTERNUCLEAR DISTANCES (ANGS.)




     $CONTRL OPTIONS
     ---------------
 SCFTYP=RHF          RUNTYP=OPTIMIZE     EXETYP=RUN     
 MPLEVL=       0     CITYP =NONE         CCTYP =NONE         VBTYP =NONE    
 DFTTYP=NONE         TDDFT =NONE    
 MULT  =       1     ICHARG=       0     NZVAR =       1     COORD =UNIQUE  
 PP    =NONE         RELWFN=NONE         LOCAL =NONE         NUMGRD=       F
 ISPHER=      -1     NOSYM =       0     MAXIT =     200     UNITS =ANGS    
 PLTORB=       F     MOLPLT=       F     AIMPAC=       F     FRIEND=        
 NPRINT=       7     IREST =       0     GEOM  =INPUT   
 NORMF =       0     NORMP =       0     ITOL  =      20     ICUT  =       9
 INTTYP=BEST         GRDTYP=BEST         QMTTOL= 1.0E-06

     $SYSTEM OPTIONS
     ---------------
  REPLICATED MEMORY=    40000000 WORDS (ON EVERY NODE).
 DISTRIBUTED MEMDDI=           0 MILLION WORDS IN AGGREGATE,
 MEMDDI DISTRIBUTED OVER   1 PROCESSORS IS           0 WORDS/PROCESSOR.
 TOTAL MEMORY REQUESTED ON EACH PROCESSOR=    40000000 WORDS.
 TIMLIM=       10000.00 MINUTES, OR       6.9 DAYS.
 PARALL= F  BALTYP=  DLB     KDIAG=    0  COREFL= F
 MXSEQ2=     300 MXSEQ3=     150  mem10=         0

     $COSGMS OPTIONS
     ---------------
     EPSI  =   INFTY     NSPA  =      92     COSRAD=    1.40
     DISEX =   10.00     OUTCHG=DBLCAV       COSBUG=       F
     COSWRT=       F     DCOSMO=       F

     SYMMETRY COORDINATES WILL NOT BE USED FOR 
     THE COSMO CALCULATION, EVEN IF SPECIFIED:
         -- SWITCHING TO C1 POINT GROUP --


     DEFINITION OF CAVITY
     ---------------------------
     ATOM         COORDINATES           RADIUS 
     1    7.8768    7.4516    8.4248    2.0000
     2    5.8444    5.6799    8.5907    2.0000
     3    3.7893    5.8746    6.9032    2.0000
     4    5.9215    3.7585   10.4375    2.0000
     5    9.9322    7.2462   10.1110    2.0000
     6    7.7887    9.3757    6.5806    2.0000
     7    3.7222    7.7715    5.0938    2.0000
     8    7.9503    3.5744   12.0890    2.0000
     9    9.9932    5.3445   11.9183    2.0000
    10    5.7544    9.5550    4.9329    2.0000
    11    1.6342    8.0054    3.3718    2.0000
    12    8.0533    1.6333   13.9862    2.0000
    13   12.0782    5.1043   13.6423    2.0000
    14    5.6474   11.4899    3.0298    2.0000
    15    1.5938    9.8787    1.6223    2.0000
    16   10.0535    1.4780   15.5815    2.0000
    17   12.1067    3.2369   15.3988    2.0000
    18    3.6396   11.6466    1.4434    2.0000
    19    2.2352    4.5096    7.0349    1.3000
    20    4.3551    2.4075   10.5622    1.3000
    21   11.4910    8.6056    9.9812    1.3000
    22    9.3472   10.7365    6.4581    1.3000
    23    0.0824    6.6416    3.5107    1.3000
    24    6.4789    0.2940   14.1060    1.3000
    25   13.6340    6.4629   13.4964    1.3000
    26    7.2223   12.8280    2.8975    1.3000
    27    0.0000   10.0609    0.3154    1.3000
    28   10.1321    0.0000   17.0278    1.3000
    29   13.6948    3.0561   16.7129    1.3000
    30    3.5550   13.1268    0.0000    1.3000

          ----------------
          PROPERTIES INPUT
          ----------------

     MOMENTS            FIELD           POTENTIAL          DENSITY
 IEMOM =       1   IEFLD =       0   IEPOT =       0   IEDEN =       0
 WHERE =COMASS     WHERE =NUCLEI     WHERE =NUCLEI     WHERE =NUCLEI  
 OUTPUT=BOTH       OUTPUT=BOTH       OUTPUT=BOTH       OUTPUT=BOTH    
 IEMINT=       0   IEFINT=       0                     IEDINT=       0
                                                       MORB  =       0
          EXTRAPOLATION IN EFFECT
          SOSCF IN EFFECT
 ORBITAL PRINTING OPTION: NPREO=     1   414     2     1

     -------------------------------
     INTEGRAL TRANSFORMATION OPTIONS
     -------------------------------
     NWORD  =            0
     CUTOFF = 1.0E-09     MPTRAN =       0
     DIRTRF =       T     AOINTS =DUP     

          ----------------------
          INTEGRAL INPUT OPTIONS
          ----------------------
 NOPK  =       1 NORDER=       0 SCHWRZ=       T


 -----------------------------------------------
  STATISTICS ON AUTOMATIC COORDINATE GENERATION 
 -----------------------------------------------
  NUMBER OF USER SPECIFIED BONDS                             0
  NUMBER OF BONDS                                           33
  NUMBER OF ANGLES                                          54
  NUMBER OF TORSIONS                                        84
  NUMBER OF EXTRA COORD.                                     0
  NUMBER OF EXTRA COORD. FOR CONSTRAINTS                     0
  NUMBER OF CONSTRAINED COORD.                               0

  TOTAL NUMBER OF PRIMITIVES                               171
 -----------------------------------------------

   --- ENCODED Z MATRIX ---
 COORD  TYPE   I   J   K   L   M   N
    1      1    1   6
    2      1    1   2
    3      1    1   5
    4      1    2   3
    5      1    2   4
    6      1    3  19
    7      1    3   7
    8      1    4  20
    9      1    4   8
   10      1    5   9
   11      1    5  21
   12      1    6  22
   13      1    6  10
   14      1    7  11
   15      1    7  10
   16      1    8  12
   17      1    8   9
   18      1    9  13
   19      1   10  14
   20      1   11  23
   21      1   11  15
   22      1   12  24
   23      1   12  16
   24      1   13  25
   25      1   13  17
   26      1   14  26
   27      1   14  18
   28      1   15  27
   29      1   15  18
   30      1   16  28
   31      1   16  17
   32      1   17  29
   33      1   18  30
   34      2    1   2   3
   35      2    1   6  10
   36      2    1   5  21
   37      2    1   6  22
   38      2    1   5   9
   39      2    1   2   4
   40      2    2   3  19
   41      2    2   1   6
   42      2    2   1   5
   43      2    2   3   7
   44      2    2   4   8
   45      2    2   4  20
   46      2    3   7  11
   47      2    3   2   4
   48      2    3   7  10
   49      2    4   8   9
   50      2    4   8  12
   51      2    5   9   8
   52      2    5   1   6
   53      2    5   9  13
   54      2    6  10  14
   55      2    6  10   7
   56      2    7  10  14
   57      2    7  11  15
   58      2    7  11  23
   59      2    7   3  19
   60      2    8   4  20
   61      2    8   9  13
   62      2    8  12  16
   63      2    8  12  24
   64      2    9   8  12
   65      2    9   5  21
   66      2    9  13  17
   67      2    9  13  25
   68      2   10   7  11
   69      2   10   6  22
   70      2   10  14  18
   71      2   10  14  26
   72      2   11  15  18
   73      2   11  15  27
   74      2   12  16  17
   75      2   12  16  28
   76      2   13  17  29
   77      2   13  17  16
   78      2   14  18  30
   79      2   14  18  15
   80      2   15  18  30
   81      2   15  11  23
   82      2   16  17  29
   83      2   16  12  24
   84      2   17  16  28
   85      2   17  13  25
   86      2   18  15  27
   87      2   18  14  26
   88      3    1   5   9   8
   89      3    1   6  10   7
   90      3    1   2   3  19
   91      3    1   2   4   8
   92      3    1   2   4  20
   93      3    1   2   3   7
   94      3    1   6  10  14
   95      3    1   5   9  13
   96      3    2   1   5   9
   97      3    2   4   8  12
   98      3    2   1   6  22
   99      3    2   1   6  10
  100      3    2   1   5  21
  101      3    2   4   8   9
  102      3    2   3   7  10
  103      3    2   3   7  11
  104      3    3   7  10  14
  105      3    3   7  10   6
  106      3    3   7  11  15
  107      3    3   7  11  23
  108      3    3   2   4  20
  109      3    3   2   1   6
  110      3    3   2   1   5
  111      3    3   2   4   8
  112      3    4   8  12  16
  113      3    4   8  12  24
  114      3    4   8   9  13
  115      3    4   8   9   5
  116      3    4   2   3  19
  117      3    4   2   1   5
  118      3    4   2   1   6
  119      3    4   2   3   7
  120      3    5   1   6  10
  121      3    5   1   6  22
  122      3    5   9  13  17
  123      3    5   9  13  25
  124      3    5   9   8  12
  125      3    6   1   5   9
  126      3    6  10   7  11
  127      3    6  10  14  18
  128      3    6   1   5  21
  129      3    6  10  14  26
  130      3    7  11  15  18
  131      3    7  11  15  27
  132      3    7  10  14  18
  133      3    7  10  14  26
  134      3    7  10   6  22
  135      3    8   9   5  21
  136      3    8  12  16  17
  137      3    8  12  16  28
  138      3    8   9  13  17
  139      3    8   9  13  25
  140      3    9  13  17  29
  141      3    9  13  17  16
  142      3    9   8   4  20
  143      3    9   8  12  24
  144      3    9   8  12  16
  145      3   10  14  18  30
  146      3   10  14  18  15
  147      3   10   7   3  19
  148      3   10   7  11  23
  149      3   10   7  11  15
  150      3   11   7   3  19
  151      3   11   7  10  14
  152      3   11  15  18  30
  153      3   11  15  18  14
  154      3   12   8   4  20
  155      3   12   8   9  13
  156      3   12  16  17  29
  157      3   12  16  17  13
  158      3   13  17  16  28
  159      3   13   9   5  21
  160      3   14  18  15  27
  161      3   14  10   6  22
  162      3   15  18  14  26
  163      3   16  17  13  25
  164      3   17  16  12  24
  165      3   18  15  11  23
  166      3   23  11  15  27
  167      3   24  12  16  28
  168      3   25  13  17  29
  169      3   26  14  18  30
  170      3   27  15  18  30
  171      3   28  16  17  29

          INDEP./SYM. INTERNAL COORDINATES
          --------------------------------
 CRD  1=  -0.2077 (  1) -0.2078 (  3)  0.2082 (  4)  0.2082 (  5)  0.2220 (  7)
           0.2220 (  9) -0.2216 ( 10) -0.2215 ( 13)  0.1050 ( 21)  0.1050 ( 23)
          -0.1049 ( 25) -0.1049 ( 27) -0.1439 ( 34) -0.1439 ( 39)  0.1436 ( 41)
           0.1435 ( 42)  0.1985 ( 46)  0.2878 ( 47)  0.1985 ( 50) -0.2871 ( 52)
          -0.1985 ( 53) -0.1985 ( 54)  0.1574 ( 56)  0.1574 ( 61) -0.1576 ( 64)
          -0.1576 ( 68)
 CRD  2=   0.1476 ( 88) -0.1476 ( 89)  0.1466 ( 91) -0.1466 ( 93) -0.2432 ( 94)
           0.2432 ( 95) -0.1470 ( 96) -0.2427 ( 97)  0.1471 ( 99) -0.1473 (101)
           0.1473 (102)  0.2427 (103) -0.1445 (106) -0.1277 (110)  0.2764 (111)
           0.1445 (112)  0.1276 (118) -0.2763 (119)  0.2767 (120) -0.1443 (122)
          -0.2767 (125)  0.1444 (127)
 CRD  3=   0.2700 (  1)  0.2701 (  3)  0.2694 (  4)  0.2692 (  5)  0.2175 (  7)
           0.2174 (  9)  0.2176 ( 10)  0.2176 ( 13)  0.2133 ( 14)  0.2132 ( 16)
           0.2141 ( 18)  0.2140 ( 19)  0.1230 ( 35)  0.1229 ( 38)  0.1230 ( 43)
           0.1231 ( 44)  0.1104 ( 46)  0.1349 ( 47)  0.1102 ( 50)  0.1340 ( 52)
           0.1115 ( 53)  0.1113 ( 54)
 CRD  4=  -0.1524 (  1)  0.1522 (  3)  0.1526 (  4) -0.1528 (  5)  0.1860 ( 14)
          -0.1862 ( 16)  0.1858 ( 18) -0.1859 ( 19)  0.1141 ( 21) -0.1142 ( 23)
           0.1141 ( 25) -0.1142 ( 27)  0.1322 ( 34) -0.1322 ( 39) -0.1323 ( 41)
           0.1324 ( 42)  0.2812 ( 46) -0.1818 ( 48)  0.1819 ( 49) -0.2813 ( 50)
          -0.1818 ( 51)  0.2811 ( 53) -0.2811 ( 54)  0.1818 ( 55)
 CRD  5=  -0.1171 ( 90) -0.1191 ( 91) -0.1171 ( 92) -0.1192 ( 93) -0.1196 ( 96)
          -0.1170 ( 98) -0.1196 ( 99) -0.1170 (100)  0.1737 (104)  0.1950 (105)
          -0.1117 (106) -0.1186 (107) -0.1171 (108)  0.2240 (109)  0.2239 (110)
          -0.1191 (111) -0.1116 (112) -0.1187 (113)  0.1737 (114)  0.1950 (115)
          -0.1171 (116)  0.2239 (117)  0.2240 (118) -0.1192 (119) -0.1196 (120)
          -0.1170 (121) -0.1119 (122) -0.1188 (123)  0.1738 (124) -0.1197 (125)
           0.1738 (126) -0.1119 (127) -0.1170 (128) -0.1187 (129)  0.1526 (151)
           0.1033 (153)  0.1525 (155)  0.1033 (157)
 CRD  6=  -0.1837 ( 14) -0.1838 ( 16)  0.1828 ( 18)  0.1828 ( 19) -0.1440 ( 34)
          -0.1596 ( 36) -0.1597 ( 37) -0.1441 ( 39)  0.1602 ( 40)  0.1440 ( 41)
           0.1440 ( 42)  0.1601 ( 45) -0.2065 ( 46)  0.2881 ( 47)  0.1778 ( 48)
           0.1778 ( 49) -0.2064 ( 50) -0.1774 ( 51) -0.2880 ( 52)  0.2057 ( 53)
           0.2058 ( 54) -0.1774 ( 55) -0.1185 ( 59) -0.1184 ( 60)  0.1182 ( 65)
           0.1184 ( 69)
 CRD  7=  -0.2482 (  7)  0.2482 (  9)  0.2518 ( 10) -0.2518 ( 13) -0.2468 ( 14)
          -0.1404 ( 15)  0.2469 ( 16)  0.1404 ( 17)  0.2455 ( 18) -0.2455 ( 19)
          -0.1683 ( 36)  0.1684 ( 37)  0.1657 ( 40) -0.1656 ( 45) -0.1376 ( 46)
           0.1376 ( 50)  0.1390 ( 53) -0.1391 ( 54) -0.1205 ( 59)  0.1204 ( 60)
           0.1230 ( 65) -0.1231 ( 69)  0.1278 ( 81) -0.1278 ( 83) -0.1274 ( 85)
           0.1274 ( 87)
 CRD  8=  -0.1532 (  1)  0.1533 (  3)  0.1538 (  4) -0.1538 (  5) -0.2269 (  7)
           0.2269 (  9) -0.2230 ( 10)  0.2230 ( 13)  0.1006 ( 14) -0.1005 ( 16)
           0.1043 ( 18) -0.1044 ( 19) -0.1063 ( 21)  0.1064 ( 23) -0.1051 ( 25)
           0.1050 ( 27)  0.1379 ( 34)  0.1589 ( 36) -0.1588 ( 37) -0.1379 ( 39)
           0.1615 ( 40) -0.1385 ( 41)  0.1384 ( 42) -0.1615 ( 45) -0.1044 ( 48)
           0.1043 ( 49) -0.1051 ( 51)  0.1053 ( 55) -0.1855 ( 56) -0.1676 ( 59)
           0.1675 ( 60)  0.1854 ( 61) -0.1866 ( 64) -0.1653 ( 65)  0.1866 ( 68)
           0.1652 ( 69) -0.1021 ( 72)  0.1020 ( 74) -0.1019 ( 77)  0.1019 ( 79)
 CRD  9=   0.2149 (  1)  0.2394 (  2)  0.2148 (  3)  0.2141 (  4)  0.2141 (  5)
          -0.1266 (  7) -0.1267 (  9) -0.1267 ( 10) -0.1267 ( 13) -0.1207 ( 14)
          -0.1273 ( 15) -0.1208 ( 16) -0.1274 ( 17) -0.1209 ( 18) -0.1208 ( 19)
           0.2279 ( 36)  0.2280 ( 37)  0.2273 ( 40)  0.2273 ( 45) -0.1032 ( 46)
           0.1523 ( 47) -0.1032 ( 50)  0.1528 ( 52) -0.1035 ( 53) -0.1035 ( 54)
          -0.2266 ( 59) -0.2266 ( 60) -0.2272 ( 65) -0.2272 ( 69)
 CRD 10=   0.1272 ( 88)  0.1273 ( 89)  0.1266 ( 91)  0.1266 ( 93)  0.2235 ( 94)
           0.2234 ( 95) -0.1265 ( 96) -0.2230 ( 97) -0.1265 ( 99) -0.1269 (101)
          -0.1269 (102) -0.2229 (103)  0.2248 (106)  0.1266 (111)  0.2248 (112)
           0.1266 (119) -0.1265 (120) -0.2245 (122) -0.1264 (125) -0.2243 (127)
          -0.1318 (130) -0.1762 (131) -0.1292 (132) -0.1320 (136) -0.1763 (137)
          -0.1294 (138)  0.1764 (140)  0.1321 (141)  0.1297 (144)  0.1763 (145)
           0.1320 (146)  0.1297 (149) -0.1175 (150) -0.1174 (154)  0.1179 (159)
           0.1180 (161)
 CRD 11=  -0.1395 (  1) -0.1395 (  3)  0.1400 (  4)  0.1401 (  5) -0.1310 (  7)
          -0.1312 (  9)  0.1314 ( 10)  0.1314 ( 13)  0.2049 ( 14)  0.2048 ( 16)
          -0.2046 ( 18) -0.2047 ( 19) -0.1038 ( 36) -0.1038 ( 37)  0.1042 ( 40)
           0.1043 ( 45)  0.1016 ( 47) -0.1169 ( 48) -0.1169 ( 49)  0.1173 ( 51)
          -0.1015 ( 52)  0.1173 ( 55) -0.1490 ( 56)  0.1168 ( 58) -0.1864 ( 59)
          -0.1864 ( 60) -0.1490 ( 61)  0.1173 ( 63)  0.1487 ( 64)  0.1863 ( 65)
          -0.1168 ( 67)  0.1487 ( 68)  0.1863 ( 69) -0.1168 ( 71) -0.1327 ( 72)
          -0.1325 ( 74)  0.1328 ( 77)  0.1328 ( 79)
 CRD 12=   0.2486 (  2)  0.1880 ( 15)  0.1897 ( 17) -0.1904 ( 21) -0.1906 ( 23)
          -0.1917 ( 25) -0.1907 ( 27) -0.1391 ( 28) -0.2581 ( 29) -0.1397 ( 30)
          -0.2581 ( 31) -0.1396 ( 32) -0.1389 ( 33)  0.1996 ( 58)  0.2007 ( 63)
           0.2015 ( 67)  0.2001 ( 71)  0.1141 ( 72)  0.1150 ( 74)  0.1149 ( 77)
           0.1140 ( 79) -0.1386 ( 80) -0.1226 ( 81) -0.1390 ( 82) -0.1224 ( 83)
          -0.1397 ( 84) -0.1234 ( 85) -0.1388 ( 86) -0.1230 ( 87)
 CRD 13=  -0.1421 ( 15)  0.1425 ( 17)  0.2231 ( 21) -0.2213 ( 23) -0.2224 ( 25)
           0.2233 ( 27)  0.1646 ( 28)  0.2792 ( 29) -0.1639 ( 30) -0.2766 ( 31)
          -0.1643 ( 32)  0.1651 ( 33)  0.1027 ( 57) -0.2167 ( 58) -0.1034 ( 62)
           0.2158 ( 63) -0.1030 ( 66)  0.2164 ( 67)  0.1026 ( 70) -0.2167 ( 71)
          -0.1247 ( 72)  0.1247 ( 74)  0.1253 ( 77) -0.1254 ( 79)  0.1483 ( 80)
           0.1139 ( 81) -0.1475 ( 82) -0.1124 ( 83) -0.1481 ( 84) -0.1134 ( 85)
           0.1483 ( 86)  0.1141 ( 87)
 CRD 14=  -0.1130 ( 88)  0.1129 ( 89)  0.1342 ( 94) -0.1343 ( 95) -0.1341 ( 97)
          -0.1130 (101)  0.1131 (102)  0.1344 (103) -0.1924 (104) -0.1717 (105)
           0.1002 (106)  0.1257 (107) -0.1004 (112) -0.1259 (113)  0.1925 (114)
           0.1718 (115) -0.1004 (122) -0.1259 (123)  0.1924 (124) -0.1925 (126)
           0.1006 (127)  0.1260 (129)  0.1216 (132)  0.1470 (133)  0.1177 (134)
          -0.1178 (135) -0.1214 (138) -0.1469 (139) -0.1177 (142) -0.1469 (143)
          -0.1213 (144)  0.1177 (147)  0.1468 (148)  0.1213 (149)  0.1390 (150)
          -0.2131 (151) -0.1244 (152) -0.1631 (153) -0.1388 (154)  0.2131 (155)
           0.1245 (156)  0.1632 (157)  0.1244 (158) -0.1390 (159) -0.1243 (160)
           0.1390 (161)
 CRD 15=   0.2786 ( 21) -0.2247 ( 23)  0.2247 ( 25) -0.2770 ( 27) -0.1680 ( 58)
           0.1344 ( 63) -0.1337 ( 67)  0.1684 ( 71) -0.1039 ( 72)  0.2571 ( 73)
          -0.2107 ( 75)  0.2102 ( 76) -0.2591 ( 78)  0.1046 ( 79)  0.1545 ( 80)
           0.2465 ( 81) -0.1240 ( 82) -0.1977 ( 83)  0.1239 ( 84)  0.1977 ( 85)
          -0.1531 ( 86) -0.2452 ( 87)
 CRD 16=  -0.2269 ( 21) -0.2798 ( 23)  0.2792 ( 25)  0.2265 ( 27)  0.1458 ( 58)
           0.1788 ( 63) -0.1771 ( 67) -0.1468 ( 71) -0.2025 ( 73) -0.2532 ( 75)
           0.2519 ( 76)  0.2040 ( 78) -0.1281 ( 80) -0.2056 ( 81) -0.1568 ( 82)
          -0.2517 ( 83)  0.1571 ( 84)  0.2517 ( 85)  0.1275 ( 86)  0.2048 ( 87)
 CRD 17=  -0.2837 ( 15)  0.2938 ( 17) -0.1671 ( 20)  0.1736 ( 22)  0.1729 ( 24)
          -0.1679 ( 26) -0.3323 ( 29)  0.3477 ( 31)  0.1302 ( 57) -0.1335 ( 62)
          -0.1329 ( 66)  0.1309 ( 70)  0.1800 ( 73) -0.1850 ( 75) -0.1867 ( 76)
           0.1774 ( 78) -0.1128 ( 80)  0.1207 ( 82)  0.1199 ( 84) -0.1148 ( 86)
 CRD 18=   0.2616 (  2)  0.1412 (  6)  0.1367 (  8)  0.1369 ( 11)  0.1409 ( 12)
           0.2771 ( 15)  0.2648 ( 17)  0.1441 ( 20)  0.1377 ( 22)  0.1370 ( 24)
           0.1449 ( 26)  0.3502 ( 29)  0.3376 ( 31) -0.1605 ( 73) -0.1519 ( 75)
          -0.1538 ( 76) -0.1585 ( 78)  0.1324 ( 80)  0.1301 ( 82)  0.1287 ( 84)
           0.1335 ( 86)
 CRD 19=  -0.2148 (  2) -0.1228 (  6) -0.1234 (  8) -0.1225 ( 11) -0.1235 ( 12)
          -0.2014 ( 21) -0.1988 ( 23) -0.1983 ( 25) -0.2016 ( 27)  0.1185 ( 29)
           0.1166 ( 31)  0.1711 ( 58)  0.1701 ( 63)  0.1695 ( 67)  0.1715 ( 71)
          -0.2253 ( 73) -0.2214 ( 75) -0.2216 ( 76) -0.2255 ( 78)  0.2102 ( 80)
          -0.1470 ( 81)  0.2052 ( 82) -0.1444 ( 83)  0.2056 ( 84) -0.1438 ( 85)
           0.2100 ( 86) -0.1474 ( 87)
 CRD 20=  -0.1926 (  1)  0.1927 (  3)  0.1932 (  4) -0.1931 (  5)  0.2001 (  6)
          -0.1995 (  8)  0.2037 ( 11) -0.2031 ( 12) -0.1902 ( 14)  0.1901 ( 16)
          -0.1911 ( 18)  0.1911 ( 19) -0.1035 ( 28)  0.1038 ( 30) -0.1026 ( 32)
           0.1028 ( 33)  0.1177 ( 34)  0.1641 ( 35)  0.1845 ( 36) -0.1844 ( 37)
          -0.1646 ( 38) -0.1175 ( 39)  0.1836 ( 40) -0.1200 ( 41)  0.1202 ( 42)
          -0.1611 ( 43)  0.1606 ( 44) -0.1834 ( 45) -0.1058 ( 67)  0.1050 ( 71)
           0.1129 ( 72) -0.1130 ( 74)  0.1153 ( 77) -0.1155 ( 79)
 CRD 21=  -0.1154 ( 15)  0.1163 ( 17) -0.1220 ( 20) -0.1920 ( 21)  0.1206 ( 22)
           0.1954 ( 23)  0.1218 ( 24)  0.1921 ( 25) -0.1236 ( 26) -0.1895 ( 27)
           0.1117 ( 57) -0.1089 ( 62) -0.1099 ( 66)  0.1128 ( 70) -0.2055 ( 73)
           0.2084 ( 75)  0.2114 ( 76) -0.2093 ( 78)  0.2608 ( 80) -0.2014 ( 81)
          -0.2614 ( 82)  0.2025 ( 83) -0.2654 ( 84)  0.1973 ( 85)  0.2643 ( 86)
          -0.1967 ( 87)
 CRD 22=  -0.1968 (  2) -0.1225 (  6) -0.1224 (  8) -0.1221 ( 11) -0.1224 ( 12)
           0.2103 ( 20)  0.2121 ( 22)  0.2119 ( 24)  0.2105 ( 26)  0.1171 ( 35)
           0.1169 ( 38)  0.1172 ( 43)  0.1172 ( 44)  0.1114 ( 56) -0.2207 ( 57)
           0.1122 ( 61) -0.2219 ( 62)  0.1123 ( 64) -0.2218 ( 66)  0.1114 ( 68)
          -0.2208 ( 70)  0.1093 ( 72)  0.1095 ( 74)  0.1098 ( 77)  0.1093 ( 79)
          -0.1639 ( 80)  0.1318 ( 81) -0.1663 ( 82)  0.1341 ( 83) -0.1664 ( 84)
           0.1342 ( 85) -0.1635 ( 86)  0.1322 ( 87)
 CRD 23=   0.2408 (  6) -0.2406 (  8) -0.2396 ( 11)  0.2398 ( 12) -0.1386 ( 20)
           0.1383 ( 22)  0.1382 ( 24) -0.1386 ( 26)  0.1204 ( 34) -0.2264 ( 35)
          -0.1127 ( 36)  0.1128 ( 37)  0.2262 ( 38) -0.1204 ( 39)  0.1142 ( 40)
           0.1203 ( 41) -0.1202 ( 42) -0.2271 ( 43)  0.2269 ( 44) -0.1140 ( 45)
           0.1066 ( 48) -0.1064 ( 49) -0.1060 ( 51)  0.1061 ( 55)  0.1442 ( 57)
          -0.1212 ( 58)  0.1129 ( 59) -0.1128 ( 60) -0.1439 ( 62)  0.1209 ( 63)
          -0.1135 ( 65) -0.1439 ( 66)  0.1206 ( 67)  0.1136 ( 69)  0.1443 ( 70)
          -0.1210 ( 71)
 CRD 24=   0.1230 (  7)  0.1265 (  9) -0.1265 ( 10) -0.1231 ( 13) -0.1781 ( 20)
          -0.1834 ( 22)  0.1835 ( 24)  0.1780 ( 26)  0.2502 ( 28)  0.2568 ( 30)
          -0.2569 ( 32) -0.2500 ( 33)  0.1300 ( 57) -0.1040 ( 58)  0.1006 ( 59)
           0.1032 ( 60)  0.1338 ( 62) -0.1076 ( 63) -0.1030 ( 65) -0.1339 ( 66)
           0.1075 ( 67) -0.1006 ( 69) -0.1298 ( 70)  0.1039 ( 71) -0.2307 ( 72)
           0.1001 ( 73) -0.2369 ( 74)  0.1026 ( 75) -0.1026 ( 76)  0.2370 ( 77)
           0.2306 ( 79) -0.1306 ( 80) -0.1343 ( 82)  0.1343 ( 84)  0.1306 ( 86)
 CRD 25=   0.1216 (  6)  0.1204 (  7) -0.1197 (  8) -0.1170 (  9)  0.1170 ( 10)
           0.1192 ( 11) -0.1211 ( 12) -0.1205 ( 13) -0.1913 ( 20)  0.1860 ( 22)
          -0.1863 ( 24)  0.1914 ( 26)  0.2452 ( 28) -0.2377 ( 30)  0.2375 ( 32)
          -0.2447 ( 33)  0.1377 ( 57) -0.1208 ( 58) -0.1338 ( 62)  0.1180 ( 63)
           0.1338 ( 66) -0.1181 ( 67) -0.1375 ( 70)  0.1209 ( 71) -0.2240 ( 72)
           0.2172 ( 74) -0.2172 ( 77)  0.2238 ( 79) -0.1294 ( 80)  0.1257 ( 82)
          -0.1257 ( 84)  0.1294 ( 86)
 CRD 26=  -0.2090 (106) -0.1392 (107)  0.2090 (112)  0.1393 (113) -0.2088 (122)
          -0.1392 (123)  0.2088 (127)  0.1391 (129)  0.1863 (130)  0.1905 (131)
           0.1828 (132)  0.1131 (133) -0.1864 (136) -0.1904 (137) -0.1829 (138)
          -0.1133 (139)  0.1904 (140)  0.1862 (141)  0.1132 (143)  0.1829 (144)
          -0.1906 (145) -0.1864 (146) -0.1131 (148) -0.1830 (149) -0.1147 (162)
           0.1146 (163) -0.1147 (164)  0.1147 (165)  0.1188 (166) -0.1187 (167)
           0.1187 (168) -0.1189 (169)
 CRD 27=   0.1898 (  1) -0.1898 (  3)  0.1891 (  4) -0.1891 (  5)  0.1984 ( 14)
          -0.1984 ( 16) -0.1978 ( 18)  0.1979 ( 19)  0.1027 ( 21) -0.1027 ( 23)
          -0.1025 ( 25)  0.1025 ( 27) -0.2472 ( 36)  0.2471 ( 37)  0.2467 ( 40)
          -0.2467 ( 45) -0.2545 ( 59)  0.2544 ( 60)  0.2542 ( 65) -0.2541 ( 69)
          -0.1070 ( 81)  0.1072 ( 83)  0.1071 ( 85) -0.1070 ( 87)
 CRD 28=  -0.1736 ( 90) -0.1280 ( 91) -0.1736 ( 92) -0.1280 ( 93)  0.1176 ( 94)
           0.1176 ( 95) -0.1292 ( 96)  0.1161 ( 97) -0.1749 ( 98) -0.1293 ( 99)
          -0.1748 (100)  0.1161 (103) -0.1737 (108)  0.1598 (109)  0.1598 (110)
          -0.1281 (111) -0.1736 (116)  0.1598 (117)  0.1598 (118) -0.1279 (119)
          -0.1293 (120) -0.1749 (121) -0.1292 (125) -0.1748 (128)  0.1005 (133)
           0.1105 (134)  0.1105 (135)  0.1004 (139)  0.1090 (142)  0.1089 (147)
           0.1621 (150) -0.1339 (151) -0.1257 (152) -0.1437 (153)  0.1620 (154)
          -0.1339 (155) -0.1258 (156) -0.1438 (157) -0.1255 (158)  0.1635 (159)
          -0.1254 (160)  0.1635 (161) -0.1074 (170) -0.1075 (171)
 CRD 29=   0.1164 ( 88)  0.1164 ( 89)  0.1330 ( 90)  0.1171 ( 91)  0.1331 ( 92)
           0.1170 ( 93)  0.1204 ( 94)  0.1204 ( 95) -0.1154 ( 96) -0.1216 ( 97)
          -0.1306 ( 98) -0.1154 ( 99) -0.1306 (100) -0.1171 (101) -0.1171 (102)
          -0.1217 (103) -0.1276 (106) -0.1241 (107)  0.1331 (108)  0.1171 (111)
          -0.1277 (112) -0.1241 (113)  0.1330 (116)  0.1170 (119) -0.1154 (120)
          -0.1306 (121)  0.1275 (122)  0.1235 (123) -0.1154 (125)  0.1275 (127)
          -0.1306 (128)  0.1236 (129)  0.1339 (130)  0.1080 (131)  0.1315 (132)
           0.1275 (133)  0.1317 (134)  0.1317 (135)  0.1338 (136)  0.1078 (137)
           0.1314 (138)  0.1274 (139) -0.1086 (140) -0.1346 (141) -0.1332 (142)
          -0.1285 (143) -0.1321 (144) -0.1087 (145) -0.1348 (146) -0.1332 (147)
          -0.1286 (148) -0.1322 (149) -0.1378 (150) -0.1377 (154)  0.1357 (159)
           0.1357 (161) -0.1307 (162) -0.1306 (163)  0.1301 (164)  0.1302 (165)
           0.1043 (166)  0.1041 (167) -0.1045 (168) -0.1047 (169)
 CRD 30=   0.1523 (  1)  0.1524 (  3)  0.1514 (  4)  0.1514 (  5)  0.1912 (  7)
           0.1912 (  9)  0.1910 ( 10)  0.1909 ( 13) -0.2018 ( 14) -0.2018 ( 16)
          -0.2020 ( 18) -0.2021 ( 19) -0.1328 ( 21) -0.1327 ( 23) -0.1328 ( 25)
          -0.1329 ( 27) -0.1736 ( 28) -0.1738 ( 30) -0.1737 ( 32) -0.1739 ( 33)
          -0.1591 ( 36) -0.1591 ( 37) -0.1596 ( 40) -0.1596 ( 45) -0.1011 ( 58)
           0.1018 ( 59)  0.1016 ( 60) -0.1010 ( 63)  0.1016 ( 65) -0.1013 ( 67)
           0.1016 ( 69) -0.1013 ( 71)  0.1733 ( 81)  0.1735 ( 83)  0.1737 ( 85)
           0.1735 ( 87)
 CRD 31=   0.1370 ( 88) -0.1374 ( 89) -0.2167 ( 90)  0.1362 ( 91)  0.2158 ( 92)
          -0.1366 ( 93) -0.1363 ( 96)  0.2172 ( 98)  0.1368 ( 99) -0.2163 (100)
          -0.1367 (101)  0.1372 (102) -0.1302 (104)  0.1372 (110)  0.1294 (114)
          -0.1373 (118) -0.1294 (124)  0.1302 (126)  0.1540 (133) -0.2184 (134)
           0.2175 (135) -0.1529 (139) -0.2169 (142)  0.1531 (143)  0.2179 (147)
          -0.1544 (148) -0.1030 (152)  0.1024 (156) -0.1022 (158)  0.1028 (160)
          -0.1575 (162)  0.1565 (163) -0.1568 (164)  0.1578 (165)
 CRD 32=   0.1531 ( 90)  0.1538 ( 92) -0.1531 ( 98) -0.1538 (100)  0.1437 (104)
           0.1535 (108)  0.1441 (114)  0.1534 (116) -0.1534 (121) -0.1443 (124)
          -0.1439 (126) -0.1535 (128) -0.2041 (133)  0.1540 (134)  0.1547 (135)
          -0.2047 (139) -0.1546 (142)  0.2048 (143) -0.1539 (147)  0.2046 (148)
           0.1462 (152)  0.1465 (156) -0.1466 (158) -0.1460 (160)  0.2093 (162)
           0.2099 (163) -0.2100 (164) -0.2093 (165)
 CRD 33=  -0.1003 (  7)  0.1005 (  9) -0.1003 ( 10)  0.1000 ( 13) -0.1074 ( 14)
           0.1075 ( 16) -0.1077 ( 18)  0.1076 ( 19) -0.1034 ( 28)  0.1035 ( 30)
          -0.1038 ( 32)  0.1038 ( 33)  0.2074 ( 34) -0.2162 ( 36)  0.2162 ( 37)
          -0.2074 ( 39) -0.2158 ( 40) -0.2071 ( 41)  0.2071 ( 42)  0.2158 ( 45)
          -0.1519 ( 48)  0.1520 ( 49) -0.1520 ( 51)  0.1521 ( 55) -0.1345 ( 56)
          -0.1120 ( 58)  0.2103 ( 59) -0.2101 ( 60)  0.1344 ( 61)  0.1120 ( 63)
          -0.1343 ( 64)  0.2101 ( 65) -0.1121 ( 67)  0.1344 ( 68) -0.2103 ( 69)
           0.1121 ( 71)  0.1249 ( 81) -0.1250 ( 83)  0.1252 ( 85) -0.1253 ( 87)
 CRD 34=  -0.1079 (107)  0.1099 (113)  0.1099 (123) -0.1080 (129)  0.1532 (130)
           0.1569 (131) -0.1561 (136) -0.1595 (137) -0.1598 (140) -0.1562 (141)
           0.1569 (145)  0.1535 (146) -0.2129 (152) -0.2096 (153)  0.2169 (156)
           0.2133 (157)  0.2167 (158) -0.2133 (160)  0.1767 (162) -0.1796 (163)
          -0.1795 (164)  0.1760 (165)  0.1798 (166) -0.1829 (167) -0.1833 (168)
           0.1801 (169) -0.2166 (170)  0.2203 (171)
 CRD 35=   0.1255 (  1)  0.1259 (  3) -0.1262 (  4) -0.1261 (  5) -0.3781 (  6)
          -0.3762 (  8)  0.3761 ( 11)  0.3780 ( 12) -0.1667 ( 20) -0.1644 ( 22)
           0.1648 ( 24)  0.1668 ( 26) -0.1003 ( 35)  0.1272 ( 47) -0.1275 ( 52)
 CRD 36=  -0.1101 (107) -0.1061 (113) -0.1060 (123) -0.1102 (129)  0.1488 (130)
           0.1518 (131) -0.1020 (134)  0.1431 (136)  0.1458 (137)  0.1461 (140)
           0.1432 (141)  0.1518 (145)  0.1488 (146) -0.1016 (147) -0.2052 (152)
          -0.2023 (153) -0.1976 (156) -0.1947 (157) -0.1973 (158) -0.2054 (160)
           0.1777 (162)  0.1711 (163)  0.1710 (164)  0.1775 (165)  0.1806 (166)
           0.1737 (167)  0.1740 (168)  0.1807 (169) -0.2083 (170) -0.2002 (171)
 CRD 37=  -0.2506 (  6) -0.1362 (  7)  0.2527 (  8)  0.1363 (  9) -0.1352 ( 10)
          -0.2521 ( 11)  0.2499 ( 12)  0.1353 ( 13) -0.1206 ( 14)  0.1206 ( 16)
          -0.1210 ( 18)  0.1206 ( 19) -0.2766 ( 20)  0.2769 ( 22) -0.2770 ( 24)
           0.2764 ( 26)  0.1547 ( 46) -0.1551 ( 50)  0.1552 ( 53) -0.1548 ( 54)
           0.1079 ( 56) -0.1265 ( 59)  0.1263 ( 60) -0.1077 ( 61)  0.1078 ( 64)
          -0.1267 ( 65) -0.1079 ( 68)  0.1270 ( 69)
 CRD 38=   0.2257 (  1) -0.2218 (  3)  0.2215 (  4) -0.2255 (  5)  0.1093 (  6)
           0.2514 (  7) -0.1111 (  8) -0.2489 (  9) -0.2519 ( 10) -0.1110 ( 11)
           0.1129 ( 12)  0.2494 ( 13) -0.2123 ( 28)  0.2135 ( 30)  0.2120 ( 32)
          -0.2135 ( 33)  0.1137 ( 35) -0.1140 ( 38)  0.1144 ( 43) -0.1142 ( 44)
          -0.1014 ( 58) -0.1030 ( 59)  0.1046 ( 60)  0.1028 ( 63)  0.1030 ( 65)
           0.1010 ( 67) -0.1045 ( 69) -0.1026 ( 71)  0.1429 ( 81) -0.1438 ( 83)
          -0.1429 ( 85)  0.1437 ( 87)
 CRD 39=   0.2189 (  1)  0.2229 (  3) -0.2235 (  4) -0.2196 (  5)  0.1410 (  7)
           0.1453 (  9) -0.1418 ( 10) -0.1464 ( 13)  0.1157 ( 14)  0.1147 ( 16)
          -0.1153 ( 18) -0.1147 ( 19)  0.2423 ( 20)  0.2426 ( 22) -0.2425 ( 24)
          -0.2424 ( 26) -0.1429 ( 46)  0.1936 ( 47)  0.1287 ( 48)  0.1277 ( 49)
          -0.1425 ( 50) -0.1285 ( 51) -0.1942 ( 52)  0.1431 ( 53)  0.1422 ( 54)
          -0.1275 ( 55)
 CRD 40=  -0.1170 (  1) -0.1168 (  3)  0.1166 (  4)  0.1166 (  5) -0.1301 ( 21)
          -0.1303 ( 23)  0.1302 ( 25)  0.1301 ( 27) -0.1563 ( 28) -0.1568 ( 30)
           0.1568 ( 32)  0.1562 ( 33)  0.1743 ( 36)  0.1739 ( 37) -0.1742 ( 40)
          -0.1746 ( 45) -0.1571 ( 48) -0.1571 ( 49)  0.1571 ( 51)  0.1573 ( 55)
          -0.1627 ( 56) -0.1535 ( 58)  0.1315 ( 59)  0.1320 ( 60) -0.1633 ( 61)
          -0.1529 ( 63)  0.1633 ( 64) -0.1318 ( 65)  0.1529 ( 67)  0.1627 ( 68)
          -0.1311 ( 69)  0.1533 ( 71)  0.1814 ( 81)  0.1814 ( 83) -0.1813 ( 85)
          -0.1814 ( 87)
 CRD 41=   0.1252 ( 90) -0.1254 ( 92) -0.1256 ( 98)  0.1258 (100) -0.1118 (107)
          -0.1687 (110)  0.1608 (111)  0.1117 (113)  0.1688 (118) -0.1608 (119)
           0.1617 (120) -0.1116 (123) -0.1617 (125)  0.1115 (129) -0.1927 (131)
           0.1611 (133)  0.1265 (134) -0.1267 (135)  0.1932 (137) -0.1609 (139)
          -0.1933 (140)  0.1262 (142)  0.1612 (143)  0.1929 (145) -0.1261 (147)
          -0.1615 (148) -0.1762 (150) -0.1739 (152)  0.1762 (154)  0.1742 (156)
          -0.1741 (158) -0.1767 (159)  0.1738 (160)  0.1767 (161) -0.1657 (162)
           0.1658 (163) -0.1661 (164)  0.1656 (165)
 CRD 42=   0.1014 (  6) -0.1025 (  8)  0.1026 ( 11) -0.1014 ( 12) -0.2101 ( 20)
          -0.1245 ( 21)  0.2142 ( 22)  0.1269 ( 23) -0.2141 ( 24) -0.1270 ( 25)
           0.2102 ( 26)  0.1245 ( 27) -0.2478 ( 28)  0.2528 ( 30) -0.2527 ( 32)
           0.2480 ( 33)  0.2209 ( 73) -0.2258 ( 75)  0.2258 ( 76) -0.2209 ( 78)
           0.1889 ( 80) -0.1931 ( 82)  0.1931 ( 84) -0.1889 ( 86)
 CRD 43=   0.1038 ( 14)  0.1024 ( 16) -0.1024 ( 18) -0.1041 ( 19) -0.1896 ( 20)
          -0.1264 ( 21) -0.1855 ( 22) -0.1241 ( 23)  0.1850 ( 24)  0.1240 ( 25)
           0.1896 ( 26)  0.1264 ( 27) -0.2447 ( 28) -0.2397 ( 30)  0.2406 ( 32)
           0.2453 ( 33)  0.2309 ( 73)  0.2260 ( 75) -0.2258 ( 76) -0.2308 ( 78)
           0.1952 ( 80)  0.1908 ( 82) -0.1911 ( 84) -0.1953 ( 86)
 CRD 44=  -0.1468 ( 14)  0.1236 ( 15) -0.1456 ( 16)  0.1228 ( 17) -0.1457 ( 18)
          -0.1464 ( 19) -0.2256 ( 20) -0.2243 ( 22) -0.2243 ( 24) -0.2260 ( 26)
           0.3079 ( 28)  0.1743 ( 29)  0.3061 ( 30)  0.1730 ( 31)  0.3062 ( 32)
           0.3070 ( 33)  0.1155 ( 58)  0.1142 ( 63)  0.1148 ( 67)  0.1150 ( 71)
          -0.1100 ( 80) -0.1095 ( 82) -0.1090 ( 84) -0.1099 ( 86)
 CRD 45=  -0.1080 (  1)  0.1085 (  3) -0.1077 (  4)  0.1079 (  5)  0.1315 ( 14)
          -0.1096 ( 15) -0.1322 ( 16)  0.1105 ( 17) -0.1318 ( 18)  0.1310 ( 19)
           0.2536 ( 20)  0.1076 ( 21) -0.2553 ( 22) -0.1082 ( 23) -0.2551 ( 24)
          -0.1088 ( 25)  0.2536 ( 26)  0.1080 ( 27) -0.2538 ( 28) -0.1949 ( 29)
           0.2559 ( 30)  0.1961 ( 31)  0.2549 ( 32) -0.2531 ( 33)  0.1076 ( 80)
          -0.1084 ( 82) -0.1090 ( 84)  0.1083 ( 86)
 CRD 46=   0.1877 (  7) -0.1877 (  9)  0.1871 ( 10) -0.1872 ( 13)  0.1206 ( 14)
          -0.1210 ( 16)  0.1213 ( 18) -0.1219 ( 19) -0.1070 ( 21)  0.1063 ( 23)
          -0.1060 ( 25)  0.1061 ( 27) -0.1771 ( 28)  0.1775 ( 30) -0.1778 ( 32)
           0.1795 ( 33) -0.1366 ( 34)  0.1366 ( 39)  0.1363 ( 41) -0.1363 ( 42)
          -0.1869 ( 58) -0.1117 ( 59)  0.1118 ( 60)  0.1873 ( 63) -0.1117 ( 65)
          -0.1874 ( 67)  0.1119 ( 69)  0.1877 ( 71) -0.1328 ( 80)  0.1829 ( 81)
           0.1331 ( 82) -0.1835 ( 83) -0.1328 ( 84)  0.1833 ( 85)  0.1320 ( 86)
          -0.1832 ( 87)
 CRD 47=  -0.4027 (  2)  0.3644 (  6)  0.3645 (  8)  0.3645 ( 11)  0.3642 ( 12)
          -0.2623 ( 15) -0.2625 ( 17)  0.1276 ( 20)  0.1275 ( 22)  0.1276 ( 24)
           0.1275 ( 26)  0.1061 ( 28)  0.1059 ( 30)  0.1067 ( 32)  0.1061 ( 33)
 CRD 48=  -0.2635 (  6)  0.2630 (  8)  0.2630 ( 11) -0.2635 ( 12)  0.3290 ( 15)
          -0.3289 ( 17) -0.2219 ( 20)  0.2219 ( 22)  0.2220 ( 24) -0.2217 ( 26)
          -0.1742 ( 28)  0.1742 ( 30)  0.1742 ( 32) -0.1741 ( 33)
 CRD 49=  -0.2685 (  2)  0.1445 (  6)  0.1451 (  8)  0.1455 ( 11)  0.1448 ( 12)
           0.1366 ( 14)  0.1150 ( 15)  0.1369 ( 16)  0.1142 ( 17)  0.1358 ( 18)
           0.1354 ( 19) -0.2880 ( 20) -0.2875 ( 22) -0.2876 ( 24) -0.2877 ( 26)
          -0.1722 ( 28)  0.2008 ( 29) -0.1718 ( 30)  0.2010 ( 31) -0.1710 ( 32)
          -0.1710 ( 33)  0.1081 ( 36)  0.1082 ( 37)  0.1092 ( 40)  0.1091 ( 45)
          -0.1351 ( 59) -0.1350 ( 60) -0.1340 ( 65) -0.1340 ( 69)
 CRD 50=  -0.1853 (  1) -0.1852 (  3)  0.1842 (  4)  0.1844 (  5) -0.1237 (  7)
          -0.1236 (  9)  0.1239 ( 10)  0.1238 ( 13) -0.1986 ( 14) -0.1988 ( 16)
           0.1996 ( 18)  0.1996 ( 19)  0.1548 ( 28)  0.1548 ( 30) -0.1554 ( 32)
          -0.1557 ( 33)  0.1728 ( 36)  0.1727 ( 37) -0.1723 ( 40) -0.1722 ( 45)
           0.1420 ( 58)  0.1658 ( 59)  0.1658 ( 60)  0.1420 ( 63) -0.1668 ( 65)
          -0.1419 ( 67) -0.1667 ( 69) -0.1418 ( 71)  0.1313 ( 80) -0.1206 ( 81)
           0.1314 ( 82) -0.1207 ( 83) -0.1317 ( 84)  0.1210 ( 85) -0.1315 ( 86)
           0.1208 ( 87)
 CRD 51=   0.1185 ( 90)  0.1184 ( 92) -0.1474 ( 94) -0.1476 ( 95)  0.1476 ( 97)
          -0.1187 ( 98) -0.1187 (100)  0.1473 (103) -0.1468 (107)  0.1185 (108)
          -0.1468 (113)  0.1184 (116) -0.1186 (121)  0.1468 (123) -0.1188 (128)
           0.1470 (129) -0.2589 (131)  0.1196 (134)  0.1197 (135) -0.2591 (137)
           0.2589 (140) -0.1195 (142)  0.2591 (145) -0.1197 (147) -0.2054 (152)
          -0.2050 (156)  0.2051 (158)  0.2052 (160) -0.1420 (166) -0.1417 (167)
           0.1417 (168)  0.1417 (169)
 CRD 52=   0.1377 (  1) -0.1379 (  3)  0.1380 (  4) -0.1380 (  5) -0.2567 (  6)
           0.1141 (  7)  0.2565 (  8) -0.1140 (  9) -0.1141 ( 10)  0.2566 ( 11)
          -0.2567 ( 12)  0.1144 ( 13) -0.1551 ( 14)  0.1111 ( 15)  0.1551 ( 16)
          -0.1115 ( 17)  0.1550 ( 18) -0.1548 ( 19)  0.2071 ( 20) -0.2067 ( 22)
          -0.2068 ( 24)  0.2071 ( 26)  0.1809 ( 28) -0.2126 ( 29) -0.1803 ( 30)
           0.2125 ( 31) -0.1803 ( 32)  0.1806 ( 33)
 CRD 53=   0.1976 (  1) -0.1392 (  2)  0.1960 (  3)  0.1964 (  4)  0.1974 (  5)
          -0.2650 (  7) -0.2636 (  9) -0.2647 ( 10) -0.2632 ( 13)  0.1089 ( 15)
           0.1088 ( 17)  0.2184 ( 21)  0.2169 ( 23)  0.2178 ( 25)  0.2170 ( 27)
          -0.1397 ( 28) -0.1398 ( 30) -0.1401 ( 32) -0.1400 ( 33) -0.1333 ( 36)
          -0.1328 ( 37) -0.1338 ( 40) -0.1332 ( 45)  0.1418 ( 59)  0.1426 ( 60)
           0.1418 ( 65)  0.1428 ( 69)
 CRD 54=  -0.1307 (  1)  0.1326 (  3)  0.1329 (  4) -0.1309 (  5) -0.3036 (  6)
           0.1461 (  7)  0.3038 (  8) -0.1489 (  9)  0.1468 ( 10) -0.3035 ( 11)
           0.3038 ( 12) -0.1493 ( 13)  0.1601 ( 20) -0.1101 ( 21) -0.1605 ( 22)
           0.1121 ( 23)  0.1599 ( 24) -0.1103 ( 25) -0.1606 ( 26)  0.1123 ( 27)
           0.1431 ( 35) -0.1432 ( 38) -0.1433 ( 43)  0.1431 ( 44)  0.1168 ( 73)
          -0.1167 ( 75)  0.1167 ( 76) -0.1168 ( 78)
 CRD 55=  -0.1980 (  1)  0.1983 (  3) -0.1978 (  4)  0.1984 (  5)  0.1995 ( 14)
          -0.1150 ( 15) -0.2000 ( 16)  0.1162 ( 17) -0.1999 ( 18)  0.2000 ( 19)
          -0.2814 ( 21)  0.2809 ( 23)  0.2812 ( 25) -0.2805 ( 27)  0.1040 ( 28)
          -0.1039 ( 30) -0.1040 ( 32)  0.1042 ( 33) -0.1079 ( 36)  0.1078 ( 37)
           0.1083 ( 40) -0.1079 ( 45) -0.1288 ( 58)  0.1283 ( 63)  0.1283 ( 67)
          -0.1284 ( 71)  0.1355 ( 81) -0.1356 ( 83) -0.1356 ( 85)  0.1360 ( 87)
 CRD 56=  -0.3534 (  2) -0.1210 ( 14)  0.3425 ( 15) -0.1204 ( 16)  0.3422 ( 17)
          -0.1208 ( 18) -0.1211 ( 19)  0.1189 ( 28) -0.2836 ( 29)  0.1187 ( 30)
          -0.2833 ( 31)  0.1189 ( 32)  0.1184 ( 33)  0.1016 ( 36)  0.1014 ( 37)
           0.1006 ( 40)  0.1009 ( 45)  0.1262 ( 46) -0.1374 ( 47)  0.1263 ( 50)
          -0.1383 ( 52)  0.1265 ( 53)  0.1265 ( 54) -0.1080 ( 73) -0.1079 ( 75)
          -0.1072 ( 76) -0.1073 ( 78)
 CRD 57=  -0.1698 (  6) -0.1694 (  8)  0.1695 ( 11)  0.1696 ( 12)  0.2413 ( 20)
          -0.1694 ( 21)  0.2411 ( 22) -0.1705 ( 23) -0.2409 ( 24)  0.1706 ( 25)
          -0.2413 ( 26)  0.1709 ( 27)  0.1069 ( 35) -0.1012 ( 36) -0.1019 ( 37)
           0.1063 ( 38)  0.1016 ( 40) -0.1068 ( 43) -0.1063 ( 44)  0.1017 ( 45)
          -0.1605 ( 47)  0.1601 ( 52)  0.1451 ( 57)  0.1445 ( 62) -0.1445 ( 66)
          -0.1449 ( 70)  0.1464 ( 73)  0.1464 ( 75) -0.1470 ( 76) -0.1470 ( 78)
 CRD 58=  -0.1426 (  1)  0.1419 (  3)  0.1427 (  4) -0.1423 (  5)  0.1064 (  7)
          -0.1056 (  9)  0.1053 ( 10) -0.1059 ( 13) -0.1772 ( 14)  0.1767 ( 16)
          -0.1771 ( 18)  0.1778 ( 19)  0.1761 ( 28) -0.1765 ( 30)  0.1767 ( 32)
          -0.1767 ( 33) -0.1818 ( 34)  0.1004 ( 38)  0.1823 ( 39)  0.1816 ( 41)
          -0.1822 ( 42) -0.1001 ( 44) -0.1738 ( 48)  0.1741 ( 49) -0.1744 ( 51)
           0.1743 ( 55) -0.1567 ( 56)  0.1571 ( 61) -0.1573 ( 64)  0.1570 ( 68)
           0.1306 ( 72) -0.1311 ( 74)  0.1312 ( 77) -0.1309 ( 79)  0.1361 ( 80)
          -0.1356 ( 82)  0.1358 ( 84) -0.1365 ( 86)
 CRD 59=  -0.1154 (  1)  0.1152 (  2) -0.1164 (  3) -0.1151 (  4) -0.1165 (  5)
           0.1986 (  7)  0.1984 (  9)  0.1992 ( 10)  0.1993 ( 13) -0.2388 ( 14)
          -0.2386 ( 16) -0.2397 ( 18) -0.2394 ( 19)  0.2398 ( 21)  0.2400 ( 23)
           0.2389 ( 25)  0.2389 ( 27)  0.1622 ( 58)  0.1619 ( 63)  0.1618 ( 67)
           0.1619 ( 71) -0.1359 ( 81) -0.1355 ( 83) -0.1356 ( 85) -0.1359 ( 87)
 CRD 60=   0.1182 (105)  0.1430 (107)  0.1430 (113)  0.1171 (115)  0.1411 (123)
           0.1447 (129)  0.2368 (133) -0.1884 (134) -0.1859 (135)  0.2341 (139)
          -0.1855 (142)  0.2340 (143) -0.1880 (147)  0.2372 (148) -0.2055 (162)
          -0.2037 (163) -0.2037 (164) -0.2056 (165) -0.1230 (166) -0.1186 (167)
          -0.1219 (168) -0.1198 (169) -0.1727 (170) -0.1710 (171)
 CRD 61=   0.2022 ( 90) -0.2038 ( 92)  0.2012 ( 98) -0.2025 (100)  0.1028 (107)
          -0.1709 (108) -0.1049 (113)  0.1694 (116)  0.1274 (121) -0.1427 (123)
          -0.1287 (128)  0.1401 (129)  0.1879 (133) -0.2075 (134)  0.2103 (135)
          -0.1918 (139)  0.2115 (142) -0.1938 (143) -0.2084 (147)  0.1903 (148)
          -0.1201 (150)  0.1217 (154)  0.1607 (159) -0.1591 (161) -0.1530 (162)
           0.1568 (163)  0.1589 (164) -0.1551 (165) -0.1260 (166)  0.1282 (167)
          -0.1230 (170)  0.1261 (171)
 CRD 62=  -0.1323 ( 94)  0.1318 ( 95) -0.1311 ( 97)  0.1302 (103)  0.1265 (104)
          -0.1266 (106) -0.1429 (107) -0.1125 (108)  0.1293 (110) -0.1297 (111)
           0.1270 (112)  0.1401 (113) -0.1269 (114)  0.1104 (116) -0.1311 (118)
           0.1305 (119) -0.1319 (120) -0.1587 (121) -0.1325 (122) -0.1031 (123)
           0.1272 (124)  0.1326 (125) -0.1274 (126)  0.1333 (127)  0.1567 (128)
           0.1002 (129) -0.1993 (131)  0.1981 (137) -0.1827 (140)  0.1818 (145)
           0.1505 (150) -0.1769 (152) -0.1483 (154)  0.1780 (156) -0.1983 (158)
           0.1075 (159)  0.2006 (160) -0.1054 (161) -0.1825 (166)  0.1845 (167)
          -0.2129 (168)  0.2159 (169)
 CRD 63=   0.1971 (  1) -0.2002 (  3)  0.2004 (  4) -0.1970 (  5) -0.1322 (  6)
           0.1315 (  8)  0.1314 ( 11) -0.1304 ( 12) -0.2184 ( 15)  0.2182 ( 17)
          -0.1091 ( 28)  0.3068 ( 29)  0.1034 ( 30) -0.3058 ( 31)  0.1082 ( 32)
          -0.1025 ( 33) -0.1102 ( 46)  0.1089 ( 50)  0.1091 ( 53) -0.1078 ( 54)
           0.1483 ( 59) -0.1446 ( 60) -0.1470 ( 65)  0.1441 ( 69)  0.1387 ( 73)
          -0.1387 ( 75) -0.1389 ( 76)  0.1396 ( 78)
 CRD 64=   0.1279 (  6) -0.1004 (  7) -0.1279 (  8)  0.1004 (  9)  0.1273 ( 11)
          -0.1272 ( 12)  0.1000 ( 16) -0.1005 ( 18)  0.1004 ( 19)  0.2331 ( 20)
          -0.1611 ( 21) -0.2331 ( 22)  0.1609 ( 23)  0.2334 ( 24) -0.1609 ( 25)
          -0.2331 ( 26)  0.1608 ( 27)  0.1601 ( 46) -0.1602 ( 50)  0.1596 ( 53)
          -0.1596 ( 54)  0.1073 ( 56)  0.1746 ( 57) -0.1073 ( 58) -0.1073 ( 61)
          -0.1745 ( 62)  0.1071 ( 63)  0.1076 ( 64)  0.1747 ( 66) -0.1065 ( 67)
          -0.1076 ( 68) -0.1745 ( 70)  0.1067 ( 71)  0.1286 ( 73) -0.1284 ( 75)
           0.1293 ( 76) -0.1289 ( 78)
 CRD 65=   0.1955 (  1) -0.1965 (  3)  0.1966 (  4) -0.1959 (  5) -0.2702 (  7)
           0.2689 (  9)  0.2707 ( 10) -0.2688 ( 13)  0.1565 ( 14)  0.1362 ( 15)
          -0.1563 ( 16) -0.1360 ( 17) -0.1568 ( 18)  0.1558 ( 19) -0.1047 ( 21)
           0.1063 ( 23)  0.1057 ( 25) -0.1065 ( 27)  0.1438 ( 36) -0.1431 ( 37)
          -0.1439 ( 40)  0.1436 ( 45) -0.1228 ( 58)  0.1230 ( 63)  0.1234 ( 67)
          -0.1232 ( 71)  0.1166 ( 81) -0.1173 ( 83) -0.1165 ( 85)  0.1169 ( 87)
 CRD 66=   0.1174 (  1)  0.1154 (  3) -0.1152 (  4) -0.1172 (  5)  0.1863 (  7)
           0.1881 (  9) -0.1859 ( 10) -0.1873 ( 13) -0.1592 ( 21) -0.1579 ( 23)
           0.1588 ( 25)  0.1577 ( 27)  0.2066 ( 28)  0.2066 ( 30) -0.2068 ( 32)
          -0.2064 ( 33) -0.1470 ( 48) -0.1474 ( 49)  0.1471 ( 51)  0.1476 ( 55)
          -0.1159 ( 56) -0.1129 ( 59) -0.1141 ( 60) -0.1158 ( 61)  0.1162 ( 64)
           0.1129 ( 65)  0.1156 ( 68)  0.1141 ( 69)  0.1765 ( 72)  0.1766 ( 74)
          -0.1767 ( 77) -0.1765 ( 79)  0.1644 ( 80)  0.1647 ( 82) -0.1645 ( 84)
          -0.1648 ( 86)
 CRD 67=  -0.2195 ( 90)  0.2196 ( 92) -0.2189 ( 98)  0.2192 (100)  0.1106 (104)
           0.1334 (105)  0.1269 (109) -0.1106 (114) -0.1332 (115) -0.1267 (117)
          -0.1000 (123) -0.1094 (124)  0.1094 (126)  0.1002 (129)  0.1275 (131)
           0.1233 (133) -0.1275 (137) -0.1229 (139) -0.1293 (140) -0.1229 (143)
           0.1291 (145)  0.1236 (148)  0.1159 (150) -0.1159 (154) -0.1144 (159)
           0.1142 (161) -0.1861 (162)  0.1863 (163)  0.1864 (164) -0.1862 (165)
          -0.2215 (170)  0.2216 (171)
 CRD 68=   0.1222 (  1)  0.1220 (  3) -0.1225 (  4) -0.1225 (  5)  0.2080 (  6)
          -0.1524 (  7)  0.2079 (  8) -0.1522 (  9)  0.1532 ( 10) -0.2083 ( 11)
          -0.2083 ( 12)  0.1532 ( 13)  0.1437 ( 20)  0.1435 ( 22) -0.1435 ( 24)
          -0.1435 ( 26) -0.1689 ( 35) -0.1689 ( 38)  0.1687 ( 43)  0.1686 ( 44)
           0.1495 ( 46)  0.1810 ( 47)  0.1494 ( 50) -0.1817 ( 52) -0.1495 ( 53)
          -0.1496 ( 54)  0.1215 ( 57)  0.1214 ( 62) -0.1214 ( 66) -0.1214 ( 70)
 CRD 69=  -0.1029 (  1)  0.3150 (  2) -0.1031 (  3) -0.1042 (  4) -0.1040 (  5)
           0.1050 (  6)  0.1051 (  8)  0.1045 ( 11)  0.1045 ( 12) -0.1302 ( 20)
          -0.1301 ( 22) -0.1302 ( 24) -0.1303 ( 26)  0.1074 ( 28) -0.3001 ( 29)
           0.1072 ( 30) -0.3002 ( 31)  0.1070 ( 32)  0.1068 ( 33)  0.1618 ( 47)
           0.1616 ( 52) -0.1217 ( 57) -0.1216 ( 62) -0.1217 ( 66) -0.1217 ( 70)
          -0.1651 ( 73) -0.1651 ( 75) -0.1651 ( 76) -0.1651 ( 78)  0.1101 ( 81)
           0.1101 ( 83)  0.1100 ( 85)  0.1098 ( 87)
 CRD 70=   0.2017 (  1) -0.2017 (  3) -0.2011 (  4)  0.2012 (  5)  0.1308 ( 14)
          -0.1309 ( 16)  0.1310 ( 18) -0.1312 ( 19) -0.2036 ( 21)  0.2036 ( 23)
          -0.2033 ( 25)  0.2031 ( 27)  0.1768 ( 28) -0.1770 ( 30)  0.1770 ( 32)
          -0.1771 ( 33)  0.1637 ( 34) -0.1636 ( 39) -0.1635 ( 41)  0.1636 ( 42)
           0.1720 ( 72) -0.1720 ( 74)  0.1721 ( 77) -0.1723 ( 79)  0.1467 ( 80)
           0.1226 ( 81) -0.1467 ( 82) -0.1227 ( 83)  0.1468 ( 84)  0.1227 ( 85)
          -0.1469 ( 86) -0.1229 ( 87)
 CRD 71=   0.1672 (  7)  0.1671 (  9) -0.1665 ( 10) -0.1664 ( 13) -0.2360 ( 14)
          -0.2361 ( 16)  0.2364 ( 18)  0.2366 ( 19)  0.1913 ( 21)  0.1912 ( 23)
          -0.1908 ( 25) -0.1907 ( 27) -0.1257 ( 28) -0.1258 ( 30)  0.1259 ( 32)
           0.1260 ( 33) -0.1464 ( 48) -0.1464 ( 49)  0.1467 ( 51)  0.1468 ( 55)
          -0.1396 ( 56)  0.1086 ( 58) -0.1397 ( 61)  0.1086 ( 63)  0.1399 ( 64)
          -0.1083 ( 67)  0.1400 ( 68) -0.1082 ( 71) -0.1333 ( 72) -0.1334 ( 74)
           0.1336 ( 77)  0.1337 ( 79) -0.1095 ( 80) -0.1212 ( 81) -0.1096 ( 82)
          -0.1213 ( 83)  0.1097 ( 84)  0.1214 ( 85)  0.1098 ( 86)  0.1215 ( 87)
 CRD 72=  -0.1373 ( 14)  0.2650 ( 15)  0.1370 ( 16) -0.2651 ( 17)  0.1373 ( 18)
          -0.1370 ( 19)  0.1496 ( 20) -0.1085 ( 21) -0.1497 ( 22)  0.1090 ( 23)
          -0.1495 ( 24)  0.1087 ( 25)  0.1495 ( 26) -0.1087 ( 27)  0.2339 ( 29)
          -0.2342 ( 31)  0.1464 ( 46) -0.1466 ( 50) -0.1464 ( 53)  0.1464 ( 54)
           0.1596 ( 57) -0.1597 ( 62) -0.1596 ( 66)  0.1595 ( 70)  0.1399 ( 73)
          -0.1400 ( 75) -0.1399 ( 76)  0.1398 ( 78)
 CRD 73=   0.1070 ( 90) -0.1019 ( 91)  0.1075 ( 92) -0.1021 ( 93)  0.1225 ( 94)
           0.1227 ( 95) -0.1017 ( 96)  0.1227 ( 97)  0.1076 ( 98) -0.1016 ( 99)
           0.1074 (100)  0.1228 (103)  0.1073 (108)  0.1238 (109)  0.1239 (110)
          -0.1021 (111)  0.1072 (116)  0.1237 (117)  0.1235 (118) -0.1018 (119)
          -0.1018 (120)  0.1074 (121) -0.1016 (125)  0.1075 (128) -0.1343 (131)
           0.1055 (132) -0.1548 (134) -0.1546 (135) -0.1339 (137)  0.1058 (138)
          -0.1339 (140) -0.1549 (142)  0.1059 (144) -0.1338 (145) -0.1545 (147)
           0.1060 (149) -0.1622 (151) -0.1624 (155)  0.1351 (162)  0.1350 (163)
           0.1345 (164)  0.1345 (165)  0.2137 (170)  0.2133 (171)
 CRD 74=   0.2156 (  1) -0.2160 (  3) -0.2156 (  4)  0.2147 (  5)  0.1911 (  7)
          -0.1920 (  9)  0.1910 ( 10) -0.1927 ( 13) -0.1679 ( 14)  0.1663 ( 16)
          -0.1669 ( 18)  0.1673 ( 19)  0.1069 ( 21) -0.1069 ( 23)  0.1074 ( 25)
          -0.1088 ( 27)  0.1455 ( 34)  0.1072 ( 36) -0.1080 ( 37) -0.1460 ( 39)
           0.1073 ( 40) -0.1459 ( 41)  0.1454 ( 42) -0.1080 ( 45) -0.1282 ( 48)
           0.1272 ( 49) -0.1279 ( 51)  0.1279 ( 55) -0.1154 ( 56) -0.1069 ( 59)
           0.1061 ( 60)  0.1148 ( 61) -0.1153 ( 64) -0.1070 ( 65)  0.1151 ( 68)
           0.1068 ( 69)
 CRD 75=   0.1248 (  1) -0.2847 (  2)  0.1246 (  3)  0.1257 (  4)  0.1258 (  5)
          -0.1381 (  6)  0.1138 (  7) -0.1380 (  8)  0.1137 (  9)  0.1146 ( 10)
          -0.1377 ( 11) -0.1377 ( 12)  0.1146 ( 13) -0.2435 ( 15) -0.2432 ( 17)
          -0.1293 ( 29) -0.1292 ( 31) -0.1596 ( 35) -0.1595 ( 38) -0.1600 ( 43)
          -0.1600 ( 44) -0.1416 ( 46) -0.1651 ( 47) -0.1415 ( 50) -0.1651 ( 52)
          -0.1411 ( 53) -0.1413 ( 54) -0.1129 ( 57) -0.1128 ( 62) -0.1127 ( 66)
          -0.1128 ( 70)
 CRD 76=  -0.1297 ( 88) -0.1299 ( 89) -0.1292 ( 91) -0.1294 ( 93)  0.1288 ( 96)
           0.1291 ( 99)  0.1295 (101)  0.1297 (102)  0.1635 (106) -0.1294 (111)
           0.1632 (112) -0.1291 (119)  0.1288 (120) -0.1633 (122)  0.1291 (125)
          -0.1634 (127) -0.1062 (130) -0.1040 (132) -0.1053 (136) -0.1034 (138)
           0.1057 (141)  0.1037 (144)  0.1061 (146)  0.1044 (149) -0.1481 (150)
           0.1635 (152) -0.1484 (154)  0.1633 (156) -0.1631 (158)  0.1483 (159)
          -0.1636 (160)  0.1479 (161)  0.2395 (166)  0.2392 (167) -0.2393 (168)
          -0.2396 (169)
 CRD 77=  -0.1341 ( 94)  0.1343 ( 95) -0.1347 ( 97)  0.1346 (103) -0.1483 (107)
          -0.1730 (108)  0.1288 (110)  0.1477 (113)  0.1728 (116) -0.1287 (118)
          -0.1728 (121) -0.1474 (123)  0.1732 (128)  0.1478 (129) -0.1581 (130)
          -0.1550 (132)  0.1579 (136)  0.1552 (138) -0.1586 (141) -0.1554 (144)
           0.1580 (146)  0.1553 (149)  0.1409 (152) -0.1414 (156)  0.1413 (158)
          -0.1409 (160)  0.2352 (166) -0.2361 (167)  0.2365 (168) -0.2353 (169)
 CRD 78=   0.1714 (105) -0.1099 (106)  0.1570 (109)  0.1098 (112) -0.1713 (115)
          -0.1571 (117)  0.1095 (122) -0.1098 (127)  0.1360 (130) -0.1210 (131)
          -0.1355 (136)  0.1210 (137)  0.1210 (140) -0.1351 (141) -0.1213 (145)
           0.1354 (146) -0.1406 (151) -0.2325 (153)  0.1406 (155)  0.2320 (157)
          -0.1713 (166)  0.1712 (167)  0.1703 (168) -0.1705 (169)  0.2728 (170)
          -0.2721 (171)
 CRD 79=   0.1244 ( 88)  0.1244 ( 89)  0.1191 (101)  0.1187 (102) -0.1439 (105)
           0.1326 (106)  0.1330 (112) -0.1443 (115)  0.1333 (122)  0.1334 (127)
          -0.1960 (130) -0.1962 (136) -0.1888 (141) -0.1891 (146)  0.2728 (153)
           0.2729 (157)  0.2173 (166)  0.2182 (167)  0.2092 (168)  0.2093 (169)
          -0.2725 (170) -0.2726 (171)
 CRD 80=   0.1033 ( 88)  0.1030 ( 89)  0.1077 ( 91)  0.1074 ( 93) -0.1036 ( 96)
          -0.1037 ( 99) -0.1090 (101) -0.1090 (102)  0.1511 (104) -0.2236 (107)
           0.1075 (111) -0.2233 (113)  0.1512 (114)  0.1077 (119) -0.1036 (120)
           0.2232 (123) -0.1485 (124) -0.1037 (125) -0.1484 (126)  0.2230 (129)
          -0.1377 (130) -0.1412 (132) -0.1380 (136) -0.1415 (138)  0.1479 (141)
           0.1391 (144)  0.1478 (146)  0.1390 (149)  0.2111 (150)  0.2112 (154)
          -0.2070 (159) -0.2067 (161)  0.1598 (166)  0.1608 (167) -0.1714 (168)
          -0.1710 (169)
 CRD 81=   0.1594 ( 88) -0.1595 ( 89)  0.1596 ( 91) -0.1598 ( 93) -0.1581 ( 96)
           0.1582 ( 99) -0.1597 (101)  0.1599 (102) -0.1236 (104)  0.1633 (107)
          -0.2458 (108)  0.1656 (110) -0.1628 (113)  0.1234 (114)  0.2459 (116)
          -0.1656 (118) -0.2457 (121)  0.1633 (123) -0.1232 (124)  0.1233 (126)
           0.2456 (128) -0.1637 (129) -0.2052 (150)  0.2049 (154) -0.2050 (159)
           0.2052 (161)
 CRD 82=   0.1441 ( 91) -0.1439 ( 93)  0.1196 ( 94) -0.1196 ( 95)  0.1448 ( 96)
          -0.1192 ( 97) -0.1447 ( 99)  0.1192 (103) -0.1147 (107) -0.1451 (108)
           0.2151 (109)  0.1144 (113)  0.1450 (116) -0.2152 (117)  0.1476 (121)
           0.1134 (123) -0.1477 (128) -0.1136 (129) -0.1836 (130)  0.1697 (132)
           0.1838 (136) -0.1696 (138)  0.1834 (141) -0.1701 (144) -0.1834 (146)
           0.1701 (149) -0.1583 (151)  0.1926 (153)  0.1582 (155) -0.1928 (157)
           0.1626 (166) -0.1633 (167) -0.1627 (168)  0.1625 (169) -0.1500 (170)
           0.1502 (171)
 CRD 83=   0.1761 ( 88)  0.1761 ( 89)  0.1761 (101)  0.1761 (102) -0.2204 (105)
           0.1730 (107)  0.1727 (113) -0.2204 (115)  0.1724 (123)  0.1725 (129)
           0.1458 (130) -0.1972 (132)  0.1459 (136) -0.1973 (138)  0.1459 (141)
          -0.1976 (144)  0.1458 (146) -0.1975 (149) -0.1692 (150)  0.2182 (151)
          -0.1207 (153) -0.1692 (154)  0.2183 (155) -0.1209 (157) -0.1689 (159)
          -0.1689 (161) -0.1069 (166) -0.1074 (167) -0.1071 (168) -0.1070 (169)
 CRD 84=   0.1974 ( 88) -0.1974 ( 89) -0.2195 ( 91)  0.2195 ( 93) -0.2192 ( 96)
           0.2192 ( 99)  0.1971 (101) -0.1971 (102)  0.1853 (105) -0.1257 (107)
           0.1868 (108) -0.2273 (109)  0.1255 (113) -0.1852 (115) -0.1868 (116)
           0.2273 (117) -0.1880 (121)  0.1254 (123)  0.1879 (128) -0.1255 (129)
           0.1266 (132) -0.1266 (138) -0.1268 (144)  0.1268 (149)  0.1501 (150)
          -0.1470 (151) -0.1501 (154)  0.1470 (155) -0.1501 (159)  0.1502 (161)

 THE DETERMINANT OF THE G MATRIX IS 10**(   -44)


                     --------------------
                     INTERNAL COORDINATES
                     --------------------

                 - - ATOMS - -         COORDINATE      COORDINATE
 NO.   TYPE    I  J  K  L  M  N        (BOHR,RAD)       (ANG,DEG)
 ----------------------------------------------------------------
   1 STRETCH   1  6                     2.6666462       1.4111285
   2 STRETCH   1  2                     2.7012609       1.4294458
   3 STRETCH   1  5                     2.6665274       1.4110657
   4 STRETCH   2  3                     2.6662649       1.4109267
   5 STRETCH   2  4                     2.6662300       1.4109083
   6 STRETCH   3 19                     2.0726057       1.0967758
   7 STRETCH   3  7                     2.6223521       1.3876891
   8 STRETCH   4 20                     2.0722577       1.0965916
   9 STRETCH   4  8                     2.6224365       1.3877337
  10 STRETCH   5  9                     2.6241919       1.3886626
  11 STRETCH   5 21                     2.0724325       1.0966841
  12 STRETCH   6 22                     2.0725678       1.0967557
  13 STRETCH   6 10                     2.6239768       1.3885488
  14 STRETCH   7 11                     2.7164874       1.4375034
  15 STRETCH   7 10                     2.7086344       1.4333477
  16 STRETCH   8 12                     2.7162970       1.4374025
  17 STRETCH   8  9                     2.7085372       1.4332963
  18 STRETCH   9 13                     2.7160278       1.4372601
  19 STRETCH  10 14                     2.7160991       1.4372979
  20 STRETCH  11 23                     2.0706280       1.0957292
  21 STRETCH  11 15                     2.5635157       1.3565542
  22 STRETCH  12 24                     2.0703765       1.0955961
  23 STRETCH  12 16                     2.5632465       1.3564117
  24 STRETCH  13 25                     2.0706085       1.0957189
  25 STRETCH  13 17                     2.5638627       1.3567378
  26 STRETCH  14 26                     2.0708338       1.0958381
  27 STRETCH  14 18                     2.5637244       1.3566646
  28 STRETCH  15 27                     2.0691655       1.0949553
  29 STRETCH  15 18                     2.7097321       1.4339286
  30 STRETCH  16 28                     2.0693104       1.0950320
  31 STRETCH  16 17                     2.7097786       1.4339532
  32 STRETCH  17 29                     2.0692386       1.0949940
  33 STRETCH  18 30                     2.0691907       1.0949687
  34 BEND      1  2  3                  2.0865216     119.5488803
  35 BEND      1  6 10                  2.1050171     120.6085933
  36 BEND      1  5 21                  2.0824949     119.3181678
  37 BEND      1  6 22                  2.0826327     119.3260635
  38 BEND      1  5  9                  2.1051336     120.6152731
  39 BEND      1  2  4                  2.0868358     119.5668822
  40 BEND      2  3 19                  2.0824862     119.3176720
  41 BEND      2  1  6                  2.0838723     119.3970882
  42 BEND      2  1  5                  2.0835804     119.3803648
  43 BEND      2  3  7                  2.1050919     120.6128831
  44 BEND      2  4  8                  2.1049955     120.6073568
  45 BEND      2  4 20                  2.0824930     119.3180600
  46 BEND      3  7 11                  2.1168660     121.2874852
  47 BEND      3  2  4                  2.1098272     120.8841954
  48 BEND      3  7 10                  2.0921746     119.8727722
  49 BEND      4  8  9                  2.0920771     119.8671872
  50 BEND      4  8 12                  2.1168818     121.2883923
  51 BEND      5  9  8                  2.0937351     119.9621838
  52 BEND      5  1  6                  2.1157313     121.2224733
  53 BEND      5  9 13                  2.1165970     121.2720763
  54 BEND      6 10 14                  2.1167056     121.2782952
  55 BEND      6 10  7                  2.0936794     119.9589937
  56 BEND      7 10 14                  2.0727366     118.7590581
  57 BEND      7 11 15                  2.1032592     120.5078762
  58 BEND      7 11 23                  2.0678139     118.4770117
  59 BEND      7  3 19                  2.0956059     120.0693752
  60 BEND      8  4 20                  2.0956929     120.0743605
  61 BEND      8  9 13                  2.0728532     118.7657398
  62 BEND      8 12 16                  2.1032101     120.5050630
  63 BEND      8 12 24                  2.0644549     118.2845542
  64 BEND      9  8 12                  2.0742263     118.8444128
  65 BEND      9  5 21                  2.0955559     120.0665106
  66 BEND      9 13 17                  2.1034495     120.5187794
  67 BEND      9 13 25                  2.0646779     118.2973286
  68 BEND     10  7 11                  2.0741150     118.8380334
  69 BEND     10  6 22                  2.0955355     120.0653379
  70 BEND     10 14 18                  2.1036065     120.5277761
  71 BEND     10 14 26                  2.0659071     118.3677586
  72 BEND     11 15 18                  2.1058699     120.6574557
  73 BEND     11 15 27                  2.1031319     120.5005836
  74 BEND     12 16 17                  2.1059504     120.6620690
  75 BEND     12 16 28                  2.1035395     120.5239339
  76 BEND     13 17 29                  2.1028297     120.4832642
  77 BEND     13 17 16                  2.1066319     120.7011153
  78 BEND     14 18 30                  2.1029614     120.4908134
  79 BEND     14 18 15                  2.1066238     120.7006527
  80 BEND     15 18 30                  2.0735993     118.8084869
  81 BEND     15 11 23                  2.1121097     121.0149733
  82 BEND     16 17 29                  2.0736958     118.8140188
  83 BEND     16 12 24                  2.1155197     121.2103523
  84 BEND     17 16 28                  2.0736861     118.8134632
  85 BEND     17 13 25                  2.1150575     121.1838657
  86 BEND     18 15 27                  2.0741727     118.8413441
  87 BEND     18 14 26                  2.1136713     121.1044451
  88 TORSION   1  5  9  8              -0.0045091      -0.2583547
  89 TORSION   1  6 10  7              -0.0024622      -0.1410753
  90 TORSION   1  2  3 19               3.1399052     179.9033157
  91 TORSION   1  2  4  8              -0.0006851      -0.0392522
  92 TORSION   1  2  4 20               3.1379133     179.7891858
  93 TORSION   1  2  3  7              -0.0033626      -0.1926603
  94 TORSION   1  6 10 14              -3.1317681    -179.4370939
  95 TORSION   1  5  9 13               3.1371633     179.7462178
  96 TORSION   2  1  5  9               0.0006947       0.0398039
  97 TORSION   2  4  8 12               3.1379067     179.7888083
  98 TORSION   2  1  6 22               3.1391167     179.8581367
  99 TORSION   2  1  6 10              -0.0020155      -0.1154820
 100 TORSION   2  1  5 21               3.1408907     179.9597822
 101 TORSION   2  4  8  9              -0.0031213      -0.1788354
 102 TORSION   2  3  7 10              -0.0011134      -0.0637913
 103 TORSION   2  3  7 11              -3.1343079    -179.5826135
 104 TORSION   3  7 10 14               3.1336866     179.5470168
 105 TORSION   3  7 10  6               0.0040725       0.2333345
 106 TORSION   3  7 11 15               3.1360847     179.6844189
 107 TORSION   3  7 11 23              -0.0031662      -0.1814074
 108 TORSION   3  2  4 20              -0.0049890      -0.2858487
 109 TORSION   3  2  1  6               0.0049353       0.2827698
 110 TORSION   3  2  1  5              -3.1383592    -179.8147392
 111 TORSION   3  2  4  8               3.1395980     179.8857133
 112 TORSION   4  8 12 16               3.1391544     179.8602987
 113 TORSION   4  8 12 24              -0.0035336      -0.2024622
 114 TORSION   4  8  9 13              -3.1359190    -179.6749213
 115 TORSION   4  8  9  5               0.0057515       0.3295371
 116 TORSION   4  2  3 19              -0.0003781      -0.0216632
 117 TORSION   4  2  1  5               0.0019415       0.1112380
 118 TORSION   4  2  1  6              -3.1379493    -179.7912530
 119 TORSION   4  2  3  7               3.1395395     179.8823609
 120 TORSION   5  1  6 10               3.1413112     179.9838766
 121 TORSION   5  1  6 22              -0.0007418      -0.0425047
 122 TORSION   5  9 13 17               3.1403338     179.9278709
 123 TORSION   5  9 13 25              -0.0022769      -0.1304590
 124 TORSION   5  9  8 12              -3.1352902    -179.6388960
 125 TORSION   6  1  5  9               3.1405535     179.9404616
 126 TORSION   6 10  7 11               3.1374723     179.7639198
 127 TORSION   6 10 14 18              -3.1355923    -179.6562040
 128 TORSION   6  1  5 21              -0.0024358      -0.1395600
 129 TORSION   6 10 14 26               0.0051071       0.2926159
 130 TORSION   7 11 15 18               0.0089647       0.5136386
 131 TORSION   7 11 15 27              -3.1376713    -179.7753254
 132 TORSION   7 10 14 18               0.0181433       1.0395317
 133 TORSION   7 10 14 26              -3.1243427    -179.0116484
 134 TORSION   7 10  6 22               3.1395943     179.8855009
 135 TORSION   8  9  5 21               3.1384906     179.8222651
 136 TORSION   8 12 16 17              -0.0052337      -0.2998690
 137 TORSION   8 12 16 28               3.1410537     179.9691190
 138 TORSION   8  9 13 17              -0.0011800      -0.0676100
 139 TORSION   8  9 13 25               3.1393946     179.8740602
 140 TORSION   9 13 17 29              -3.1405469    -179.9400841
 141 TORSION   9 13 17 16              -0.0070851      -0.4059486
 142 TORSION   9  8  4 20               3.1414883     179.9940230
 143 TORSION   9  8 12 24               3.1374999     179.7655047
 144 TORSION   9  8 12 16              -0.0029973      -0.1717343
 145 TORSION  10 14 18 30               3.1363144     179.6975786
 146 TORSION  10 14 18 15              -0.0066717      -0.3822611
 147 TORSION  10  7  3 19               3.1387916     179.8395120
 148 TORSION  10  7 11 23              -3.1364456    -179.7050927
 149 TORSION  10  7 11 15               0.0028053       0.1607336
 150 TORSION  11  7  3 19               0.0055971       0.3206898
 151 TORSION  11  7 10 14              -0.0160989      -0.9223978
 152 TORSION  11 15 18 30               3.1330433     179.5101558
 153 TORSION  11 15 18 14              -0.0071790      -0.4113280
 154 TORSION  12  8  4 20              -0.0006690      -0.0383333
 155 TORSION  12  8  9 13               0.0062246       0.3566456
 156 TORSION  12 16 17 29              -3.1390921    -179.8567294
 157 TORSION  12 16 17 13               0.0104977       0.6014725
 158 TORSION  13 17 16 28              -3.1357105    -179.6629792
 159 TORSION  13  9  5 21              -0.0030223      -0.1731623
 160 TORSION  14 18 15 27               3.1393745     179.8729071
 161 TORSION  14 10  6 22               0.0102884       0.5894822
 162 TORSION  15 18 14 26               3.1358389     179.6703351
 163 TORSION  16 17 13 25               3.1355553     179.6540851
 164 TORSION  17 16 12 24               3.1374868     179.7647511
 165 TORSION  18 15 11 23              -3.1350298    -179.6239755
 166 TORSION  23 11 15 27               0.0015195       0.0870605
 167 TORSION  24 12 16 28               0.0005889       0.0337390
 168 TORSION  25 13 17 29               0.0020935       0.1199496
 169 TORSION  26 14 18 30              -0.0043603      -0.2498253
 170 TORSION  27 15 18 30              -0.0035886      -0.2056090
 171 TORSION  28 16 17 29              -0.0021150      -0.1211811

     ------------------------------------------
     THE POINT GROUP IS C1 , NAXIS= 1, ORDER= 1
     ------------------------------------------

     DIMENSIONS OF THE SYMMETRY SUBSPACES ARE
 A   =  414

 ..... DONE SETTING UP THE RUN .....
 STEP CPU TIME =     0.03 TOTAL CPU TIME =        0.0 (    0.0 MIN)
 TOTAL WALL CLOCK TIME=        0.0 SECONDS, CPU UTILIZATION IS  75.00%


          -----------------------------
          STATIONARY POINT LOCATION RUN
          -----------------------------

 OBTAINING INITIAL HESSIAN, HESS=GUESS   
 DIAGONAL GUESS HESSIAN IN INTERNAL COORDS IS
     1  0.4626     2  0.4464     3  0.4627     4  0.4628     5  0.4628
     6  0.3418     7  0.4842     8  0.3420     9  0.4841    10  0.4833
    11  0.3419    12  0.3418    13  0.4834    14  0.4395    15  0.4431
    16  0.4396    17  0.4431    18  0.4397    19  0.4397    20  0.3425
    21  0.5144    22  0.3426    23  0.5145    24  0.3425    25  0.5142
    26  0.3425    27  0.5143    28  0.3430    29  0.4426    30  0.3430
    31  0.4425    32  0.3430    33  0.3430    34  0.2647    35  0.2678
    36  0.2309    37  0.2309    38  0.2678    39  0.2647    40  0.2309
    41  0.2647    42  0.2647    43  0.2679    44  0.2679    45  0.2309
    46  0.2658    47  0.2661    48  0.2662    49  0.2662    50  0.2659
    51  0.2661    52  0.2661    53  0.2658    54  0.2658    55  0.2661
    56  0.2623    57  0.2683    58  0.2293    59  0.2324    60  0.2324
    61  0.2624    62  0.2683    63  0.2293    64  0.2623    65  0.2323
    66  0.2683    67  0.2293    68  0.2623    69  0.2323    70  0.2683
    71  0.2293    72  0.2686    73  0.2345    74  0.2686    75  0.2345
    76  0.2345    77  0.2686    78  0.2345    79  0.2686    80  0.2296
    81  0.2344    82  0.2296    83  0.2344    84  0.2296    85  0.2344
    86  0.2296    87  0.2344    88  0.2500    89  0.2500    90  0.2500
    91  0.2500    92  0.2500    93  0.2500    94  0.2500    95  0.2500
    96  0.2500    97  0.2500    98  0.2500    99  0.2500   100  0.2500
   101  0.2500   102  0.2500   103  0.2500   104  0.2500   105  0.2500
   106  0.2500   107  0.2500   108  0.2500   109  0.2500   110  0.2500
   111  0.2500   112  0.2500   113  0.2500   114  0.2500   115  0.2500
   116  0.2500   117  0.2500   118  0.2500   119  0.2500   120  0.2500
   121  0.2500   122  0.2500   123  0.2500   124  0.2500   125  0.2500
   126  0.2500   127  0.2500   128  0.2500   129  0.2500   130  0.2500
   131  0.2500   132  0.2500   133  0.2500   134  0.2500   135  0.2500
   136  0.2500   137  0.2500   138  0.2500   139  0.2500   140  0.2500
   141  0.2500   142  0.2500   143  0.2500   144  0.2500   145  0.2500
   146  0.2500   147  0.2500   148  0.2500   149  0.2500   150  0.2500
   151  0.2500   152  0.2500   153  0.2500   154  0.2500   155  0.2500
   156  0.2500   157  0.2500   158  0.2500   159  0.2500   160  0.2500
   161  0.2500   162  0.2500   163  0.2500   164  0.2500   165  0.2500
   166  0.2500   167  0.2500   168  0.2500   169  0.2500   170  0.2500
   171  0.2500
 TRANSFORMING HESSIAN TO SYMMETRY COORDINATES

          PARAMETERS CONTROLLING GEOMETRY SEARCH ARE
          METHOD =QA                  UPHESS =BFGS    
          NNEG   =         0          NFRZ   =         3
          NSTEP  =        50          IFOLOW =         1
          HESS   =GUESS               RESTAR =         F
          IHREP  =         0          HSSEND =         F
          NPRT   =         0          NPUN   =         0
          OPTTOL = 5.000E-04          RMIN   = 1.500E-03
          RMAX   = 1.000E-01          RLIM   = 7.000E-02
          DXMAX  = 3.000E-01          PURIFY =         F
          MOVIE  =         F          TRUPD  =         T
          TRMAX  = 5.000E-01          TRMIN  = 5.000E-02
          ITBMAT =         5          STPT   =         F
          STSTEP = 1.000E-02          PROJCT=          F
          FROZEN COORD(S)=   1   2   3


      ***** EQUILIBRIUM GEOMETRY LOCATED *****
            (SUBJECT TO   3 CONSTRAINT(S))
 COORDINATES OF ALL ATOMS ARE (ANGS)
   ATOM   CHARGE       X              Y              Z
 ------------------------------------------------------------
 C           6.0   4.1666275144   3.9405928107   4.4576315497
 C           6.0   3.0921668129   3.0057755750   4.5462069279
 C           6.0   2.0092417278   3.1203825980   3.6513631615
 C           6.0   3.1435779269   1.9942624649   5.5264159634
 C           6.0   5.2496670271   3.8238876228   5.3529448569
 C           6.0   4.1129143949   4.9527444202   3.4774079560
 C           6.0   1.9686820177   4.1109419795   2.7008464498
 C           6.0   4.2038456655   1.8917511715   6.3933890831
 C           6.0   5.2885562776   2.8325605395   6.3034437522
 C           6.0   3.0512661624   5.0542110971   2.6112077496
 C           6.0   0.8615947895   4.2428728271   1.7791816030
 C           6.0   4.2686963949   0.8599228203   7.4051017370
 C           6.0   6.3931324724   2.6981119183   7.2281478229
 C           6.0   2.9821173399   6.0852497310   1.5985610586
 C           6.0   0.8428434972   5.2205715654   0.8597624168
 C           6.0   5.3160588168   0.7785442530   8.2405858864
 C           6.0   6.4068129159   1.7211700807   8.1487828591
 C           6.0   1.9318280748   6.1650953126   0.7662875483
 H           1.0   1.2002693355   2.4143635544   3.7201230107
 H           1.0   2.3315224234   1.2915112541   5.5922350420
 H           1.0   6.0597688537   4.5288255480   5.2851111325
 H           1.0   4.9232969800   5.6575589261   3.4115829997
 H           1.0   0.0527596301   3.5371342306   1.8499455693
 H           1.0   3.4550893085   0.1592398738   7.4714160913
 H           1.0   7.2047407843   3.4008511266   7.1593872828
 H           1.0   3.7946883542   6.7866897512   1.5281017467
 H           1.0   0.0152481436   5.3126407051   0.1792664640
 H           1.0   5.3561832177   0.0087171089   8.9904115859
 H           1.0   7.2320208640   1.6280917820   8.8320323229
 H           1.0   1.8884476236   6.9345045509   0.0162259497


                     --------------------
                     INTERNAL COORDINATES
                     --------------------

                 - - ATOMS - -         COORDINATE      COORDINATE
 NO.   TYPE    I  J  K  L  M  N        (BOHR,RAD)       (ANG,DEG)
 ----------------------------------------------------------------
   1 STRETCH   1  6                     2.6645634       1.4100263
   2 STRETCH   1  2                     2.6965500       1.4269529
   3 STRETCH   1  5                     2.6645677       1.4100286
   4 STRETCH   2  3                     2.6635129       1.4094704
   5 STRETCH   2  4                     2.6635161       1.4094721
   6 STRETCH   3 19                     2.0332144       1.0759308
   7 STRETCH   3  7                     2.5954236       1.3734391
   8 STRETCH   4 20                     2.0332130       1.0759301
   9 STRETCH   4  8                     2.5954123       1.3734332
  10 STRETCH   5  9                     2.5963555       1.3739323
  11 STRETCH   5 21                     2.0333696       1.0760129
  12 STRETCH   6 22                     2.0333806       1.0760187
  13 STRETCH   6 10                     2.5963592       1.3739342
  14 STRETCH   7 11                     2.7335877       1.4465524
  15 STRETCH   7 10                     2.7186979       1.4386731
  16 STRETCH   8 12                     2.7335380       1.4465261
  17 STRETCH   8  9                     2.7187172       1.4386833
  18 STRETCH   9 13                     2.7340636       1.4468043
  19 STRETCH  10 14                     2.7340851       1.4468157
  20 STRETCH  11 23                     2.0329173       1.0757736
  21 STRETCH  11 15                     2.5364446       1.3422288
  22 STRETCH  12 24                     2.0329365       1.0757837
  23 STRETCH  12 16                     2.5364771       1.3422460
  24 STRETCH  13 25                     2.0329082       1.0757688
  25 STRETCH  13 17                     2.5368622       1.3424498
  26 STRETCH  14 26                     2.0328870       1.0757575
  27 STRETCH  14 18                     2.5368556       1.3424463
  28 STRETCH  15 27                     2.0321941       1.0753909
  29 STRETCH  15 18                     2.7298203       1.4445588
  30 STRETCH  16 28                     2.0322089       1.0753987
  31 STRETCH  16 17                     2.7297978       1.4445469
  32 STRETCH  17 29                     2.0321906       1.0753890
  33 STRETCH  18 30                     2.0321935       1.0753906
  34 BEND      1  2  3                  2.0781305     119.0681082
  35 BEND      1  6 10                  2.1184975     121.3809669
  36 BEND      1  5 21                  2.0760471     118.9487356
  37 BEND      1  6 22                  2.0760481     118.9487964
  38 BEND      1  5  9                  2.1185046     121.3813743
  39 BEND      1  2  4                  2.0781301     119.0680816
  40 BEND      2  3 19                  2.0757376     118.9310012
[...]
 862  12   6.690909  -1.407516  12.329182  -0.000792   0.155886  -0.005078
 863  12   7.316624  -2.007115  13.670589  -0.000689   0.155886  -0.004419
 864  12   7.252666  -1.783333  15.250539  -0.001214   0.155886  -0.007791
 865  24   6.413955  -1.238509  16.024393  -0.000585   0.072467  -0.008072
 866  24   5.667957  -0.350696  16.252708  -0.001100   0.163853  -0.006712
 867  24   4.781912   0.627600  15.718819  -0.001034   0.163853  -0.006314
 868  24   4.297402   1.098411  14.749056  -0.000408   0.072467  -0.005635
 869  12   6.440691  -0.734592  16.369853  -0.001144   0.156019  -0.007330
 870  12   5.395633   0.473871  16.317091  -0.000711   0.156019  -0.004560
 871  12   4.573147   1.327393  15.244558  -0.000822   0.156019  -0.005267
 872  28   8.074507  -1.448729  17.172082  -0.000312   0.041648  -0.007495
 873  12   7.275792  -1.312554  16.441513  -0.000264   0.058846  -0.004487
 874  28   8.229996  -1.654285  16.955049  -0.000315   0.041711  -0.007547
 875  12   7.459716  -1.545780  16.190117  -0.000268   0.058936  -0.004544
 876  13   9.185066   5.677214  16.175100   0.000387   0.047913   0.008080
 877  16   8.831808   5.042619  16.507615   0.000344   0.047913   0.007182
 878  17   9.162885   5.377565  16.493295   0.000422   0.047913   0.008807
 879  17  14.830865   5.618964  16.477321  -0.000734   0.201814  -0.003635
 880  17  12.969777   6.279059  17.205420   0.001945   0.415130   0.004686
 881  17  10.438538   6.049358  16.999261   0.004084   0.415130   0.009838
 882  13  14.138177   6.366558  16.366416  -0.000755   0.415130  -0.001819
 883  13  11.668772   6.784085  16.846147   0.003707   0.415130   0.008930
 884  13   9.695318   6.268018  16.327826   0.001643   0.201814   0.008142
 885  17  13.015393   1.536554  12.172218   0.001649   0.201842   0.008169
 886  17  14.731164   2.385417  13.047512   0.003711   0.415192   0.008939
 887  17  15.596711   4.037049  14.787293  -0.000739   0.415192  -0.001779
 888  13  13.703926   2.284919  12.041618   0.004060   0.415192   0.009779
 889  13  15.383756   3.613329  13.426319   0.001929   0.415192   0.004646
 890  13  15.619783   5.049562  14.946879  -0.000697   0.201842  -0.003455
 891  13  12.606909   8.895946  13.363762  -0.000458   0.084204  -0.005443
 892  21  12.414536   9.287665  12.499918  -0.000613   0.084204  -0.007277
 893  25  12.904516   8.887767  13.320937  -0.000650   0.084204  -0.007715
 894  13  14.334251   6.666539  10.966871  -0.000434   0.084204  -0.005149
 895  21  13.923752   7.339783  10.405702  -0.000606   0.084204  -0.007195
 896  25  14.471734   6.865026  11.146238  -0.000608   0.084204  -0.007217
 897  13  12.478128   9.066469  13.427814   0.000039   0.005974   0.006521
 898  25  13.203815   8.796699  14.009629  -0.000453   0.071697  -0.006325
 899  25  13.684768   8.335356  14.971607  -0.001003   0.161694  -0.006202
 900  25  14.563497   7.373404  15.512272  -0.001125   0.161694  -0.006955
 901  25  15.307146   6.494162  15.303767  -0.000589   0.071697  -0.008217
 902  13  12.983548   8.602435  14.542352  -0.000782   0.154736  -0.005053
 903  13  13.799180   7.765014  15.611076  -0.000679   0.154736  -0.004390
 904  13  14.838393   6.571919  15.683601  -0.001183   0.154736  -0.007647
 905  25  15.678638   6.014812  14.789492  -0.000588   0.071782  -0.008196
 906  25  15.880964   5.673306  13.687210  -0.001088   0.161933  -0.006717
 907  25  15.599859   5.863862  12.316569  -0.001000   0.161933  -0.006173
 908  25  15.005934   6.470826  11.509453  -0.000403   0.071782  -0.005611
 909  13  15.687919   5.475696  14.507086  -0.001113   0.154879  -0.007189
 910  13  15.730133   5.273154  12.935119  -0.000695   0.154879  -0.004485
 911  13  15.094652   5.877862  11.614370  -0.000803   0.154879  -0.005186
 912  29  15.601235   4.651137  16.298427  -0.000263   0.031702  -0.008297
 913  13  15.500204   5.409773  15.521197  -0.000236   0.044794  -0.005259
 914  29  15.424143   4.883732  16.546226  -0.000264   0.031857  -0.008296
 915  13  15.291486   5.675213  15.807449  -0.000243   0.045013  -0.005404
 916  14   2.451867  12.360304   5.064524   0.000370   0.047913   0.007732
 917  15   1.747792  12.074119   4.818648   0.000371   0.047913   0.007738
 918  18   2.089459  12.398562   4.822196   0.000419   0.047913   0.008748
 919  18   6.256329  13.896258  -0.084530  -0.000734   0.201582  -0.003640
 920  18   6.578077  11.906171  -0.681503   0.001933   0.414599   0.004662
 921  18   6.022546   9.464147  -0.214762   0.004080   0.414599   0.009842
 922  14   6.907716  13.113859   0.029972  -0.000761   0.414599  -0.001836
 923  14   6.930944  10.581027  -0.242361   0.003694   0.414599   0.008910
 924  14   6.200978   8.755955   0.503702   0.001668   0.201582   0.008277
 925  18   2.397009  13.063190   4.705785   0.001604   0.202099   0.007936
 926  18   3.386903  14.559354   3.600148   0.003723   0.415780   0.008955
 927  18   4.967561  15.024983   1.650123  -0.000736   0.415780  -0.001770
 928  14   3.242771  13.644119   4.705804   0.004065   0.415780   0.009777
 929  14   4.651591  14.991453   3.057228   0.001941   0.415780   0.004668
 930  14   5.953764  14.885309   1.403774  -0.000695   0.202099  -0.003438
 931  14   7.749449  13.724499   5.336572  -0.000465   0.084206  -0.005520
 932  22   8.408630  13.270066   5.880323  -0.000616   0.084206  -0.007310
 933  26   7.947399  13.814671   5.128828  -0.000604   0.084206  -0.007174
 934  22   8.687928  13.216290   6.379601  -0.000030   0.006498  -0.004595
 935  14   7.696397  13.813059   5.541483   0.000050   0.009204   0.005394
 936  26   6.931299  14.811634   1.468958  -0.000587   0.071642  -0.008194
 937  26   6.729648  15.155673   2.568297  -0.001083   0.161538  -0.006703
 938  26   7.008788  14.969857   3.937484  -0.000993   0.161538  -0.006150
 939  26   7.599550  14.366796   4.746738  -0.000398   0.071642  -0.005557
 940  14   6.428695  14.924623   1.792053  -0.001111   0.154645  -0.007182
 941  14   6.386126  15.131525   3.360712  -0.000691   0.154645  -0.004467
 942  14   7.017975  14.532355   4.682480  -0.000799   0.154645  -0.005166
 943  26   9.403602  12.027051   2.259479  -0.000458   0.071861  -0.006378
 944  26   8.923107  12.486620   1.293412  -0.001008   0.162153  -0.006214
 945  26   8.043982  13.450359   0.749226  -0.001130   0.162153  -0.006967
 946  26   7.300227  14.332871   0.957470  -0.000590   0.071861  -0.008214
 947  14   9.130053  11.792895   1.768327  -0.000786   0.155011  -0.005072
 948  14   8.314535  12.629735   0.694427  -0.000684   0.155011  -0.004413
 949  14   7.274951  13.826547   0.620002  -0.001187   0.155011  -0.007655
 950  30   5.428326  14.810900   0.097320  -0.000268   0.032453  -0.008246
 951  14   6.237962  14.664394   0.813484  -0.000239   0.045855  -0.005211
 952  30   5.607982  14.582223  -0.149588  -0.000262   0.031592  -0.008299
 953  14   6.441201  14.397282   0.529648  -0.000241   0.044639  -0.005401
 954  15   1.236041  12.068608  -1.555841  -0.000130   0.008422  -0.015414
 955  18   1.572659  12.390018  -1.624073  -0.000093   0.008422  -0.011077
 956  30   1.724589  12.641422  -1.669395  -0.000137   0.008422  -0.016214
 957  15   0.713638  12.742295  -0.834562  -0.000129   0.008422  -0.015302
 958  18   1.043106  13.072927  -0.892920  -0.000077   0.008422  -0.009120
 959  30   1.243052  13.262408  -1.004539  -0.000151   0.008422  -0.017953
 960  18   0.765117  13.221157  -0.418251  -0.000784   0.206940  -0.003789
 961  18   0.580210  13.628729   1.545852  -0.000538   0.422285  -0.001275
 962  18   1.264993  13.064957   3.826861   0.002052   0.422285   0.004858
 963  15   0.148711  12.977147   0.366478  -0.001595   0.422285  -0.003776
 964  15   0.282689  13.064376   2.808651   0.000742   0.422285   0.001758
 965  15   1.097825  12.289991   4.480144   0.001259   0.206940   0.006086
 966  18   4.910517   8.467944  -0.153347   0.001219   0.206218   0.005911
 967  18   3.878692   9.522796  -1.515284   0.000740   0.420696   0.001759
 968  18   2.282631  11.322372  -1.925502  -0.001577   0.420696  -0.003749
 969  15   4.029048   8.400475  -0.672712   0.002036   0.420696   0.004840
 970  15   2.585429   9.944206  -1.892146  -0.000460   0.420696  -0.001093
 971  15   1.276847  11.463540  -1.784963  -0.000766   0.206218  -0.003714
 972  15   0.437055  12.498821  -0.851532  -0.000220   0.019728  -0.011145
 973  27   0.216969  12.310976  -0.917847  -0.000214   0.019728  -0.010829
 974  30   1.028384  12.964006  -0.957522  -0.000198   0.019728  -0.010039
 975  15   0.922755  11.869921  -1.527307  -0.000207   0.019728  -0.010475
 976  27   0.652626  11.746873  -1.523996  -0.000242   0.019728  -0.012250
 977  30   1.454913  12.411722  -1.550971  -0.000196   0.019728  -0.009955
 978  27   0.326534  11.261384  -1.767338  -0.000551   0.071415  -0.007710
 979  27   0.410418  10.126183  -2.022933  -0.001086   0.160950  -0.006750
 980  27   0.012476   8.812416  -1.716703  -0.000846   0.160950  -0.005256
 981  27  -0.808540   8.114840  -0.812579  -0.001023   0.160950  -0.006357
 982  27  -1.544619   8.173885   0.090608  -0.000504   0.071415  -0.007064
 983  15   0.791481  10.883976  -1.867333  -0.001096   0.154220  -0.007106
 984  15   0.678932   9.310566  -1.943315  -0.000660   0.154220  -0.004278
 985  15  -0.048860   8.109671  -1.220660  -0.000610   0.154220  -0.003955
 986  15  -1.054821   7.837481  -0.034063  -0.001055   0.154220  -0.006841
 987  27  -2.056415   8.833566   0.802284  -0.000516   0.071527  -0.007218
 988  27  -2.220461   9.936515   1.151008  -0.000957   0.161263  -0.005936
 989  27  -1.911151  11.297023   0.958892  -0.000960   0.161263  -0.005954
 990  27  -1.132566  12.121353   0.123520  -0.001037   0.161263  -0.006430
 991  27  -0.387402  12.185470  -0.774053  -0.000534   0.071527  -0.007467
 992  15  -2.044020   9.113220   1.341564  -0.000982   0.154407  -0.006360
 993  15  -2.040645  10.680890   1.549544  -0.000623   0.154407  -0.004032
 994  15  -1.390984  11.985614   0.935956  -0.000687   0.154407  -0.004449
 995  15  -0.396844  12.421270  -0.214150  -0.001050   0.154407  -0.006801
 996  16  12.477241   1.061134  18.575352  -0.000130   0.008413  -0.015445
 997  17  12.847251   1.351463  18.583507  -0.000088   0.008413  -0.010494
 998  29  13.120448   1.468166  18.592656  -0.000135   0.008413  -0.016028
 999  16  12.998298   0.387985  17.854325  -0.000129   0.008413  -0.015282
1000  17  13.375441   0.669099  17.852610  -0.000081   0.008413  -0.009678
1001  29  13.600745   0.847676  17.928034  -0.000152   0.008413  -0.018022
1002  17   9.296385   5.098330  17.122519   0.001207   0.206674   0.005840
1003  17  10.325369   4.040878  18.490599   0.000745   0.421702   0.001768
1004  17  11.920720   2.235081  18.903870  -0.001588   0.421702  -0.003766
1005  16   9.158130   4.283154  17.730958   0.002044   0.421702   0.004846
1006  16  10.599431   2.734709  18.956443  -0.000472   0.421702  -0.001120
1007  16  11.908103   1.210020  18.849900  -0.000777   0.206674  -0.003760
1008  17  13.436788   0.334057  17.397160  -0.000780   0.206543  -0.003778
1009  17  13.623165  -0.072531  15.436570  -0.000469   0.421412  -0.001113
1010  17  12.944998   0.490275  13.157602   0.002045   0.421412   0.004853
1011  16  13.035000  -0.303274  16.700406  -0.001581   0.421412  -0.003751
1012  16  12.904886  -0.390170  14.261989   0.000751   0.421412   0.001783
1013  16  12.096251   0.382799  12.590884   0.001210   0.206543   0.005856
1014  16  12.716336   0.158119  17.927545  -0.000220   0.019711  -0.011170
1015  28  12.506792  -0.025144  18.030641  -0.000213   0.019711  -0.010826
1016  29  13.267591   0.680957  17.935403  -0.000201   0.019711  -0.010200
1017  16  12.229440   0.787912  18.600185  -0.000205   0.019711  -0.010381
1018  28  12.070063   0.539759  18.633977  -0.000241   0.019711  -0.012220
1019  29  12.840012   1.234024  18.526097  -0.000194   0.019711  -0.009845
1020  28  11.569123   0.311647  18.947775  -0.000550   0.071475  -0.007693
1021  28  10.485552   0.584723  19.286112  -0.001090   0.161119  -0.006764
1022  28   9.105028   0.359895  19.129156  -0.000848   0.161119  -0.005265
1023  28   8.217056  -0.425461  18.370371  -0.001025   0.161119  -0.006363
1024  28   8.087942  -1.238558  17.542500  -0.000507   0.071475  -0.007092
1025  16  11.271316   0.834341  19.031574  -0.001099   0.154322  -0.007122
1026  16   9.710934   0.962822  19.246972  -0.000663   0.154322  -0.004299
1027  16   8.356369   0.359620  18.700164  -0.000612   0.154322  -0.003967
1028  16   7.836002  -0.695439  17.644814  -0.001058   0.154322  -0.006853
1029  28   8.602359  -1.903006  16.832809  -0.000516   0.071443  -0.007228
1030  28   9.633618  -2.255718  16.415511  -0.000954   0.161029  -0.005927
1031  28  11.034357  -2.133734  16.465799  -0.000957   0.161029  -0.005941
1032  28  12.032987  -1.416005  17.149233  -0.001033   0.161029  -0.006416
1033  28  12.284976  -0.614191  17.958946  -0.000533   0.071443  -0.007455
1034  16   8.829083  -1.978374  16.274531  -0.000980   0.154269  -0.006353
1035  16  10.354257  -2.222174  15.942622  -0.000620   0.154269  -0.004017
1036  16  11.786893  -1.720791  16.380719  -0.000684   0.154269  -0.004435
1037  16  12.462971  -0.706613  17.385766  -0.001047   0.154269  -0.006787
1038  29  15.242933   4.939298  16.941582  -0.000519   0.071352  -0.007270
1039  29  14.504710   5.000988  17.841596  -0.000952   0.160773  -0.005919
1040  29  13.679721   4.307466  18.743520  -0.000955   0.160773  -0.005938
1041  29  13.277291   2.996524  19.050975  -0.001031   0.160773  -0.006410
1042  29  13.358184   1.861367  18.798629  -0.000526   0.071352  -0.007365
1043  17  14.753712   5.276889  17.064003  -0.000979   0.154114  -0.006350
1044  17  13.744126   5.008850  18.246844  -0.000618   0.154114  -0.004011
1045  17  13.011360   3.812189  18.968841  -0.000684   0.154114  -0.004437
1046  17  12.894205   2.240179  18.896180  -0.001041   0.154114  -0.006756
1047  29  14.080845   0.927882  17.798645  -0.000545   0.071389  -0.007634
1048  29  14.827833   0.994301  16.905496  -0.001087   0.160877  -0.006755
1049  29  15.608098   1.818258  16.075358  -0.000847   0.160877  -0.005265
1050  29  15.918869   3.176212  15.885013  -0.001023   0.160877  -0.006361
1051  29  15.755855   4.277656  16.231949  -0.000513   0.071389  -0.007190
1052  17  14.091918   0.693325  17.238876  -0.001095   0.154176  -0.007105
1053  17  15.088313   1.130699  16.095035  -0.000661   0.154176  -0.004287
1054  17  15.739699   2.433376  15.485771  -0.000611   0.154176  -0.003963
1055  17  15.744605   3.998457  15.693060  -0.001058   0.154176  -0.006861
1056  30   5.598905  14.362757  -0.528115  -0.000519   0.071328  -0.007271
1057  30   5.470203  13.550574  -1.353806  -0.000952   0.160707  -0.005922
1058  30   4.585376  12.763608  -2.109895  -0.000955   0.160707  -0.005941
1059  30   3.208249  12.533482  -2.266308  -0.001030   0.160707  -0.006408
1060  30   2.125172  12.800787  -1.929464  -0.000526   0.071328  -0.007377
1061  18   5.851911  13.820764  -0.630109  -0.000979   0.154075  -0.006354
1062  18   5.333428  12.765819  -1.682279  -0.000619   0.154075  -0.004016
1063  18   3.983099  12.158641  -2.227019  -0.000684   0.154075  -0.004439
1064  18   2.424843  12.279777  -2.012632  -0.001040   0.154075  -0.006750
1065  30   1.401122  13.734802  -0.929477  -0.000544   0.071413  -0.007621
1066  30   1.656620  14.536734  -0.121637  -0.001087   0.160945  -0.006757
1067  30   2.657686  15.254680   0.556929  -0.000847   0.160945  -0.005262
1068  30   4.058065  15.377086   0.601498  -0.001023   0.160945  -0.006358
1069  30   5.087479  15.024791   0.180576  -0.000513   0.071413  -0.007182
1070  18   1.225631  13.827431  -0.355695  -0.001096   0.154217  -0.007109
1071  18   1.905804  14.841795   0.645495  -0.000661   0.154217  -0.004286
1072  18   3.339608  15.343534   1.077249  -0.000610   0.154217  -0.003958
1073  18   4.863018  15.100283   0.739612  -0.001058   0.154217  -0.006858
1074  20   1.822915   3.070643  10.423221  -0.001159   0.265351  -0.004370
1075  20   1.976117   2.070218   9.730620  -0.003665   0.530850  -0.006904
1076  20   2.870003   1.368483   8.769599  -0.003355   0.530850  -0.006321
1077  19   1.172819   3.347828   9.046648  -0.003354   0.530850  -0.006318
1078  19   1.653793   2.287245   8.119905  -0.003667   0.530850  -0.006907
1079  19   2.554639   1.936573   7.365238  -0.001163   0.265351  -0.004385
1080  23   0.393174   4.058390   3.834837  -0.000923   0.265078  -0.003482
1081  23  -0.500941   4.406765   4.592605  -0.003419   0.530289  -0.006448
1082  23  -0.978598   5.462701   5.519632  -0.003127   0.530289  -0.005896
1083  19   0.721168   3.489442   5.239561  -0.003220   0.530289  -0.006073
1084  19  -0.166091   4.187380   6.202987  -0.003638   0.530289  -0.006861
1085  19  -0.318621   5.183911   6.894855  -0.001072   0.265078  -0.004043
1086  24   3.948490   0.942716  13.962957  -0.000922   0.265063  -0.003480
1087  24   4.098730  -0.054724  13.272130  -0.003419   0.530258  -0.006447
1088  24   4.988065  -0.759410  12.315787  -0.003126   0.530258  -0.005896
1089  20   3.301804   1.227097  12.582481  -0.003203   0.530258  -0.006041
1090  20   3.778520   0.167726  11.659135  -0.003643   0.530258  -0.006869
1091  20   4.675804  -0.187559  10.908567  -0.001084   0.265063  -0.004088
1092  22  10.481972  11.861927   8.529479  -0.001156   0.265410  -0.004355
1093  22  11.380087  11.513095   7.774523  -0.003656   0.530955  -0.006885
1094  22  11.859907  10.456541   6.846930  -0.003340   0.530955  -0.006291
1095  21  11.524964  11.080817   9.370517  -0.003344   0.530955  -0.006299
1096  21  12.416239  10.382213   8.408986  -0.003655   0.530955  -0.006884
1097  21  12.569396   9.385297   7.715476  -0.001156   0.265410  -0.004356
1098  25  14.723763   7.254387  11.252039  -0.000917   0.264959  -0.003463
1099  25  14.572982   8.249131  11.942800  -0.003386   0.530041  -0.006388
1100  25  13.688691   8.948479  12.903874  -0.003041   0.530041  -0.005737
1101  21  14.009791   8.324309  10.381735  -0.003190   0.530041  -0.006018
1102  21  13.534760   9.379379  11.306880  -0.003630   0.530041  -0.006848
1103  21  12.643057   9.730125  12.062687  -0.001083   0.264959  -0.004089
1104  26   8.356125  13.995982   4.967302  -0.000911   0.264646  -0.003444
1105  26   9.249850  13.640094   4.218422  -0.003375   0.529412  -0.006376
1106  26   9.726160  12.582613   3.299063  -0.003069   0.529412  -0.005796
1107  22   9.392752  13.211548   5.816709  -0.003211   0.529412  -0.006066
1108  22  10.279095  12.507293   4.863410  -0.003620   0.529412  -0.006838
1109  22  10.430516  11.511942   4.175973  -0.001005   0.264646  -0.003799
1110  27  -1.868616   8.168399   0.689361   0.000011   0.032321   0.000341
1111  23  -1.855170   7.116416   1.702683  -0.000075   0.032321  -0.002323
1112  28   7.982086  -1.609505  16.980762  -0.000003   0.042950  -0.000074
1113  24   6.855279  -1.534849  16.054277  -0.000100   0.042950  -0.002338
1114  29  15.583560   4.921313  16.321674  -0.000074   0.073087  -0.001010
1115  25  15.546806   6.009568  15.347972  -0.000185   0.073087  -0.002525
1116  30   5.690318  14.751130   0.052678  -0.000071   0.071984  -0.000983
1117  26   6.852234  14.636581   0.930515  -0.000181   0.071984  -0.002518
1118  30   1.425644  12.970809  -1.529550  -0.001051   0.321083  -0.003273
1119  27   0.214859  12.110482  -1.310670  -0.001031   0.321083  -0.003211
1120  29  13.384742   1.120718  18.462115  -0.001049   0.320797  -0.003269
1121  28  12.346614   0.036399  18.436623  -0.001029   0.320797  -0.003208
 =====================================================

             14012442  WORDS OF DYNAMIC MEMORY USED
 EXECUTION OF GAMESS TERMINATED NORMALLY Fri Nov 25 07:58:27 2016
 DDI: 263640 bytes (0.3 MB / 0 MWords) used by master data server.

 ----------------------------------------
 CPU timing information for all processes
 ========================================
 0: 4081.900 + 0.796 = 4082.696
 ----------------------------------------
 ddikick.x: exited gracefully.
