----- GAMESS execution script -----

          ******************************************************
          *         GAMESS VERSION =  5 DEC 2014 (R1)          *
          *             FROM IOWA STATE UNIVERSITY             *
          * M.W.SCHMIDT, K.K.BALDRIDGE, J.A.BOATZ, S.T.ELBERT, *
          *   M.S.GORDON, J.H.JENSEN, S.KOSEKI, N.MATSUNAGA,   *
          *          K.A.NGUYEN, S.J.SU, T.L.WINDUS,           *
          *       TOGETHER WITH M.DUPUIS, J.A.MONTGOMERY       *
          *         J.COMPUT.CHEM.  14, 1347-1363(1993)        *
          **************** 64 BIT LINUX VERSION ****************

 EXECUTION OF GAMESS BEGUN Fri Nov 25 07:22:08 2016

            ECHO OF THE FIRST FEW INPUT CARDS -
 INPUT CARD>! SELECT RESTRICTED HARTREE-FOCK AS DEFAULT                                     
 INPUT CARD>$contrl scftyp=rhf $end                                                         
 INPUT CARD>                                                                                
 INPUT CARD>! THEORY: HF OR DFT                                                             
 INPUT CARD> $contrl mplevl=0 $end                                                          
 INPUT CARD>                                                                                
 INPUT CARD> $system timlim=10000 mwords=20 $end                                            
 INPUT CARD> $SCF DIRSCF=.TRUE. $end                                                        
 INPUT CARD>                                                                                
 INPUT CARD>                                                                                
 INPUT CARD>! BASIS SETS                                                                    
 INPUT CARD>! 6-311G(d,p)                                                                   
 INPUT CARD> $BASIS GBASIS=N311 NGAUSS=6 NDFUNC=1 NPFUNC=1 $END                             
 INPUT CARD>                                                                                
 INPUT CARD>! One of the following                                                          
 INPUT CARD> $guess guess=HUCKEL $end                                                       
 INPUT CARD>                                                                                
 INPUT CARD> $statpt projct=.FALSE. $end                                                    
 INPUT CARD> $STATPT IFREEZ(1)=1,2,3 $END                                                   
 INPUT CARD>                                                                                
 INPUT CARD>! Optimize the geometry with COSMO effects                                      
 INPUT CARD> $statpt opttol=0.0005 nstep=50 $end                                            
 INPUT CARD> $contrl nzvar=1 $end                                                           
 INPUT CARD> $zmat dlc=.t. auto=.t. $end                                                    
 INPUT CARD> $contrl runtyp=OPTIMIZE maxit=200 $end                                         
 INPUT CARD>                                                                                
 INPUT CARD>! Run COSMO on perfect conductor                                                
 INPUT CARD> $COSGMS PRFCND=.TRUE. $end                                                     
 INPUT CARD>                                                                                
 INPUT CARD>! Specifying RSOLV                                                              
 INPUT CARD> $COSGMS COSRAD = 1.4 $end                                                      
 INPUT CARD>                                                                                
 INPUT CARD>! available memory                                                              
 INPUT CARD> $SYSTEM MWORDS=40 $END                                                         
 INPUT CARD>                                                                                
 INPUT CARD> $DATA                                                                          
 INPUT CARD>Propane, 2,2-dimethyl-, ID: C463821                                             
 INPUT CARD>C1                                                                              
 INPUT CARD>C      6.0      1.0880000000    1.0523000000    3.3031000000                    
 INPUT CARD>C      6.0      1.8149000000    1.7615000000    2.1633000000                    
 INPUT CARD>C      6.0      3.3208000000    1.7072000000    2.4081000000                    
 INPUT CARD>C      6.0      1.4887000000    1.0687000000    0.8426000000                    
 INPUT CARD>C      6.0      1.3621000000    3.2180000000    2.0993000000                    
 INPUT CARD>H      1.0      1.3925000000    0.0000000000    3.3776000000                    
 INPUT CARD>H      1.0      1.3008000000    1.5279000000    4.2696000000                    
 INPUT CARD>H      1.0      0.0000000000    1.0725000000    3.1566000000                    
 INPUT CARD>H      1.0      3.6799000000    0.6708000000    2.4596000000                    
 INPUT CARD>H      1.0      3.8746000000    2.2100000000    1.6043000000                    
 INPUT CARD>H      1.0      3.5898000000    2.1981000000    3.3528000000                    
 INPUT CARD>H      1.0      1.8009000000    0.0161000000    0.8561000000                    
   40000000 WORDS OF MEMORY AVAILABLE

     BASIS OPTIONS
     -------------
     GBASIS=N311         IGAUSS=       6      POLAR=POPN311 
     NDFUNC=       1     NFFUNC=       0     DIFFSP=       F
     NPFUNC=       1      DIFFS=       F     BASNAM=        


     RUN TITLE
     ---------
 Propane, 2,2-dimethyl-, ID: C463821                                             

 THE POINT GROUP OF THE MOLECULE IS C1      
 THE ORDER OF THE PRINCIPAL AXIS IS     0

 ATOM      ATOMIC                      COORDINATES (BOHR)
           CHARGE         X                   Y                   Z
 C           6.0     2.0560218746        1.9885586569        6.2419539100
 C           6.0     3.4296636951        3.3287523274        4.0880442292
 C           6.0     6.2754020600        3.2261402062        4.5506491510
 C           6.0     2.8132350779        2.0195501631        1.5922831173
 C           6.0     2.5739957679        6.0811382285        3.9671017660
 H           1.0     2.6314434379        0.0000000000        6.3827384961
 H           1.0     2.4581555648        2.8873123366        8.0683740772
 H           1.0     0.0000000000        2.0267311218        5.9651090528
 H           1.0     6.9540026622        1.2676281926        4.6479700394
 H           1.0     7.3219323120        4.1762944329        3.0316874021
 H           1.0     6.7837383507        4.1538066936        6.3358732916
 H           1.0     3.4032075313        0.0304245884        1.6177944181
 H           1.0     0.7761104632        2.0626359156        1.2003539474
 H           1.0     3.7762394413        2.9375790479        0.0000000000
 H           1.0     2.9929480194        7.0808032760        5.7360742631
 H           1.0     3.5266066383        7.1008343715        2.4316994010
 H           1.0     0.5300681396        6.2221117872        3.6379114990

          INTERNUCLEAR DISTANCES (ANGS.)




     $CONTRL OPTIONS
     ---------------
 SCFTYP=RHF          RUNTYP=OPTIMIZE     EXETYP=RUN     
 MPLEVL=       0     CITYP =NONE         CCTYP =NONE         VBTYP =NONE    
 DFTTYP=NONE         TDDFT =NONE    
 MULT  =       1     ICHARG=       0     NZVAR =       1     COORD =UNIQUE  
 PP    =NONE         RELWFN=NONE         LOCAL =NONE         NUMGRD=       F
 ISPHER=      -1     NOSYM =       0     MAXIT =     200     UNITS =ANGS    
 PLTORB=       F     MOLPLT=       F     AIMPAC=       F     FRIEND=        
 NPRINT=       7     IREST =       0     GEOM  =INPUT   
 NORMF =       0     NORMP =       0     ITOL  =      20     ICUT  =       9
 INTTYP=BEST         GRDTYP=BEST         QMTTOL= 1.0E-06

     $SYSTEM OPTIONS
     ---------------
  REPLICATED MEMORY=    40000000 WORDS (ON EVERY NODE).
 DISTRIBUTED MEMDDI=           0 MILLION WORDS IN AGGREGATE,
 MEMDDI DISTRIBUTED OVER   1 PROCESSORS IS           0 WORDS/PROCESSOR.
 TOTAL MEMORY REQUESTED ON EACH PROCESSOR=    40000000 WORDS.
 TIMLIM=       10000.00 MINUTES, OR       6.9 DAYS.
 PARALL= F  BALTYP=  DLB     KDIAG=    0  COREFL= F
 MXSEQ2=     300 MXSEQ3=     150  mem10=         0

     $COSGMS OPTIONS
     ---------------
     EPSI  =   INFTY     NSPA  =      92     COSRAD=    1.40
     DISEX =   10.00     OUTCHG=DBLCAV       COSBUG=       F
     COSWRT=       F     DCOSMO=       F

     SYMMETRY COORDINATES WILL NOT BE USED FOR 
     THE COSMO CALCULATION, EVEN IF SPECIFIED:
         -- SWITCHING TO C1 POINT GROUP --


     DEFINITION OF CAVITY
     ---------------------------
     ATOM         COORDINATES           RADIUS 
     1    2.0560    1.9886    6.2420    2.0000
     2    3.4297    3.3288    4.0880    2.0000
     3    6.2754    3.2261    4.5506    2.0000
     4    2.8132    2.0196    1.5923    2.0000
     5    2.5740    6.0811    3.9671    2.0000
     6    2.6314    0.0000    6.3827    1.3000
     7    2.4582    2.8873    8.0684    1.3000
     8    0.0000    2.0267    5.9651    1.3000
     9    6.9540    1.2676    4.6480    1.3000
    10    7.3219    4.1763    3.0317    1.3000
    11    6.7837    4.1538    6.3359    1.3000
    12    3.4032    0.0304    1.6178    1.3000
    13    0.7761    2.0626    1.2004    1.3000
    14    3.7762    2.9376    0.0000    1.3000
    15    2.9929    7.0808    5.7361    1.3000
    16    3.5266    7.1008    2.4317    1.3000
    17    0.5301    6.2221    3.6379    1.3000

          ----------------
          PROPERTIES INPUT
          ----------------

     MOMENTS            FIELD           POTENTIAL          DENSITY
 IEMOM =       1   IEFLD =       0   IEPOT =       0   IEDEN =       0
 WHERE =COMASS     WHERE =NUCLEI     WHERE =NUCLEI     WHERE =NUCLEI  
 OUTPUT=BOTH       OUTPUT=BOTH       OUTPUT=BOTH       OUTPUT=BOTH    
 IEMINT=       0   IEFINT=       0                     IEDINT=       0
                                                       MORB  =       0
          EXTRAPOLATION IN EFFECT
          SOSCF IN EFFECT
 ORBITAL PRINTING OPTION: NPREO=     1   167     2     1

     -------------------------------
     INTEGRAL TRANSFORMATION OPTIONS
     -------------------------------
     NWORD  =            0
     CUTOFF = 1.0E-09     MPTRAN =       0
     DIRTRF =       T     AOINTS =DUP     

          ----------------------
          INTEGRAL INPUT OPTIONS
          ----------------------
 NOPK  =       1 NORDER=       0 SCHWRZ=       T


 -----------------------------------------------
  STATISTICS ON AUTOMATIC COORDINATE GENERATION 
 -----------------------------------------------
  NUMBER OF USER SPECIFIED BONDS                             0
  NUMBER OF BONDS                                           16
  NUMBER OF ANGLES                                          30
  NUMBER OF TORSIONS                                        36
  NUMBER OF EXTRA COORD.                                     0
  NUMBER OF EXTRA COORD. FOR CONSTRAINTS                     0
  NUMBER OF CONSTRAINED COORD.                               0

  TOTAL NUMBER OF PRIMITIVES                                82
 -----------------------------------------------

   --- ENCODED Z MATRIX ---
 COORD  TYPE   I   J   K   L   M   N
    1      1    1   6
    2      1    1   7
    3      1    1   8
    4      1    1   2
    5      1    2   4
    6      1    2   5
    7      1    2   3
    8      1    3  11
    9      1    3  10
   10      1    3   9
   11      1    4  14
   12      1    4  13
   13      1    4  12
   14      1    5  16
   15      1    5  15
   16      1    5  17
   17      2    1   2   3
   18      2    1   2   5
   19      2    1   2   4
   20      2    2   4  12
   21      2    2   1   8
   22      2    2   3  10
   23      2    2   3  11
   24      2    2   5  17
   25      2    2   4  14
   26      2    2   3   9
   27      2    2   5  15
   28      2    2   4  13
   29      2    2   1   6
   30      2    2   1   7
   31      2    2   5  16
   32      2    3   2   5
   33      2    3   2   4
   34      2    4   2   5
   35      2    6   1   7
   36      2    6   1   8
   37      2    7   1   8
   38      2    9   3  10
   39      2    9   3  11
   40      2   10   3  11
   41      2   12   4  13
   42      2   12   4  14
   43      2   13   4  14
   44      2   15   5  17
   45      2   15   5  16
   46      2   16   5  17
   47      3    1   2   3   9
   48      3    1   2   5  17
   49      3    1   2   5  15
   50      3    1   2   5  16
   51      3    1   2   3  10
   52      3    1   2   4  12
   53      3    1   2   4  13
   54      3    1   2   3  11
   55      3    1   2   4  14
   56      3    3   2   5  16
   57      3    3   2   1   8
   58      3    3   2   4  13
   59      3    3   2   5  15
   60      3    3   2   4  12
   61      3    3   2   1   6
   62      3    3   2   4  14
   63      3    3   2   5  17
   64      3    3   2   1   7
   65      3    4   2   1   8
   66      3    4   2   3  11
   67      3    4   2   1   7
   68      3    4   2   1   6
   69      3    4   2   5  16
   70      3    4   2   3  10
   71      3    4   2   5  15
   72      3    4   2   3   9
   73      3    4   2   5  17
   74      3    5   2   3  11
   75      3    5   2   1   6
   76      3    5   2   3  10
   77      3    5   2   4  13
   78      3    5   2   4  12
   79      3    5   2   3   9
   80      3    5   2   1   8
   81      3    5   2   4  14
   82      3    5   2   1   7

          INDEP./SYM. INTERNAL COORDINATES
          --------------------------------
 CRD  1=   0.1099 ( 17)  0.2719 ( 18) -0.3818 ( 19) -0.1027 ( 23)  0.1443 ( 24)
           0.1444 ( 25)  0.1443 ( 26) -0.1026 ( 28) -0.1027 ( 29)  0.1444 ( 30)
          -0.1026 ( 31) -0.3818 ( 32)  0.2719 ( 33)  0.1099 ( 34) -0.1449 ( 47)
           0.1468 ( 49) -0.1684 ( 54)  0.1468 ( 60) -0.1684 ( 61) -0.1449 ( 64)
          -0.1684 ( 69)  0.1468 ( 70) -0.1449 ( 73) -0.1684 ( 77)  0.1468 ( 80)
          -0.1449 ( 81)
 CRD  2=   0.3774 ( 17) -0.2839 ( 18) -0.1426 ( 20) -0.1426 ( 21) -0.1427 ( 22)
           0.1073 ( 23) -0.1426 ( 27)  0.1074 ( 28)  0.1074 ( 29)  0.1075 ( 31)
          -0.2839 ( 33)  0.3774 ( 34)  0.1431 ( 48) -0.1486 ( 52) -0.1684 ( 53)
          -0.1684 ( 56) -0.1486 ( 59)  0.1431 ( 62) -0.1486 ( 65) -0.1684 ( 68)
           0.1431 ( 72) -0.1684 ( 74) -0.1485 ( 76)  0.1431 ( 82)
 CRD  3=   0.2926 (  5)  0.1318 (  6) -0.4407 (  7) -0.1319 ( 17)  0.2265 ( 21)
          -0.1850 ( 23)  0.2357 ( 24) -0.1027 ( 26) -0.1390 ( 27)  0.2488 ( 28)
          -0.1479 ( 30)  0.1319 ( 34)  0.1045 ( 38)  0.1298 ( 39)  0.1192 ( 40)
          -0.1184 ( 48) -0.1047 ( 49) -0.1956 ( 50)  0.1002 ( 53)  0.1527 ( 55)
          -0.1212 ( 65) -0.1528 ( 67)  0.1219 ( 71)  0.1082 ( 73)  0.1956 ( 75)
          -0.1220 ( 78)  0.1274 ( 80)
 CRD  4=  -0.4677 (  4)  0.2112 (  5)  0.1027 (  6)  0.1534 (  7) -0.1134 ( 18)
          -0.1161 ( 21)  0.2512 ( 22)  0.2559 ( 25) -0.1457 ( 30)  0.2471 ( 31)
           0.1134 ( 33)  0.1253 ( 35)  0.1200 ( 36)  0.1299 ( 37)  0.1249 ( 56)
          -0.1522 ( 58) -0.1124 ( 62)  0.1811 ( 63)  0.1522 ( 66) -0.1226 ( 69)
           0.1169 ( 70) -0.1657 ( 71) -0.1210 ( 76)  0.1657 ( 78) -0.1811 ( 79)
           0.1145 ( 81)
 CRD  5=  -0.3048 (  5)  0.4417 (  6)  0.1173 ( 18) -0.1147 ( 19) -0.2502 ( 20)
           0.1498 ( 23) -0.2316 ( 26)  0.1911 ( 27) -0.2308 ( 29)  0.1507 ( 30)
           0.1148 ( 32) -0.1173 ( 33) -0.1257 ( 44) -0.1249 ( 45) -0.1037 ( 46)
          -0.1238 ( 47) -0.1992 ( 51) -0.1034 ( 54)  0.1373 ( 55)  0.1992 ( 57)
          -0.1350 ( 58)  0.1243 ( 61)  0.1029 ( 64)  0.1351 ( 66) -0.1372 ( 67)
          -0.1157 ( 68)  0.1147 ( 72)
 CRD  6=   0.4172 (  4)  0.4173 (  5)  0.4174 (  6)  0.4175 (  7)  0.1063 ( 20)
           0.1064 ( 21)  0.1064 ( 22)  0.1065 ( 23)  0.1064 ( 24)  0.1064 ( 25)
           0.1063 ( 26)  0.1063 ( 27)  0.1063 ( 28)  0.1063 ( 29)  0.1064 ( 30)
           0.1064 ( 31) -0.1134 ( 35) -0.1133 ( 36) -0.1134 ( 37) -0.1134 ( 38)
          -0.1134 ( 39) -0.1135 ( 40) -0.1133 ( 41) -0.1134 ( 42) -0.1134 ( 43)
          -0.1134 ( 44) -0.1134 ( 45) -0.1134 ( 46)
 CRD  7=   0.1552 (  4)  0.2655 (  5) -0.3594 (  6) -0.1010 ( 10) -0.1739 ( 20)
           0.1066 ( 22)  0.2079 ( 23) -0.2684 ( 24)  0.2991 ( 25) -0.3666 ( 26)
           0.1007 ( 28) -0.2387 ( 29)  0.3358 ( 30) -0.1621 ( 37)  0.1104 ( 38)
          -0.1238 ( 40) -0.1819 ( 43)  0.1219 ( 44)  0.1633 ( 46)
 CRD  8=  -0.3822 (  4)  0.2453 (  5)  0.1454 (  7)  0.1374 ( 20) -0.2657 ( 22)
           0.3116 ( 23)  0.1291 ( 24) -0.2069 ( 25)  0.2198 ( 27)  0.2783 ( 28)
          -0.2336 ( 29) -0.3563 ( 31)  0.1223 ( 35)  0.1599 ( 36) -0.1691 ( 39)
          -0.1868 ( 41) -0.1416 ( 44)
 CRD  9=  -0.1009 (  3)  0.1999 (  5)  0.2035 (  6) -0.3816 (  7)  0.3047 ( 20)
          -0.3638 ( 21) -0.2450 ( 22) -0.2306 ( 24)  0.3039 ( 27) -0.2332 ( 28)
           0.1746 ( 29)  0.1708 ( 30) -0.1393 ( 35)  0.1427 ( 38)  0.1439 ( 40)
          -0.1786 ( 42) -0.1790 ( 45)
 CRD 10=   0.3332 ( 21) -0.3331 ( 22)  0.3748 ( 23)  0.3635 ( 25) -0.3744 ( 28)
          -0.3630 ( 30)  0.1342 ( 35) -0.1462 ( 36)  0.1510 ( 38) -0.1341 ( 39)
           0.1464 ( 41) -0.1507 ( 42)
 CRD 11=   0.1035 ( 10) -0.1034 ( 16) -0.1836 ( 20)  0.2635 ( 21) -0.2639 ( 22)
          -0.1718 ( 23) -0.4355 ( 24)  0.4356 ( 26)  0.1844 ( 27)  0.1717 ( 28)
          -0.2519 ( 29)  0.2511 ( 31)  0.1061 ( 35) -0.1014 ( 37) -0.1062 ( 39)
           0.1755 ( 40)  0.1012 ( 44) -0.1754 ( 45)
 CRD 12=   0.3990 ( 20)  0.1118 ( 21) -0.1117 ( 22)  0.1517 ( 23) -0.2463 ( 25)
          -0.3986 ( 27) -0.1528 ( 28) -0.3587 ( 29)  0.2471 ( 30)  0.3593 ( 31)
          -0.1445 ( 37)  0.1608 ( 43)  0.1447 ( 44) -0.1605 ( 46)
 CRD 13=   0.1272 (  2)  0.1271 ( 10)  0.1272 ( 11)  0.1273 ( 16)  0.1291 ( 19)
          -0.2377 ( 23)  0.3148 ( 24)  0.3146 ( 25)  0.3143 ( 26) -0.2376 ( 28)
          -0.2376 ( 29)  0.3145 ( 30) -0.2377 ( 31)  0.1291 ( 32)  0.1524 ( 36)
          -0.1151 ( 37) -0.1152 ( 38)  0.1523 ( 40)  0.1524 ( 41) -0.1151 ( 42)
          -0.1152 ( 44)  0.1525 ( 45)
 CRD 14=   0.1289 (  3)  0.1289 (  9)  0.1289 ( 13)  0.1290 ( 15)  0.1309 ( 17)
           0.3187 ( 20)  0.3188 ( 21)  0.3187 ( 22) -0.2257 ( 23)  0.3190 ( 27)
          -0.2261 ( 28) -0.2258 ( 29) -0.2263 ( 31)  0.1309 ( 34)  0.1545 ( 35)
          -0.1094 ( 37) -0.1093 ( 38)  0.1544 ( 39) -0.1096 ( 42)  0.1544 ( 43)
          -0.1096 ( 44)  0.1545 ( 46)
 CRD 15=  -0.1669 ( 47) -0.1663 ( 48) -0.1662 ( 49) -0.1663 ( 50) -0.1668 ( 51)
          -0.1668 ( 52) -0.1667 ( 53) -0.1668 ( 54) -0.1667 ( 55) -0.1663 ( 56)
          -0.1668 ( 57) -0.1667 ( 58) -0.1662 ( 59) -0.1668 ( 60) -0.1668 ( 61)
          -0.1667 ( 62) -0.1663 ( 63) -0.1668 ( 64) -0.1668 ( 65) -0.1668 ( 66)
          -0.1668 ( 67) -0.1668 ( 68) -0.1663 ( 69) -0.1668 ( 70) -0.1662 ( 71)
          -0.1669 ( 72) -0.1663 ( 73) -0.1668 ( 74) -0.1668 ( 75) -0.1668 ( 76)
          -0.1667 ( 77) -0.1668 ( 78) -0.1669 ( 79) -0.1668 ( 80) -0.1667 ( 81)
          -0.1668 ( 82)
 CRD 16=  -0.1720 (  1)  0.1479 (  2) -0.1478 ( 11)  0.1431 ( 13)  0.1720 ( 14)
          -0.1430 ( 15)  0.2566 ( 47)  0.2553 ( 51) -0.1126 ( 52) -0.1510 ( 53)
           0.2629 ( 54) -0.1138 ( 55) -0.1510 ( 58) -0.1126 ( 60) -0.1138 ( 62)
           0.2629 ( 66)  0.2553 ( 70)  0.2566 ( 72)  0.2629 ( 74)  0.2553 ( 76)
          -0.1510 ( 77) -0.1126 ( 78)  0.2566 ( 79) -0.1137 ( 81)
 CRD 17=   0.1157 (  8) -0.1879 ( 10) -0.1159 ( 12)  0.1234 ( 13) -0.1239 ( 15)
           0.1877 ( 16)  0.1718 ( 52)  0.1698 ( 53)  0.2019 ( 55) -0.2334 ( 57)
           0.1699 ( 58)  0.1718 ( 60) -0.2314 ( 61)  0.2019 ( 62) -0.2502 ( 64)
          -0.2334 ( 65) -0.2502 ( 67) -0.2314 ( 68) -0.2314 ( 75)  0.1698 ( 77)
           0.1718 ( 78) -0.2334 ( 80)  0.2019 ( 81) -0.2502 ( 82)
 CRD 18=  -0.1215 (  2)  0.1757 (  3)  0.1525 (  8) -0.1758 (  9)  0.1218 ( 11)
          -0.1524 ( 12)  0.2440 ( 48)  0.2579 ( 49)  0.2520 ( 50) -0.1648 ( 52)
          -0.1331 ( 53) -0.1251 ( 55)  0.2520 ( 56) -0.1331 ( 58)  0.2579 ( 59)
          -0.1648 ( 60) -0.1151 ( 61) -0.1251 ( 62)  0.2441 ( 63) -0.1151 ( 68)
           0.2520 ( 69)  0.2579 ( 71)  0.2440 ( 73) -0.1151 ( 75) -0.1331 ( 77)
          -0.1648 ( 78) -0.1251 ( 81)
 CRD 19=  -0.1168 (  7) -0.4044 (  8) -0.4165 (  9) -0.4146 ( 10)  0.2443 ( 11)
           0.2059 ( 12)  0.2462 ( 13)  0.1106 ( 14)  0.1228 ( 15)  0.1598 ( 22)
           0.1706 ( 23)  0.1615 ( 26) -0.1158 ( 28) -0.1695 ( 38) -0.1781 ( 39)
          -0.1768 ( 40)  0.1072 ( 41)  0.1086 ( 43)
 CRD 20=  -0.3616 (  1) -0.3303 (  2) -0.3480 (  3)  0.1265 (  8)  0.3044 ( 11)
           0.3393 ( 12)  0.3258 ( 13) -0.1036 ( 14) -0.1263 ( 20)  0.1368 ( 21)
          -0.1454 ( 25) -0.1142 ( 28)  0.1247 ( 29)  0.1525 ( 30) -0.1481 ( 35)
          -0.1354 ( 36) -0.1578 ( 37)  0.1236 ( 41)  0.1488 ( 42)  0.1391 ( 43)
 CRD 21=   0.2060 (  1)  0.2493 (  2)  0.2398 (  3) -0.1147 (  6)  0.1693 ( 11)
           0.1532 ( 12)  0.1193 ( 13) -0.3971 ( 14) -0.4037 ( 15) -0.4133 ( 16)
           0.1534 ( 24)  0.1620 ( 27) -0.1151 ( 29)  0.1679 ( 31)  0.1042 ( 35)
           0.1110 ( 36) -0.1664 ( 44) -0.1780 ( 45) -0.1710 ( 46)
 CRD 22=  -0.2507 (  1) -0.2507 (  2) -0.2507 (  3) -0.2503 (  8) -0.2503 (  9)
          -0.2503 ( 10) -0.2504 ( 11) -0.2503 ( 12) -0.2504 ( 13) -0.2510 ( 14)
          -0.2509 ( 15) -0.2510 ( 16)
 CRD 23=  -0.2484 (  1)  0.2972 (  3) -0.2496 (  8)  0.2979 (  9) -0.2509 ( 12)
           0.2971 ( 13) -0.2478 ( 14)  0.2961 ( 15) -0.1579 ( 35)  0.1320 ( 37)
           0.1326 ( 38) -0.1584 ( 39)  0.1333 ( 42) -0.1579 ( 43)  0.1317 ( 44)
          -0.1574 ( 46) -0.1076 ( 47) -0.1094 ( 48) -0.1102 ( 62) -0.1073 ( 64)
          -0.1101 ( 72) -0.1070 ( 73) -0.1077 ( 81) -0.1097 ( 82)
 CRD 24=   0.1982 (  1) -0.3154 (  2)  0.1173 (  3)  0.2004 (  8)  0.1173 (  9)
          -0.3177 ( 10) -0.3161 ( 11)  0.2016 ( 12)  0.1146 ( 13)  0.1964 ( 14)
           0.1158 ( 15) -0.3122 ( 16)  0.1676 ( 36) -0.1053 ( 37) -0.1065 ( 38)
           0.1689 ( 40)  0.1680 ( 41) -0.1071 ( 42) -0.1043 ( 44)  0.1658 ( 45)
          -0.1041 ( 49) -0.1001 ( 52) -0.1062 ( 60) -0.1059 ( 70) -0.1001 ( 76)
          -0.1049 ( 80)
 CRD 25=   0.1694 (  1)  0.1162 (  2) -0.2753 (  3)  0.1507 (  8) -0.3402 (  9)
           0.1965 ( 10) -0.2099 ( 11) -0.1246 ( 12)  0.3269 ( 13) -0.1950 ( 14)
           0.2922 ( 15) -0.1068 ( 16)  0.1507 ( 35)  0.1859 ( 39) -0.1063 ( 40)
           0.1135 ( 41) -0.1786 ( 43)  0.1053 ( 44) -0.1599 ( 46) -0.1044 ( 54)
          -0.1016 ( 55)  0.1212 ( 58) -0.1102 ( 63) -0.1211 ( 66)  0.1006 ( 67)
           0.1035 ( 77)  0.1108 ( 79)
 CRD 26=  -0.3470 (  1)  0.2580 (  2)  0.3495 (  8) -0.1009 (  9) -0.2538 ( 10)
           0.2347 ( 12) -0.2030 ( 13) -0.2438 ( 14)  0.2103 ( 15) -0.1399 ( 36)
           0.1893 ( 37) -0.1907 ( 38)  0.1376 ( 40) -0.1288 ( 42)  0.1095 ( 43)
           0.1337 ( 44) -0.1136 ( 46) -0.1360 ( 51)  0.1364 ( 57) -0.1025 ( 63)
           0.1069 ( 65) -0.1144 ( 70) -0.1060 ( 76)  0.1019 ( 79)  0.1146 ( 80)
 CRD 27=   0.2597 (  2) -0.2544 (  3)  0.1589 (  9) -0.2169 ( 10)  0.3184 ( 11)
          -0.2785 ( 12)  0.2283 ( 14)  0.1410 ( 15) -0.3655 ( 16)  0.1377 ( 35)
          -0.1423 ( 36)  0.1194 ( 40) -0.1740 ( 41)  0.1511 ( 42) -0.1238 ( 44)
           0.1991 ( 45) -0.1025 ( 49)  0.1144 ( 50)  0.1106 ( 52)  0.1024 ( 56)
          -0.1145 ( 59)  0.1068 ( 60) -0.1338 ( 71) -0.1155 ( 75)  0.1342 ( 78)
 CRD 28=  -0.2780 (  2)  0.2621 (  3)  0.3387 (  8) -0.2583 (  9)  0.2781 ( 11)
          -0.3406 ( 12) -0.1540 ( 35)  0.1633 ( 36) -0.1991 ( 38)  0.1519 ( 39)
          -0.1633 ( 41)  0.2001 ( 42)  0.1403 ( 47)  0.1411 ( 52)  0.1410 ( 60)
           0.1440 ( 61)  0.1440 ( 68)  0.1403 ( 72)  0.1442 ( 75)  0.1411 ( 78)
           0.1401 ( 79)
 CRD 29=   0.2823 (  1) -0.2440 (  2) -0.1019 (  8)  0.2434 ( 11) -0.3426 ( 13)
          -0.2804 ( 14)  0.3422 ( 15)  0.1433 ( 36) -0.1659 ( 37) -0.1430 ( 41)
           0.2013 ( 43)  0.1648 ( 44) -0.2011 ( 46) -0.1381 ( 48) -0.1398 ( 53)
          -0.1425 ( 57) -0.1397 ( 58) -0.1381 ( 63) -0.1423 ( 65) -0.1382 ( 73)
          -0.1397 ( 77) -0.1424 ( 80)
 CRD 30=   0.2369 (  1) -0.2547 (  3)  0.2542 (  9) -0.3503 ( 10)  0.1168 ( 13)
          -0.2413 ( 14) -0.1186 ( 15)  0.3599 ( 16)  0.1498 ( 35) -0.1393 ( 37)
          -0.1496 ( 39)  0.2060 ( 40)  0.1415 ( 44) -0.2111 ( 45)  0.1380 ( 49)
           0.1343 ( 54)  0.1381 ( 59)  0.1388 ( 64)  0.1341 ( 66)  0.1389 ( 67)
           0.1383 ( 71)  0.1343 ( 74)  0.1391 ( 82)
 CRD 31=   0.1130 (  1)  0.1368 (  2)  0.2809 (  3) -0.1043 (  8) -0.2823 (  9)
          -0.1279 ( 10) -0.1745 ( 11)  0.1478 ( 12) -0.1565 ( 14)  0.1657 ( 16)
           0.1996 ( 21) -0.1974 ( 22) -0.1262 ( 23) -0.1357 ( 26)  0.1323 ( 29)
           0.1419 ( 30) -0.1998 ( 36) -0.2185 ( 37)  0.2160 ( 38)  0.1974 ( 40)
          -0.1100 ( 41)  0.1428 ( 42) -0.1403 ( 44)  0.1125 ( 45)  0.1046 ( 63)
          -0.1897 ( 71)  0.1897 ( 78) -0.1047 ( 79)
 CRD 32=  -0.1241 (  1) -0.2380 (  2) -0.2493 (  8) -0.1352 ( 10)  0.2217 ( 11)
           0.2369 ( 12)  0.1367 ( 14) -0.1266 ( 15)  0.1512 ( 16)  0.1210 ( 17)
           0.1164 ( 20) -0.1606 ( 23)  0.1759 ( 25) -0.1149 ( 26)  0.1820 ( 28)
          -0.1025 ( 29) -0.1481 ( 30) -0.1210 ( 34)  0.2179 ( 35)  0.2253 ( 39)
           0.1085 ( 40) -0.1336 ( 41) -0.1217 ( 42) -0.2504 ( 43) -0.1927 ( 46)
           0.1637 ( 50) -0.1549 ( 63) -0.1637 ( 75)  0.1549 ( 79)
 CRD 33=  -0.2290 (  1) -0.2144 ( 10) -0.2737 ( 13)  0.1933 ( 14)  0.2532 ( 15)
           0.1738 ( 16) -0.1682 ( 20)  0.1714 ( 24) -0.1022 ( 26)  0.2032 ( 27)
          -0.1185 ( 29)  0.1793 ( 31)  0.1516 ( 36)  0.1262 ( 38) -0.1104 ( 40)
           0.1815 ( 41)  0.1665 ( 42) -0.2074 ( 44) -0.2227 ( 45) -0.1604 ( 46)
           0.1775 ( 51) -0.1309 ( 55) -0.1775 ( 57)  0.1423 ( 58) -0.1423 ( 66)
           0.1307 ( 67)
 CRD 34=   0.1394 (  1)  0.1394 (  2)  0.1394 (  3) -0.2605 (  4) -0.2604 (  5)
          -0.2603 (  6) -0.2605 (  7)  0.1394 (  8)  0.1395 (  9)  0.1393 ( 10)
           0.1395 ( 11)  0.1395 ( 12)  0.1393 ( 13)  0.1394 ( 14)  0.1394 ( 15)
           0.1394 ( 16)  0.1390 ( 20)  0.1390 ( 21)  0.1391 ( 22)  0.1390 ( 23)
           0.1390 ( 24)  0.1390 ( 25)  0.1390 ( 26)  0.1390 ( 27)  0.1390 ( 28)
           0.1390 ( 29)  0.1390 ( 30)  0.1390 ( 31) -0.1482 ( 35) -0.1482 ( 36)
          -0.1482 ( 37) -0.1482 ( 38) -0.1482 ( 39) -0.1483 ( 40) -0.1481 ( 41)
          -0.1482 ( 42) -0.1483 ( 43) -0.1482 ( 44) -0.1482 ( 45) -0.1482 ( 46)
 CRD 35=   0.1569 (  1)  0.1866 (  3) -0.4732 (  4)  0.3696 (  5) -0.1386 (  8)
           0.1673 (  9) -0.1527 ( 12) -0.1826 ( 13)  0.1345 ( 14) -0.1713 ( 15)
          -0.1129 ( 20)  0.1420 ( 21) -0.1023 ( 25) -0.1113 ( 28)  0.1405 ( 29)
           0.1353 ( 30) -0.1085 ( 35) -0.2063 ( 36) -0.1308 ( 37)  0.1315 ( 39)
           0.2114 ( 41)  0.1498 ( 44) -0.1342 ( 63)  0.1342 ( 79)
 CRD 36=   0.1015 (  1)  0.1719 (  2) -0.1059 (  3) -0.1983 (  4) -0.2543 (  5)
           0.5117 (  7) -0.1137 (  8) -0.1341 (  9) -0.1845 ( 10)  0.1745 ( 11)
           0.1236 ( 13)  0.1164 ( 15) -0.1617 ( 16) -0.1501 ( 22) -0.1490 ( 23)
          -0.1527 ( 26) -0.1838 ( 35)  0.1834 ( 38)  0.1681 ( 39)  0.1302 ( 40)
          -0.1962 ( 42) -0.1528 ( 45) -0.1220 ( 50)  0.1130 ( 71)  0.1219 ( 75)
          -0.1131 ( 78)
 CRD 37=   0.1396 (  1) -0.1471 (  2)  0.1170 (  4)  0.2751 (  5) -0.5147 (  6)
           0.1224 (  7) -0.1491 (  8)  0.1375 ( 10) -0.1531 ( 11) -0.1554 ( 12)
           0.1648 ( 14)  0.1075 ( 15)  0.1627 ( 16)  0.1524 ( 24)  0.1496 ( 27)
           0.1526 ( 31)  0.1664 ( 37)  0.1676 ( 40)  0.2017 ( 43) -0.1467 ( 44)
          -0.1483 ( 45) -0.1898 ( 46) -0.1257 ( 51)  0.1015 ( 55)  0.1258 ( 57)
          -0.1005 ( 58)  0.1006 ( 66) -0.1014 ( 67)
 CRD 38=  -0.1441 (  1)  0.1846 (  3)  0.2016 (  8) -0.2557 (  9) -0.1795 ( 12)
           0.1661 ( 14) -0.1607 ( 15)  0.1193 ( 22)  0.1375 ( 35) -0.1073 ( 37)
           0.1501 ( 38) -0.1905 ( 39) -0.1337 ( 42)  0.1237 ( 44) -0.1196 ( 46)
          -0.2252 ( 47) -0.1992 ( 48)  0.1663 ( 55)  0.1797 ( 62) -0.2126 ( 63)
           0.1782 ( 64)  0.1063 ( 66)  0.1740 ( 67) -0.2159 ( 72) -0.2084 ( 73)
          -0.2293 ( 79)  0.1704 ( 81)  0.1874 ( 82)
 CRD 39=   0.1441 (  1) -0.2379 (  2)  0.2480 ( 11) -0.2001 ( 13) -0.1500 ( 14)
           0.1950 ( 15) -0.1157 ( 25)  0.1109 ( 30) -0.1771 ( 36)  0.1073 ( 37)
           0.1847 ( 41) -0.1490 ( 43) -0.1116 ( 44)  0.1452 ( 46) -0.1560 ( 50)
          -0.1243 ( 52)  0.1882 ( 53)  0.1494 ( 54) -0.1569 ( 56)  0.1299 ( 57)
           0.1891 ( 58) -0.1002 ( 59) -0.1234 ( 60) -0.1699 ( 61)  0.1310 ( 65)
           0.1513 ( 66) -0.1688 ( 68) -0.1580 ( 69) -0.1012 ( 71)  0.1504 ( 74)
          -0.1680 ( 75)  0.1872 ( 77) -0.1253 ( 78)  0.1318 ( 80)
 CRD 40=   0.1686 (  1)  0.1934 (  8) -0.2813 ( 10) -0.1364 ( 12)  0.1125 ( 13)
          -0.1112 ( 14) -0.1021 ( 15)  0.2134 ( 16)  0.1312 ( 26)  0.1256 ( 37)
           0.1440 ( 38) -0.2095 ( 40) -0.1016 ( 42)  0.1589 ( 45) -0.1618 ( 49)
           0.1072 ( 50)  0.2205 ( 51) -0.1389 ( 52) -0.1087 ( 53) -0.1341 ( 54)
           0.1093 ( 56)  0.1930 ( 57) -0.1108 ( 58) -0.1598 ( 59) -0.1409 ( 60)
           0.1823 ( 65) -0.1468 ( 66)  0.1199 ( 69)  0.2077 ( 70) -0.1491 ( 71)
          -0.1449 ( 74)  0.2097 ( 76) -0.1280 ( 78)  0.1802 ( 80)
 CRD 41=   0.1688 (  1) -0.2361 (  3)  0.1153 (  8) -0.1698 (  9)  0.1808 ( 12)
          -0.2230 ( 13)  0.1274 ( 14) -0.1828 ( 15)  0.1250 ( 17)  0.1040 ( 20)
           0.1101 ( 21)  0.1250 ( 34) -0.1758 ( 35)  0.1258 ( 37) -0.1264 ( 39)
           0.1346 ( 42) -0.1660 ( 43) -0.1361 ( 46) -0.1039 ( 47)  0.1439 ( 50)
           0.1100 ( 54) -0.2217 ( 55)  0.1359 ( 58)  0.1315 ( 61) -0.1452 ( 62)
          -0.1630 ( 63) -0.1661 ( 64)  0.1307 ( 66) -0.2218 ( 67)  0.1232 ( 69)
          -0.1072 ( 73)  0.1523 ( 75)  0.1151 ( 77) -0.1597 ( 79) -0.1659 ( 81)
          -0.1453 ( 82)
 CRD 42=   0.1161 (  1) -0.2019 (  2)  0.1370 (  8) -0.1543 ( 10) -0.1999 ( 11)
           0.1616 ( 12)  0.1822 ( 14) -0.2474 ( 16)  0.1237 ( 19)  0.1154 ( 24)
           0.1236 ( 32) -0.1503 ( 36)  0.1020 ( 38) -0.1149 ( 40) -0.1489 ( 41)
           0.1203 ( 42)  0.1357 ( 44) -0.1843 ( 45)  0.1455 ( 49) -0.1664 ( 50)
           0.1637 ( 51)  0.1562 ( 52) -0.1470 ( 56)  0.1670 ( 57) -0.1152 ( 58)
           0.1649 ( 59)  0.1368 ( 60)  0.1107 ( 65) -0.1065 ( 66) -0.1438 ( 68)
           0.2213 ( 71) -0.1631 ( 75)  0.1074 ( 76)  0.2124 ( 78)
 CRD 43=   0.2298 (  4) -0.1775 (  5) -0.1095 (  8)  0.1393 (  9)  0.1139 ( 11)
           0.1338 ( 14) -0.1150 ( 15) -0.1549 ( 17) -0.1282 ( 18) -0.1437 ( 22)
           0.1144 ( 23)  0.1248 ( 27) -0.1333 ( 31)  0.1282 ( 33)  0.1549 ( 34)
           0.1007 ( 39)  0.1911 ( 47) -0.2074 ( 48)  0.1075 ( 53)  0.2295 ( 56)
           0.2520 ( 59) -0.1954 ( 60) -0.1127 ( 61) -0.1299 ( 62)  0.2519 ( 72)
          -0.2356 ( 73) -0.2644 ( 74) -0.2171 ( 76)  0.1920 ( 77)  0.1162 ( 80)
 CRD 44=  -0.1203 (  2)  0.1039 (  3) -0.1091 (  4) -0.1702 (  5)  0.1965 (  7)
           0.1324 ( 16)  0.1942 ( 19) -0.1473 ( 24)  0.1160 ( 25) -0.1065 ( 26)
           0.1379 ( 30) -0.1942 ( 32)  0.1054 ( 45)  0.1280 ( 47) -0.1765 ( 48)
          -0.2573 ( 49)  0.1495 ( 52)  0.1714 ( 54)  0.1476 ( 56)  0.1829 ( 60)
          -0.2293 ( 61) -0.1698 ( 68)  0.2516 ( 69) -0.1656 ( 70)  0.1097 ( 73)
          -0.1099 ( 76) -0.1938 ( 77)  0.2398 ( 80) -0.1676 ( 81)  0.1938 ( 82)
 CRD 45=   0.1431 (  1)  0.2363 (  6) -0.1616 (  7)  0.1203 ( 10) -0.1087 ( 12)
           0.1345 ( 13)  0.1186 ( 17) -0.1580 ( 18) -0.1317 ( 20)  0.1048 ( 21)
          -0.1054 ( 26)  0.1206 ( 28) -0.1474 ( 29)  0.1580 ( 33) -0.1186 ( 34)
           0.1033 ( 37)  0.1473 ( 47) -0.2201 ( 52) -0.2505 ( 53)  0.2098 ( 54)
           0.2363 ( 62) -0.2603 ( 64)  0.2695 ( 65)  0.2011 ( 68) -0.2045 ( 70)
          -0.1241 ( 76)  0.1968 ( 81) -0.1726 ( 82)

 THE DETERMINANT OF THE G MATRIX IS 10**(   -13)


                     --------------------
                     INTERNAL COORDINATES
                     --------------------

                 - - ATOMS - -         COORDINATE      COORDINATE
 NO.   TYPE    I  J  K  L  M  N        (BOHR,RAD)       (ANG,DEG)
 ----------------------------------------------------------------
   1 STRETCH   1  6                     2.0749207       1.0980008
   2 STRETCH   1  7                     2.0749169       1.0979988
   3 STRETCH   1  8                     2.0749280       1.0980047
   4 STRETCH   1  2                     2.8848462       1.5265950
   5 STRETCH   2  4                     2.8849295       1.5266390
   6 STRETCH   2  5                     2.8848610       1.5266028
   7 STRETCH   2  3                     2.8849193       1.5266337
   8 STRETCH   3 11                     2.0750894       1.0980901
   9 STRETCH   3 10                     2.0749129       1.0979967
  10 STRETCH   3  9                     2.0750276       1.0980574
  11 STRETCH   4 14                     2.0749747       1.0980294
  12 STRETCH   4 13                     2.0749317       1.0980066
  13 STRETCH   4 12                     2.0749311       1.0980063
  14 STRETCH   5 16                     2.0747791       1.0979259
  15 STRETCH   5 15                     2.0746361       1.0978502
  16 STRETCH   5 17                     2.0750614       1.0980753
  17 BEND      1  2  3                  1.9107496     109.4778877
  18 BEND      1  2  5                  1.9105977     109.4691854
  19 BEND      1  2  4                  1.9106479     109.4720588
  20 BEND      2  4 12                  1.9429798     111.3245432
  21 BEND      2  1  8                  1.9429843     111.3247985
  22 BEND      2  3 10                  1.9431914     111.3366687
  23 BEND      2  3 11                  1.9430293     111.3273765
  24 BEND      2  5 17                  1.9429517     111.3229348
  25 BEND      2  4 14                  1.9432636     111.3408006
  26 BEND      2  3  9                  1.9430144     111.3265250
  27 BEND      2  5 15                  1.9434418     111.3510157
  28 BEND      2  4 13                  1.9431006     111.3314622
  29 BEND      2  1  6                  1.9431807     111.3360530
  30 BEND      2  1  7                  1.9430352     111.3277137
  31 BEND      2  5 16                  1.9430809     111.3303361
  32 BEND      3  2  5                  1.9105296     109.4652824
  33 BEND      3  2  4                  1.9106515     109.4722649
  34 BEND      4  2  5                  1.9106232     109.4706443
  35 BEND      6  1  7                  1.8772206     107.5568176
  36 BEND      6  1  8                  1.8770403     107.5464869
  37 BEND      7  1  8                  1.8770799     107.5487535
  38 BEND      9  3 10                  1.8771667     107.5537266
  39 BEND      9  3 11                  1.8770447     107.5467408
  40 BEND     10  3 11                  1.8770921     107.5494533
  41 BEND     12  4 13                  1.8769373     107.5405857
  42 BEND     12  4 14                  1.8771746     107.5541803
  43 BEND     13  4 14                  1.8770755     107.5485054
  44 BEND     15  5 17                  1.8770018     107.5442792
  45 BEND     15  5 16                  1.8770256     107.5456448
  46 BEND     16  5 17                  1.8770208     107.5453717
  47 TORSION   1  2  3  9               1.0472796      60.0047024
  48 TORSION   1  2  5 17              -1.0458009     -59.9199806
  49 TORSION   1  2  5 15               1.0486282      60.0819713
  50 TORSION   1  2  5 16              -3.1400102    -179.9093341
  51 TORSION   1  2  3 10              -3.1413943    -179.9886329
  52 TORSION   1  2  4 12              -1.0455688     -59.9066809
  53 TORSION   1  2  4 13               1.0485668      60.0784496
  54 TORSION   1  2  3 11              -1.0469674     -59.9868146
  55 TORSION   1  2  4 14              -3.1401157    -179.9153754
  56 TORSION   3  2  5 16               1.0487227      60.0873831
  57 TORSION   3  2  1  8              -3.1405143    -179.9382152
  58 TORSION   3  2  4 13              -3.1400608    -179.9122318
  59 TORSION   3  2  5 15              -1.0458242     -59.9213114
  60 TORSION   3  2  4 12               1.0489889      60.1026377
  61 TORSION   3  2  1  6              -1.0461909     -59.9423210
  62 TORSION   3  2  4 14              -1.0455579     -59.9060568
  63 TORSION   3  2  5 17              -3.1402533    -179.9232633
  64 TORSION   3  2  1  7               1.0483958      60.0686537
  65 TORSION   4  2  1  8              -1.0460167     -59.9323395
  66 TORSION   4  2  3 11              -3.1414629    -179.9925640
  67 TORSION   4  2  1  7              -3.1402919    -179.9254707
  68 TORSION   4  2  1  6               1.0483068      60.0635547
  69 TORSION   4  2  5 16              -1.0456251     -59.9099068
  70 TORSION   4  2  3 10               1.0472956      60.0056176
  71 TORSION   4  2  5 15              -3.1401720    -179.9186014
  72 TORSION   4  2  3  9              -1.0472158     -60.0010471
  73 TORSION   4  2  5 17               1.0485842      60.0794468
  74 TORSION   5  2  3 11               1.0473920      60.0111386
  75 TORSION   5  2  1  6              -3.1405085    -179.9378843
  76 TORSION   5  2  3 10              -1.0470349     -59.9906798
  77 TORSION   5  2  4 13              -1.0457876     -59.9192181
  78 TORSION   5  2  4 12              -3.1399232    -179.9043486
  79 TORSION   5  2  3  9              -3.1415463    -179.9973444
  80 TORSION   5  2  1  8               1.0483533      60.0662215
  81 TORSION   5  2  4 14               1.0487152      60.0869570
  82 TORSION   5  2  1  7              -1.0459219     -59.9269096

     ------------------------------------------
     THE POINT GROUP IS C1 , NAXIS= 1, ORDER= 1
     ------------------------------------------

     DIMENSIONS OF THE SYMMETRY SUBSPACES ARE
 A   =  167

 ..... DONE SETTING UP THE RUN .....
 STEP CPU TIME =     0.01 TOTAL CPU TIME =        0.0 (    0.0 MIN)
 TOTAL WALL CLOCK TIME=        0.0 SECONDS, CPU UTILIZATION IS  50.00%


          -----------------------------
          STATIONARY POINT LOCATION RUN
          -----------------------------

 OBTAINING INITIAL HESSIAN, HESS=GUESS   
 DIAGONAL GUESS HESSIAN IN INTERNAL COORDS IS
     1  0.3410     2  0.3410     3  0.3410     4  0.3696     5  0.3696
     6  0.3696     7  0.3696     8  0.3410     9  0.3410    10  0.3410
    11  0.3410    12  0.3410    13  0.3410    14  0.3411    15  0.3411
    16  0.3410    17  0.2490    18  0.2490    19  0.2490    20  0.2238
    21  0.2238    22  0.2238    23  0.2238    24  0.2238    25  0.2238
    26  0.2238    27  0.2238    28  0.2238    29  0.2238    30  0.2238
    31  0.2238    32  0.2490    33  0.2490    34  0.2490    35  0.2026
    36  0.2026    37  0.2026    38  0.2026    39  0.2026    40  0.2026
    41  0.2026    42  0.2026    43  0.2026    44  0.2026    45  0.2026
    46  0.2026    47  0.2500    48  0.2500    49  0.2500    50  0.2500
    51  0.2500    52  0.2500    53  0.2500    54  0.2500    55  0.2500
    56  0.2500    57  0.2500    58  0.2500    59  0.2500    60  0.2500
    61  0.2500    62  0.2500    63  0.2500    64  0.2500    65  0.2500
    66  0.2500    67  0.2500    68  0.2500    69  0.2500    70  0.2500
    71  0.2500    72  0.2500    73  0.2500    74  0.2500    75  0.2500
    76  0.2500    77  0.2500    78  0.2500    79  0.2500    80  0.2500
    81  0.2500    82  0.2500
 TRANSFORMING HESSIAN TO SYMMETRY COORDINATES

          PARAMETERS CONTROLLING GEOMETRY SEARCH ARE
          METHOD =QA                  UPHESS =BFGS    
          NNEG   =         0          NFRZ   =         3
          NSTEP  =        50          IFOLOW =         1
          HESS   =GUESS               RESTAR =         F
          IHREP  =         0          HSSEND =         F
          NPRT   =         0          NPUN   =         0
          OPTTOL = 5.000E-04          RMIN   = 1.500E-03
          RMAX   = 1.000E-01          RLIM   = 7.000E-02
          DXMAX  = 3.000E-01          PURIFY =         F
          MOVIE  =         F          TRUPD  =         T
          TRMAX  = 5.000E-01          TRMIN  = 5.000E-02
          ITBMAT =         5          STPT   =         F
          STSTEP = 1.000E-02          PROJCT=          F
          FROZEN COORD(S)=   1   2   3


      ***** EQUILIBRIUM GEOMETRY LOCATED *****
            (SUBJECT TO   3 CONSTRAINT(S))
 COORDINATES OF ALL ATOMS ARE (ANGS)
   ATOM   CHARGE       X              Y              Z
 ------------------------------------------------------------
 C           6.0   1.0837777855   1.0481677270   3.3097392303
 C           6.0   1.8149071427   1.7615237688   2.1632912591
 C           6.0   3.3295668279   1.7068402580   2.4095474027
 C           6.0   1.4868066308   1.0646706066   0.8349452823
 C           6.0   1.3594103863   3.2265034622   2.0988654007
 H           1.0   1.3889038344   0.0067998203   3.3790706032
 H           1.0   1.2978408049   1.5228135577   4.2643391869
 H           1.0   0.0070276524   1.0710209211   3.1598688222
 H           1.0   3.6799522969   0.6786904456   2.4596225832
 H           1.0   3.8730699034   2.2059799991   1.6109015076
 H           1.0   3.5905538152   2.1941439952   3.3459190055
 H           1.0   1.7979770271   0.0229420408   0.8534787768
 H           1.0   0.4183791923   1.0900842025   0.6344563529
 H           1.0   1.9937959401   1.5495999010   0.0041871902
 H           1.0   1.5813250165   3.7454466908   3.0282792583
 H           1.0   1.8615447292   3.7562299913   1.2928672508
 H           1.0   0.2880015993   3.2947791047   1.9262454970


                     --------------------
                     INTERNAL COORDINATES
                     --------------------

                 - - ATOMS - -         COORDINATE      COORDINATE
 NO.   TYPE    I  J  K  L  M  N        (BOHR,RAD)       (ANG,DEG)
 ----------------------------------------------------------------
   1 STRETCH   1  6                     2.0548160       1.0873619
   2 STRETCH   1  7                     2.0548307       1.0873696
   3 STRETCH   1  8                     2.0548320       1.0873703
   4 STRETCH   1  2                     2.9016802       1.5355032
   5 STRETCH   2  4                     2.9016724       1.5354990
   6 STRETCH   2  5                     2.9016947       1.5355108
   7 STRETCH   2  3                     2.9017149       1.5355215
   8 STRETCH   3 11                     2.0548291       1.0873688
   9 STRETCH   3 10                     2.0548295       1.0873690
  10 STRETCH   3  9                     2.0548279       1.0873682
  11 STRETCH   4 14                     2.0548140       1.0873608
  12 STRETCH   4 13                     2.0548360       1.0873725
  13 STRETCH   4 12                     2.0548273       1.0873679
  14 STRETCH   5 16                     2.0548388       1.0873740
  15 STRETCH   5 15                     2.0548181       1.0873630
  16 STRETCH   5 17                     2.0548335       1.0873711
  17 BEND      1  2  3                  1.9107011     109.4751070
  18 BEND      1  2  5                  1.9106147     109.4701567
  19 BEND      1  2  4                  1.9106197     109.4704477
  20 BEND      2  4 12                  1.9378723     111.0319052
  21 BEND      2  1  8                  1.9378093     111.0282948
  22 BEND      2  3 10                  1.9378908     111.0329659
  23 BEND      2  3 11                  1.9378846     111.0326104
  24 BEND      2  5 17                  1.9378355     111.0297973
  25 BEND      2  4 14                  1.9379059     111.0338281
  26 BEND      2  3  9                  1.9378994     111.0334563
  27 BEND      2  5 15                  1.9379121     111.0341816
  28 BEND      2  4 13                  1.9378341     111.0297141
  29 BEND      2  1  6                  1.9379033     111.0336774
  30 BEND      2  1  7                  1.9379234     111.0348317
  31 BEND      2  5 16                  1.9378848     111.0326198
  32 BEND      3  2  5                  1.9106159     109.4702266
  33 BEND      3  2  4                  1.9106499     109.4721741
  34 BEND      4  2  5                  1.9105982     109.4692115
  35 BEND      6  1  7                  1.8826535     107.8681001
  36 BEND      6  1  8                  1.8826114     107.8656855
  37 BEND      7  1  8                  1.8825892     107.8644174
  38 BEND      9  3 10                  1.8826218     107.8662822
  39 BEND      9  3 11                  1.8825677     107.8631815
  40 BEND     10  3 11                  1.8826236     107.8663863
  41 BEND     12  4 13                  1.8825370     107.8614238
  42 BEND     12  4 14                  1.8826725     107.8691902
  43 BEND     13  4 14                  1.8826696     107.8690213
  44 BEND     15  5 17                  1.8826389     107.8672627
  45 BEND     15  5 16                  1.8826482     107.8677985
  46 BEND     16  5 17                  1.8825707     107.8633586
  47 TORSION   1  2  3  9               1.0473258      60.0073460
  48 TORSION   1  2  5 17              -1.0457994     -59.9198918
  49 TORSION   1  2  5 15               1.0486155      60.0812446
  50 TORSION   1  2  5 16              -3.1401102    -179.9150632
  51 TORSION   1  2  3 10              -3.1414378    -179.9911272
  52 TORSION   1  2  4 12              -1.0456683     -59.9123780
  53 TORSION   1  2  4 13               1.0485907      60.0798215
  54 TORSION   1  2  3 11              -1.0470236     -59.9900324
  55 TORSION   1  2  4 14              -3.1401460    -179.9171145
  56 TORSION   3  2  5 16               1.0486189      60.0814372
  57 TORSION   3  2  1  8              -3.1404937    -179.9370321
  58 TORSION   3  2  4 13              -3.1401145    -179.9153080
  59 TORSION   3  2  5 15              -1.0458406     -59.9222550
  60 TORSION   3  2  4 12               1.0488118      60.0924924
  61 TORSION   3  2  1  6              -1.0461368     -59.9392217
  62 TORSION   3  2  4 14              -1.0456659     -59.9122441
  63 TORSION   3  2  5 17              -3.1402556    -179.9233914
  64 TORSION   3  2  1  7               1.0483493      60.0659885
  65 TORSION   4  2  1  8              -1.0460449     -59.9339577
  66 TORSION   4  2  3 11              -3.1414539    -179.9920498
  67 TORSION   4  2  1  7              -3.1403873    -179.9309371
  68 TORSION   4  2  1  6               1.0483120      60.0638527
  69 TORSION   4  2  5 16              -1.0457645     -59.9178915
  70 TORSION   4  2  3 10               1.0473172      60.0068554
  71 TORSION   4  2  5 15              -3.1402240    -179.9215837
  72 TORSION   4  2  3  9              -1.0471045     -59.9946714
  73 TORSION   4  2  5 17               1.0485463      60.0772799
  74 TORSION   5  2  3 11               1.0473797      60.0104358
  75 TORSION   5  2  1  6              -3.1405408    -179.9397327
  76 TORSION   5  2  3 10              -1.0470345     -59.9906590
  77 TORSION   5  2  4 13              -1.0457519     -59.9171720
  78 TORSION   5  2  4 12              -3.1400109    -179.9093715
  79 TORSION   5  2  3  9              -3.1414563    -179.9921859
  80 TORSION   5  2  1  8               1.0482876      60.0624569
  81 TORSION   5  2  4 14               1.0486966      60.0858920
  82 TORSION   5  2  1  7              -1.0460548     -59.9345224

          INTERNUCLEAR DISTANCES (ANGS.)


 =====================================================
   GAMESS/COSab RESULTS
 =====================================================

   Dielectric Constant                  = INFTY
   Basic Grid Size                      =                 1082
   Number of Segments                   =                   92
   Number of Segments located on spheres=                  208
   Number of Segments of the cavity     =                  484
   Solvent Radius (rsolv)               = 1.40
   Outlying Charge Error Method         = double cavity

 =====================================================

  Total solvated Energy (a.u.)          =  -196.3866147952
  Total Energy corrected (a.u.)         =  -196.3865339759

  Outlying charge effect (a.u.)         =     0.0000808193
  Outlying charge effect (kcal/mol)     =     0.0507149469

  Dielectric Energy (a.u.)              =    -0.0012674244
  Dielectric energy corr. (a.u.)        =    -0.0011866050

  Sum of polarization charges           =     0.0266039869
  Sum of polarization charges(cor.)     =    -0.0266039869

  Total surface area of cavity (A**2)   =  129.78
  Total volume of cavity (A**3)         =  125.08

 =====================================================
 NPS=                   484
NR.  ATOM  (X, Y, Z)(a.u.)                  CHARGE(e)  AREA(A**2) SIGMA(e/A**2)
   1   1  -0.446279   2.936034   8.928441   0.002315   0.418105   0.005537
   2   1   2.500776   0.426419   9.669659   0.001904   0.418105   0.004554
   3   1  -0.626541  -0.439998   7.381805   0.001481   0.371649   0.003986
   4   1  -0.028919   4.517627   8.134567   0.001181   0.278737   0.004237
   5   1   0.135407  -1.170866   7.087204   0.001597   0.371649   0.004296
   6   1   2.823855  -0.321190   9.149915   0.001201   0.278737   0.004310
   7   1   4.814083   0.073408   7.985209   0.000140   0.046456   0.003022
   8   1  -0.192187   3.856384   8.651901   0.001157   0.232280   0.004983
   9   1  -0.767644   3.897895   7.891764   0.001355   0.278737   0.004860
  10   1   4.535478   0.883864   8.880098   0.001207   0.232280   0.005195
  11   1   3.788274   0.544618   9.286556   0.002069   0.371649   0.005567
  12   1   1.399467  -0.231159   9.249668   0.001506   0.464561   0.003242
  13   1   0.095590  -0.444405   8.397110   0.001395   0.464561   0.003002
  14   1  -0.402986  -0.888534   6.044892   0.001989   0.371649   0.005351
  15   1  -0.280132  -0.638555   4.839181   0.001061   0.232280   0.004567
  16   1   1.197023   0.944566   9.788094   0.001285   0.418105   0.003073
  17   1   0.092342   1.834805   9.485307   0.001512   0.418105   0.003616
  18   1  -0.787939   1.727885   8.739947   0.001677   0.464561   0.003610
  19   1  -0.795556   0.430019   8.202161   0.000945   0.325193   0.002907
  20   1   0.973020  -0.886944   8.469201   0.000794   0.278737   0.002849
  21   1   4.333304   0.084391   8.592378   0.000603   0.139368   0.004325
  22   1   0.343256  -1.257681   5.310804   0.001605   0.325193   0.004935
  23   1   0.130290   0.554895   9.182530   0.001167   0.464561   0.002512
  24   3   9.098751   5.727977   4.932285   0.002315   0.418105   0.005538
  25   3   9.613886   2.342063   2.982178   0.001904   0.418105   0.004554
  26   3   9.168673   2.586950   6.920056   0.001481   0.371649   0.003986
  27   3   7.660536   6.747808   4.488055   0.001181   0.278737   0.004239
  28   3   8.922881   1.545152   6.683909   0.001597   0.371649   0.004296
  29   3   9.345965   1.444161   3.217602   0.001202   0.278737   0.004311
  30   3   7.476000   0.638335   2.065591   0.000140   0.046456   0.003022
  31   3   8.414363   6.352641   4.572441   0.001158   0.232280   0.004984
  32   3   7.967916   6.504980   5.401995   0.001355   0.278737   0.004860
  33   3   8.020103   1.643704   1.587607   0.001207   0.232280   0.005195
  34   3   8.770289   1.774868   2.096162   0.002069   0.371649   0.005567
  35   3   9.919756   2.199073   4.288961   0.001506   0.464561   0.003242
  36   3   9.762299   2.449090   5.833345   0.001395   0.464561   0.003002
  37   3   8.130922   1.833345   7.547470   0.001989   0.371649   0.005351
  38   3   6.970000   1.756271   7.968946   0.001062   0.232280   0.004570
  39   3   9.992889   3.415333   3.810863   0.001285   0.418105   0.003073
  40   3   9.798306   4.635959   4.570296   0.001512   0.418105   0.003616
  41   3   9.534186   4.803482   5.685672   0.001677   0.464561   0.003610
  42   3   9.586340   3.578637   6.371794   0.000945   0.325193   0.002907
  43   3   9.671892   1.675397   5.229900   0.000794   0.278737   0.002849
  44   3   8.161737   0.988910   2.147962   0.000603   0.139368   0.004326
  45   3   7.379218   1.025477   7.427800   0.001604   0.325193   0.004934
  46   3  10.025267   3.451739   5.096980   0.001167   0.464561   0.002512
  47   4   1.128359   2.959527  -1.671726   0.002315   0.418105   0.005538
  48   4   0.600190  -0.590589  -0.043718   0.001904   0.418105   0.004555
  49   4   3.998529   0.596888  -1.718906   0.001481   0.371649   0.003986
  50   4   0.887642   4.418094  -0.613191   0.001181   0.278737   0.004236
  51   4   4.292484  -0.237997  -1.072314   0.001597   0.371649   0.004297
  52   4   1.245292  -1.198450   0.340708   0.001202   0.278737   0.004311
  53   4   1.271562  -1.259977   2.679250   0.000140   0.046456   0.003011
  54   4   0.834378   3.745214  -1.138479   0.001158   0.232280   0.004985
  55   4   1.641116   4.245057  -1.238547   0.001355   0.278737   0.004863
  56   4   0.278137  -0.733764   2.158204   0.001206   0.232280   0.005194
  57   4   0.381158  -0.866324   1.257968   0.002069   0.371649   0.005566
  58   4   1.647708  -0.599645  -0.894781   0.001506   0.464561   0.003243
  59   4   2.914599  -0.008532  -1.614499   0.001395   0.464561   0.003002
  60   4   5.202601   0.545286  -0.953370   0.001989   0.371649   0.005351
  61   4   6.016133   1.095836  -0.200787   0.001062   0.232280   0.004570
  62   4   0.745966   0.326091  -1.102359   0.001285   0.418105   0.003073
  63   4   0.987336   1.621037  -1.710125   0.001512   0.418105   0.003616
  64   4   1.962718   2.105945  -2.104309   0.001677   0.464561   0.003611
  65   4   2.997529   1.155754  -2.098571   0.000945   0.325193   0.002907
  66   4   2.737085  -0.754746  -0.995974   0.000794   0.278737   0.002849
  67   4   0.953103  -1.256269   1.973210   0.000602   0.139368   0.004322
  68   4   5.690758   0.168777  -0.030345   0.001606   0.325193   0.004939
  69   4   1.807280   0.594295  -1.779226   0.001167   0.464561   0.002512
  70   5   0.974541   8.360553   1.393434   0.002315   0.418105   0.005538
  71   5   3.785516   9.672688   3.824364   0.001904   0.418105   0.004555
  72   5   0.096835   8.769187   4.982976   0.001482   0.371649   0.003987
  73   5   1.298024   6.821298   0.481342   0.001180   0.278737   0.004235
  74   5   0.686176   8.738127   5.906684   0.001597   0.371649   0.004296
  75   5   3.891937   9.543714   4.775928   0.001202   0.278737   0.004311
  76   5   5.523249   7.980729   5.383509   0.000140   0.046456   0.003021
  77   5   1.223270   7.619486   0.779403   0.001158   0.232280   0.004984
  78   5   0.470841   7.066337   0.975770   0.001355   0.278737   0.004862
  79   5   5.565491   8.387094   4.213737   0.001207   0.232280   0.005196
  80   5   4.928358   9.043043   4.164732   0.002069   0.371649   0.005568
  81   5   2.559656   9.856256   4.358457   0.001506   0.464561   0.003242
  82   5   1.061610   9.491507   4.667065   0.001395   0.464561   0.003002
  83   5  -0.085660   7.819287   6.033159   0.001989   0.371649   0.005352
  84   5  -0.269593   6.651639   6.399338   0.001061   0.232280   0.004567
  85   5   2.610778   9.764618   3.053771   0.001285   0.418105   0.003074
  86   5   1.546081   9.276823   2.197616   0.001512   0.418105   0.003616
  87   5   0.492371   8.868551   2.452365   0.001677   0.464561   0.003611
  88   5   0.229364   9.061847   3.818818   0.000945   0.325193   0.002907
  89   5   1.884854   9.604742   5.196563   0.000794   0.278737   0.002849
  90   5   5.225667   8.580846   4.994629   0.000603   0.139368   0.004324
  91   5   0.401845   7.239396   6.844390   0.001606   0.325193   0.004937
  92   5   1.391352   9.651165   3.449499   0.001167   0.464561   0.002512
  93   6   2.922174  -2.379002   6.860497  -0.001718   0.353299  -0.004863
  94   6   1.655789  -2.084363   5.549996  -0.000754   0.294415  -0.002561
  95   6   1.554636  -2.047331   7.189124  -0.000799   0.372926  -0.002142
  96   6   3.409216  -1.409830   8.228207  -0.000625   0.333671  -0.001872
  97   6   4.348824  -1.236292   7.611063  -0.000946   0.333671  -0.002834
  98   6   2.935295  -2.315753   5.667040  -0.001792   0.353299  -0.005073
  99   6   1.826828  -2.310330   6.348247  -0.001163   0.353299  -0.003291
 100   6   2.396295  -1.855941   7.963659  -0.001200   0.431809  -0.002779
 101   6   3.765862  -1.949615   7.324374  -0.001462   0.333671  -0.004383
 102   6   3.951036  -2.042554   6.159411  -0.002321   0.392554  -0.005914
 103   7   2.602500   3.425898  10.448427  -0.002270   0.471065  -0.004818
 104   7   1.242174   4.525380   9.420476  -0.000812   0.353299  -0.002298
 105   7   3.827615   2.301821  10.011047  -0.000890   0.372926  -0.002387
 106   7   1.623563   2.480539  10.336613  -0.000704   0.353299  -0.001994
 107   7   2.196996   4.486495   9.897324  -0.001871   0.392554  -0.004767
 108   7   3.330244   4.418080   9.759012  -0.002319   0.392554  -0.005907
 109   7   3.834712   3.308074  10.043258  -0.001784   0.372926  -0.004783
 110   7   2.749604   2.124283  10.377749  -0.000947   0.412182  -0.002298
 111   7   1.204902   3.514458  10.076587  -0.001109   0.451437  -0.002458
 112   8  -2.436721   1.908858   6.110567  -0.001718   0.353299  -0.004862
 113   8  -1.774395   3.477740   6.823234  -0.000745   0.294415  -0.002531
 114   8  -1.936657   1.974255   7.464753  -0.000798   0.372926  -0.002139
 115   8  -1.745434   0.309127   6.009985  -0.000624   0.333671  -0.001870
 116   8  -1.645008   0.558451   4.904726  -0.000945   0.333671  -0.002833
 117   8  -2.220638   3.006702   5.690375  -0.001792   0.353299  -0.005073
 118   8  -2.127365   2.719224   6.955851  -0.001163   0.353299  -0.003293
 119   8  -1.985364   0.953258   6.916924  -0.001201   0.431809  -0.002781
 120   8  -2.212209   1.135022   5.430763  -0.001463   0.333671  -0.004383
 121   8  -2.180175   2.179673   4.876015  -0.002322   0.392554  -0.005914
 122   9   8.174152  -0.830806   4.931395  -0.001718   0.353299  -0.004862
 123   9   7.418876  -0.248585   6.512071  -0.000754   0.294415  -0.002560
 124   9   8.826598   0.151834   5.766198  -0.000799   0.372926  -0.002141
 125   9   8.774222   0.051273   3.549734  -0.000624   0.333671  -0.001870
 126   9   7.839504  -0.353405   3.043390  -0.000946   0.333671  -0.002836
 127   9   7.136457  -1.016371   5.494661  -0.001792   0.353299  -0.005072
 128   9   8.118018  -0.366357   6.048550  -0.001163   0.353299  -0.003291
 129   9   9.096804   0.080940   4.640637  -0.001200   0.431809  -0.002778
 130   9   8.088779  -0.757709   3.883191  -0.001462   0.333671  -0.004383
 131   9   7.072426  -1.152217   4.343035  -0.002322   0.392554  -0.005914
 132  10   9.070357   5.042737   1.559540  -0.002270   0.471065  -0.004818
 133  10   8.276043   6.420111   2.819674  -0.000812   0.353299  -0.002297
 134  10   8.685971   3.418960   1.145595  -0.000891   0.372926  -0.002389
 135  10   9.703208   4.654797   2.705631  -0.000704   0.353299  -0.001994
 136  10   8.342449   6.039317   1.824100  -0.001872   0.392554  -0.004768
 137  10   7.834882   5.429909   1.000050  -0.002318   0.392554  -0.005904
 138  10   8.320064   4.292540   0.804123  -0.001783   0.372926  -0.004781
 139  10   9.461613   3.834908   1.889548  -0.000947   0.412182  -0.002298
 140  10   9.236422   5.691487   2.844427  -0.001109   0.451437  -0.002457
 141  11   7.849593   5.204822   8.267524  -0.001718   0.353299  -0.004862
 142  11   7.598961   6.396329   6.879917  -0.000745   0.294415  -0.002530
 143  11   8.784198   5.296390   7.169211  -0.000798   0.372926  -0.002139
 144  11   8.130917   3.482036   8.267807  -0.000624   0.333671  -0.001870
 145  11   7.063377   3.434464   8.657603  -0.000946   0.333671  -0.002834
 146  11   6.988958   5.972421   7.953498  -0.001792   0.353299  -0.005071
 147  11   8.135346   5.929033   7.339751  -0.001163   0.353299  -0.003293
 148  11   8.735527   4.328037   7.805488  -0.001201   0.431809  -0.002781
 149  11   7.492898   4.298300   8.670451  -0.001463   0.333671  -0.004384
 150  11   6.606993   5.078414   8.588833  -0.002321   0.392554  -0.005914
 151  12   4.050876  -2.273051   1.120243  -0.001915   0.392554  -0.004878
 152  12   5.430649  -1.104917   0.848922  -0.000796   0.294415  -0.002704
 153  12   3.992003  -1.620335  -0.094195  -0.000678   0.314043  -0.002160
 154  12   2.275535  -2.075959   1.079584  -0.000625   0.333671  -0.001872
 155  12   2.348149  -2.094745   2.214581  -0.000946   0.333671  -0.002836
 156  12   4.932429  -1.870683   1.739610  -0.001874   0.372926  -0.005024
 157  12   4.813060  -1.511245   0.342024  -0.000997   0.372926  -0.002674
 158  12   3.067581  -1.985473   0.267497  -0.001196   0.431809  -0.002769
 159  12   3.122816  -2.395313   1.724258  -0.001459   0.333671  -0.004374
 160  12   4.038392  -2.178671   2.441791  -0.002321   0.392554  -0.005912
 161  13  -1.447402   1.719230   0.244892  -0.002269   0.471065  -0.004817
 162  13  -0.622725   3.524175  -0.177142  -0.000811   0.353299  -0.002295
 163  13  -1.027456   0.409618   1.276550  -0.000891   0.372926  -0.002389
 164  13  -0.561298   1.316091  -0.712616  -0.000704   0.353299  -0.001993
 165  13  -1.341474   2.969107   0.384890  -0.001870   0.392554  -0.004765
 166  13  -1.615459   2.514137   1.397805  -0.002318   0.392554  -0.005906
 167  13  -1.519529   1.267640   1.464423  -0.001783   0.372926  -0.004782
 168  13  -0.844995   0.557927   0.148361  -0.000947   0.412182  -0.002297
 169  13  -0.673336   2.455776  -0.733735  -0.001109   0.451437  -0.002456
 170  14   4.610370   3.734990  -2.154099  -0.001718   0.353299  -0.004863
 171  14   3.068403   4.610388  -1.640312  -0.000745   0.294415  -0.002532
 172  14   3.302369   3.168784  -2.392231  -0.000798   0.372926  -0.002140
 173  14   5.173745   2.113972  -1.834651  -0.000624   0.333671  -0.001871
 174  14   5.914648   2.640829  -1.151036  -0.000945   0.333671  -0.002831
 175  14   4.364623   4.734509  -1.546577  -0.001793   0.353299  -0.005076
 176  14   3.440561   4.048752  -2.153718  -0.001164   0.353299  -0.003294
 177  14   4.232949   2.477396  -2.361753  -0.001201   0.431809  -0.002782
 178  14   5.433120   3.193347  -1.778507  -0.001463   0.333671  -0.004384
 179  14   5.388317   4.260830  -1.270037  -0.002322   0.392554  -0.005915
 180  15   3.195625   8.614114   7.628422  -0.001718   0.353299  -0.004862
 181  15   1.654395   7.601911   7.717935  -0.000754   0.294415  -0.002560
 182  15   2.000022   8.988913   6.908546  -0.000799   0.372926  -0.002142
 183  15   4.112953   9.194461   6.261366  -0.000624   0.333671  -0.001871
 184  15   4.863979   8.406027   6.590270  -0.000945   0.333671  -0.002833
 185  15   2.893642   7.570891   8.127426  -0.001793   0.353299  -0.005075
 186  15   2.013140   8.356709   7.579721  -0.001163   0.353299  -0.003291
 187  15   3.031752   9.387177   6.559485  -0.001200   0.431809  -0.002778
 188  15   4.166449   8.630726   7.217828  -0.001462   0.333671  -0.004382
 189  15   4.023781   7.656428   7.873920  -0.002322   0.392554  -0.005914
 190  16   4.349620   8.817383   0.897915  -0.002269   0.471065  -0.004817
 191  16   2.863151   7.661142   0.143231  -0.000811   0.353299  -0.002296
 192  16   5.311330   8.772703   2.322301  -0.000890   0.372926  -0.002387
 193  16   3.299093   9.381466   1.563295  -0.000704   0.353299  -0.001993
 194  16   3.903863   7.900709   0.153588  -0.001871   0.392554  -0.004765
 195  16   4.948302   7.600601   0.510164  -0.002319   0.392554  -0.005907
 196  16   5.413220   8.297264   1.440705  -0.001784   0.372926  -0.004783
 197  16   4.360004   9.377884   2.083904  -0.000947   0.412182  -0.002297
 198  16   2.916468   8.726740   0.704917  -0.001109   0.451437  -0.002457
 199  17  -1.779192   6.870904   3.169806  -0.001718   0.353299  -0.004862
 200  17  -0.817767   6.564994   1.623831  -0.000745   0.294415  -0.002531
 201  17  -0.930659   7.887600   2.591463  -0.000798   0.372926  -0.002139
 202  17  -1.280304   7.450329   4.739045  -0.000624   0.333671  -0.001870
 203  17  -1.458853   6.372244   5.054796  -0.000945   0.333671  -0.002831
 204  17  -1.590172   5.927228   2.461103  -0.001793   0.353299  -0.005074
 205  17  -1.186081   7.122677   2.144268  -0.001163   0.353299  -0.003293
 206  17  -1.212012   7.942337   3.715192  -0.001201   0.431809  -0.002781
 207  17  -1.812524   6.638539   4.197551  -0.001462   0.333671  -0.004383
 208  17  -1.840755   5.642857   3.558890  -0.002322   0.392554  -0.005914
 209   1   5.047555   0.042061   7.601216   0.000149   0.065059   0.002293
 210   3   5.747360   0.310998   7.252653   0.000269   0.065059   0.004127
 211   6   4.942160  -0.222347   7.491916  -0.000007   0.065059  -0.000110
 212   1   5.369277   2.175999   8.492426   0.000268   0.065038   0.004119
 213   3   6.140713   2.374787   8.271252   0.000154   0.065038   0.002362
 214  11   6.230381   2.654754   8.352162  -0.000003   0.065038  -0.000042
 215   3   6.166357   1.488470   7.925056   0.001664   0.573369   0.002901
 216   1   5.130428   0.822028   8.140584   0.001691   0.573369   0.002950
 217   1  -0.504743   0.121929   4.110361   0.000154   0.065067   0.002360
 218   4  -0.307955   0.179318   3.309437   0.000269   0.065067   0.004130
 219   8  -0.732294   0.303676   4.200701  -0.000003   0.065067  -0.000043
 220   1   1.409813  -1.184840   3.877935   0.000270   0.065073   0.004143
 221   4   1.509750  -1.256335   3.060377   0.000149   0.065073   0.002292
 222  12   1.758622  -1.409728   2.973761  -0.000007   0.065073  -0.000110
 223   4   0.685840  -0.785936   3.015875   0.001687   0.571738   0.002951
 224   1   0.172369  -0.543815   4.129624   0.001660   0.571738   0.002903
 225   1   0.918168   5.111670   8.122609   0.000162   0.065062   0.002498
 226   5   1.047686   5.786590   7.663024   0.000272   0.065062   0.004177
 227   7   1.120519   5.066987   8.346278  -0.000005   0.065062  -0.000072
 228   1  -0.636326   4.955814   6.393850   0.000273   0.065073   0.004190
 229   5  -0.615259   5.699450   6.033194   0.000154   0.065073   0.002370
 230  17  -0.793769   5.728909   5.787760  -0.000002   0.065073  -0.000038
 231   5  -0.017364   5.917520   6.738471   0.001674   0.571886   0.002928
 232   1   0.155911   4.997793   7.567263   0.001557   0.571886   0.002723
 233   1   1.440980  -1.315945   4.368533   0.000211   0.088203   0.002395
 234   6   1.646786  -1.481568   4.523960  -0.000083   0.088203  -0.000936
 235  12   1.864182  -1.401343   3.472884   0.000228   0.088203   0.002581
 236   6   4.480715  -0.575652   7.882424  -0.000046   0.069979  -0.000655
 237   6   3.537223  -0.814527   8.446825  -0.000182   0.155673  -0.001167
 238   6   2.233191  -1.198288   8.421743  -0.000261   0.155673  -0.001675
 239   6   1.234490  -1.547756   7.568004  -0.000303   0.155673  -0.001948
 240   6   0.963138  -1.715255   6.246372  -0.000131   0.155673  -0.000842
 241   6   1.318891  -1.682043   5.179543  -0.000059   0.069979  -0.000836
 242   1   4.180706  -0.284133   8.314831   0.000145   0.153123   0.000947
 243   1   2.777729  -0.664016   8.783464   0.000086   0.153123   0.000560
 244   1   1.410160  -1.099473   8.261541  -0.000043   0.153123  -0.000281
 245   1   0.655888  -1.406494   6.969611   0.000060   0.153123   0.000390
 246   1   0.833645  -1.455342   5.453600   0.000072   0.153123   0.000473
 247   1   4.948087   2.173127   8.773709   0.000214   0.088233   0.002425
 248   7   4.821772   2.386801   8.953536  -0.000081   0.088233  -0.000922
 249  11   5.745215   2.699381   8.496530   0.000228   0.088233   0.002582
 250   7   0.940176   4.635559   8.867488  -0.000038   0.069994  -0.000542
 251   7   0.638373   3.693364   9.403639  -0.000154   0.155714  -0.000987
 252   7   0.991676   2.487710   9.923884  -0.000264   0.155714  -0.001696
 253   7   2.060728   1.664626  10.093409  -0.000286   0.155714  -0.001835
 254   7   3.393609   1.572053   9.840551  -0.000164   0.155714  -0.001051
 255   7   4.324160   2.030164   9.404103  -0.000073   0.069994  -0.001041
 256   1   0.491888   4.243801   8.780280   0.000061   0.153152   0.000401
 257   1   0.397756   2.887203   9.475911   0.000017   0.153152   0.000113
 258   1   1.242496   1.682330   9.885567  -0.000060   0.153152  -0.000392
 259   1   2.669010   1.138520   9.836075  -0.000004   0.153152  -0.000023
 260   1   4.074268   1.485656   9.348357   0.000051   0.153152   0.000335
 261   1  -0.833469   4.511869   6.544080   0.000222   0.088209   0.002518
 262   8  -1.048787   4.331326   6.421634  -0.000078   0.088209  -0.000886
 263  17  -0.867476   5.228984   5.856182   0.000228   0.088209   0.002590
 264   8  -1.055286   0.147072   4.801832  -0.000041   0.069976  -0.000580
 265   8  -1.212102  -0.039994   5.900036  -0.000185   0.155664  -0.001189
 266   8  -1.375826   0.461691   7.152914  -0.000266   0.155664  -0.001710
 267   8  -1.446272   1.633908   7.837852  -0.000302   0.155664  -0.001937
 268   8  -1.393677   2.981392   7.665459  -0.000103   0.155664  -0.000664
 269   8  -1.278329   3.858478   6.970439  -0.000044   0.069976  -0.000623
 270   1  -0.778727  -0.213093   5.196484   0.000114   0.153121   0.000742
 271   1  -0.987507  -0.141310   6.707535   0.000056   0.153121   0.000363
 272   1  -1.126577   0.852796   7.858375  -0.000051   0.153121  -0.000336
 273   1  -1.137179   2.349209   8.162767   0.000023   0.153121   0.000151
 274   1  -1.014833   3.715686   7.492105   0.000009   0.153121   0.000061
 275   3   7.077405   0.428164   2.078062   0.000149   0.065033   0.002296
 276   4   6.420969   0.269863   1.601032   0.000269   0.065033   0.004139
 277   9   7.126511   0.226647   2.301546  -0.000007   0.065033  -0.000108
 278   3   6.885426   2.299602   0.697615   0.000268   0.065072   0.004119
 279   4   6.337447   2.072462   0.121720   0.000154   0.065072   0.002361
 280  14   6.264572   2.289424  -0.079736  -0.000003   0.065072  -0.000044
 281   4   6.378711   1.226291   0.554544   0.001663   0.572915   0.002903
 282   3   7.200443   1.169897   1.495298   0.001691   0.572915   0.002951
 283   3   7.070613   6.822279   3.540696   0.000163   0.065039   0.002499
 284   5   6.372616   7.256160   3.450897   0.000271   0.065039   0.004160
 285  10   7.202467   6.734074   3.280300  -0.000005   0.065039  -0.000071
 286   3   6.242639   7.064506   5.709104   0.000272   0.065067   0.004185
 287   5   5.641486   7.627322   5.635808   0.000150   0.065067   0.002301
 288  15   5.488355   7.686799   5.892677  -0.000007   0.065067  -0.000106
 289   5   5.932660   7.678957   4.731475   0.001702   0.573004   0.002971
 290   3   6.926169   6.966180   4.470002   0.001557   0.573004   0.002718
 291   3   6.200300   0.282784   7.028500   0.000211   0.088224   0.002388
 292   6   5.320903  -0.162769   7.158894   0.000228   0.088224   0.002581
 293   9   6.320234   0.075027   6.837714  -0.000083   0.088224  -0.000938
 294   9   7.763491   0.210405   2.591952  -0.000046   0.069995  -0.000654
 295   9   8.680677   0.550084   3.148474  -0.000182   0.155716  -0.001167
 296   9   9.288641   0.815094   4.335614  -0.000261   0.155716  -0.001675
 297   9   9.070400   0.806085   5.677793  -0.000303   0.155716  -0.001948
 298   9   8.118215   0.526865   6.607596  -0.000131   0.155716  -0.000843
 299   9   7.072686   0.181888   6.840380  -0.000059   0.069995  -0.000837
 300   3   8.126213   0.685970   2.526272   0.000145   0.153151   0.000948
 301   3   9.186400   1.096954   3.546227   0.000086   0.153151   0.000560
 302   3   9.417858   1.248993   5.048401  -0.000043   0.153151  -0.000281
 303   3   8.722737   1.077813   6.397740   0.000060   0.153151   0.000390
 304   3   7.394903   0.655780   7.023806   0.000072   0.153151   0.000472
 305   3   7.279406   2.547494   0.898371   0.000214   0.088217   0.002423
 306  10   7.394854   2.825952   0.842829  -0.000081   0.088217  -0.000922
 307  14   6.548053   2.581025   0.225580   0.000227   0.088217   0.002578
 308  10   7.876693   6.546484   3.303348  -0.000038   0.069990  -0.000540
 309  10   8.806479   5.976191   3.579678  -0.000154   0.155701  -0.000986
 310  10   9.584111   4.872417   3.419047  -0.000264   0.155701  -0.001695
 311  10   9.653643   3.700115   2.733699  -0.000286   0.155701  -0.001836
 312  10   8.985685   2.954771   1.813305  -0.000164   0.155701  -0.001051
 313  10   8.096803   2.835412   1.133792  -0.000073   0.069990  -0.001040
 314   3   8.120034   6.397530   3.833083   0.000062   0.153145   0.000403
 315   3   9.269040   5.404241   3.994236   0.000017   0.153145   0.000114
 316   3   9.772168   4.052486   3.491811  -0.000060   0.153145  -0.000391
 317   3   9.416765   2.913601   2.538166  -0.000004   0.153145  -0.000026
 318   3   8.353045   2.468951   1.536369   0.000051   0.153145   0.000331
 319   3   6.614627   6.801876   5.931402   0.000222   0.088218   0.002514
 320  11   6.660589   6.721040   6.223467  -0.000078   0.088218  -0.000886
 321  15   5.767527   7.302642   6.074080   0.000229   0.088218   0.002592
 322  11   6.918031   2.786394   8.363698  -0.000041   0.069991  -0.000579
 323  11   7.976530   2.912120   8.003240  -0.000185   0.155704  -0.001189
 324  11   8.901051   3.667519   7.352434  -0.000266   0.155704  -0.001711
 325  11   9.050906   4.848802   6.695906  -0.000302   0.155704  -0.001939
 326  11   8.362754   5.956654   6.311165  -0.000104   0.155704  -0.000665
 327  11   7.392404   6.525790   6.285436  -0.000044   0.069991  -0.000624
 328   3   7.289426   2.424479   8.058562   0.000113   0.153145   0.000741
 329   3   8.615557   2.879176   7.452308   0.000055   0.153145   0.000362
 330   3   9.253628   4.029370   6.675884  -0.000052   0.153145  -0.000337
 331   3   8.933934   5.388885   6.057475   0.000023   0.153145   0.000150
 332   3   7.791605   6.383069   5.858478   0.000009   0.153145   0.000061
 333   4   0.274672   4.568358   0.309799   0.000163   0.065073   0.002507
 334   5   0.287110   5.247790   0.780668   0.000275   0.065073   0.004233
 335  13   0.040095   4.380356   0.360765  -0.000004   0.065073  -0.000066
 336   4   2.313688   5.584302  -0.173902   0.000276   0.065072   0.004234
 337   5   2.254502   6.333945   0.169655   0.000163   0.065072   0.002506
 338  16   2.504817   6.506535   0.146677  -0.000004   0.065072  -0.000068
 339   5   1.364831   6.067223   0.366736   0.001568   0.571508   0.002744
 340   4   1.055789   4.941484  -0.080237   0.001569   0.571508   0.002745
 341   4  -0.381118   0.254058   2.811684   0.000214   0.088207   0.002428
 342   8  -0.693111   0.487485   3.726483   0.000228   0.088207   0.002580
 343  13  -0.578296   0.431126   2.657690  -0.000081   0.088207  -0.000922
 344   4   6.074884  -0.008651   1.356362   0.000212   0.088229   0.002402
 345   9   6.681728   0.037229   2.143011   0.000228   0.088229   0.002584
 346  12   5.949758  -0.281062   1.420254  -0.000080   0.088229  -0.000907
 347  12   1.775897  -1.660066   2.320081  -0.000046   0.069987  -0.000655
 348  12   1.777929  -1.679471   1.195067  -0.000182   0.155694  -0.001169
 349  12   2.455702  -1.497731   0.030445  -0.000261   0.155694  -0.001678
 350  12   3.674309  -1.142391  -0.456875  -0.000302   0.155694  -0.001943
 351  12   4.918704  -0.763636  -0.060927  -0.000150   0.155694  -0.000965
 352  12   5.633595  -0.535179   0.777391  -0.000045   0.069987  -0.000638
 353   4   1.403047  -1.428235   1.908691   0.000145   0.153138   0.000946
 354   4   1.716772  -1.361085   0.415448   0.000086   0.153138   0.000560
 355   4   2.843025  -1.042115  -0.565635  -0.000043   0.153138  -0.000281
 356   4   4.305793  -0.606139  -0.619900   0.000060   0.153138   0.000394
 357   4   5.486835  -0.237422   0.275587   0.000074   0.153138   0.000484
 358  13  -0.115667   3.911855  -0.135669  -0.000038   0.069975  -0.000537
 359  13  -0.003669   3.043828  -0.842508  -0.000153   0.155662  -0.000984
 360  13   0.001410   1.698785  -1.040055  -0.000264   0.155662  -0.001694
 361  13  -0.149881   0.517994  -0.383523  -0.000286   0.155662  -0.001834
 362  13  -0.393620   0.000353   0.849696  -0.000163   0.155662  -0.001049
 363  13  -0.594674   0.173329   1.942990  -0.000073   0.069975  -0.001040
 364   4   0.300222   3.774389  -0.548084   0.000062   0.153117   0.000406
 365   4   0.397845   2.416742  -1.240381   0.000018   0.153117   0.000116
 366   4   0.311012   0.916686  -0.967797  -0.000060   0.153117  -0.000391
 367   4   0.076409  -0.091988   0.154499  -0.000004   0.153117  -0.000027
 368   4  -0.206841  -0.183105   1.652323   0.000050   0.153117   0.000329
 369   4   2.470920   5.228859  -0.503066   0.000223   0.088202   0.002529
 370  14   2.732251   5.194872  -0.659580  -0.000078   0.088202  -0.000884
 371  16   2.708336   6.080662  -0.048439   0.000229   0.088202   0.002596
 372  14   5.970124   2.088705  -0.682418  -0.000041   0.069974  -0.000579
 373  14   5.227068   1.639777  -1.397931  -0.000185   0.155661  -0.001189
 374  14   4.044422   1.740700  -2.060761  -0.000266   0.155661  -0.001710
 375  14   2.977304   2.565719  -2.230424  -0.000302   0.155661  -0.001938
 376  14   2.476584   3.766255  -1.835236  -0.000103   0.155661  -0.000665
 377  14   2.591499   4.700816  -1.219592  -0.000044   0.069974  -0.000622
 378   4   5.715432   1.544686  -0.715870   0.000114   0.153116   0.000742
 379   4   4.538862   1.209205  -1.629726   0.000056   0.153116   0.000364
 380   4   3.202760   1.759108  -2.124131  -0.000051   0.153116  -0.000336
 381   4   2.271644   2.962056  -1.990195   0.000023   0.153116   0.000152
 382   4   2.138919   4.309789  -1.284507   0.000010   0.153116   0.000062
 383   5   1.197685   6.260714   7.556061   0.000212   0.088210   0.002404
 384   7   1.356194   5.464559   8.130331   0.000228   0.088210   0.002586
 385  15   1.422605   6.435236   7.669635  -0.000082   0.088210  -0.000934
 386   5   6.043496   7.576166   3.235792   0.000215   0.088230   0.002435
 387  10   6.779357   6.926894   3.074279   0.000228   0.088230   0.002588
 388  16   5.988880   7.645955   2.942368  -0.000081   0.088230  -0.000919
 389   5   0.099213   5.633661   1.054374   0.000223   0.088204   0.002529
 390  13  -0.056033   4.701272   0.745938   0.000229   0.088204   0.002596
 391  17  -0.155731   5.661310   1.222267  -0.000078   0.088204  -0.000883
 392  15   5.119867   8.281434   5.922051  -0.000046   0.069979  -0.000653
 393  15   4.345200   9.058443   5.673169  -0.000182   0.155674  -0.001167
 394  15   3.054163   9.478172   5.747066  -0.000261   0.155674  -0.001674
 395  15   1.837030   9.121562   6.236790  -0.000303   0.155674  -0.001947
 396  15   1.208124   8.139303   6.935400  -0.000131   0.155674  -0.000842
 397  15   1.266504   7.152427   7.472487  -0.000058   0.069979  -0.000835
 398   5   4.972885   8.559351   5.409092   0.000145   0.153124   0.000948
 399   5   3.719522   9.413623   5.231365   0.000086   0.153124   0.000561
 400   5   2.229946   9.451109   5.566094  -0.000043   0.153124  -0.000280
 401   5   1.133602   8.655968   6.271834   0.000060   0.153124   0.000391
 402   5   0.893770   7.364201   7.050361   0.000073   0.153124   0.000474
 403  16   2.434423   7.196737   0.241206  -0.000038   0.069989  -0.000539
 404  16   2.207755   8.177274   0.744419  -0.000154   0.155698  -0.000986
 405  16   2.582694   9.150026   1.617316  -0.000264   0.155698  -0.001695
 406  16   3.583140   9.498517   2.469628  -0.000286   0.155698  -0.001834
 407  16   4.786255   9.075458   2.941126  -0.000163   0.155698  -0.001050
 408  16   5.601503   8.299945   2.939344  -0.000073   0.069989  -0.001039
 409   5   1.947265   7.404086   0.527034   0.000062   0.153142   0.000403
 410   5   1.927015   8.686089   1.356974   0.000017   0.153142   0.000114
 411   5   2.743851   9.470770   2.381569  -0.000060   0.153142  -0.000391
 412   5   4.052537   9.426485   3.167774  -0.000003   0.153142  -0.000022
 413   5   5.299958   8.571950   3.383301   0.000052   0.153142   0.000336
 414  17  -0.955933   6.377176   5.578842  -0.000040   0.069973  -0.000577
 415  17  -0.828039   7.429050   5.201016  -0.000185   0.155656  -0.001188
 416  17  -0.606122   8.269941   4.156158  -0.000266   0.155656  -0.001709
 417  17  -0.389350   8.278704   2.814143  -0.000302   0.155656  -0.001937
 418  17  -0.269304   7.451636   1.741939  -0.000103   0.155656  -0.000664
 419  17  -0.269583   6.404920   1.329708  -0.000043   0.069973  -0.000622
 420   5  -0.615703   6.837311   5.764472   0.000114   0.153115   0.000744
 421   5  -0.404741   8.119299   4.962060   0.000056   0.153115   0.000364
 422   5  -0.144211   8.623893   3.544537  -0.000051   0.153115  -0.000335
 423   5   0.055819   8.137916   2.110774   0.000023   0.153115   0.000151
 424   5   0.110841   6.866680   1.266502   0.000010   0.153115   0.000062
 425   6   4.447268  -1.274066   4.775120  -0.000264   0.314491  -0.000840
 426   9   5.422020  -0.988096   4.383929  -0.000263   0.314491  -0.000836
 427  12   4.621270  -1.267097   3.700544  -0.000263   0.314491  -0.000836
 428   9   6.412026  -0.393533   6.657920   0.000286   0.304157   0.000939
 429   9   6.134773  -1.022181   5.507676  -0.000845   0.608642  -0.001388
 430   6   4.943779  -1.076066   6.783039  -0.000433   0.608642  -0.000712
 431   6   4.613459  -1.584636   5.588311  -0.000218   0.304157  -0.000715
 432  12   4.046781  -1.858139   3.375284  -0.000217   0.303897  -0.000715
 433  12   2.726966  -1.925472   3.161085  -0.000434   0.608118  -0.000714
 434   6   3.293957  -1.936326   4.811993  -0.000843   0.608118  -0.001386
 435   6   1.974191  -1.865284   4.598687   0.000286   0.303897   0.000942
 436   7   4.073242   5.061812   8.478349  -0.000264   0.314492  -0.000840
 437  11   5.048758   5.347490   8.087640  -0.000263   0.314492  -0.000837
 438  15   4.193895   6.007545   7.952533  -0.000264   0.314492  -0.000841
 439  11   5.630872   4.924898   8.604464  -0.000216   0.303833  -0.000710
 440  11   6.063885   3.669297   8.767624  -0.000426   0.607986  -0.000701
 441   7   4.431606   4.046500   9.259208  -0.000920   0.607986  -0.001512
 442   7   4.820237   2.766489   9.293732   0.000324   0.303833   0.001068
 443  15   1.723672   6.626788   8.033706   0.000286   0.303793   0.000942
 444  15   3.040530   6.589568   8.268789  -0.000843   0.607907  -0.001387
 445   7   2.054988   5.296463   8.904373  -0.000454   0.607907  -0.000747
 446   7   3.384030   5.191128   9.019768  -0.000211   0.303793  -0.000695
 447   8  -1.326683   3.179192   3.863688  -0.000264   0.314415  -0.000840
 448  13  -1.151650   3.187302   2.789189  -0.000265   0.314415  -0.000844
 449  17  -1.207153   4.125336   3.338812  -0.000265   0.314415  -0.000842
 450  13  -1.027346   0.652650   2.562046   0.000324   0.303760   0.001068
 451  13  -1.446200   1.922205   2.503404  -0.000920   0.607841  -0.001514
 452   8  -1.476104   1.117263   4.051991  -0.000429   0.607841  -0.000706
 453   8  -1.763499   2.423665   4.015040  -0.000216   0.303760  -0.000711
 454  17  -1.650821   4.713430   3.830847  -0.000217   0.303866  -0.000715
 455  17  -1.477477   5.340548   5.000784  -0.000432   0.608056  -0.000710
 456   8  -1.794939   3.624322   5.026632  -0.000842   0.608056  -0.001385
 457   8  -1.486357   4.226202   6.181878   0.000291   0.303866   0.000956
 458  12   5.945685  -0.763693   1.584003   0.000310   0.303714   0.001022
 459  12   5.320623  -1.404398   2.577997  -0.000839   0.607746  -0.001381
 460   9   6.857658  -0.651937   2.923569  -0.000429   0.607746  -0.000705
 461   9   6.168204  -1.173405   3.944331  -0.000216   0.303714  -0.000712
 462  10   6.229781   5.395459   0.834894  -0.000265   0.314464  -0.000842
 463  14   5.430229   5.116222   0.151245  -0.000265   0.314464  -0.000842
 464  16   5.373891   6.055036   0.699628  -0.000265   0.314464  -0.000842
 465  14   5.817174   4.583544  -0.442032  -0.000217   0.304159  -0.000713
 466  14   6.283549   3.327773  -0.474511  -0.000432   0.608647  -0.000710
 467  10   7.152288   4.504209   0.478748  -0.000925   0.608647  -0.001520
 468  10   7.535532   3.222427   0.554131   0.000324   0.304159   0.001064
 469  16   6.111297   7.744738   2.457517   0.000325   0.303757   0.001068
 470  16   5.839497   7.152372   1.289143  -0.000921   0.607833  -0.001514
 471  10   7.241362   6.611878   2.178310  -0.000448   0.607833  -0.000737
 472  10   6.890422   5.931439   1.081170  -0.000210   0.303757  -0.000692
 473  15   4.544717   6.818178   7.879607  -0.000218   0.304167  -0.000716
 474  15   5.226107   7.511935   6.957699  -0.000434   0.608662  -0.000712
 475  11   6.031130   6.178286   7.745664  -0.000845   0.608662  -0.001388
 476  11   6.660008   6.784771   6.729695   0.000290   0.304167   0.000954
 477  17  -0.648836   5.594765   1.333301   0.000291   0.303787   0.000957
 478  17  -1.306271   4.976742   2.321713  -0.000843   0.607896  -0.001387
 479  13  -0.860888   4.039214   0.918350  -0.000454   0.607896  -0.000746
 480  13  -1.394738   3.395437   1.963189  -0.000211   0.303787  -0.000695
 481  16   4.868923   6.580486   0.195915  -0.000211   0.303759  -0.000695
 482  16   3.571903   6.685039  -0.116216  -0.000454   0.607838  -0.000746
 483  14   4.458592   5.314693  -0.734998  -0.000843   0.607838  -0.001387
 484  14   3.135291   5.349634  -0.930626   0.000291   0.303759   0.000957
 =====================================================

              2623835  WORDS OF DYNAMIC MEMORY USED
 EXECUTION OF GAMESS TERMINATED NORMALLY Fri Nov 25 07:26:01 2016
 DDI: 263640 bytes (0.3 MB / 0 MWords) used by master data server.

 ----------------------------------------
 CPU timing information for all processes
 ========================================
 0: 232.308 + 0.120 = 232.428
 ----------------------------------------
 ddikick.x: exited gracefully.
