----- GAMESS execution script -----

          ******************************************************
          *         GAMESS VERSION =  5 DEC 2014 (R1)          *
          *             FROM IOWA STATE UNIVERSITY             *
          * M.W.SCHMIDT, K.K.BALDRIDGE, J.A.BOATZ, S.T.ELBERT, *
          *   M.S.GORDON, J.H.JENSEN, S.KOSEKI, N.MATSUNAGA,   *
          *          K.A.NGUYEN, S.J.SU, T.L.WINDUS,           *
          *       TOGETHER WITH M.DUPUIS, J.A.MONTGOMERY       *
          *         J.COMPUT.CHEM.  14, 1347-1363(1993)        *
          **************** 64 BIT LINUX VERSION ****************

 EXECUTION OF GAMESS BEGUN Fri Nov 25 07:32:36 2016

            ECHO OF THE FIRST FEW INPUT CARDS -
 INPUT CARD>! SELECT RESTRICTED HARTREE-FOCK AS DEFAULT                                     
 INPUT CARD>$contrl scftyp=rhf $end                                                         
 INPUT CARD>                                                                                
 INPUT CARD>! THEORY: HF OR DFT                                                             
 INPUT CARD> $contrl mplevl=0 $end                                                          
 INPUT CARD>                                                                                
 INPUT CARD> $system timlim=10000 mwords=20 $end                                            
 INPUT CARD> $SCF DIRSCF=.TRUE. $end                                                        
 INPUT CARD>                                                                                
 INPUT CARD>                                                                                
 INPUT CARD>! BASIS SETS                                                                    
 INPUT CARD>! 6-311G(d,p)                                                                   
 INPUT CARD> $BASIS GBASIS=N311 NGAUSS=6 NDFUNC=1 NPFUNC=1 $END                             
 INPUT CARD>                                                                                
 INPUT CARD>! One of the following                                                          
 INPUT CARD> $guess guess=HUCKEL $end                                                       
 INPUT CARD>                                                                                
 INPUT CARD> $statpt projct=.FALSE. $end                                                    
 INPUT CARD> $STATPT IFREEZ(1)=1,2,3 $END                                                   
 INPUT CARD>                                                                                
 INPUT CARD>! Optimize the geometry with COSMO effects                                      
 INPUT CARD> $statpt opttol=0.0005 nstep=50 $end                                            
 INPUT CARD> $contrl nzvar=1 $end                                                           
 INPUT CARD> $zmat dlc=.t. auto=.t. $end                                                    
 INPUT CARD> $contrl runtyp=OPTIMIZE maxit=200 $end                                         
 INPUT CARD>                                                                                
 INPUT CARD>! Run COSMO on perfect conductor                                                
 INPUT CARD> $COSGMS PRFCND=.TRUE. $end                                                     
 INPUT CARD>                                                                                
 INPUT CARD>! Specifying RSOLV                                                              
 INPUT CARD> $COSGMS COSRAD = 1.4 $end                                                      
 INPUT CARD>                                                                                
 INPUT CARD>! available memory                                                              
 INPUT CARD> $SYSTEM MWORDS=40 $END                                                         
 INPUT CARD>                                                                                
 INPUT CARD> $DATA                                                                          
 INPUT CARD>http://cactus.nci.nih.gov/chemical/structure/nitroMETHANE/file?format=sdf&get3d=
 INPUT CARD>C1                                                                              
 INPUT CARD>N      7.0      0.0596000000    0.0000000000    0.0014000000                    
 INPUT CARD>O      8.0      0.6686000000   -1.0548000000   -0.0004000000                    
 INPUT CARD>O      8.0      0.6686000000    1.0548000000   -0.0004000000                    
 INPUT CARD>C      6.0     -1.4054000000   -0.0000000000   -0.0003000000                    
 INPUT CARD>H      1.0     -1.7700000000   -0.0025000000    1.0269000000                    
 INPUT CARD>H      1.0     -1.7682000000    0.8912000000   -0.5124000000                    
 INPUT CARD>H      1.0     -1.7682000000   -0.8887000000   -0.5167000000                    
 INPUT CARD> $END                                                                           
 INPUT CARD>                                                                                
 INPUT CARD>                                                                                
   40000000 WORDS OF MEMORY AVAILABLE

     BASIS OPTIONS
     -------------
     GBASIS=N311         IGAUSS=       6      POLAR=POPN311 
     NDFUNC=       1     NFFUNC=       0     DIFFSP=       F
     NPFUNC=       1      DIFFS=       F     BASNAM=        


     RUN TITLE
     ---------
 http://cactus.nci.nih.gov/chemical/structure/nitroMETHANE/file?format=sdf&get3d=

 THE POINT GROUP OF THE MOLECULE IS C1      
 THE ORDER OF THE PRINCIPAL AXIS IS     0

 ATOM      ATOMIC                      COORDINATES (BOHR)
           CHARGE         X                   Y                   Z
 N           7.0     0.1126276689        0.0000000000        0.0026456164
 O           8.0     1.2634707954       -1.9932829718       -0.0007558904
 O           8.0     1.2634707954        1.9932829718       -0.0007558904
 C           6.0    -2.6558209031       -0.0000000000       -0.0005669178
 H           1.0    -3.3448149983       -0.0047243150        1.9405596168
 H           1.0    -3.3414134915        1.6841238003       -0.9682955961
 H           1.0    -3.3414134915       -1.6793994853       -0.9764214179

          INTERNUCLEAR DISTANCES (ANGS.)




     $CONTRL OPTIONS
     ---------------
 SCFTYP=RHF          RUNTYP=OPTIMIZE     EXETYP=RUN     
 MPLEVL=       0     CITYP =NONE         CCTYP =NONE         VBTYP =NONE    
 DFTTYP=NONE         TDDFT =NONE    
 MULT  =       1     ICHARG=       0     NZVAR =       1     COORD =UNIQUE  
 PP    =NONE         RELWFN=NONE         LOCAL =NONE         NUMGRD=       F
 ISPHER=      -1     NOSYM =       0     MAXIT =     200     UNITS =ANGS    
 PLTORB=       F     MOLPLT=       F     AIMPAC=       F     FRIEND=        
 NPRINT=       7     IREST =       0     GEOM  =INPUT   
 NORMF =       0     NORMP =       0     ITOL  =      20     ICUT  =       9
 INTTYP=BEST         GRDTYP=BEST         QMTTOL= 1.0E-06

     $SYSTEM OPTIONS
     ---------------
  REPLICATED MEMORY=    40000000 WORDS (ON EVERY NODE).
 DISTRIBUTED MEMDDI=           0 MILLION WORDS IN AGGREGATE,
 MEMDDI DISTRIBUTED OVER   1 PROCESSORS IS           0 WORDS/PROCESSOR.
 TOTAL MEMORY REQUESTED ON EACH PROCESSOR=    40000000 WORDS.
 TIMLIM=       10000.00 MINUTES, OR       6.9 DAYS.
 PARALL= F  BALTYP=  DLB     KDIAG=    0  COREFL= F
 MXSEQ2=     300 MXSEQ3=     150  mem10=         0

     $COSGMS OPTIONS
     ---------------
     EPSI  =   INFTY     NSPA  =      92     COSRAD=    1.40
     DISEX =   10.00     OUTCHG=DBLCAV       COSBUG=       F
     COSWRT=       F     DCOSMO=       F

     SYMMETRY COORDINATES WILL NOT BE USED FOR 
     THE COSMO CALCULATION, EVEN IF SPECIFIED:
         -- SWITCHING TO C1 POINT GROUP --


     DEFINITION OF CAVITY
     ---------------------------
     ATOM         COORDINATES           RADIUS 
     1    0.1126    0.0000    0.0026    1.8300
     2    1.2635   -1.9933   -0.0008    1.7200
     3    1.2635    1.9933   -0.0008    1.7200
     4   -2.6558   -0.0000   -0.0006    2.0000
     5   -3.3448   -0.0047    1.9406    1.3000
     6   -3.3414    1.6841   -0.9683    1.3000
     7   -3.3414   -1.6794   -0.9764    1.3000

          ----------------
          PROPERTIES INPUT
          ----------------

     MOMENTS            FIELD           POTENTIAL          DENSITY
 IEMOM =       1   IEFLD =       0   IEPOT =       0   IEDEN =       0
 WHERE =COMASS     WHERE =NUCLEI     WHERE =NUCLEI     WHERE =NUCLEI  
 OUTPUT=BOTH       OUTPUT=BOTH       OUTPUT=BOTH       OUTPUT=BOTH    
 IEMINT=       0   IEFINT=       0                     IEDINT=       0
                                                       MORB  =       0
          EXTRAPOLATION IN EFFECT
          SOSCF IN EFFECT
 ORBITAL PRINTING OPTION: NPREO=     1    94     2     1

     -------------------------------
     INTEGRAL TRANSFORMATION OPTIONS
     -------------------------------
     NWORD  =            0
     CUTOFF = 1.0E-09     MPTRAN =       0
     DIRTRF =       T     AOINTS =DUP     

          ----------------------
          INTEGRAL INPUT OPTIONS
          ----------------------
 NOPK  =       1 NORDER=       0 SCHWRZ=       T


 -----------------------------------------------
  STATISTICS ON AUTOMATIC COORDINATE GENERATION 
 -----------------------------------------------
  NUMBER OF USER SPECIFIED BONDS                             0
  NUMBER OF BONDS                                            6
  NUMBER OF ANGLES                                           9
  NUMBER OF TORSIONS                                         6
  NUMBER OF EXTRA COORD.                                     0
  NUMBER OF EXTRA COORD. FOR CONSTRAINTS                     0
  NUMBER OF CONSTRAINED COORD.                               0

  TOTAL NUMBER OF PRIMITIVES                                21
 -----------------------------------------------

   --- ENCODED Z MATRIX ---
 COORD  TYPE   I   J   K   L   M   N
    1      1    1   4
    2      1    1   2
    3      1    1   3
    4      1    4   7
    5      1    4   6
    6      1    4   5
    7      2    1   4   7
    8      2    1   4   5
    9      2    1   4   6
   10      2    2   1   4
   11      2    2   1   3
   12      2    3   1   4
   13      2    5   4   6
   14      2    5   4   7
   15      2    6   4   7
   16      3    2   1   4   5
   17      3    2   1   4   6
   18      3    2   1   4   7
   19      3    3   1   4   6
   20      3    3   1   4   5
   21      3    3   1   4   7

          INDEP./SYM. INTERNAL COORDINATES
          --------------------------------
 CRD  1=   0.4602 (  7) -0.4615 (  9)  0.4991 ( 10) -0.4991 ( 12)  0.1080 ( 13)
          -0.1082 ( 14)
 CRD  2=  -0.6873 (  1) -0.2114 (  7) -0.2069 (  8) -0.2114 (  9) -0.1999 ( 10)
           0.3997 ( 11) -0.1999 ( 12)  0.2095 ( 13)  0.2095 ( 14)  0.2108 ( 15)
 CRD  3=  -0.1781 (  6)  0.3627 (  7) -0.7253 (  8)  0.3597 (  9)  0.1240 ( 13)
           0.1230 ( 14) -0.2441 ( 15) -0.1674 ( 17)  0.1672 ( 21)
 CRD  4=  -0.3122 (  2)  0.3122 (  3)  0.1903 (  4) -0.1909 (  5)  0.4147 (  7)
          -0.4159 (  9) -0.3872 ( 10)  0.3872 ( 12)  0.2089 ( 13) -0.2095 ( 14)
 CRD  5=   0.4594 (  2)  0.4594 (  3) -0.1911 (  4) -0.1911 (  5) -0.1913 (  6)
           0.1347 (  7)  0.1339 (  8)  0.1346 (  9) -0.2430 ( 10)  0.4860 ( 11)
          -0.2430 ( 12) -0.1343 ( 13) -0.1343 ( 14) -0.1347 ( 15)
 CRD  6=  -0.2093 (  1) -0.2947 (  2) -0.2947 (  3) -0.4620 (  4) -0.4620 (  5)
          -0.4621 (  6)  0.1404 (  7)  0.1405 (  8)  0.1404 (  9) -0.1257 ( 11)
          -0.1404 ( 13) -0.1404 ( 14) -0.1404 ( 15)
 CRD  7=   0.5229 (  4) -0.5185 (  5) -0.3523 ( 13)  0.3493 ( 14)  0.2586 ( 16)
          -0.1313 ( 17) -0.1279 ( 18) -0.1310 ( 19)  0.2588 ( 20) -0.1277 ( 21)
 CRD  8=  -0.2962 (  4) -0.3038 (  5)  0.6000 (  6)  0.2004 ( 13)  0.2056 ( 14)
          -0.4060 ( 15)  0.2372 ( 17) -0.2133 ( 18)  0.2114 ( 19) -0.2391 ( 21)
 CRD  9=  -0.4085 ( 16) -0.4081 ( 17) -0.4081 ( 18) -0.4081 ( 19) -0.4085 ( 20)
          -0.4081 ( 21)
 CRD 10=   0.3780 (  2)  0.3780 (  3) -0.2350 (  4) -0.2350 (  5) -0.2328 (  6)
          -0.2208 (  7) -0.2203 (  8) -0.2208 (  9)  0.2068 ( 10) -0.4136 ( 11)
           0.2068 ( 12)  0.2202 ( 13)  0.2202 ( 14)  0.2218 ( 15)
 CRD 11=   0.6014 (  2) -0.6014 (  3)  0.2217 (  4) -0.2223 (  5) -0.2115 ( 10)
           0.2115 ( 12)  0.1564 ( 13) -0.1568 ( 14)
 CRD 12=   0.1960 (  4)  0.1944 (  5) -0.3944 (  6)  0.1451 ( 13)  0.1439 ( 14)
          -0.2848 ( 15)  0.2956 ( 16)  0.4690 ( 17)  0.1237 ( 18) -0.1232 ( 19)
          -0.2966 ( 20) -0.4685 ( 21)
 CRD 13=  -0.6908 (  1)  0.2223 (  2)  0.2223 (  3)  0.1655 (  4)  0.1654 (  5)
           0.1631 (  6)  0.1899 (  7)  0.1903 (  8)  0.1899 (  9)  0.1448 ( 10)
          -0.2895 ( 11)  0.1448 ( 12) -0.1895 ( 13) -0.1895 ( 14) -0.1912 ( 15)
 CRD 14=   0.1757 (  2) -0.1757 (  3) -0.3746 (  4)  0.3756 (  5)  0.2223 (  7)
          -0.2229 (  9) -0.2368 ( 10)  0.2368 ( 12) -0.2730 ( 13)  0.2738 ( 14)
           0.3135 ( 16) -0.1570 ( 17) -0.1583 ( 18) -0.1570 ( 19)  0.3135 ( 20)
          -0.1583 ( 21)
 CRD 15=  -0.1742 (  4) -0.1728 (  5)  0.3471 (  6)  0.1251 (  7) -0.2489 (  8)
           0.1240 (  9) -0.1266 ( 13) -0.1256 ( 14)  0.2521 ( 15)  0.2646 ( 16)
           0.4943 ( 18) -0.4950 ( 19) -0.2634 ( 20)

 THE DETERMINANT OF THE G MATRIX IS 10**(    -8)


                     --------------------
                     INTERNAL COORDINATES
                     --------------------

                 - - ATOMS - -         COORDINATE      COORDINATE
 NO.   TYPE    I  J  K  L  M  N        (BOHR,RAD)       (ANG,DEG)
 ----------------------------------------------------------------
   1 STRETCH   1  4                     2.7684504       1.4650010
   2 STRETCH   1  2                     2.3016578       1.2179849
   3 STRETCH   1  3                     2.3016578       1.2179849
   4 STRETCH   4  7                     2.0597844       1.0899911
   5 STRETCH   4  6                     2.0598080       1.0900035
   6 STRETCH   4  5                     2.0597833       1.0899905
   7 BEND      1  4  7                  1.9107000     109.4750477
   8 BEND      1  4  5                  1.9107088     109.4755484
   9 BEND      1  4  6                  1.9106911     109.4745375
  10 BEND      2  1  4                  2.0943999     120.0002737
  11 BEND      2  1  3                  2.0943758     119.9988922
  12 BEND      3  1  4                  2.0943999     120.0002737
  13 BEND      5  4  6                  1.9105878     109.4686163
  14 BEND      5  4  7                  1.9105626     109.4671709
  15 BEND      6  4  7                  1.9105491     109.4664022
  16 TORSION   2  1  4  5               1.5707400      89.9967718
  17 TORSION   2  1  4  6              -2.6180242    -150.0017360
  18 TORSION   2  1  4  7              -0.5236557     -30.0032624
  19 TORSION   3  1  4  6               0.5188156      29.7259425
  20 TORSION   3  1  4  5              -1.5756056     -90.2755497
  21 TORSION   3  1  4  7               2.6131840     149.7244161

     ------------------------------------------
     THE POINT GROUP IS C1 , NAXIS= 1, ORDER= 1
     ------------------------------------------

     DIMENSIONS OF THE SYMMETRY SUBSPACES ARE
 A   =   94

 ..... DONE SETTING UP THE RUN .....
 STEP CPU TIME =     0.01 TOTAL CPU TIME =        0.0 (    0.0 MIN)
 TOTAL WALL CLOCK TIME=        0.0 SECONDS, CPU UTILIZATION IS  50.00%


          -----------------------------
          STATIONARY POINT LOCATION RUN
          -----------------------------

 OBTAINING INITIAL HESSIAN, HESS=GUESS   
 DIAGONAL GUESS HESSIAN IN INTERNAL COORDS IS
     1  0.3636     2  0.4746     3  0.4746     4  0.3464     5  0.3464
     6  0.3464     7  0.2212     8  0.2212     9  0.2212    10  0.2460
    11  0.2504    12  0.2460    13  0.2034    14  0.2034    15  0.2034
    16  0.2500    17  0.2500    18  0.2500    19  0.2500    20  0.2500
    21  0.2500
 TRANSFORMING HESSIAN TO SYMMETRY COORDINATES

          PARAMETERS CONTROLLING GEOMETRY SEARCH ARE
          METHOD =QA                  UPHESS =BFGS    
          NNEG   =         0          NFRZ   =         3
          NSTEP  =        50          IFOLOW =         1
          HESS   =GUESS               RESTAR =         F
          IHREP  =         0          HSSEND =         F
          NPRT   =         0          NPUN   =         0
          OPTTOL = 5.000E-04          RMIN   = 1.500E-03
          RMAX   = 1.000E-01          RLIM   = 7.000E-02
          DXMAX  = 3.000E-01          PURIFY =         F
          MOVIE  =         F          TRUPD  =         T
          TRMAX  = 5.000E-01          TRMIN  = 5.000E-02
          ITBMAT =         5          STPT   =         F
          STSTEP = 1.000E-02          PROJCT=          F
          FROZEN COORD(S)=   1   2   3


      ***** EQUILIBRIUM GEOMETRY LOCATED *****
            (SUBJECT TO   3 CONSTRAINT(S))
 COORDINATES OF ALL ATOMS ARE (ANGS)
   ATOM   CHARGE       X              Y              Z
 ------------------------------------------------------------
 N           7.0   0.0907545110   0.0000049118  -0.0051314779
 O           8.0   0.6601935002  -1.0449822972   0.0019079529
 O           8.0   0.6601666104   1.0449633755   0.0019080921
 C           6.0  -1.4200802394   0.0000325724  -0.0012095866
 H           1.0  -1.7644120919  -0.0025639586   1.0254551090
 H           1.0  -1.7664017987   0.8918768628  -0.4975492023
 H           1.0  -1.7664013904  -0.8894686829  -0.5017849613


                     --------------------
                     INTERNAL COORDINATES
                     --------------------

                 - - ATOMS - -         COORDINATE      COORDINATE
 NO.   TYPE    I  J  K  L  M  N        (BOHR,RAD)       (ANG,DEG)
 ----------------------------------------------------------------
   1 STRETCH   1  4                     2.8550733       1.5108398
   2 STRETCH   1  2                     2.2489395       1.1900876
   3 STRETCH   1  3                     2.2488675       1.1900495
   4 STRETCH   4  7                     2.0368113       1.0778342
   5 STRETCH   4  6                     2.0367686       1.0778116
   6 STRETCH   4  5                     2.0463312       1.0828719
   7 BEND      1  4  7                  1.8966211     108.6683871
   8 BEND      1  4  5                  1.8969905     108.6895488
   9 BEND      1  4  6                  1.8966713     108.6712623
  10 BEND      2  1  4                  2.0697238     118.5864384
  11 BEND      2  1  3                  2.1436607     122.8227103
  12 BEND      3  1  4                  2.0696789     118.5838658
  13 BEND      5  4  6                  1.9139036     109.6585977
  14 BEND      5  4  7                  1.9136446     109.6437576
  15 BEND      6  4  7                  1.9452442     111.4542850
  16 TORSION   2  1  4  5               1.5601080      89.3876064
  17 TORSION   2  1  4  6              -2.6411284    -151.3255128
  18 TORSION   2  1  4  7              -0.5215002     -29.8797610
  19 TORSION   3  1  4  6               0.5167659      29.6085065
  20 TORSION   3  1  4  5              -1.5651829     -89.6783744
  21 TORSION   3  1  4  7               2.6363942     151.0542583

          INTERNUCLEAR DISTANCES (ANGS.)


 =====================================================
   GAMESS/COSab RESULTS
 =====================================================

   Dielectric Constant                  = INFTY
   Basic Grid Size                      =                 1082
   Number of Segments                   =                   92
   Number of Segments located on spheres=                  181
   Number of Segments of the cavity     =                  319
   Solvent Radius (rsolv)               = 1.40
   Outlying Charge Error Method         = double cavity

 =====================================================

  Total solvated Energy (a.u.)          =  -243.7443953815
  Total Energy corrected (a.u.)         =  -243.7441804249

  Outlying charge effect (a.u.)         =     0.0002149566
  Outlying charge effect (kcal/mol)     =     0.1348873997

  Dielectric Energy (a.u.)              =    -0.0190159423
  Dielectric energy corr. (a.u.)        =    -0.0188009857

  Sum of polarization charges           =     0.0092994700
  Sum of polarization charges(cor.)     =    -0.0092994700

  Total surface area of cavity (A**2)   =   88.14
  Total volume of cavity (A**3)         =   69.34

 =====================================================
 NPS=                   319
NR.  ATOM  (X, Y, Z)(a.u.)                  CHARGE(e)  AREA(A**2) SIGMA(e/A**2)
   1   1  -0.137350   0.836543  -3.350955  -0.001335   0.077788  -0.017165
   2   1   0.047416  -0.769750  -3.378863  -0.002207   0.155577  -0.014187
   3   1   0.142963   0.110810  -3.466011  -0.000487   0.116683  -0.004174
   4   1   0.470170   0.643800  -3.394298  -0.001322   0.155577  -0.008499
   5   1   1.397952   0.112127  -3.241176  -0.001686   0.194471  -0.008668
   6   1   0.858578   0.430821   3.352059  -0.001047   0.194471  -0.005385
   7   1   0.722248  -0.249321   3.395240  -0.001107   0.155577  -0.007116
   8   1   0.093454  -0.792233   3.355618  -0.002242   0.155577  -0.014411
   9   1   0.083001   0.299618   3.434352  -0.002191   0.194471  -0.011269
  10   1   0.787409  -0.375786  -3.391804  -0.001137   0.233365  -0.004873
  11   1   1.514628  -0.157288   3.173126  -0.001106   0.116683  -0.009476
  12   2   2.719566  -4.872456   0.037531   0.002836   0.377948   0.007504
  13   2   0.552855  -4.162889  -2.297266   0.003481   0.309230   0.011258
  14   2  -0.375018  -4.619265   0.972249   0.004194   0.274871   0.015259
  15   2   2.019135  -3.263059   2.886236   0.003196   0.343589   0.009303
  16   2   4.392889  -2.039979   0.820580   0.004737   0.343589   0.013785
  17   2   3.365126  -2.473097  -2.411415   0.002980   0.274871   0.010841
  18   2   2.064437  -4.966036  -0.970841   0.003470   0.412307   0.008416
  19   2   1.140081  -4.774179  -1.644495   0.003595   0.343589   0.010465
  20   2   1.619151  -5.183026   0.368946   0.003755   0.412307   0.009107
  21   2   0.507109  -5.069709   0.665037   0.004144   0.343589   0.012061
  22   2   2.661150  -4.635070   1.223896   0.003294   0.412307   0.007990
  23   2   2.606530  -3.964595   2.184973   0.003398   0.377948   0.008992
  24   2   3.610763  -4.170980   0.399276   0.003336   0.377948   0.008828
  25   2   4.201849  -3.210563   0.560116   0.004049   0.343589   0.011785
  26   2   3.333845  -4.305840  -0.878516   0.004056   0.481025   0.008431
  27   2   3.489213  -3.511080  -1.779488   0.004158   0.412307   0.010085
  28   2  -0.066263  -4.690704  -1.205520   0.003814   0.274871   0.013876
  29   2  -0.300044  -4.831854  -0.076254   0.004886   0.309230   0.015801
  30   2   0.401178  -4.557996   1.785458   0.003620   0.309230   0.011705
  31   2   1.235214  -3.969221   2.570024   0.003728   0.377948   0.009864
  32   2   3.121646  -2.810731   2.524247   0.004291   0.412307   0.010408
  33   2   3.949195  -2.434511   1.751330   0.005152   0.412307   0.012495
  34   2   4.483407  -2.120623  -0.266250   0.005420   0.377948   0.014341
  35   2   4.090846  -2.323884  -1.532176   0.005230   0.412307   0.012684
  36   2   2.594401  -3.270502  -2.655671   0.003652   0.377948   0.009663
  37   2   1.543847  -3.900635  -2.597897   0.003337   0.343589   0.009712
  38   2  -0.106487  -4.192454  -1.949055   0.002325   0.171795   0.013534
  39   2  -0.296941  -4.049805   1.971640   0.002691   0.274871   0.009790
  40   2   0.425432  -2.583282   3.088787   0.001150   0.206154   0.005577
  41   2   1.181730  -2.761941   3.156475   0.002040   0.274871   0.007421
  42   2   2.340249  -2.190962   3.057119   0.002547   0.309230   0.008235
  43   2   2.656719  -1.314032   2.857098   0.001433   0.240512   0.005957
  44   2   4.000908  -1.180176   1.537395   0.004262   0.343589   0.012403
  45   2   4.386403  -1.150171   0.184029   0.003358   0.240512   0.013962
  46   2   3.556298  -1.411770  -2.213955   0.003877   0.377948   0.010257
  47   2   2.547124  -2.262353  -2.961718   0.002342   0.274871   0.008521
  48   2   1.778625  -1.768298  -3.196402   0.001423   0.240512   0.005915
  49   2   0.664357  -2.374443  -3.168893   0.001166   0.240512   0.004848
  50   2   0.444836  -3.290641  -2.857978   0.003418   0.377948   0.009043
  51   2   0.794272  -5.140407  -0.577514   0.004739   0.412307   0.011494
  52   2   1.522615  -4.765239   1.647410   0.004661   0.481025   0.009689
  53   2   3.607660  -3.610478   1.526444   0.004123   0.412307   0.009999
  54   2   4.173148  -3.242143  -0.628390   0.005233   0.446666   0.011715
  55   2   2.394406  -4.277190  -1.983398   0.003689   0.412307   0.008947
  56   2   0.261017  -3.479895   2.710227   0.003157   0.309230   0.010208
  57   2   3.411744  -1.482822   2.378275   0.003206   0.343589   0.009332
  58   2   4.233493  -1.314914  -1.098048   0.004137   0.309230   0.013379
  59   2   1.536091  -2.769036  -3.134949   0.002535   0.309230   0.008198
  60   2   1.503867  -1.797443   3.238956   0.001226   0.240512   0.005099
  61   2   2.676808  -1.335356  -2.844758   0.001506   0.240512   0.006262
  62   3   2.719867   4.872418   0.006104   0.002835   0.377948   0.007502
  63   3   0.424818   4.214321   2.210830   0.003504   0.309230   0.011331
  64   3  -0.264165   4.698319  -0.924421   0.003761   0.240512   0.015637
  65   3   2.090138   3.263014  -2.859056   0.003221   0.343589   0.009374
  66   3   4.412077   2.039958  -0.735309   0.004738   0.343589   0.013790
  67   3   3.304671   2.473065   2.470271   0.002966   0.274871   0.010791
  68   3   2.039992   4.965991   0.997961   0.003449   0.412307   0.008364
  69   3   1.099256   4.774124   1.648542   0.003554   0.343589   0.010344
  70   3   1.627984   5.182976  -0.352432   0.003762   0.412307   0.009125
  71   3   0.523609   5.069648  -0.675942   0.004186   0.343589   0.012182
  72   3   2.690819   4.635031  -1.181342   0.003321   0.412307   0.008056
  73   3   2.659999   3.964555  -2.143477   0.003429   0.377948   0.009072
  74   3   3.619747   4.170951  -0.333483   0.003343   0.377948   0.008846
  75   3   4.214641   3.210539  -0.479652   0.004055   0.343589   0.011802
  76   3   3.311302   4.305808   0.937067   0.004031   0.481025   0.008380
  77   3   3.444342   3.511049   1.841607   0.004129   0.412307   0.010015
  78   3  -0.120625   4.617251   1.311145   0.004270   0.309230   0.013810
  79   3  -0.235349   4.862999   0.156469   0.003498   0.240512   0.014544
  80   3   0.300300   4.471226  -1.849680   0.005185   0.412307   0.012575
  81   3   1.259993   3.937233  -2.587314   0.004129   0.412307   0.010015
  82   3   3.183362   2.810696  -2.469903   0.004315   0.412307   0.010465
  83   3   3.991540   2.434485  -1.676751   0.005162   0.412307   0.012520
  84   3   4.475681   2.120602   0.353427   0.005418   0.377948   0.014335
  85   3   4.051921   2.323858   1.609254   0.005217   0.412307   0.012653
  86   3   2.528132   3.270462   2.695386   0.003606   0.377948   0.009541
  87   3   1.367983   3.879448   2.634581   0.004055   0.412307   0.009834
  88   3  -0.330399   3.940547   2.055481   0.002292   0.171795   0.013342
  89   3   0.429299   2.623199  -3.074468   0.001590   0.274871   0.005786
  90   3   1.259680   2.761887  -3.149928   0.002093   0.274871   0.007613
  91   3   2.415393   2.190920  -3.021943   0.002572   0.309230   0.008317
  92   3   2.726826   1.313993  -2.814154   0.001436   0.240512   0.005970
  93   3   4.037958   1.180150  -1.461602   0.004248   0.343589   0.012364
  94   3   4.389855   1.150150  -0.099114   0.003358   0.240512   0.013962
  95   3   3.500680   1.411739   2.277601   0.003879   0.377948   0.010262
  96   3   2.473308   2.262312   3.000170   0.002314   0.274871   0.008419
  97   3   1.699244   1.768249   3.215770   0.001340   0.240512   0.005572
  98   3   0.585991   2.374383   3.160705   0.000937   0.240512   0.003895
  99   3   0.326828   3.257696   2.844532   0.002836   0.343589   0.008255
 100   3   0.779944   5.140349   0.573332   0.004740   0.412307   0.011497
 101   3   1.563109   4.765189  -1.632892   0.004643   0.481025   0.009652
 102   3   3.644534   3.610449  -1.460383   0.004146   0.412307   0.010056
 103   3   4.156547   3.242119   0.707781   0.005220   0.446666   0.011686
 104   3   2.344818   4.277148   2.018371   0.003639   0.412307   0.008826
 105   3  -0.630075   4.506628   0.796398   0.001996   0.137436   0.014520
 106   3   0.194825   3.606769  -2.602682   0.003157   0.309230   0.010210
 107   3   3.469773   1.482791  -2.316800   0.003208   0.343589   0.009338
 108   3   4.205274   1.314890   1.178788   0.004140   0.309230   0.013389
 109   3   1.458293   2.768984   3.148337   0.002496   0.309230   0.008071
 110   3   1.583769   1.797393  -3.224415   0.001310   0.240512   0.005445
 111   3   2.605855   1.335316   2.886454   0.001495   0.240512   0.006216
 112   4  -1.808549  -0.084067  -3.678077  -0.001972   0.278737  -0.007075
 113   4  -5.536204   0.457458  -2.438982  -0.001249   0.325193  -0.003839
 114   4  -2.649736  -3.102496   2.155788  -0.001154   0.278737  -0.004140
 115   4  -2.575859   3.042127   2.237925  -0.000688   0.185824  -0.003705
 116   4  -5.769950   2.117562   0.521869  -0.001803   0.371649  -0.004852
 117   4  -6.090241  -1.566447   0.471975  -0.001671   0.325193  -0.005139
 118   4  -2.218914  -1.087630  -3.591882  -0.001597   0.371649  -0.004298
 119   4  -1.981254   1.187708  -3.520870  -0.002601   0.418105  -0.006221
 120   4  -2.789361   0.053877  -3.779864  -0.001096   0.371649  -0.002948
 121   4  -4.164457  -0.068629  -3.478843  -0.000725   0.418105  -0.001735
 122   4  -5.757218  -1.490155   1.615195  -0.001826   0.325193  -0.005616
 123   4  -5.436965   1.931025   1.722389  -0.001742   0.371649  -0.004686
 124   4  -2.696107   2.544904   2.791983  -0.001745   0.278737  -0.006261
 125   4  -2.902614  -2.644147   2.689273  -0.001099   0.325193  -0.003380
 126   4  -4.607321   0.688480  -3.181825  -0.000870   0.232280  -0.003747
 127   4  -5.190074  -0.433068  -2.797648  -0.001369   0.371649  -0.003683
 128   4  -3.306048   3.205903   1.900189  -0.000626   0.278737  -0.002244
 129   4  -4.920936   2.771325   1.262069  -0.000968   0.325193  -0.002977
 130   4  -6.164662   1.001295   1.076522  -0.002576   0.464561  -0.005545
 131   4  -6.341236  -0.533826   0.785579  -0.002707   0.464561  -0.005826
 132   4  -5.079093  -2.530558   1.461178  -0.001081   0.371649  -0.002908
 133   4  -3.857370  -3.238698   1.552358  -0.001063   0.371649  -0.002860
 134   4  -2.970409  -3.551586   1.257794  -0.001041   0.278737  -0.003735
 135   4  -2.837294   3.583108   1.190375  -0.000664   0.139368  -0.004767
 136   4  -6.242845   1.263605  -0.141187  -0.002569   0.418105  -0.006145
 137   4  -6.058972   0.843010  -1.478886  -0.001946   0.325193  -0.005983
 138   4  -6.040429  -0.526538  -1.657105  -0.002547   0.511017  -0.004984
 139   4  -6.241422  -1.156434  -0.539376  -0.002692   0.418105  -0.006439
 140   4  -5.556963  -2.363732   0.661321  -0.001436   0.278737  -0.005152
 141   4  -1.677426  -1.668250  -3.240896  -0.001348   0.139368  -0.009671
 142   4  -3.245351   0.885011  -3.633464  -0.001052   0.278737  -0.003775
 143   4  -3.439415  -0.802439  -3.617376  -0.000879   0.278737  -0.003155
 144   4  -6.119026   0.015189   1.573060  -0.001948   0.278737  -0.006987
 145   4  -4.146511   2.760980   2.124083  -0.000970   0.278737  -0.003482
 146   4  -1.584644   1.589435   3.245879  -0.000392   0.046456  -0.008444
 147   4  -1.862630  -1.936232   3.137959  -0.000787   0.092912  -0.008476
 148   4  -4.342071  -2.636748   2.138020  -0.001150   0.325193  -0.003535
 149   4  -3.886046   3.364132   1.231157  -0.000939   0.278737  -0.003370
 150   4  -6.431184   0.177166  -0.458671  -0.003050   0.511017  -0.005968
 151   5  -4.138997  -0.081833   4.257651  -0.007521   0.608459  -0.012361
 152   5  -2.241239  -0.516490   4.077602  -0.003730   0.353299  -0.010557
 153   5  -3.700493  -1.814148   3.558743  -0.003244   0.372926  -0.008698
 154   5  -5.398409  -0.754084   3.039194  -0.003539   0.353299  -0.010018
 155   5  -4.933823   1.379169   3.187238  -0.003587   0.372926  -0.009618
 156   5  -2.997083   1.526673   3.828835  -0.003638   0.412182  -0.008827
 157   5  -3.074636  -1.126828   4.107815  -0.004727   0.471065  -0.010036
 158   5  -4.656694  -1.293655   3.558078  -0.005019   0.490692  -0.010229
 159   5  -5.330735   0.312415   3.333727  -0.005436   0.510320  -0.010651
 160   5  -4.104526   1.387933   3.809189  -0.005306   0.510320  -0.010397
 161   5  -2.706584   0.502012   4.258226  -0.005682   0.529948  -0.010722
 162   6  -4.258139   3.685278  -2.030637  -0.006166   0.529948  -0.011635
 163   6  -4.608958   2.024208  -3.015089  -0.002501   0.294415  -0.008496
 164   6  -2.832495   2.813953  -3.062961  -0.003481   0.353299  -0.009852
 165   6  -4.410572   3.750059  -0.151630  -0.003309   0.372926  -0.008874
 166   6  -5.573125   2.603387  -1.383694  -0.003793   0.412182  -0.009201
 167   6  -3.784142   2.621551  -3.167278  -0.003997   0.431809  -0.009256
 168   6  -3.132617   3.769439  -2.224655  -0.005234   0.451437  -0.011593
 169   6  -3.443499   4.134513  -0.779478  -0.005895   0.549575  -0.010727
 170   6  -5.067549   3.429601  -0.900742  -0.004641   0.471065  -0.009853
 171   6  -5.093669   2.615152  -2.385343  -0.004722   0.471065  -0.010024
 172   7  -4.245053  -3.367310  -2.487156  -0.005606   0.490692  -0.011425
 173   7  -3.712249  -2.326144  -3.288892  -0.003677   0.431809  -0.008516
 174   7  -5.369242  -2.445221  -2.099306  -0.003769   0.392554  -0.009602
 175   7  -4.745553  -3.590125  -0.308989  -0.003582   0.412182  -0.008690
 176   7  -3.520481  -4.066438  -0.390718  -0.004382   0.451437  -0.009706
 177   7  -2.894486  -3.088986  -2.911799  -0.005259   0.490692  -0.010718
 178   7  -4.781881  -2.183159  -2.871267  -0.003189   0.353299  -0.009026
 179   7  -5.388459  -3.010280  -1.200054  -0.004821   0.490692  -0.009824
 180   7  -4.299257  -3.897689  -1.391842  -0.004666   0.412182  -0.011320
 181   7  -3.163167  -3.976749  -1.804644  -0.004698   0.412182  -0.011399
 182   1   2.327349   0.000008  -2.724657  -0.000515   0.035940  -0.014327
 183   2   2.489518  -0.374631  -2.660256  -0.000302   0.035940  -0.008397
 184   3   2.489507   0.374635  -2.660255  -0.000309   0.035940  -0.008586
 185   1   2.259526  -0.000006   2.757746  -0.000510   0.035940  -0.014179
 186   2   2.423238  -0.374644   2.697374  -0.000305   0.035940  -0.008475
 187   3   2.423228   0.374621   2.697377  -0.000301   0.035940  -0.008365
 188   1  -0.362639  -1.433559   3.108707  -0.000949   0.049917  -0.019005
 189   2  -0.151515  -1.783085   3.042256  -0.000657   0.049917  -0.013154
 190   4  -0.865197  -1.441150   3.121753  -0.001179   0.049917  -0.023624
 191   1  -0.378802  -1.484215  -3.101497  -0.001137   0.049917  -0.022783
 192   2  -0.167320  -1.832620  -3.030453  -0.000651   0.049917  -0.013034
 193   4  -0.881421  -1.491997  -3.111801  -0.001063   0.049917  -0.021302
 194   2   0.638930  -1.746660  -3.147927  -0.000455   0.193750  -0.002348
 195   2   2.075128  -0.962622  -2.936706  -0.000328   0.193750  -0.001693
 196   1   1.073254  -0.836379  -3.036536  -0.005480   0.408359  -0.013419
 197   2   2.021391  -0.952162   2.960949  -0.000218   0.186161  -0.001172
 198   2   0.636118  -1.705706   3.157023  -0.000500   0.186161  -0.002688
 199   1   1.045594  -0.810429   3.051133  -0.005199   0.390466  -0.013314
 200   1  -0.378753   1.484189  -3.101522  -0.001130   0.049917  -0.022638
 201   3  -0.167284   1.832584  -3.030480  -0.000622   0.049917  -0.012460
 202   4  -0.881371   1.491992  -3.111830  -0.001159   0.049917  -0.023226
 203   1  -0.362592   1.433503   3.108745  -0.001042   0.049917  -0.020881
 204   3  -0.151481   1.783020   3.042299  -0.000748   0.049917  -0.014978
 205   4  -0.865149   1.441115   3.121794  -0.001054   0.049917  -0.021108
 206   3   2.075119   0.962616  -2.936700  -0.000231   0.193737  -0.001190
 207   3   0.638953   1.746619  -3.147935  -0.000471   0.193737  -0.002433
 208   1   1.073276   0.836372  -3.036543  -0.005460   0.408331  -0.013370
 209   3   0.636139   1.705634   3.157048  -0.000573   0.186149  -0.003076
 210   3   2.021381   0.952127   2.960953  -0.000324   0.186149  -0.001738
 211   1   1.045615   0.810392   3.051148  -0.005368   0.390440  -0.013748
 212   1  -0.826029  -1.055018   3.258717  -0.000640   0.019591  -0.032689
 213   4  -1.317588  -1.089018   3.354991  -0.000463   0.019591  -0.023651
 214   5  -1.566134  -0.990375   3.493138  -0.000374   0.019591  -0.019096
 215   1  -0.825972   1.038503   3.264022  -0.000667   0.019591  -0.034039
 216   4  -1.317529   1.072041   3.360467  -0.000457   0.019591  -0.023314
 217   5  -1.566080   0.972713   3.498112  -0.000405   0.019591  -0.020660
 218   4  -1.182402  -1.252780   3.302383  -0.000498   0.029934  -0.016635
 219   1  -0.465892  -1.190637   3.233693  -0.000482   0.028542  -0.016874
 220   4  -1.182310   1.210487   3.317873  -0.000487   0.032950  -0.014772
 221   1  -0.465868   1.217193   3.223594  -0.000638   0.031417  -0.020297
 222   4  -1.199748   0.819725  -3.379526  -0.003053   0.238301  -0.012811
 223   4  -1.199783  -0.819722  -3.379511  -0.003030   0.238301  -0.012717
 224   1  -0.482734  -0.000012  -3.247332  -0.010401   0.474734  -0.021909
 225   5  -1.638292  -0.593911   3.702748  -0.002696   0.228185  -0.011813
 226   5  -1.638260   0.575195   3.705710  -0.002785   0.228185  -0.012203
 227   1  -0.562506  -0.008560   3.377951  -0.009410   0.575692  -0.016345
 228   3   2.873691   0.534554   2.548699   0.000186   0.240674   0.000774
 229   3   3.834266   0.534571   1.387704   0.003873   0.482607   0.008025
 230   3   4.149528   0.534580  -0.426908   0.004902   0.482607   0.010158
 231   3   3.321035   0.534572  -2.071840   0.001265   0.482607   0.002621
 232   2   3.269074  -0.534565   2.129711   0.001296   0.482607   0.002685
 233   2   4.138006  -0.534548   0.505777   0.004914   0.482607   0.010182
 234   2   3.867730  -0.534547  -1.316078   0.003846   0.482607   0.007970
 235   2   2.936170  -0.534558  -2.500481   0.000178   0.240674   0.000740
 236   2  -0.822316  -2.516888  -2.732941  -0.000612   0.062466  -0.009805
 237   4  -1.546004  -2.226126  -2.884616  -0.000819   0.062466  -0.013106
 238   7  -1.763940  -2.427069  -2.836554  -0.000746   0.062466  -0.011947
 239   2  -1.562664  -3.981400   0.381606   0.000360   0.062466   0.005770
 240   4  -2.329655  -3.776298   0.412101  -0.000435   0.062466  -0.006957
 241   7  -2.475270  -3.834179   0.155917  -0.000650   0.062466  -0.010409
 242   4  -1.232446  -1.803177  -3.152276  -0.001563   0.201920  -0.007740
 243   2  -0.263901  -2.394853  -2.967930  -0.000236   0.183085  -0.001287
 244   4  -2.185940  -3.688715   1.062704  -0.001090   0.357188  -0.003051
 245   4  -1.583659  -2.485284   2.573496  -0.005888   0.709987  -0.008293
 246   2  -0.914530  -3.676398   1.614099   0.004974   0.659724   0.007539
 247   2  -0.271619  -2.392676   2.926629  -0.000303   0.323913  -0.000936
 248   7  -1.910197  -2.832011  -2.796082  -0.001615   0.214510  -0.007530
 249   7  -2.128720  -3.658535  -1.998510  -0.003685   0.431573  -0.008539
 250   7  -2.431213  -4.041138  -0.659341  -0.003197   0.431573  -0.007409
 251   2  -0.639627  -3.395396  -2.413080   0.002033   0.526429   0.003861
 252   2  -0.957755  -4.261784  -1.147957   0.004344   0.526429   0.008252
 253   2  -1.221886  -4.361779   0.093650   0.002300   0.265173   0.008675
 254   3  -1.561531   3.979829   0.397040   0.000287   0.062509   0.004590
 255   4  -2.328418   3.774543   0.428338  -0.000515   0.062509  -0.008234
 256   6  -2.474151   3.833686   0.172519  -0.000582   0.062509  -0.009313
 257   3  -0.826662   2.526159  -2.727655  -0.000579   0.062509  -0.009262
 258   4  -1.550590   2.235893  -2.879024  -0.000785   0.062509  -0.012557
 259   6  -1.768087   2.436994  -2.829700  -0.000920   0.062509  -0.014712
 260   4  -1.307984   1.935174   3.056392  -0.003279   0.355694  -0.009218
 261   4  -1.973216   3.263585   1.693938  -0.003345   0.706993  -0.004732
 262   3  -0.538164   2.924696   2.469929   0.001119   0.656820   0.001704
 263   3  -1.114341   4.076074   1.021271   0.002998   0.322559   0.009296
 264   4  -1.296682   1.931039  -3.104408  -0.001712   0.205196  -0.008344
 265   3  -0.202177   2.272152  -3.012480  -0.000356   0.186056  -0.001912
 266   6  -2.522018   4.044809  -0.202225  -0.001256   0.214672  -0.005851
 267   6  -2.281758   3.964770  -1.344954  -0.003479   0.431910  -0.008056
 268   6  -1.994272   3.179785  -2.501062  -0.003872   0.431910  -0.008965
 269   3  -1.123539   4.354122  -0.362651   0.004508   0.526796   0.008558
 270   3  -0.793707   3.939332  -1.837950   0.003497   0.526796   0.006639
 271   3  -0.556568   3.046712  -2.716469   0.000650   0.265363   0.002451
 272   5  -2.018912   1.188280   3.637628  -0.000846   0.065809  -0.012862
 273   5  -2.810104   1.857080   3.373962  -0.001658   0.144982  -0.011437
 274   5  -4.022511   2.061392   2.967854  -0.001485   0.144982  -0.010240
 275   5  -5.116546   1.474908   2.599450  -0.001825   0.144982  -0.012589
 276   5  -5.674072   0.321781   2.409552  -0.001922   0.144982  -0.013260
 277   5  -5.482004  -0.957267   2.470740  -0.001883   0.144982  -0.012988
 278   5  -4.613749  -1.873387   2.759627  -0.001578   0.144982  -0.010886
 279   5  -3.401153  -2.076441   3.165802  -0.001579   0.144982  -0.010891
 280   5  -2.307667  -1.488821   3.534025  -0.001801   0.144982  -0.012425
 281   4  -2.028041   1.654702   3.285094  -0.001995   0.145321  -0.013729
 282   4  -3.256762   2.317170   2.874671  -0.001402   0.145321  -0.009651
 283   4  -4.619376   2.091388   2.417099  -0.001524   0.145321  -0.010491
 284   4  -5.595095   1.063650   2.087263  -0.001763   0.145321  -0.012134
 285   4  -5.811002  -0.373245   2.011223  -0.001780   0.145321  -0.012245
 286   4  -5.184578  -1.670120   2.218042  -0.001615   0.145321  -0.011111
 287   4  -3.955241  -2.331312   2.628675  -0.001395   0.145321  -0.009602
 288   4  -2.592839  -2.104116   3.086179  -0.001570   0.145321  -0.010804
 289   4  -1.711202  -1.378457   3.383699  -0.001114   0.080401  -0.013851
 290   6  -2.363721   2.310087  -3.108642  -0.000778   0.065178  -0.011938
 291   6  -3.282895   1.821777  -3.344719  -0.001494   0.143761  -0.010389
 292   6  -4.502069   1.516546  -3.042523  -0.001504   0.143761  -0.010463
 293   6  -5.423018   1.657600  -2.146515  -0.001658   0.143761  -0.011530
 294   6  -5.692591   2.190850  -1.000283  -0.001667   0.143761  -0.011599
 295   6  -5.207414   2.911813  -0.043366  -0.001550   0.143761  -0.010785
 296   6  -4.153538   3.544025   0.357291  -0.001579   0.143761  -0.010983
 297   6  -3.142980   3.851568   0.204804  -0.000722   0.065178  -0.011081
 298   4  -2.476688   1.768655  -3.288980  -0.001607   0.143720  -0.011180
 299   4  -3.817438   1.213401  -3.351201  -0.001288   0.143720  -0.008963
 300   4  -5.082000   1.116392  -2.643203  -0.001476   0.143720  -0.010268
 301   4  -5.785458   1.514826  -1.436479  -0.001786   0.143720  -0.012424
 302   4  -5.658062   2.255919  -0.193764  -0.001687   0.143720  -0.011741
 303   4  -4.748662   3.055487   0.608403  -0.001467   0.143720  -0.010209
 304   4  -3.405982   3.606924   0.662419  -0.001390   0.143720  -0.009673
 305   7  -3.144341  -3.852181   0.187177  -0.000705   0.065218  -0.010817
 306   7  -4.155440  -3.544741   0.340375  -0.001438   0.143866  -0.009996
 307   7  -5.209134  -2.909883  -0.058763  -0.001721   0.143866  -0.011966
 308   7  -5.692832  -2.184143  -1.013729  -0.001794   0.143866  -0.012472
 309   7  -5.420849  -1.646123  -2.157925  -0.001712   0.143866  -0.011901
 310   7  -4.497596  -1.502362  -3.052107  -0.001554   0.143866  -0.010801
 311   7  -3.277499  -1.808049  -3.353010  -0.001434   0.143866  -0.009967
 312   7  -2.359048  -2.298760  -3.116449  -0.000782   0.065218  -0.011992
 313   4  -3.407783  -3.609398   0.645739  -0.001449   0.143795  -0.010075
 314   4  -4.750863  -3.056823   0.593017  -0.001520   0.143795  -0.010574
 315   4  -5.659331  -2.252825  -0.207144  -0.001735   0.143795  -0.012068
 316   4  -5.784436  -1.506050  -1.447571  -0.001782   0.143795  -0.012393
 317   4  -5.078154  -1.103175  -2.652079  -0.001513   0.143795  -0.010523
 318   4  -3.811616  -1.198860  -3.358272  -0.001338   0.143795  -0.009307
 319   4  -2.471031  -1.756372  -3.295052  -0.001674   0.143795  -0.011641
 =====================================================


   1 warning(s) detected.
     A line exceeding 80 characters begins with "http://cactus.nci.ni".
 There may be a problem in your input file.

              1083484  WORDS OF DYNAMIC MEMORY USED
 EXECUTION OF GAMESS TERMINATED NORMALLY Fri Nov 25 07:33:42 2016
 DDI: 263640 bytes (0.3 MB / 0 MWords) used by master data server.

 ----------------------------------------
 CPU timing information for all processes
 ========================================
 0: 65.616 + 0.100 = 65.716
 ----------------------------------------
 ddikick.x: exited gracefully.
