----- GAMESS execution script -----

          ******************************************************
          *         GAMESS VERSION =  5 DEC 2014 (R1)          *
          *             FROM IOWA STATE UNIVERSITY             *
          * M.W.SCHMIDT, K.K.BALDRIDGE, J.A.BOATZ, S.T.ELBERT, *
          *   M.S.GORDON, J.H.JENSEN, S.KOSEKI, N.MATSUNAGA,   *
          *          K.A.NGUYEN, S.J.SU, T.L.WINDUS,           *
          *       TOGETHER WITH M.DUPUIS, J.A.MONTGOMERY       *
          *         J.COMPUT.CHEM.  14, 1347-1363(1993)        *
          **************** 64 BIT LINUX VERSION ****************

 EXECUTION OF GAMESS BEGUN Fri Nov 25 07:27:24 2016

            ECHO OF THE FIRST FEW INPUT CARDS -
 INPUT CARD>! SELECT RESTRICTED HARTREE-FOCK AS DEFAULT                                     
 INPUT CARD>$contrl scftyp=rhf $end                                                         
 INPUT CARD>                                                                                
 INPUT CARD>! THEORY: HF OR DFT                                                             
 INPUT CARD> $contrl mplevl=0 $end                                                          
 INPUT CARD>                                                                                
 INPUT CARD> $system timlim=10000 mwords=20 $end                                            
 INPUT CARD> $SCF DIRSCF=.TRUE. $end                                                        
 INPUT CARD>                                                                                
 INPUT CARD>                                                                                
 INPUT CARD>! BASIS SETS                                                                    
 INPUT CARD>! 6-311G(d,p)                                                                   
 INPUT CARD> $BASIS GBASIS=N311 NGAUSS=6 NDFUNC=1 NPFUNC=1 $END                             
 INPUT CARD>                                                                                
 INPUT CARD>! One of the following                                                          
 INPUT CARD> $guess guess=HUCKEL $end                                                       
 INPUT CARD>                                                                                
 INPUT CARD> $statpt projct=.FALSE. $end                                                    
 INPUT CARD> $STATPT IFREEZ(1)=1,2,3 $END                                                   
 INPUT CARD>                                                                                
 INPUT CARD>! Optimize the geometry with COSMO effects                                      
 INPUT CARD> $statpt opttol=0.0005 nstep=50 $end                                            
 INPUT CARD> $contrl nzvar=1 $end                                                           
 INPUT CARD> $zmat dlc=.t. auto=.t. $end                                                    
 INPUT CARD> $contrl runtyp=OPTIMIZE maxit=200 $end                                         
 INPUT CARD>                                                                                
 INPUT CARD>! Run COSMO on perfect conductor                                                
 INPUT CARD> $COSGMS PRFCND=.TRUE. $end                                                     
 INPUT CARD>                                                                                
 INPUT CARD>! Specifying RSOLV                                                              
 INPUT CARD> $COSGMS COSRAD = 1.4 $end                                                      
 INPUT CARD>                                                                                
 INPUT CARD>! available memory                                                              
 INPUT CARD> $SYSTEM MWORDS=40 $END                                                         
 INPUT CARD>                                                                                
 INPUT CARD> $DATA                                                                          
 INPUT CARD>http://cactus.nci.nih.gov/chemical/structure/nitroETHANE/file?format=sdf&get3d=T
 INPUT CARD>C1                                                                              
 INPUT CARD>N      7.0      0.5087000000    0.0069000000   -0.0651000000                    
 INPUT CARD>O      8.0      0.6056000000   -1.2068000000   -0.0966000000                    
 INPUT CARD>O      8.0      1.4720000000    0.6871000000    0.2398000000                    
 INPUT CARD>C      6.0     -0.7649000000    0.6490000000   -0.3998000000                    
 INPUT CARD>C      6.0     -1.9080000000   -0.0909000000    0.2979000000                    
 INPUT CARD>H      1.0     -0.7471000000    1.6868000000   -0.0669000000                    
 INPUT CARD>H      1.0     -0.9158000000    0.6161000000   -1.4788000000                    
 INPUT CARD>H      1.0     -1.9257000000   -1.1286000000   -0.0350000000                    
 INPUT CARD>H      1.0     -1.7570000000   -0.0580000000    1.3769000000                    
 INPUT CARD>H      1.0     -2.8555000000    0.3869000000    0.0488000000                    
 INPUT CARD> $END                                                                           
 INPUT CARD>                                                                                
   40000000 WORDS OF MEMORY AVAILABLE

     BASIS OPTIONS
     -------------
     GBASIS=N311         IGAUSS=       6      POLAR=POPN311 
     NDFUNC=       1     NFFUNC=       0     DIFFSP=       F
     NPFUNC=       1      DIFFS=       F     BASNAM=        


     RUN TITLE
     ---------
 http://cactus.nci.nih.gov/chemical/structure/nitroETHANE/file?format=sdf&get3d=T

 THE POINT GROUP OF THE MOLECULE IS C1      
 THE ORDER OF THE PRINCIPAL AXIS IS     0

 ATOM      ATOMIC                      COORDINATES (BOHR)
           CHARGE         X                   Y                   Z
 N           7.0     0.9613036100        0.0130391093       -0.1230211618
 O           8.0     1.1444180582       -2.2805213220       -0.1825475304
 O           8.0     2.7816766539        1.2984307262        0.4531562919
 C           6.0    -1.4454514080        1.2264321660       -0.7555124499
 C           6.0    -3.6055971846       -0.1717760923        0.5629493717
 H           1.0    -1.4118142854        3.1875897961       -0.1264226686
 H           1.0    -1.7306110596        1.1642601810       -2.7945267906
 H           1.0    -3.6390453346       -2.1327447497       -0.0661404096
 H           1.0    -3.3202485604       -0.1096041073        2.6019637125
 H           1.0    -5.3961125579        0.7311349846        0.0922186282

          INTERNUCLEAR DISTANCES (ANGS.)




     $CONTRL OPTIONS
     ---------------
 SCFTYP=RHF          RUNTYP=OPTIMIZE     EXETYP=RUN     
 MPLEVL=       0     CITYP =NONE         CCTYP =NONE         VBTYP =NONE    
 DFTTYP=NONE         TDDFT =NONE    
 MULT  =       1     ICHARG=       0     NZVAR =       1     COORD =UNIQUE  
 PP    =NONE         RELWFN=NONE         LOCAL =NONE         NUMGRD=       F
 ISPHER=      -1     NOSYM =       0     MAXIT =     200     UNITS =ANGS    
 PLTORB=       F     MOLPLT=       F     AIMPAC=       F     FRIEND=        
 NPRINT=       7     IREST =       0     GEOM  =INPUT   
 NORMF =       0     NORMP =       0     ITOL  =      20     ICUT  =       9
 INTTYP=BEST         GRDTYP=BEST         QMTTOL= 1.0E-06

     $SYSTEM OPTIONS
     ---------------
  REPLICATED MEMORY=    40000000 WORDS (ON EVERY NODE).
 DISTRIBUTED MEMDDI=           0 MILLION WORDS IN AGGREGATE,
 MEMDDI DISTRIBUTED OVER   1 PROCESSORS IS           0 WORDS/PROCESSOR.
 TOTAL MEMORY REQUESTED ON EACH PROCESSOR=    40000000 WORDS.
 TIMLIM=       10000.00 MINUTES, OR       6.9 DAYS.
 PARALL= F  BALTYP=  DLB     KDIAG=    0  COREFL= F
 MXSEQ2=     300 MXSEQ3=     150  mem10=         0

     $COSGMS OPTIONS
     ---------------
     EPSI  =   INFTY     NSPA  =      92     COSRAD=    1.40
     DISEX =   10.00     OUTCHG=DBLCAV       COSBUG=       F
     COSWRT=       F     DCOSMO=       F

     SYMMETRY COORDINATES WILL NOT BE USED FOR 
     THE COSMO CALCULATION, EVEN IF SPECIFIED:
         -- SWITCHING TO C1 POINT GROUP --


     DEFINITION OF CAVITY
     ---------------------------
     ATOM         COORDINATES           RADIUS 
     1    0.9613    0.0130   -0.1230    1.8300
     2    1.1444   -2.2805   -0.1825    1.7200
     3    2.7817    1.2984    0.4532    1.7200
     4   -1.4455    1.2264   -0.7555    2.0000
     5   -3.6056   -0.1718    0.5629    2.0000
     6   -1.4118    3.1876   -0.1264    1.3000
     7   -1.7306    1.1643   -2.7945    1.3000
     8   -3.6390   -2.1327   -0.0661    1.3000
     9   -3.3202   -0.1096    2.6020    1.3000
    10   -5.3961    0.7311    0.0922    1.3000

          ----------------
          PROPERTIES INPUT
          ----------------

     MOMENTS            FIELD           POTENTIAL          DENSITY
 IEMOM =       1   IEFLD =       0   IEPOT =       0   IEDEN =       0
 WHERE =COMASS     WHERE =NUCLEI     WHERE =NUCLEI     WHERE =NUCLEI  
 OUTPUT=BOTH       OUTPUT=BOTH       OUTPUT=BOTH       OUTPUT=BOTH    
 IEMINT=       0   IEFINT=       0                     IEDINT=       0
                                                       MORB  =       0
          EXTRAPOLATION IN EFFECT
          SOSCF IN EFFECT
 ORBITAL PRINTING OPTION: NPREO=     1   125     2     1

     -------------------------------
     INTEGRAL TRANSFORMATION OPTIONS
     -------------------------------
     NWORD  =            0
     CUTOFF = 1.0E-09     MPTRAN =       0
     DIRTRF =       T     AOINTS =DUP     

          ----------------------
          INTEGRAL INPUT OPTIONS
          ----------------------
 NOPK  =       1 NORDER=       0 SCHWRZ=       T


 -----------------------------------------------
  STATISTICS ON AUTOMATIC COORDINATE GENERATION 
 -----------------------------------------------
  NUMBER OF USER SPECIFIED BONDS                             0
  NUMBER OF BONDS                                            9
  NUMBER OF ANGLES                                          15
  NUMBER OF TORSIONS                                        15
  NUMBER OF EXTRA COORD.                                     0
  NUMBER OF EXTRA COORD. FOR CONSTRAINTS                     0
  NUMBER OF CONSTRAINED COORD.                               0

  TOTAL NUMBER OF PRIMITIVES                                39
 -----------------------------------------------

   --- ENCODED Z MATRIX ---
 COORD  TYPE   I   J   K   L   M   N
    1      1    1   2
    2      1    1   4
    3      1    1   3
    4      1    4   7
    5      1    4   6
    6      1    4   5
    7      1    5   8
    8      1    5  10
    9      1    5   9
   10      2    1   4   7
   11      2    1   4   6
   12      2    1   4   5
   13      2    2   1   4
   14      2    2   1   3
   15      2    3   1   4
   16      2    4   5   9
   17      2    4   5   8
   18      2    4   5  10
   19      2    5   4   6
   20      2    5   4   7
   21      2    6   4   7
   22      2    8   5   9
   23      2    8   5  10
   24      2    9   5  10
   25      3    1   4   5   8
   26      3    1   4   5   9
   27      3    1   4   5  10
   28      3    2   1   4   6
   29      3    2   1   4   7
   30      3    2   1   4   5
   31      3    3   1   4   5
   32      3    3   1   4   7
   33      3    3   1   4   6
   34      3    6   4   5  10
   35      3    6   4   5   8
   36      3    6   4   5   9
   37      3    7   4   5  10
   38      3    7   4   5   8
   39      3    7   4   5   9

          INDEP./SYM. INTERNAL COORDINATES
          --------------------------------
 CRD  1=  -0.1518 (  2) -0.1789 (  6)  0.2084 ( 10)  0.2444 ( 11) -0.7266 ( 12)
          -0.2380 ( 13)  0.1672 ( 15) -0.1348 ( 16) -0.1472 ( 17)  0.1450 ( 18)
           0.2028 ( 19)  0.1992 ( 20) -0.1282 ( 21) -0.1037 ( 28)  0.1089 ( 32)
 CRD  2=  -0.2202 (  2) -0.1436 (  3) -0.4654 (  6)  0.1421 ( 10)  0.3374 ( 13)
           0.1215 ( 14) -0.4586 ( 15) -0.2993 ( 16)  0.1007 ( 17) -0.2103 ( 18)
           0.1083 ( 22)  0.2102 ( 24) -0.1475 ( 25) -0.1364 ( 26) -0.1910 ( 27)
           0.1393 ( 31)
 CRD  3=  -0.1003 (  2) -0.1993 (  6)  0.1525 ( 10) -0.1379 ( 11)  0.4587 ( 16)
          -0.4883 ( 17) -0.1492 ( 18)  0.2540 ( 19) -0.3251 ( 20)  0.2149 ( 23)
          -0.2842 ( 30) -0.2758 ( 31)
 CRD  4=   0.2219 (  2)  0.3183 (  6)  0.1942 ( 10) -0.2185 ( 11) -0.1211 ( 12)
           0.3601 ( 13) -0.1299 ( 14) -0.2298 ( 15)  0.4814 ( 18)  0.2550 ( 19)
          -0.1751 ( 23) -0.1568 ( 24) -0.1449 ( 25) -0.2126 ( 26) -0.1700 ( 27)
          -0.1272 ( 29) -0.1152 ( 30)
 CRD  5=   0.5753 (  2) -0.3572 (  6)  0.1695 ( 11)  0.1224 ( 13) -0.3475 ( 14)
           0.2251 ( 15) -0.1874 ( 16) -0.2219 ( 17) -0.1974 ( 19) -0.1487 ( 20)
           0.2008 ( 22) -0.1016 ( 28)  0.1071 ( 29)  0.1069 ( 32) -0.1018 ( 33)
 CRD  6=  -0.1084 (  1)  0.1873 (  2)  0.1485 (  3)  0.1638 (  7) -0.1131 (  8)
           0.3316 ( 10) -0.1080 ( 11) -0.1191 ( 12) -0.1277 ( 14)  0.2146 ( 15)
           0.4596 ( 17) -0.3853 ( 18)  0.1802 ( 19) -0.2243 ( 20) -0.1968 ( 22)
           0.1643 ( 24) -0.1763 ( 25) -0.1290 ( 26) -0.1568 ( 27) -0.1062 ( 28)
          -0.1879 ( 30)
 CRD  7=   0.1967 (  1)  0.1982 (  2) -0.1697 (  3)  0.2151 (  4)  0.1268 (  6)
          -0.1196 (  8)  0.1754 (  9)  0.2268 ( 11) -0.2370 ( 12)  0.3244 ( 13)
          -0.1516 ( 14) -0.1726 ( 15)  0.4353 ( 16) -0.2912 ( 18) -0.1044 ( 19)
           0.2601 ( 20) -0.1386 ( 21) -0.2007 ( 22)  0.1433 ( 23)  0.1500 ( 30)
           0.1760 ( 31)
 CRD  8=  -0.2127 (  1)  0.2425 (  3)  0.3596 (  4) -0.4759 (  5) -0.1483 (  7)
           0.1304 (  9)  0.1095 ( 10) -0.1266 ( 11) -0.1846 ( 13)  0.1392 ( 15)
           0.1437 ( 16) -0.1846 ( 17) -0.1572 ( 19)  0.1016 ( 23) -0.1170 ( 24)
          -0.2167 ( 25) -0.2126 ( 26) -0.2480 ( 27)  0.1694 ( 30)  0.3040 ( 31)
           0.1192 ( 32)
 CRD  9=  -0.5759 (  1) -0.2022 (  2) -0.5269 (  3)  0.2168 ( 13) -0.4606 ( 14)
           0.2438 ( 15)
 CRD 10=  -0.1758 (  6) -0.5069 (  7) -0.4893 (  8) -0.5080 (  9)  0.1718 ( 16)
           0.1725 ( 17)  0.1898 ( 18) -0.1695 ( 22) -0.1825 ( 23) -0.1820 ( 24)
 CRD 11=   0.1289 (  5) -0.1402 (  7)  0.1580 (  9)  0.1476 ( 10) -0.1607 ( 11)
           0.1933 ( 19) -0.2086 ( 20)  0.1368 ( 27)  0.3606 ( 28)  0.3798 ( 29)
           0.2185 ( 30)  0.1984 ( 31)  0.3598 ( 32)  0.3406 ( 33)  0.2114 ( 34)
           0.1444 ( 35)  0.1574 ( 36)  0.1937 ( 37)  0.1266 ( 38)  0.1396 ( 39)
 CRD 12=   0.5625 (  4)  0.5191 (  5)  0.1372 (  7) -0.3181 (  8)  0.1117 (  9)
          -0.1072 ( 19)  0.2241 ( 21)  0.1833 ( 22) -0.1386 ( 28) -0.1419 ( 33)
           0.1523 ( 36) -0.1012 ( 37) -0.1788 ( 38)
 CRD 13=   0.5435 (  7) -0.5167 (  9)  0.2855 ( 23) -0.2987 ( 24)  0.1074 ( 25)
           0.1216 ( 26) -0.1930 ( 27) -0.1659 ( 34)  0.1345 ( 35)  0.1487 ( 36)
          -0.1616 ( 37)  0.1387 ( 38)  0.1529 ( 39)
 CRD 14=   0.2981 (  4)  0.2833 (  5) -0.2731 (  7)  0.5651 (  8) -0.3221 (  9)
           0.1265 ( 21) -0.2817 ( 22)  0.1582 ( 23)  0.1321 ( 24)  0.1595 ( 25)
          -0.1540 ( 26)  0.2193 ( 35)  0.1051 ( 38) -0.2083 ( 39)
 CRD 15=  -0.1005 (  1) -0.3781 (  4)  0.3714 (  5) -0.1684 ( 25) -0.1663 ( 26)
          -0.1820 ( 27)  0.1028 ( 28)  0.1303 ( 29)  0.1816 ( 31)  0.2221 ( 32)
           0.1946 ( 33) -0.2756 ( 34) -0.2621 ( 35) -0.2599 ( 36) -0.2771 ( 37)
          -0.2635 ( 38) -0.2614 ( 39)
 CRD 16=   0.4415 (  3) -0.1391 (  7) -0.2527 (  8) -0.1519 (  9) -0.1881 ( 10)
          -0.1685 ( 11)  0.1543 ( 13) -0.2693 ( 14)  0.1143 ( 15) -0.1625 ( 16)
          -0.1560 ( 17) -0.2038 ( 18)  0.2360 ( 19)  0.2184 ( 20)  0.1125 ( 22)
           0.1996 ( 23)  0.2102 ( 24)  0.2717 ( 28) -0.2403 ( 32) -0.1039 ( 37)
          -0.1370 ( 39)
 CRD 17=  -0.4627 (  1)  0.3783 (  2) -0.1960 (  3)  0.1820 (  6) -0.1473 (  7)
          -0.1546 (  9) -0.1617 ( 13)  0.3973 ( 14) -0.2361 ( 15) -0.1486 ( 16)
          -0.1473 ( 17) -0.1262 ( 18) -0.1863 ( 21)  0.1687 ( 22)  0.1236 ( 23)
           0.1297 ( 24)  0.1476 ( 28) -0.1370 ( 32) -0.1059 ( 35)
 CRD 18=   0.4800 (  1) -0.4915 (  3)  0.2550 (  4) -0.2567 (  5) -0.1365 (  9)
          -0.1775 ( 13)  0.1698 ( 15)  0.1165 ( 24) -0.1015 ( 25)  0.2294 ( 28)
           0.1858 ( 29) -0.1191 ( 31) -0.1625 ( 35) -0.1553 ( 36) -0.1039 ( 37)
          -0.1674 ( 38) -0.1602 ( 39)
 CRD 19=   0.2317 (  1) -0.1777 (  3) -0.2007 (  4)  0.4048 (  6) -0.2174 (  7)
          -0.1384 (  8)  0.1259 ( 15) -0.1447 ( 16) -0.1760 ( 17) -0.1715 ( 18)
           0.1725 ( 22)  0.2118 ( 23)  0.1079 ( 24) -0.3373 ( 28) -0.2674 ( 29)
          -0.2178 ( 30)  0.2567 ( 31)  0.2072 ( 32)  0.1373 ( 33)  0.1074 ( 35)
           0.1224 ( 36)
 CRD 20=   0.4262 (  2) -0.1876 (  3) -0.1353 (  4) -0.2295 (  6)  0.1353 (  7)
          -0.2633 (  8)  0.2426 (  9) -0.1606 ( 10) -0.2270 ( 11) -0.1402 ( 13)
           0.1313 ( 14)  0.1518 ( 21) -0.2821 ( 22)  0.1152 ( 23)  0.1493 ( 25)
          -0.1639 ( 26)  0.1303 ( 34)  0.3432 ( 35) -0.1676 ( 37) -0.2678 ( 39)
 CRD 21=  -0.1489 (  1)  0.1363 (  3) -0.2433 (  5)  0.1616 (  6)  0.3256 (  7)
          -0.1415 (  8) -0.2511 (  9) -0.1234 ( 10)  0.1589 ( 11)  0.1491 ( 13)
          -0.1568 ( 15) -0.1158 ( 17)  0.1305 ( 21) -0.1524 ( 23)  0.2996 ( 24)
           0.3290 ( 27) -0.1147 ( 28)  0.1206 ( 31)  0.2841 ( 32)  0.1025 ( 33)
           0.2021 ( 34) -0.1862 ( 36)  0.1238 ( 37) -0.1324 ( 38) -0.2645 ( 39)
 CRD 22=   0.1211 (  2)  0.1167 (  4) -0.3626 (  6)  0.2398 (  8) -0.1804 (  9)
          -0.1743 ( 10) -0.1111 ( 11) -0.1087 ( 13)  0.1439 ( 16)  0.1475 ( 19)
           0.2137 ( 20) -0.1622 ( 21)  0.1070 ( 22) -0.2212 ( 23) -0.1483 ( 25)
           0.1204 ( 27) -0.3608 ( 29) -0.1530 ( 30)  0.2150 ( 31)  0.3806 ( 33)
           0.1132 ( 34) -0.1555 ( 35) -0.1781 ( 38)
 CRD 23=  -0.2611 (  2)  0.1390 (  4)  0.2064 (  5) -0.1022 (  6)  0.1596 (  7)
          -0.2185 (  8)  0.2379 ( 12) -0.1174 ( 17)  0.2058 ( 18) -0.2755 ( 21)
          -0.1856 ( 22)  0.1083 ( 24)  0.1270 ( 25) -0.2085 ( 26) -0.1907 ( 29)
           0.1620 ( 33) -0.1476 ( 34) -0.3698 ( 36)  0.2548 ( 37)  0.3681 ( 38)
 CRD 24=   0.2592 (  4) -0.2045 (  5) -0.1686 (  7)  0.1916 (  9) -0.1696 ( 10)
           0.1574 ( 11) -0.1680 ( 16)  0.1543 ( 17)  0.1803 ( 19) -0.1695 ( 20)
           0.1427 ( 23) -0.1341 ( 24)  0.3004 ( 25)  0.2709 ( 26) -0.3480 ( 30)
           0.2154 ( 32)  0.2749 ( 33) -0.3125 ( 34) -0.2672 ( 37)

 THE DETERMINANT OF THE G MATRIX IS 10**(   -11)


                     --------------------
                     INTERNAL COORDINATES
                     --------------------

                 - - ATOMS - -         COORDINATE      COORDINATE
 NO.   TYPE    I  J  K  L  M  N        (BOHR,RAD)       (ANG,DEG)
 ----------------------------------------------------------------
   1 STRETCH   1  2                     2.3016285       1.2179694
   2 STRETCH   1  4                     2.7685443       1.4650507
   3 STRETCH   1  3                     2.3017320       1.2180242
   4 STRETCH   4  7                     2.0597963       1.0899973
   5 STRETCH   4  6                     2.0598603       1.0900312
   6 STRETCH   4  5                     2.8912900       1.5300049
   7 STRETCH   5  8                     2.0596774       1.0899344
   8 STRETCH   5 10                     2.0598012       1.0900000
   9 STRETCH   5  9                     2.0598225       1.0900112
  10 BEND      1  4  7                  1.9105681     109.4674913
  11 BEND      1  4  6                  1.9106084     109.4698002
  12 BEND      1  4  5                  1.9106635     109.4729547
  13 BEND      2  1  4                  2.0943900     119.9997068
  14 BEND      2  1  3                  2.0944427     120.0027293
  15 BEND      3  1  4                  2.0943426     119.9969936
  16 BEND      4  5  9                  1.9106078     109.4697634
  17 BEND      4  5  8                  1.9105661     109.4673745
  18 BEND      4  5 10                  1.9105469     109.4662726
  19 BEND      5  4  6                  1.9106545     109.4724366
  20 BEND      5  4  7                  1.9106850     109.4741862
  21 BEND      6  4  7                  1.9106199     109.4704545
  22 BEND      8  5  9                  1.9106320     109.4711472
  23 BEND      8  5 10                  1.9107292     109.4767166
  24 BEND      9  5 10                  1.9107175     109.4760490
  25 TORSION   1  4  5  8              -1.0471606     -59.9978855
  26 TORSION   1  4  5  9               1.0471762      59.9987772
  27 TORSION   1  4  5 10              -3.1415792    -179.9992316
  28 TORSION   2  1  4  6               2.8798260     165.0018782
  29 TORSION   2  1  4  7              -1.3090356     -75.0022133
  30 TORSION   2  1  4  5               0.7854016      45.0001969
  31 TORSION   3  1  4  5              -2.3609857    -135.2745149
  32 TORSION   3  1  4  7               1.8277625     104.7230749
  33 TORSION   3  1  4  6              -0.2665612     -15.2728336
  34 TORSION   6  4  5 10               1.0472098      60.0007014
  35 TORSION   6  4  5  8              -3.1415569    -179.9979525
  36 TORSION   6  4  5  9              -1.0472201     -60.0012897
  37 TORSION   7  4  5 10              -1.0472136     -60.0009211
  38 TORSION   7  4  5  8               1.0472050      60.0004250
  39 TORSION   7  4  5  9               3.1415418     179.9970877

     ------------------------------------------
     THE POINT GROUP IS C1 , NAXIS= 1, ORDER= 1
     ------------------------------------------

     DIMENSIONS OF THE SYMMETRY SUBSPACES ARE
 A   =  125

 ..... DONE SETTING UP THE RUN .....
 STEP CPU TIME =     0.01 TOTAL CPU TIME =        0.0 (    0.0 MIN)
 TOTAL WALL CLOCK TIME=        0.0 SECONDS, CPU UTILIZATION IS 100.00%


          -----------------------------
          STATIONARY POINT LOCATION RUN
          -----------------------------

 OBTAINING INITIAL HESSIAN, HESS=GUESS   
 DIAGONAL GUESS HESSIAN IN INTERNAL COORDS IS
     1  0.4746     2  0.3636     3  0.4746     4  0.3464     5  0.3463
     6  0.3672     7  0.3464     8  0.3464     9  0.3464    10  0.2212
    11  0.2212    12  0.2451    13  0.2460    14  0.2504    15  0.2460
    16  0.2241    17  0.2241    18  0.2241    19  0.2241    20  0.2241
    21  0.2034    22  0.2034    23  0.2034    24  0.2034    25  0.2500
    26  0.2500    27  0.2500    28  0.2500    29  0.2500    30  0.2500
    31  0.2500    32  0.2500    33  0.2500    34  0.2500    35  0.2500
    36  0.2500    37  0.2500    38  0.2500    39  0.2500
 TRANSFORMING HESSIAN TO SYMMETRY COORDINATES

          PARAMETERS CONTROLLING GEOMETRY SEARCH ARE
          METHOD =QA                  UPHESS =BFGS    
          NNEG   =         0          NFRZ   =         3
          NSTEP  =        50          IFOLOW =         1
          HESS   =GUESS               RESTAR =         F
          IHREP  =         0          HSSEND =         F
          NPRT   =         0          NPUN   =         0
          OPTTOL = 5.000E-04          RMIN   = 1.500E-03
          RMAX   = 1.000E-01          RLIM   = 7.000E-02
          DXMAX  = 3.000E-01          PURIFY =         F
          MOVIE  =         F          TRUPD  =         T
          TRMAX  = 5.000E-01          TRMIN  = 5.000E-02
          ITBMAT =         5          STPT   =         F
          STSTEP = 1.000E-02          PROJCT=          F
          FROZEN COORD(S)=   1   2   3


      ***** EQUILIBRIUM GEOMETRY LOCATED *****
            (SUBJECT TO   3 CONSTRAINT(S))
 COORDINATES OF ALL ATOMS ARE (ANGS)
   ATOM   CHARGE       X              Y              Z
 ------------------------------------------------------------
 N           7.0   0.5330833102  -0.0049938463  -0.0560651391
 O           8.0   0.5905421506  -1.1924559140  -0.1061557522
 O           8.0   1.4499532340   0.6900132763   0.2403530151
 C           6.0  -0.7704634268   0.6429474407  -0.4010106190
 C           6.0  -1.8957549735  -0.0898681153   0.3022625794
 H           1.0  -0.6729628621   1.6759926256  -0.1110040550
 H           1.0  -0.8386315841   0.5699116326  -1.4781223128
 H           1.0  -1.9305023926  -1.1192995162  -0.0249952334
 H           1.0  -1.7532728166  -0.0628012885   1.3767255685
 H           1.0  -2.8352001540   0.3905472931   0.0622126225


                     --------------------
                     INTERNAL COORDINATES
                     --------------------

                 - - ATOMS - -         COORDINATE      COORDINATE
 NO.   TYPE    I  J  K  L  M  N        (BOHR,RAD)       (ANG,DEG)
 ----------------------------------------------------------------
   1 STRETCH   1  2                     2.2485967       1.1899062
   2 STRETCH   1  4                     2.8270512       1.4960112
   3 STRETCH   1  3                     2.2451576       1.1880863
   4 STRETCH   4  7                     2.0441828       1.0817351
   5 STRETCH   4  6                     2.0359923       1.0774008
   6 STRETCH   4  5                     2.8645983       1.5158802
   7 STRETCH   5  8                     2.0423332       1.0807562
   8 STRETCH   5 10                     2.0449072       1.0821184
   9 STRETCH   5  9                     2.0488539       1.0842068
  10 BEND      1  4  7                  1.8289117     104.7889242
  11 BEND      1  4  6                  1.8487238     105.9240695
  12 BEND      1  4  5                  1.9076102     109.2980162
  13 BEND      2  1  4                  2.0539709     117.6838645
  14 BEND      2  1  3                  2.1615850     123.8496985
  15 BEND      3  1  4                  2.0675813     118.4636811
  16 BEND      4  5  9                  1.9285216     110.4961487
  17 BEND      4  5  8                  1.9218129     110.1117691
  18 BEND      4  5 10                  1.9038429     109.0821612
  19 BEND      5  4  6                  1.9886754     113.9427059
  20 BEND      5  4  7                  1.9633344     112.4907729
  21 BEND      6  4  7                  1.9160787     109.7832250
  22 BEND      8  5  9                  1.9050745     109.1527271
  23 BEND      8  5 10                  1.9047604     109.1347311
  24 BEND      9  5 10                  1.8995311     108.8351139
  25 TORSION   1  4  5  8              -1.0663551     -61.0976462
  26 TORSION   1  4  5  9               1.0394937      59.5586043
  27 TORSION   1  4  5 10               3.1269941     179.1635626
  28 TORSION   2  1  4  6               2.9524412     169.1624208
  29 TORSION   2  1  4  7              -1.3050709     -74.7750549
  30 TORSION   2  1  4  5               0.8028150      45.9979114
  31 TORSION   3  1  4  5              -2.3489081    -134.5825202
  32 TORSION   3  1  4  7               1.8263913     104.6445135
  33 TORSION   3  1  4  6              -0.1992819     -11.4180107
  34 TORSION   6  4  5 10               1.0628853      60.8988418
  35 TORSION   6  4  5  8              -3.1304639    -179.3623670
  36 TORSION   6  4  5  9              -1.0246150     -58.7061165
  37 TORSION   7  4  5 10              -1.1323644     -64.8797033
  38 TORSION   7  4  5  8               0.9574717      54.8590879
  39 TORSION   7  4  5  9               3.0633205     175.5153384

          INTERNUCLEAR DISTANCES (ANGS.)


 =====================================================
   GAMESS/COSab RESULTS
 =====================================================

   Dielectric Constant                  = INFTY
   Basic Grid Size                      =                 1082
   Number of Segments                   =                   92
   Number of Segments located on spheres=                  204
   Number of Segments of the cavity     =                  412
   Solvent Radius (rsolv)               = 1.40
   Outlying Charge Error Method         = double cavity

 =====================================================

  Total solvated Energy (a.u.)          =  -282.7920567388
  Total Energy corrected (a.u.)         =  -282.7917149254

  Outlying charge effect (a.u.)         =     0.0003418134
  Outlying charge effect (kcal/mol)     =     0.2144913177

  Dielectric Energy (a.u.)              =    -0.0168357730
  Dielectric energy corr. (a.u.)        =    -0.0164939596

  Sum of polarization charges           =     0.0130346798
  Sum of polarization charges(cor.)     =    -0.0130346798

  Total surface area of cavity (A**2)   =  105.87
  Total volume of cavity (A**3)         =   89.90

 =====================================================
 NPS=                   412
NR.  ATOM  (X, Y, Z)(a.u.)                  CHARGE(e)  AREA(A**2) SIGMA(e/A**2)
   1   1   1.927448   0.455438  -3.406943  -0.002039   0.155577  -0.013103
   2   1   2.496886   0.524900  -3.180856  -0.001794   0.194471  -0.009226
   3   1   3.188390  -0.448613  -2.753502  -0.001386   0.155577  -0.008910
   4   1   1.076960  -0.266832   3.341948  -0.000775   0.116683  -0.006638
   5   1   1.063428  -0.870236   3.242928  -0.001042   0.116683  -0.008933
   6   1   2.178732  -0.401880  -3.335985  -0.002998   0.350048  -0.008564
   7   1   1.554395  -0.816760   3.211898  -0.000691   0.077788  -0.008887
   8   2   1.178366  -5.499819  -0.347793   0.002891   0.377948   0.007650
   9   2   0.257995  -3.873364  -2.884696   0.002610   0.240512   0.010853
  10   2   0.628729  -4.034612   2.474201   0.002240   0.240512   0.009312
  11   2   3.615543  -3.763013   1.226936   0.004795   0.343589   0.013955
  12   2   3.378071  -3.500214  -2.173685   0.002993   0.274871   0.010890
  13   2   0.830395  -5.231524  -1.471046   0.003526   0.412307   0.008552
  14   2   0.405228  -4.634653  -2.295661   0.002831   0.274871   0.010299
  15   2   0.100265  -5.339019  -0.310606   0.003129   0.343589   0.009108
  16   2  -0.592148  -5.018653  -0.178177   0.002582   0.206154   0.012523
  17   2   0.918924  -5.331928   0.823415   0.003368   0.412307   0.008169
  18   2   0.902150  -4.765639   1.850657   0.003460   0.377948   0.009155
  19   2   2.153575  -5.292296   0.302639   0.003401   0.377948   0.008999
  20   2   3.027751  -4.707776   0.740595   0.004117   0.343589   0.011983
  21   2   2.187573  -5.213639  -1.008956   0.004106   0.481025   0.008536
  22   2   2.888582  -4.519902  -1.712411   0.004194   0.412307   0.010172
  23   2  -0.536470  -4.319013  -2.089377   0.003774   0.274871   0.013732
  24   2  -0.225880  -4.380001   1.858944   0.003338   0.274871   0.012144
  25   2   1.755206  -4.067801   2.419322   0.003595   0.343589   0.010462
  26   2   2.822946  -3.972477   1.966349   0.005217   0.412307   0.012653
  27   2   3.942597  -3.811132   0.184527   0.005467   0.377948   0.014465
  28   2   3.844247  -3.742677  -1.150998   0.005278   0.412307   0.012802
  29   2   2.437212  -3.854093  -2.701970   0.003662   0.377948   0.009690
  30   2   1.244223  -3.951631  -2.969054   0.003359   0.343589   0.009776
  31   2  -0.448292  -3.458779  -2.782249   0.003231   0.240512   0.013432
  32   2   0.365381  -3.421540   2.738228   0.002208   0.240512   0.009179
  33   2   1.477896  -3.301147   2.854864   0.002215   0.240512   0.009208
  34   2   1.878770  -2.460707   2.952135   0.001436   0.240512   0.005971
  35   2   3.447467  -2.862714   1.980559   0.004296   0.343589   0.012504
  36   2   4.146733  -2.927836   0.760768   0.003474   0.240512   0.014445
  37   2   3.936680  -2.649354  -1.766318   0.003961   0.377948   0.010480
  38   2   2.896587  -2.914582  -2.838202   0.002356   0.274871   0.008572
  39   2   2.494688  -2.116689  -3.140858   0.001335   0.240512   0.005552
  40   2   1.503437  -2.251806  -3.427760   0.001063   0.206154   0.005158
  41   2   0.573084  -2.975715  -3.322823   0.003819   0.377948   0.010104
  42   2  -0.288852  -4.954277  -1.339258   0.003262   0.274871   0.011867
  43   2  -0.234485  -4.965595   0.976272   0.004151   0.412307   0.010067
  44   2   2.092633  -4.857020   1.482258   0.004209   0.412307   0.010208
  45   2   3.297867  -4.652887  -0.416294   0.005309   0.446666   0.011887
  46   2   1.668136  -4.703658  -2.263641   0.003711   0.412307   0.009001
  47   2   2.589899  -2.919916   2.618599   0.003259   0.343589   0.009484
  48   2   4.277338  -2.930927  -0.534291   0.004227   0.309230   0.013668
  49   2   1.840738  -2.969697  -3.287079   0.002215   0.274871   0.008060
  50   2   0.897929  -2.549998   3.028808   0.001171   0.206154   0.005683
  51   2   3.366421  -2.151497  -2.543619   0.001522   0.240512   0.006330
  52   3   5.197493   3.281273   1.238748   0.002804   0.377948   0.007420
  53   3   2.368090   3.463797   2.854472   0.003469   0.309230   0.011217
  54   3   2.722231   4.433004  -0.425113   0.003638   0.240512   0.015127
  55   3   4.740299   2.271007  -1.918183   0.003117   0.343589   0.009073
  56   3   5.736629   0.045555   0.416823   0.004740   0.343589   0.013797
  57   3   4.107154   0.722976   3.345234   0.002898   0.274871   0.010544
  58   3   4.380932   3.599452   2.067455   0.003404   0.412307   0.008257
  59   3   3.309020   3.792760   2.465816   0.003521   0.343589   0.010249
  60   3   4.482040   4.031793   0.752057   0.003339   0.377948   0.008833
  61   3   3.689525   4.393382   0.110220   0.003603   0.309230   0.011653
  62   3   5.384442   3.149891   0.049204   0.003265   0.412307   0.007920
  63   3   5.337247   2.615818  -0.994217   0.003353   0.377948   0.008871
  64   3   5.793644   2.282392   0.985763   0.003323   0.377948   0.008792
  65   3   5.967701   1.169967   0.812938   0.004049   0.343589   0.011786
  66   3   5.247565   2.461625   2.167836   0.003985   0.481025   0.008284
  67   3   4.810229   1.635100   2.937983   0.004063   0.412307   0.009853
  68   3   2.347562   4.259061   1.749510   0.004059   0.274871   0.014768
  69   3   2.732660   4.549661   0.626825   0.004305   0.309230   0.013921
  70   3   3.541855   4.082316  -1.029787   0.003553   0.309230   0.011490
  71   3   4.252308   3.230040  -1.683007   0.003662   0.377948   0.009690
  72   3   5.417445   1.370497  -1.387407   0.004238   0.412307   0.010280
  73   3   5.770139   0.637306  -0.514587   0.005135   0.412307   0.012454
  74   3   5.542589   0.026687   1.492876   0.005390   0.377948   0.014260
  75   3   4.926577   0.317994   2.647716   0.005156   0.412307   0.012504
  76   3   3.687570   1.761993   3.529420   0.003527   0.377948   0.009333
  77   3   3.041730   2.785590   3.331405   0.003235   0.343589   0.009414
  78   3   1.903252   3.791627   2.371450   0.002019   0.171795   0.011752
  79   3   2.781456   3.934576  -1.454355   0.003523   0.274871   0.012818
  80   3   3.135077   2.355747  -2.595750   0.000932   0.206154   0.004519
  81   3   3.884986   2.193773  -2.454718   0.002000   0.274871   0.007275
  82   3   4.637012   1.174895  -2.181958   0.002477   0.309230   0.008010
  83   3   4.503953   0.238704  -2.059443   0.001405   0.240512   0.005842
  84   3   5.250693  -0.525374  -0.502221   0.004251   0.343589   0.012373
  85   3   5.194320  -0.784022   0.880179   0.003429   0.240512   0.014258
  86   3   3.902431  -0.306105   3.027376   0.003816   0.377948   0.010096
  87   3   3.154982   0.859353   3.647134   0.002253   0.274871   0.008198
  88   3   2.220695   0.734381   3.611826   0.001134   0.240512   0.004717
  89   3   1.559933   1.757449   3.448597   0.000792   0.206154   0.003840
  90   3   1.765672   2.697494   3.224274   0.003468   0.377948   0.009176
  91   3   3.454721   4.323371   1.422082   0.004709   0.412307   0.011421
  92   3   4.563642   3.778672  -0.601557   0.004585   0.481025   0.009532
  93   3   5.882227   1.833196  -0.186864   0.004116   0.412307   0.009982
  94   3   5.621476   1.153408   1.950576   0.005195   0.446666   0.011630
  95   3   4.106985   2.787651   3.002651   0.003587   0.412307   0.008701
  96   3   3.246000   3.216150  -2.124944   0.002780   0.309230   0.008989
  97   3   5.095239   0.041999  -1.396486   0.003182   0.343589   0.009262
  98   3   4.767116  -0.631560   2.100218   0.004146   0.309230   0.013408
  99   3   2.429037   1.743532   3.659620   0.002404   0.309230   0.007774
 100   3   3.801022   1.189889  -2.615954   0.001189   0.240512   0.004942
 101   3   2.928079  -0.026075   3.413996   0.001412   0.240512   0.005871
 102   4   0.681105   3.245961  -3.122601  -0.000896   0.139368  -0.006428
 103   4  -2.578397   3.827801  -3.247303  -0.001322   0.418105  -0.003163
 104   4  -1.976362  -1.689586  -3.119328  -0.000443   0.046456  -0.009529
 105   4  -3.824541   4.148161  -0.491905  -0.001031   0.139368  -0.007401
 106   4  -2.109905   4.491480  -2.524506  -0.001105   0.278737  -0.003964
 107   4   0.267418   4.199774  -2.308685  -0.001099   0.232280  -0.004730
 108   4  -1.425514   3.062421   2.539231  -0.000712   0.139368  -0.005106
 109   4  -0.755705   2.647862   2.668691  -0.000374   0.046456  -0.008058
 110   4   0.149384   3.773005  -3.030161  -0.000755   0.232280  -0.003252
 111   4  -1.337155   3.923518  -3.391048  -0.000854   0.371649  -0.002298
 112   4  -3.407386   4.047793  -2.323521  -0.001865   0.418105  -0.004460
 113   4  -3.989127   3.935201  -1.441807  -0.000995   0.232280  -0.004285
 114   4   0.726008   2.499236  -3.563844  -0.001690   0.232280  -0.007277
 115   4  -3.574140   3.168010  -3.203883  -0.002030   0.371649  -0.005463
 116   4  -4.304990   2.105418  -3.076090  -0.001279   0.232280  -0.005506
 117   4  -3.460179   4.354813  -1.397297  -0.000766   0.139368  -0.005497
 118   4  -0.734549   4.277640  -2.851593  -0.000647   0.232280  -0.002788
 119   4  -0.866526   3.019306   2.510431  -0.000408   0.046456  -0.008772
 120   4  -0.190777   3.349766  -3.608455  -0.000851   0.232280  -0.003662
 121   4  -4.234446   3.097893  -2.495332  -0.001723   0.278737  -0.006183
 122   5  -6.179994   0.596124   3.207557   0.001010   0.418105   0.002415
 123   5  -5.060669  -0.750650  -2.858350  -0.000220   0.278737  -0.000788
 124   5  -4.570592  -2.620085   3.273793   0.000424   0.325193   0.001303
 125   5  -7.021500  -1.731291   0.433178   0.000346   0.371649   0.000930
 126   5  -4.898286   3.298474   1.294947  -0.000355   0.232280  -0.001527
 127   5  -3.310279   2.768074   2.933181  -0.000295   0.232280  -0.001268
 128   5  -4.446181   3.033945   2.380658   0.000505   0.418105   0.001207
 129   5  -5.439844   2.218732   2.835972   0.000680   0.325193   0.002091
 130   5  -6.464103  -2.529686  -0.070207   0.000584   0.371649   0.001572
 131   5  -4.288988  -3.356896   2.475820   0.000525   0.325193   0.001613
 132   5  -5.014122  -1.776365  -2.535829   0.000303   0.278737   0.001086
 133   5  -5.397413   1.506587   3.431242   0.000392   0.232280   0.001689
 134   5  -6.171939   1.582693   2.694297   0.000475   0.278737   0.001705
 135   5  -2.474586  -2.897744   2.940854   0.000096   0.092912   0.001037
 136   5  -3.404537  -2.976793   3.095772   0.000642   0.325193   0.001975
 137   5  -5.452149  -2.913912   2.376314   0.000306   0.464561   0.000660
 138   5  -6.557046  -2.343814   1.413706   0.000205   0.464561   0.000442
 139   5  -6.707182  -1.676994  -0.928397   0.000962   0.418105   0.002301
 140   5  -5.776452  -1.188196  -2.332863   0.000286   0.232280   0.001232
 141   5  -5.552373   0.106720  -2.642404  -0.000237   0.371649  -0.000639
 142   5  -5.519069  -1.956640   3.280634   0.000098   0.418105   0.000235
 143   5  -6.114631  -0.744230   3.317540   0.000230   0.418105   0.000549
 144   5  -6.814843  -0.267655   2.527308   0.000262   0.464561   0.000565
 145   5  -7.113405  -1.139606   1.507244  -0.000010   0.371649  -0.000028
 146   5  -4.327220   2.452008   3.189520   0.000130   0.278737   0.000466
 147   5  -5.429335   2.799016   2.006235   0.000184   0.232280   0.000792
 148   5  -5.882504  -3.060705   1.369197   0.000010   0.278737   0.000036
 149   5  -3.057199  -3.436764   2.397506   0.000261   0.185824   0.001404
 150   5  -4.193528  -1.717591  -2.822217  -0.000257   0.232280  -0.001107
 151   5  -5.930771  -2.055252  -1.712402   0.000636   0.325193   0.001955
 152   5  -2.444201  -2.594398   3.237660   0.000038   0.092912   0.000410
 153   5  -6.437096  -1.744103   2.483504  -0.000076   0.418105  -0.000181
 154   5  -6.318850  -0.975450  -1.908194   0.000412   0.232280   0.001773
 155   6  -1.504304   5.566424   0.264117  -0.004751   0.451437  -0.010523
 156   6  -1.377501   4.356454   1.937200  -0.003857   0.431809  -0.008933
 157   6  -2.840884   5.013856   0.193372  -0.002843   0.353299  -0.008047
 158   6  -1.634430   5.294741  -1.383220  -0.002251   0.294415  -0.007647
 159   6  -0.045160   5.163346  -0.948671  -0.002726   0.314043  -0.008679
 160   6  -0.765776   4.998461   1.347627  -0.004723   0.451437  -0.010463
 161   6  -2.277016   4.936214   1.166788  -0.004423   0.451437  -0.009797
 162   6  -2.298150   5.348639  -0.681691  -0.003671   0.412182  -0.008906
 163   6  -0.799022   5.362606  -1.205632  -0.002873   0.353299  -0.008133
 164   6  -0.307128   5.387397   0.208887  -0.004736   0.431809  -0.010968
 165   7  -1.756976   0.913174  -5.238371  -0.006828   0.608459  -0.011222
 166   7  -3.027336   0.028660  -4.482979  -0.002870   0.314043  -0.009139
 167   7  -1.443192  -0.674451  -4.510102  -0.003447   0.314043  -0.010975
 168   7  -0.016897   1.151013  -4.683053  -0.003936   0.392554  -0.010025
 169   7  -1.246106   2.683414  -4.620741  -0.002996   0.372926  -0.008034
 170   7  -3.190700   2.048370  -4.378335  -0.002958   0.353299  -0.008373
 171   7  -2.217939  -0.423802  -4.632244  -0.003941   0.392554  -0.010039
 172   7  -0.638028   0.134818  -4.855072  -0.005145   0.471065  -0.010921
 173   7  -0.648481   1.895199  -4.911961  -0.004120   0.431809  -0.009541
 174   7  -2.201543   2.309174  -4.827056  -0.004481   0.471065  -0.009512
 175   7  -3.144491   1.032914  -4.690737  -0.004901   0.490692  -0.009988
 176   8  -3.873582  -4.384246  -0.961322  -0.004554   0.549575  -0.008286
 177   8  -4.609586  -3.202113  -2.029460  -0.001346   0.333671  -0.004035
 178   8  -5.440064  -3.786664  -0.220964  -0.001532   0.353299  -0.004335
 179   8  -3.670703  -4.264778   1.141801  -0.001984   0.372926  -0.005319
 180   8  -3.595242  -3.505109  -2.072163  -0.003215   0.490692  -0.006551
 181   8  -5.083388  -3.735598  -1.208840  -0.002637   0.471065  -0.005599
 182   8  -4.740793  -4.250572   0.483108  -0.002606   0.490692  -0.005310
 183   8  -3.520170  -4.563314   0.111912  -0.002630   0.353299  -0.007445
 184   9  -3.106022  -0.074086   5.049120  -0.004022   0.529948  -0.007590
 185   9  -4.479129   1.085416   4.397715  -0.001503   0.372926  -0.004031
 186   9  -2.610046   1.627460   4.180147  -0.002170   0.372926  -0.005820
 187   9  -2.755895  -1.827781   4.275980  -0.001683   0.372926  -0.004513
 188   9  -4.612103  -0.996116   4.493207  -0.001808   0.412182  -0.004386
 189   9  -3.465043   1.309796   4.594505  -0.002407   0.431809  -0.005573
 190   9  -2.074656   0.579667   4.604986  -0.003588   0.451437  -0.007949
 191   9  -2.025923  -0.849955   4.562047  -0.003999   0.529948  -0.007546
 192   9  -3.624617  -1.400686   4.673964  -0.002746   0.471065  -0.005830
 193   9  -4.459982   0.069600   4.766018  -0.002751   0.471065  -0.005840
 194  10  -7.526301   1.803142  -0.327387  -0.004922   0.588831  -0.008359
 195  10  -6.304331   2.793379  -0.838785  -0.002272   0.353299  -0.006432
 196  10  -6.503501   2.708750   1.033295  -0.001490   0.333671  -0.004466
 197  10  -7.521154   0.916687   1.267697  -0.001711   0.353299  -0.004842
 198  10  -7.529264  -0.096462  -0.671887  -0.001707   0.372926  -0.004578
 199  10  -6.502433   1.060767  -2.032007  -0.001690   0.353299  -0.004785
 200  10  -6.443403   2.941325   0.073882  -0.002686   0.451437  -0.005951
 201  10  -7.262157   1.926728   1.115195  -0.003042   0.490692  -0.006200
 202  10  -7.793629   0.470264   0.290347  -0.003241   0.510320  -0.006350
 203  10  -7.318207   0.668704  -1.361252  -0.003169   0.490692  -0.006458
 204  10  -6.658497   2.013963  -1.530205  -0.002893   0.490692  -0.005896
 205   1   3.614964  -0.807577  -2.245855  -0.000416   0.035178  -0.011829
 206   2   3.581949  -1.218150  -2.213248  -0.000277   0.035178  -0.007879
 207   3   3.890117  -0.543207  -2.089044  -0.000289   0.035178  -0.008220
 208   1   2.145988  -1.099145   2.981400  -0.000493   0.035178  -0.014022
 209   2   2.146624  -1.503038   2.894265  -0.000302   0.035178  -0.008571
 210   3   2.454769  -0.828100   3.018552  -0.000297   0.035178  -0.008438
 211   1   0.974085  -0.838053  -3.494075  -0.001670   0.077258  -0.021622
 212   2   0.983599  -1.247738  -3.432034  -0.000995   0.077258  -0.012885
 213   7   0.361022  -0.524753  -3.798585  -0.001654   0.077258  -0.021409
 214   1   0.185760  -1.235258   3.100447  -0.001814   0.122619  -0.014793
 215   2   0.208961  -1.643221   3.015788  -0.000886   0.122619  -0.007223
 216   9  -0.783515  -1.153749   3.388481  -0.001446   0.122619  -0.011792
 217   2   1.784714  -1.579680  -3.291033  -0.000458   0.172315  -0.002655
 218   2   3.111683  -1.542819  -2.642745  -0.000234   0.172315  -0.001356
 219   1   2.421494  -0.971487  -2.945762  -0.004236   0.358845  -0.011805
 220   2   1.490630  -1.858268   2.976252  -0.000347   0.186412  -0.001861
 221   1   1.195672  -1.284877   3.077775  -0.001731   0.192465  -0.008996
 222   1   1.994327   1.664536  -2.984798  -0.001085   0.049405  -0.021970
 223   3   2.299785   1.884789  -2.815240  -0.000697   0.049405  -0.014117
 224   4   1.567479   1.887705  -3.110228  -0.001043   0.049405  -0.021104
 225   1   0.378153   0.663312   3.257854  -0.001603   0.057440  -0.027902
 226   3   0.716327   0.897091   3.247027  -0.001168   0.057440  -0.020339
 227   9  -0.602302   0.567251   3.482884  -0.001324   0.057440  -0.023057
 228   3   1.553496   0.733593   3.424280  -0.000504   0.146156  -0.003448
 229   3   2.340950  -0.244606   3.282143  -0.000227   0.146156  -0.001550
 230   1   1.489701  -0.105019   3.223871  -0.003482   0.301800  -0.011536
 231   3   3.848716   0.167802  -2.348419  -0.000245   0.189000  -0.001298
 232   3   2.989589   1.473566  -2.752608  -0.000561   0.189000  -0.002969
 233   1   2.961749   0.476047  -2.691652  -0.005352   0.397209  -0.013475
 234   1   1.319907   1.062797  -3.496709  -0.000808   0.026132  -0.030912
 235   4   0.929441   1.295952  -3.697583  -0.000640   0.026132  -0.024491
 236   7   0.706031   1.246053  -3.892527  -0.000473   0.026132  -0.018111
 237   4   1.198885   1.680957  -3.470360  -0.001640   0.117807  -0.013917
 238   1   1.742201   1.230904  -3.292113  -0.001907   0.112338  -0.016973
 239   7   0.566505   0.939027  -4.108934  -0.002269   0.177541  -0.012779
 240   7   0.259476   0.043493  -4.174817  -0.002330   0.177541  -0.013123
 241   1   1.293620   0.149121  -3.595178  -0.006777   0.449823  -0.015065
 242   9  -1.145310  -0.719955   3.925548  -0.001491   0.223049  -0.006685
 243   9  -1.125590   0.183384   3.993456  -0.001625   0.223049  -0.007284
 244   1   0.228274  -0.256894   3.411961  -0.006732   0.579893  -0.011609
 245   3   2.946418  -0.869032   2.992785   0.000153   0.238096   0.000644
 246   3   4.065012  -1.210841   2.075412   0.003689   0.477336   0.007728
 247   3   4.798452  -1.239503   0.412079   0.004748   0.477336   0.009947
 248   3   4.515214  -0.790136  -1.326677   0.001232   0.477336   0.002582
 249   2   2.952082  -1.976199   2.493796   0.001238   0.477336   0.002593
 250   2   4.110122  -2.251932   1.119626   0.004789   0.477336   0.010033
 251   2   4.346859  -2.030706  -0.669353   0.003803   0.477336   0.007968
 252   2   3.858131  -1.563879  -1.993316   0.000225   0.238096   0.000945
 253   2  -0.887674  -2.148061  -3.058704  -0.000122   0.046518  -0.002623
 254   4  -1.405842  -1.611167  -3.303126  -0.000527   0.046518  -0.011338
 255   7  -1.413270  -1.405249  -3.522528  -0.000570   0.046518  -0.012263
 256   2  -1.417800  -2.682109  -2.490149   0.000935   0.169070   0.005529
 257   4  -1.933743  -2.115823  -2.687469  -0.000987   0.169070  -0.005839
 258   8  -2.373445  -2.608372  -2.326371  -0.000762   0.169070  -0.004509
 259   4  -1.558108  -1.870407  -3.167790  -0.000423   0.128453  -0.003295
 260   2  -0.902552  -2.738383  -2.853495   0.000944   0.116520   0.008105
 261   2  -1.512263  -3.897736   1.464392   0.001220   0.082518   0.014786
 262   5  -2.399796  -3.657209   1.693321   0.000078   0.082518   0.000943
 263   8  -2.477047  -3.818551   1.448546  -0.000130   0.082518  -0.001581
 264   2  -0.839642  -2.584627   2.782579   0.000143   0.062153   0.002308
 265   5  -1.685306  -2.308021   3.103428  -0.000102   0.062153  -0.001635
 266   9  -1.759818  -2.104100   3.314315  -0.000237   0.062153  -0.003811
 267   5  -2.053134  -3.223892   2.391807   0.001335   0.601574   0.002219
 268   2  -0.665914  -3.440469   2.323505   0.004618   0.540661   0.008542
 269   7  -0.170949  -0.658456  -4.132541  -0.002917   0.296777  -0.009828
 270   7  -1.131894  -1.247122  -3.887700  -0.002485   0.296777  -0.008374
 271   2   0.156331  -2.019723  -3.405076  -0.000160   0.731860  -0.000219
 272   8  -2.623334  -3.197576  -2.188045  -0.000541   0.219013  -0.002469
 273   8  -2.621347  -4.039102  -1.367803  -0.001425   0.440536  -0.003234
 274   8  -2.588475  -4.433306   0.008492  -0.001103   0.440536  -0.002504
 275   8  -2.543634  -4.153365   1.148925  -0.000084   0.219013  -0.000381
 276   2  -1.255961  -3.719838  -2.119477   0.005488   0.538405   0.010193
 277   2  -1.239728  -4.604647  -0.817793   0.006066   0.538405   0.011267
 278   2  -1.187327  -4.542912   0.754141   0.005604   0.538405   0.010408
 279   9  -1.534610  -1.745162   3.678439  -0.001143   0.383346  -0.002980
 280   2  -0.029159  -2.297537   3.096544   0.000708   0.484913   0.001460
 281   3   0.520780   3.162348   2.348094  -0.000212   0.065562  -0.003228
 282   4  -0.259802   3.233137   2.257730  -0.000791   0.065562  -0.012068
 283   6  -0.286588   3.500983   2.124306  -0.000712   0.065562  -0.010864
 284   3   1.536428   4.072294  -1.234893   0.000255   0.065562   0.003892
 285   4   0.811767   4.193184  -1.522533  -0.000461   0.065562  -0.007037
 286   6   0.688985   4.375024  -1.317302  -0.000659   0.065562  -0.010051
 287   3   0.187423   1.859564   2.906213  -0.002370   0.137729  -0.017210
 288   4  -0.599376   1.915976   2.886566  -0.002469   0.137729  -0.017927
 289   9  -1.099332   1.490850   3.251130  -0.002063   0.137729  -0.014978
 290   4   1.050976   3.837693  -2.084436  -0.001714   0.375064  -0.004570
 291   4   1.356451   2.546170  -3.047237  -0.003320   0.375064  -0.008851
 292   3   2.242103   3.094924  -2.106250   0.001525   0.695543   0.002193
 293   4  -0.302907   2.580711   2.694998  -0.002195   0.288997  -0.007594
 294   3   0.834317   2.731320   2.794244   0.000409   0.262138   0.001561
 295   6  -0.167145   3.931566   1.995352  -0.001586   0.227450  -0.006973
 296   6   0.322741   4.646709   1.042318  -0.003595   0.458976  -0.007833
 297   6   0.635233   4.775812  -0.483441  -0.003207   0.458976  -0.006988
 298   3   1.221074   3.842450   2.009979   0.003890   0.554678   0.007014
 299   3   1.773165   4.502618   0.526846   0.005433   0.554678   0.009794
 300   3   1.930286   4.347848  -0.856776   0.002292   0.279961   0.008185
 301   9  -1.152972   0.919149   3.883191  -0.001703   0.351852  -0.004839
 302   3   0.694305   1.600604   3.385776  -0.001237   0.457376  -0.002705
 303   4  -2.169662   3.301172   2.318422  -0.000228   0.020450  -0.011157
 304   5  -2.536175   3.033465   2.513568  -0.000226   0.020450  -0.011037
 305   6  -2.081047   3.548926   2.177675  -0.000251   0.020450  -0.012266
 306   4  -3.739332   3.961297   0.494678  -0.000286   0.020450  -0.014009
 307   5  -4.084319   3.684537   0.714834  -0.000257   0.020450  -0.012545
 308   6  -3.508951   4.149430   0.518644  -0.000274   0.020450  -0.013391
 309   4  -4.211001   0.991583  -3.344394  -0.000343   0.023239  -0.014775
 310   5  -4.551106   0.748825  -3.080695  -0.000261   0.023239  -0.011211
 311   7  -4.010456   0.968305  -3.567069  -0.000433   0.023239  -0.018617
 312   4  -2.659549  -1.333685  -3.284890  -0.000288   0.023239  -0.012407
 313   5  -3.020497  -1.545205  -3.021991  -0.000264   0.023239  -0.011359
 314   7  -2.598726  -1.147552  -3.512925  -0.000287   0.023239  -0.012341
 315   4  -2.698826  -1.809259  -2.857345  -0.000269   0.026494  -0.010148
 316   5  -3.068327  -2.072986  -2.662036  -0.000217   0.026494  -0.008188
 317   8  -3.111589  -2.336846  -2.525503  -0.000200   0.026494  -0.007548
 318   4  -1.939831   2.519200   2.871001  -0.000260   0.026262  -0.009892
 319   5  -2.300384   2.306158   3.133357  -0.000232   0.026262  -0.008818
 320   9  -2.335737   2.107561   3.357924  -0.000275   0.026262  -0.010482
 321   4  -4.473651   3.570943  -0.098925  -0.000321   0.027852  -0.011515
 322   5  -4.860752   3.368194   0.131970  -0.000240   0.027852  -0.008618
 323  10  -5.135570   3.271808   0.056198  -0.000211   0.027852  -0.007572
 324   4  -4.812475   1.623433  -2.670390  -0.000288   0.027852  -0.010358
 325   5  -5.203939   1.395610  -2.472604  -0.000246   0.027852  -0.008822
 326  10  -5.448117   1.475340  -2.315833  -0.000294   0.027852  -0.010571
 327   5  -4.543442   3.527243   0.562176  -0.000555   0.124533  -0.004454
 328   4  -4.086309   3.848463   0.101282  -0.000824   0.124533  -0.006613
 329   5  -5.015705   1.089946  -2.733163  -0.000673   0.138368  -0.004866
 330   4  -4.441202   1.289275  -3.133265  -0.000965   0.138368  -0.006972
 331   5  -3.154472  -1.870406  -2.839747  -0.000212   0.045741  -0.004639
 332   4  -2.591837  -1.562776  -3.145990  -0.000291   0.045741  -0.006362
 333   5  -2.459260   2.609957   2.941216  -0.000520   0.117994  -0.004403
 334   4  -2.028334   3.039449   2.551211  -0.000659   0.117994  -0.005587
 335   6  -1.409896   3.783659   2.111544  -0.001091   0.118432  -0.009213
 336   4  -1.190519   3.372027   2.284213  -0.001537   0.144690  -0.010624
 337   6   0.112765   4.671535  -1.563304  -0.000743   0.073345  -0.010126
 338   6  -1.022274   4.865523  -1.872688  -0.001580   0.166126  -0.009513
 339   6  -2.393746   4.875796  -1.448128  -0.001819   0.166126  -0.010948
 340   6  -3.170108   4.617873  -0.268285  -0.001937   0.166126  -0.011660
 341   4  -0.243877   4.494392  -2.032268  -0.001554   0.157676  -0.009853
 342   4  -1.845320   4.664280  -2.098971  -0.001594   0.157676  -0.010107
 343   4  -3.131158   4.516020  -1.138467  -0.001859   0.157676  -0.011788
 344   4  -3.589890   4.223065   0.059365  -0.000847   0.089607  -0.009452
 345   7  -3.776658   1.338923  -3.870550  -0.000828   0.068336  -0.012111
 346   7  -3.271166   2.321456  -3.969166  -0.001739   0.151811  -0.011453
 347   7  -2.135386   3.024782  -4.088733  -0.001545   0.151811  -0.010176
 348   7  -0.803077   2.889629  -4.163878  -0.001658   0.151811  -0.010921
 349   7   0.175018   1.971866  -4.163538  -0.001793   0.151811  -0.011808
 350   4  -3.829176   1.848672  -3.568762  -0.001902   0.149674  -0.012706
 351   4  -2.876811   3.007977  -3.707643  -0.001634   0.149674  -0.010915
 352   4  -1.412793   3.345005  -3.823142  -0.001453   0.149674  -0.009705
 353   4  -0.042311   2.720438  -3.867515  -0.001587   0.149674  -0.010605
 354   4   0.667740   1.723239  -3.844826  -0.001104   0.083487  -0.013220
 355   7  -1.964849  -1.118411  -3.818567  -0.000825   0.073355  -0.011252
 356   4  -2.152671  -1.332977  -3.459099  -0.000979   0.089619  -0.010921
 357   8  -3.036219  -2.580152  -2.452742  -0.000427   0.074040  -0.005772
 358   4  -2.343301  -1.878100  -2.973289  -0.000325   0.104456  -0.003115
 359   9  -1.924246   1.677515   3.624504  -0.001662   0.199064  -0.008349
 360   4  -1.415368   2.411244   2.929173  -0.001688   0.280484  -0.006017
 361  10  -5.391669   3.171880  -0.355963  -0.001365   0.215344  -0.006340
 362  10  -5.574549   2.304485  -1.643773  -0.004185   0.443863  -0.009429
 363   4  -4.539986   3.316686  -1.249083  -0.004199   0.587198  -0.007151
 364   4  -4.707414   2.186985  -2.610943  -0.001442   0.303525  -0.004751
 365   6  -3.193592   4.245541   0.918487  -0.002487   0.245696  -0.010123
 366   6  -2.351018   3.891196   1.897444  -0.002322   0.245696  -0.009451
 367   5  -3.531567   3.361142   1.805463  -0.003689   0.667127  -0.005529
 368   7  -2.816506  -0.873903  -3.756408  -0.001828   0.184000  -0.009934
 369   7  -3.594918   0.200895  -3.820304  -0.004449   0.374875  -0.011868
 370   5  -3.864271  -1.018608  -3.135916  -0.002332   0.505945  -0.004609
 371   5  -4.663976   0.263653  -3.135575  -0.001001   0.259155  -0.003861
 372   8  -3.182926  -3.900759   1.572310  -0.000246   0.069797  -0.003529
 373   8  -4.311041  -3.835929   1.488172  -0.000768   0.155870  -0.004925
 374   8  -5.408027  -3.554671   0.719915  -0.000801   0.155870  -0.005141
 375   8  -5.760288  -3.143271  -0.536813  -0.000709   0.155870  -0.004547
 376   8  -5.215432  -2.779706  -1.738335  -0.000757   0.155870  -0.004857
 377   8  -4.009171  -2.621259  -2.364858  -0.000954   0.155870  -0.006122
 378   5  -3.605642  -3.648486   1.916347  -0.000478   0.152099  -0.003145
 379   5  -5.070984  -3.463723   1.490750  -0.000599   0.152099  -0.003937
 380   5  -5.932807  -3.051820   0.286552  -0.000606   0.152099  -0.003985
 381   5  -5.818277  -2.590972  -1.175295  -0.000459   0.152099  -0.003019
 382   5  -4.776940  -2.280547  -2.262378  -0.000685   0.152099  -0.004500
 383   5  -3.578102  -2.210130  -2.611197  -0.000445   0.085272  -0.005217
 384   9  -2.765425   2.022486   3.673127  -0.000375   0.069106  -0.005430
 385   9  -3.862710   1.876042   3.822325  -0.000766   0.153639  -0.004985
 386   9  -4.906041   1.034013   3.981891  -0.000742   0.153639  -0.004832
 387   9  -5.218336  -0.277453   4.056341  -0.000779   0.153639  -0.005073
 388   9  -4.669053  -1.510156   4.014555  -0.000802   0.153639  -0.005222
 389   9  -3.487795  -2.148818   3.873999  -0.000675   0.153639  -0.004396
 390   9  -2.381988  -2.093860   3.725976  -0.000388   0.069106  -0.005615
 391   5  -3.244218   2.247566   3.394474  -0.000821   0.151273  -0.005427
 392   5  -4.657773   1.735554   3.594821  -0.000501   0.151273  -0.003312
 393   5  -5.462386   0.457376   3.733718  -0.000555   0.151273  -0.003666
 394   5  -5.321725  -1.052681   3.753105  -0.000637   0.151273  -0.004208
 395   5  -4.294586  -2.163404   3.644878  -0.000598   0.151273  -0.003953
 396   5  -2.810319  -2.410505   3.454278  -0.000519   0.151273  -0.003434
 397  10  -5.895581   1.195533  -2.236415  -0.000399   0.066599  -0.005991
 398  10  -6.424457   0.283471  -1.991957  -0.000814   0.147136  -0.005534
 399  10  -7.035439  -0.472263  -1.113330  -0.000715   0.147136  -0.004857
 400  10  -7.394187  -0.545215   0.144604  -0.000844   0.147136  -0.005735
 401  10  -7.359892   0.093248   1.288111  -0.000887   0.147136  -0.006028
 402  10  -6.946016   1.192532   1.868370  -0.000744   0.147136  -0.005056
 403  10  -6.315003   2.321174   1.657632  -0.000776   0.147136  -0.005272
 404  10  -5.714523   3.036186   0.738610  -0.000920   0.147136  -0.006252
 405   5  -5.773336   0.631452  -2.347617  -0.000851   0.146656  -0.005804
 406   5  -6.503569  -0.491133  -1.736468  -0.000577   0.146656  -0.003935
 407   5  -7.077235  -0.981361  -0.472536  -0.000593   0.146656  -0.004044
 408   5  -7.269172  -0.646820   0.948091  -0.000680   0.146656  -0.004635
 409   5  -7.004047   0.381185   1.967825  -0.000644   0.146656  -0.004393
 410   5  -6.385919   1.699165   2.186423  -0.000498   0.146656  -0.003396
 411   5  -5.657401   2.789821   1.518088  -0.000649   0.146656  -0.004422
 412   5  -5.163970   3.265918   0.539870  -0.000406   0.081366  -0.004988
 =====================================================


   1 warning(s) detected.
     A line exceeding 80 characters begins with "http://cactus.nci.ni".
 There may be a problem in your input file.

              1413883  WORDS OF DYNAMIC MEMORY USED
 EXECUTION OF GAMESS TERMINATED NORMALLY Fri Nov 25 07:32:31 2016
 DDI: 263640 bytes (0.3 MB / 0 MWords) used by master data server.

 ----------------------------------------
 CPU timing information for all processes
 ========================================
 0: 306.732 + 0.180 = 306.912
 ----------------------------------------
 ddikick.x: exited gracefully.
