----- GAMESS execution script -----

          ******************************************************
          *         GAMESS VERSION =  5 DEC 2014 (R1)          *
          *             FROM IOWA STATE UNIVERSITY             *
          * M.W.SCHMIDT, K.K.BALDRIDGE, J.A.BOATZ, S.T.ELBERT, *
          *   M.S.GORDON, J.H.JENSEN, S.KOSEKI, N.MATSUNAGA,   *
          *          K.A.NGUYEN, S.J.SU, T.L.WINDUS,           *
          *       TOGETHER WITH M.DUPUIS, J.A.MONTGOMERY       *
          *         J.COMPUT.CHEM.  14, 1347-1363(1993)        *
          **************** 64 BIT LINUX VERSION ****************

 EXECUTION OF GAMESS BEGUN Fri Nov 25 07:33:45 2016

            ECHO OF THE FIRST FEW INPUT CARDS -
 INPUT CARD>! SELECT RESTRICTED HARTREE-FOCK AS DEFAULT                                     
 INPUT CARD>$contrl scftyp=rhf $end                                                         
 INPUT CARD>                                                                                
 INPUT CARD>! THEORY: HF OR DFT                                                             
 INPUT CARD> $contrl mplevl=0 $end                                                          
 INPUT CARD>                                                                                
 INPUT CARD> $system timlim=10000 mwords=20 $end                                            
 INPUT CARD> $SCF DIRSCF=.TRUE. $end                                                        
 INPUT CARD>                                                                                
 INPUT CARD>                                                                                
 INPUT CARD>! BASIS SETS                                                                    
 INPUT CARD>! 6-311G(d,p)                                                                   
 INPUT CARD> $BASIS GBASIS=N311 NGAUSS=6 NDFUNC=1 NPFUNC=1 $END                             
 INPUT CARD>                                                                                
 INPUT CARD>! One of the following                                                          
 INPUT CARD> $guess guess=HUCKEL $end                                                       
 INPUT CARD>                                                                                
 INPUT CARD> $statpt projct=.FALSE. $end                                                    
 INPUT CARD> $STATPT IFREEZ(1)=1,2,3 $END                                                   
 INPUT CARD>                                                                                
 INPUT CARD>! Optimize the geometry with COSMO effects                                      
 INPUT CARD> $statpt opttol=0.0005 nstep=50 $end                                            
 INPUT CARD> $contrl nzvar=1 $end                                                           
 INPUT CARD> $zmat dlc=.t. auto=.t. $end                                                    
 INPUT CARD> $contrl runtyp=OPTIMIZE maxit=200 $end                                         
 INPUT CARD>                                                                                
 INPUT CARD>! Run COSMO on perfect conductor                                                
 INPUT CARD> $COSGMS PRFCND=.TRUE. $end                                                     
 INPUT CARD>                                                                                
 INPUT CARD>! Specifying RSOLV                                                              
 INPUT CARD> $COSGMS COSRAD = 1.4 $end                                                      
 INPUT CARD>                                                                                
 INPUT CARD>! available memory                                                              
 INPUT CARD> $SYSTEM MWORDS=40 $END                                                         
 INPUT CARD>                                                                                
 INPUT CARD> $DATA                                                                          
 INPUT CARD>http://cactus.nci.nih.gov/chemical/structure/O-DICHLOROBENZENE/file?format=sdf&g
 INPUT CARD>C1                                                                              
 INPUT CARD>C      6.0      1.2739000000   -1.3832000000    0.0004000000                    
 INPUT CARD>C      6.0      1.2739000000    1.3831000000   -0.0005000000                    
 INPUT CARD>C      6.0      2.4707000000   -0.6911000000    0.0001000000                    
 INPUT CARD>C      6.0      2.4707000000    0.6911000000    0.0001000000                    
 INPUT CARD>C      6.0      0.0757000000   -0.6924000000    0.0002000000                    
 INPUT CARD>C      6.0      0.0757000000    0.6924000000   -0.0002000000                    
 INPUT CARD>Cl    17.0     -1.4274000000   -1.5609000000   -0.0001000000                    
 INPUT CARD>Cl    17.0     -1.4274000000    1.5609000000    0.0001000000                    
 INPUT CARD>H      1.0      1.2747000000   -2.4631000000   -0.0038000000                    
 INPUT CARD>H      1.0      1.2747000000    2.4631000000   -0.0005000000                    
 INPUT CARD>H      1.0      3.4062000000   -1.2308000000    0.0002000000                    
 INPUT CARD>H      1.0      3.4062000000    1.2308000000    0.0003000000                    
   40000000 WORDS OF MEMORY AVAILABLE

     BASIS OPTIONS
     -------------
     GBASIS=N311         IGAUSS=       6      POLAR=POPN311 
     NDFUNC=       1     NFFUNC=       0     DIFFSP=       F
     NPFUNC=       1      DIFFS=       F     BASNAM=        


     RUN TITLE
     ---------
 http://cactus.nci.nih.gov/chemical/structure/O-DICHLOROBENZENE/file?format=sdf&g

 THE POINT GROUP OF THE MOLECULE IS C1      
 THE ORDER OF THE PRINCIPAL AXIS IS     0

 ATOM      ATOMIC                      COORDINATES (BOHR)
           CHARGE         X                   Y                   Z
 C           6.0     2.4073219358       -2.6138689862        0.0007558904
 C           6.0     2.4073219358        2.6136800136       -0.0009448630
 C           6.0     4.6689459979       -1.3059896301        0.0001889726
 C           6.0     4.6689459979        1.3059896301        0.0001889726
 C           6.0     0.1430522573       -1.3084462739        0.0003779452
 C           6.0     0.1430522573        1.3084462739       -0.0003779452
 CL         17.0    -2.6973948749       -2.9496732942       -0.0001889726
 CL         17.0    -2.6973948749        2.9496732942        0.0001889726
 H           1.0     2.4088337165       -4.6545840804       -0.0071809588
 H           1.0     2.4088337165        4.6545840804       -0.0009448630
 H           1.0     6.4367846594       -2.3258747457        0.0003779452
 H           1.0     6.4367846594        2.3258747457        0.0005669178

          INTERNUCLEAR DISTANCES (ANGS.)




     $CONTRL OPTIONS
     ---------------
 SCFTYP=RHF          RUNTYP=OPTIMIZE     EXETYP=RUN     
 MPLEVL=       0     CITYP =NONE         CCTYP =NONE         VBTYP =NONE    
 DFTTYP=NONE         TDDFT =NONE    
 MULT  =       1     ICHARG=       0     NZVAR =       1     COORD =UNIQUE  
 PP    =NONE         RELWFN=NONE         LOCAL =NONE         NUMGRD=       F
 ISPHER=      -1     NOSYM =       0     MAXIT =     200     UNITS =ANGS    
 PLTORB=       F     MOLPLT=       F     AIMPAC=       F     FRIEND=        
 NPRINT=       7     IREST =       0     GEOM  =INPUT   
 NORMF =       0     NORMP =       0     ITOL  =      20     ICUT  =       9
 INTTYP=BEST         GRDTYP=BEST         QMTTOL= 1.0E-06

     $SYSTEM OPTIONS
     ---------------
  REPLICATED MEMORY=    40000000 WORDS (ON EVERY NODE).
 DISTRIBUTED MEMDDI=           0 MILLION WORDS IN AGGREGATE,
 MEMDDI DISTRIBUTED OVER   1 PROCESSORS IS           0 WORDS/PROCESSOR.
 TOTAL MEMORY REQUESTED ON EACH PROCESSOR=    40000000 WORDS.
 TIMLIM=       10000.00 MINUTES, OR       6.9 DAYS.
 PARALL= F  BALTYP=  DLB     KDIAG=    0  COREFL= F
 MXSEQ2=     300 MXSEQ3=     150  mem10=         0

     $COSGMS OPTIONS
     ---------------
     EPSI  =   INFTY     NSPA  =      92     COSRAD=    1.40
     DISEX =   10.00     OUTCHG=DBLCAV       COSBUG=       F
     COSWRT=       F     DCOSMO=       F

     SYMMETRY COORDINATES WILL NOT BE USED FOR 
     THE COSMO CALCULATION, EVEN IF SPECIFIED:
         -- SWITCHING TO C1 POINT GROUP --


     DEFINITION OF CAVITY
     ---------------------------
     ATOM         COORDINATES           RADIUS 
     1    2.4073   -2.6139    0.0008    2.0000
     2    2.4073    2.6137   -0.0009    2.0000
     3    4.6689   -1.3060    0.0002    2.0000
     4    4.6689    1.3060    0.0002    2.0000
     5    0.1431   -1.3084    0.0004    2.0000
     6    0.1431    1.3084   -0.0004    2.0000
     7   -2.6974   -2.9497   -0.0002    2.0500
     8   -2.6974    2.9497    0.0002    2.0500
     9    2.4088   -4.6546   -0.0072    1.3000
    10    2.4088    4.6546   -0.0009    1.3000
    11    6.4368   -2.3259    0.0004    1.3000
    12    6.4368    2.3259    0.0006    1.3000

          ----------------
          PROPERTIES INPUT
          ----------------

     MOMENTS            FIELD           POTENTIAL          DENSITY
 IEMOM =       1   IEFLD =       0   IEPOT =       0   IEDEN =       0
 WHERE =COMASS     WHERE =NUCLEI     WHERE =NUCLEI     WHERE =NUCLEI  
 OUTPUT=BOTH       OUTPUT=BOTH       OUTPUT=BOTH       OUTPUT=BOTH    
 IEMINT=       0   IEFINT=       0                     IEDINT=       0
                                                       MORB  =       0
          EXTRAPOLATION IN EFFECT
          SOSCF IN EFFECT
 ORBITAL PRINTING OPTION: NPREO=     1   192     2     1

     -------------------------------
     INTEGRAL TRANSFORMATION OPTIONS
     -------------------------------
     NWORD  =            0
     CUTOFF = 1.0E-09     MPTRAN =       0
     DIRTRF =       T     AOINTS =DUP     

          ----------------------
          INTEGRAL INPUT OPTIONS
          ----------------------
 NOPK  =       1 NORDER=       0 SCHWRZ=       T


 -----------------------------------------------
  STATISTICS ON AUTOMATIC COORDINATE GENERATION 
 -----------------------------------------------
  NUMBER OF USER SPECIFIED BONDS                             0
  NUMBER OF BONDS                                           12
  NUMBER OF ANGLES                                          18
  NUMBER OF TORSIONS                                        24
  NUMBER OF EXTRA COORD.                                     0
  NUMBER OF EXTRA COORD. FOR CONSTRAINTS                     0
  NUMBER OF CONSTRAINED COORD.                               0

  TOTAL NUMBER OF PRIMITIVES                                54
 -----------------------------------------------

   --- ENCODED Z MATRIX ---
 COORD  TYPE   I   J   K   L   M   N
    1      1    1   5
    2      1    1   3
    3      1    1   9
    4      1    2   6
    5      1    2  10
    6      1    2   4
    7      1    3   4
    8      1    3  11
    9      1    4  12
   10      1    5   7
   11      1    5   6
   12      1    6   8
   13      2    1   3  11
   14      2    1   5   7
   15      2    1   3   4
   16      2    1   5   6
   17      2    2   4   3
   18      2    2   4  12
   19      2    2   6   8
   20      2    2   6   5
   21      2    3   1   9
   22      2    3   1   5
   23      2    3   4  12
   24      2    4   3  11
   25      2    4   2  10
   26      2    4   2   6
   27      2    5   6   8
   28      2    5   1   9
   29      2    6   5   7
   30      2    6   2  10
   31      3    1   3   4   2
   32      3    1   5   6   8
   33      3    1   5   6   2
   34      3    1   3   4  12
   35      3    2   6   5   7
   36      3    2   4   3  11
   37      3    3   4   2  10
   38      3    3   4   2   6
   39      3    3   1   5   7
   40      3    3   1   5   6
   41      3    4   3   1   9
   42      3    4   2   6   5
   43      3    4   3   1   5
   44      3    4   2   6   8
   45      3    5   6   2  10
   46      3    5   1   3  11
   47      3    6   5   1   9
   48      3    6   2   4  12
   49      3    7   5   6   8
   50      3    7   5   1   9
   51      3    8   6   2  10
   52      3    9   1   3  11
   53      3   10   2   4  12
   54      3   11   3   4  12

          INDEP./SYM. INTERNAL COORDINATES
          --------------------------------
 CRD  1=  -0.3419 ( 11)  0.4046 ( 14)  0.4047 ( 19) -0.4943 ( 27) -0.4943 ( 29)
 CRD  2=  -0.3429 (  1) -0.2032 (  2)  0.3429 (  4)  0.2032 (  6) -0.1336 ( 13)
          -0.3918 ( 14)  0.1336 ( 18)  0.3917 ( 19)  0.1206 ( 22) -0.1037 ( 23)
           0.1037 ( 24) -0.1207 ( 26) -0.3011 ( 27) -0.1668 ( 28)  0.3012 ( 29)
           0.1668 ( 30)
 CRD  3=  -0.2640 (  1)  0.1361 (  2) -0.2640 (  4)  0.1363 (  6)  0.4408 (  7)
           0.1165 (  8)  0.1165 (  9) -0.1276 ( 10) -0.1809 ( 11) -0.1276 ( 12)
          -0.1270 ( 13) -0.1470 ( 14) -0.1152 ( 15)  0.1105 ( 16) -0.1153 ( 17)
          -0.1269 ( 18) -0.1470 ( 19)  0.1105 ( 20)  0.2668 ( 21)  0.2422 ( 23)
           0.2423 ( 24)  0.2669 ( 25) -0.2715 ( 28) -0.2716 ( 30)
 CRD  4=  -0.1467 (  1)  0.3981 (  2)  0.1466 (  4) -0.3982 (  6)  0.1213 ( 10)
          -0.1214 ( 12)  0.1864 ( 13) -0.1232 ( 16) -0.1866 ( 18)  0.1233 ( 20)
           0.3039 ( 21)  0.2540 ( 23) -0.2538 ( 24) -0.3038 ( 25) -0.1456 ( 27)
          -0.2486 ( 28)  0.1456 ( 29)  0.2486 ( 30)
 CRD  5=  -0.2278 (  2)  0.2214 (  3)  0.2214 (  5) -0.2277 (  6)  0.2795 (  7)
          -0.1302 (  8) -0.1303 (  9)  0.2273 ( 11) -0.2789 ( 13)  0.1596 ( 15)
           0.1267 ( 16)  0.1597 ( 17) -0.2789 ( 18)  0.1265 ( 20) -0.2863 ( 22)
           0.1191 ( 23)  0.1192 ( 24) -0.2863 ( 26)  0.2905 ( 28)  0.2905 ( 30)
 CRD  6=  -0.3477 (  1) -0.3467 (  2) -0.2149 (  3) -0.3478 (  4) -0.2150 (  5)
          -0.3467 (  6) -0.3467 (  7) -0.2140 (  8) -0.2141 (  9) -0.2149 ( 10)
          -0.3481 ( 11) -0.2148 ( 12)
 CRD  7=   0.1241 (  1) -0.1239 (  4)  0.2526 (  8) -0.2524 (  9) -0.2132 ( 10)
           0.2134 ( 12)  0.2834 ( 13) -0.1932 ( 14) -0.3335 ( 15)  0.3018 ( 16)
           0.3334 ( 17) -0.2835 ( 18)  0.1932 ( 19) -0.3019 ( 20)  0.1530 ( 21)
          -0.1532 ( 25)  0.1087 ( 27) -0.1205 ( 28) -0.1087 ( 29)  0.1204 ( 30)
 CRD  8=   0.1044 (  1) -0.1331 (  2) -0.1821 (  3)  0.1044 (  4) -0.1820 (  5)
          -0.1330 (  6)  0.1366 (  7) -0.2576 ( 13)  0.1074 ( 14) -0.1207 ( 15)
          -0.1256 ( 16) -0.1208 ( 17) -0.2574 ( 18)  0.1073 ( 19) -0.1254 ( 20)
          -0.3059 ( 21)  0.2463 ( 22)  0.3782 ( 23)  0.3782 ( 24) -0.3057 ( 25)
           0.2462 ( 26)
 CRD  9=  -0.2565 ( 31) -0.3539 ( 32) -0.3135 ( 33) -0.1865 ( 34) -0.3539 ( 35)
          -0.1865 ( 36)  0.1246 ( 37)  0.1138 ( 38)  0.2116 ( 39)  0.1711 ( 40)
           0.1247 ( 41)  0.1711 ( 42)  0.1138 ( 43)  0.2115 ( 44)  0.1603 ( 45)
           0.1603 ( 47) -0.3943 ( 49)  0.2007 ( 50)  0.2007 ( 51) -0.1165 ( 54)
 CRD 10=   0.1728 ( 32) -0.1728 ( 35)  0.2432 ( 38)  0.4158 ( 39)  0.2430 ( 40)
          -0.2431 ( 42) -0.2433 ( 43) -0.4159 ( 44) -0.3093 ( 46)  0.3093 ( 48)
           0.2344 ( 50) -0.2345 ( 51) -0.1279 ( 52)  0.1279 ( 53)
 CRD 11=  -0.3151 (  3)  0.3151 (  5)  0.3157 (  8) -0.3157 (  9)  0.3147 ( 10)
          -0.3147 ( 12)  0.1061 ( 13)  0.1057 ( 14) -0.2122 ( 15) -0.2115 ( 16)
           0.2122 ( 17) -0.1061 ( 18) -0.1057 ( 19)  0.2115 ( 20) -0.1060 ( 21)
           0.2118 ( 22) -0.1061 ( 23)  0.1061 ( 24)  0.1060 ( 25) -0.2119 ( 26)
          -0.1059 ( 27) -0.1058 ( 28)  0.1059 ( 29)  0.1058 ( 30)
 CRD 12=   0.3146 ( 32) -0.2293 ( 34) -0.3146 ( 35)  0.2293 ( 36) -0.3537 ( 37)
          -0.1673 ( 38)  0.1475 ( 39) -0.1671 ( 40)  0.3536 ( 41)  0.1671 ( 42)
           0.1672 ( 43) -0.1474 ( 44)  0.3535 ( 45) -0.3535 ( 47)  0.1243 ( 52)
          -0.1244 ( 53)
 CRD 13=  -0.2898 ( 31)  0.1118 ( 32) -0.2985 ( 34)  0.1117 ( 35) -0.2984 ( 36)
           0.2227 ( 37)  0.2138 ( 38) -0.1875 ( 39)  0.2228 ( 41)  0.2138 ( 43)
          -0.1876 ( 44)  0.2224 ( 46)  0.2224 ( 48)  0.2374 ( 49) -0.1965 ( 50)
          -0.1965 ( 51)  0.2314 ( 52)  0.2314 ( 53) -0.3071 ( 54)
 CRD 14=  -0.2203 (  1) -0.3946 (  3)  0.2203 (  4)  0.3947 (  5) -0.1367 (  8)
           0.1368 (  9) -0.2576 ( 10)  0.2575 ( 12)  0.2574 ( 14) -0.2574 ( 19)
           0.1234 ( 21) -0.1234 ( 25)  0.2928 ( 27) -0.1840 ( 28) -0.2928 ( 29)
           0.1840 ( 30)
 CRD 15=  -0.3727 (  8) -0.3727 (  9)  0.4406 ( 10)  0.2006 ( 11)  0.4407 ( 12)
          -0.1109 ( 13)  0.1018 ( 14) -0.1110 ( 18)  0.1018 ( 19)  0.2270 ( 21)
           0.2270 ( 25) -0.2235 ( 28) -0.2236 ( 30)
 CRD 16=  -0.1079 (  1)  0.2672 (  3)  0.1078 (  4) -0.2672 (  5)  0.2582 (  8)
          -0.2582 (  9) -0.3487 ( 13)  0.1542 ( 14)  0.3487 ( 18) -0.1542 ( 19)
           0.1920 ( 21) -0.3208 ( 23)  0.3208 ( 24) -0.1920 ( 25)  0.1293 ( 27)
          -0.1950 ( 28) -0.1293 ( 29)  0.1950 ( 30)
 CRD 17=  -0.1809 (  1) -0.1326 (  2) -0.4300 (  3) -0.1809 (  4) -0.4300 (  5)
          -0.1325 (  6)  0.2733 (  7)  0.2912 (  8)  0.2913 (  9)  0.1388 ( 10)
           0.3536 ( 11)  0.1388 ( 12) -0.1089 ( 22) -0.1456 ( 23) -0.1456 ( 24)
          -0.1089 ( 26)
 CRD 18=   0.2276 (  1) -0.2309 (  2) -0.2276 (  4)  0.2309 (  6) -0.3466 (  8)
           0.3465 (  9)  0.3676 ( 10) -0.3675 ( 12) -0.1029 ( 15)  0.1036 ( 16)
           0.1029 ( 17) -0.1037 ( 20)  0.2198 ( 21) -0.1064 ( 23)  0.1065 ( 24)
          -0.2198 ( 25) -0.2204 ( 28)  0.2203 ( 30)
 CRD 19=   0.2146 (  1)  0.2146 (  2) -0.3473 (  3)  0.2146 (  4) -0.3473 (  5)
           0.2146 (  6)  0.2147 (  7) -0.3474 (  8) -0.3474 (  9) -0.3471 ( 10)
           0.2145 ( 11) -0.3471 ( 12)
 CRD 20=  -0.2376 ( 32) -0.3188 ( 34)  0.2376 ( 35)  0.3188 ( 36) -0.1837 ( 39)
           0.1837 ( 44) -0.3727 ( 46)  0.3727 ( 48) -0.2996 ( 50)  0.2996 ( 51)
          -0.2568 ( 52)  0.2568 ( 53)
 CRD 21=   0.3270 (  1) -0.2845 (  2)  0.3270 (  4) -0.2845 (  6)  0.4227 (  7)
           0.1177 ( 10) -0.5081 ( 11)  0.1177 ( 12)  0.1387 ( 13) -0.1397 ( 14)
           0.1387 ( 18) -0.1397 ( 19) -0.1270 ( 23) -0.1270 ( 24)
 CRD 22=   0.3231 (  1)  0.2766 (  2) -0.2993 (  3) -0.3231 (  4)  0.2992 (  5)
          -0.2765 (  6) -0.1220 (  8)  0.1220 (  9) -0.1792 ( 10)  0.1792 ( 12)
          -0.1982 ( 13)  0.1982 ( 18)  0.1038 ( 21) -0.1319 ( 22) -0.2416 ( 23)
           0.2416 ( 24) -0.1039 ( 25)  0.1319 ( 26) -0.1895 ( 27)  0.1895 ( 29)
 CRD 23=  -0.1020 ( 32)  0.1257 ( 33)  0.1443 ( 34) -0.1020 ( 35)  0.1444 ( 36)
           0.3210 ( 37)  0.1408 ( 39)  0.3210 ( 41)  0.1408 ( 44) -0.3986 ( 45)
          -0.1055 ( 46) -0.3986 ( 47) -0.1055 ( 48) -0.3297 ( 49) -0.1710 ( 50)
          -0.1709 ( 51)  0.2062 ( 52)  0.2062 ( 53)  0.2591 ( 54)
 CRD 24=  -0.2637 (  1)  0.2847 (  2) -0.2638 (  4)  0.2847 (  6)  0.1952 (  7)
          -0.2199 (  8) -0.2199 (  9)  0.2447 ( 10) -0.2381 ( 11)  0.2448 ( 12)
           0.1163 ( 13) -0.1326 ( 14)  0.1188 ( 16)  0.1163 ( 18) -0.1326 ( 19)
           0.1188 ( 20) -0.2515 ( 21) -0.2515 ( 25)  0.2721 ( 28)  0.2721 ( 30)
 CRD 25=  -0.2602 (  3)  0.2602 (  5)  0.2587 (  8) -0.2586 (  9)  0.2596 ( 10)
          -0.2596 ( 12) -0.1292 ( 13) -0.1291 ( 14)  0.2568 ( 15)  0.2575 ( 16)
          -0.2568 ( 17)  0.1292 ( 18)  0.1291 ( 19) -0.2575 ( 20)  0.1283 ( 21)
          -0.2577 ( 22)  0.1276 ( 23) -0.1276 ( 24) -0.1283 ( 25)  0.2577 ( 26)
           0.1284 ( 27)  0.1294 ( 28) -0.1284 ( 29) -0.1294 ( 30)
 CRD 26=   0.1607 (  1)  0.1981 (  2) -0.2388 (  3)  0.1607 (  4) -0.2388 (  5)
           0.1981 (  6) -0.4257 (  7)  0.1369 (  8)  0.1369 (  9)  0.1019 ( 10)
          -0.2919 ( 11)  0.1020 ( 12) -0.2412 ( 13) -0.1530 ( 14)  0.1332 ( 15)
           0.1118 ( 16)  0.1332 ( 17) -0.2412 ( 18) -0.1530 ( 19)  0.1119 ( 20)
           0.1351 ( 21) -0.2450 ( 22)  0.1080 ( 23)  0.1080 ( 24)  0.1351 ( 25)
          -0.2451 ( 26)  0.1099 ( 28)  0.1100 ( 30)
 CRD 27=   0.2899 (  1) -0.3364 (  2) -0.2899 (  4)  0.3364 (  6)  0.2098 (  8)
          -0.2098 (  9) -0.1920 ( 10)  0.1920 ( 12)  0.2153 ( 15) -0.2033 ( 16)
          -0.2153 ( 17)  0.2033 ( 20)  0.1762 ( 21)  0.2074 ( 23) -0.2074 ( 24)
          -0.1761 ( 25) -0.1497 ( 27) -0.1857 ( 28)  0.1497 ( 29)  0.1857 ( 30)
 CRD 28=   0.2391 ( 31)  0.3815 ( 33) -0.1872 ( 37)  0.1233 ( 39) -0.2265 ( 40)
          -0.1872 ( 41) -0.2265 ( 42)  0.1233 ( 44) -0.1230 ( 45)  0.2429 ( 46)
          -0.1230 ( 47)  0.2429 ( 48) -0.3181 ( 49)  0.2268 ( 50)  0.2268 ( 51)
           0.1395 ( 52)  0.1395 ( 53) -0.4142 ( 54)
 CRD 29=   0.1518 ( 32) -0.2231 ( 34) -0.1518 ( 35)  0.2231 ( 36)  0.1534 ( 37)
          -0.2575 ( 38) -0.1055 ( 39) -0.2573 ( 40) -0.1534 ( 41)  0.2574 ( 42)
           0.2576 ( 43)  0.1055 ( 44) -0.1536 ( 45)  0.1537 ( 47)  0.3055 ( 50)
          -0.3055 ( 51) -0.3766 ( 52)  0.3765 ( 53)
 CRD 30=   0.3545 ( 31) -0.2709 ( 33) -0.3336 ( 38)  0.2917 ( 40)  0.2918 ( 42)
          -0.3335 ( 43)  0.1507 ( 49) -0.2129 ( 50) -0.2129 ( 51)  0.2938 ( 52)
           0.2938 ( 53) -0.3127 ( 54)

 THE DETERMINANT OF THE G MATRIX IS 10**(   -19)


                     --------------------
                     INTERNAL COORDINATES
                     --------------------

                 - - ATOMS - -         COORDINATE      COORDINATE
 NO.   TYPE    I  J  K  L  M  N        (BOHR,RAD)       (ANG,DEG)
 ----------------------------------------------------------------
   1 STRETCH   1  5                     2.6136269       1.3830719
   2 STRETCH   1  3                     2.6125643       1.3825096
   3 STRETCH   1  9                     2.0407311       1.0799085
   4 STRETCH   2  6                     2.6135326       1.3830220
   5 STRETCH   2 10                     2.0409046       1.0800003
   6 STRETCH   2  4                     2.6124699       1.3824596
   7 STRETCH   3  4                     2.6119793       1.3822000
   8 STRETCH   3 11                     2.0409359       1.0800168
   9 STRETCH   4 12                     2.0409359       1.0800168
  10 STRETCH   5  7                     3.2805131       1.7359729
  11 STRETCH   5  6                     2.6168927       1.3848001
  12 STRETCH   6  8                     3.2805131       1.7359729
  13 BEND      1  3 11                  2.0940187     119.9784324
  14 BEND      1  5  7                  2.0946678     120.0156248
  15 BEND      1  3  4                  2.0951012     120.0404554
  16 BEND      1  5  6                  2.0937808     119.9648030
  17 BEND      2  4  3                  2.0950385     120.0368653
  18 BEND      2  4 12                  2.0940814     119.9820240
  19 BEND      2  6  8                  2.0947305     120.0192142
  20 BEND      2  6  5                  2.0937182     119.9612149
  21 BEND      3  1  9                  2.0943550     119.9977042
  22 BEND      3  1  5                  2.0943033     119.9947386
  23 BEND      3  4 12                  2.0940654     119.9811086
  24 BEND      4  3 11                  2.0940654     119.9811090
  25 BEND      4  2 10                  2.0942978     119.9944240
  26 BEND      4  2  6                  2.0944284     120.0019085
  27 BEND      5  6  8                  2.0947366     120.0195689
  28 BEND      5  1  9                  2.0945166     120.0069594
  29 BEND      6  5  7                  2.0947366     120.0195689
  30 BEND      6  2 10                  2.0944589     120.0036535
  31 TORSION   1  3  4  2              -0.0007520      -0.0430867
  32 TORSION   1  5  6  8              -3.1412258    -179.9789797
  33 TORSION   1  5  6  2               0.0000843       0.0048274
  34 TORSION   1  3  4 12               3.1411282     179.9733885
  35 TORSION   2  6  5  7              -3.1411423    -179.9741965
  36 TORSION   2  4  3 11               3.1411982     179.9774001
  37 TORSION   3  4  2 10              -3.1415922    -179.9999755
  38 TORSION   3  4  2  6               0.0007520       0.0430876
  39 TORSION   3  1  5  7               3.1411426     179.9742133
  40 TORSION   3  1  5  6              -0.0000840      -0.0048114
  41 TORSION   4  3  1  9               3.1371021     179.7427088
  42 TORSION   4  2  6  5              -0.0004180      -0.0239520
  43 TORSION   4  3  1  5               0.0004177       0.0239331
  44 TORSION   4  2  6  8               3.1408920     179.9598552
  45 TORSION   5  6  2 10              -3.1412590    -179.9808850
  46 TORSION   5  1  3 11              -3.1415325    -179.9965532
  47 TORSION   6  5  1  9              -3.1367679    -179.7235609
  48 TORSION   6  2  4 12              -3.1411282    -179.9733878
  49 TORSION   7  5  6  8               0.0007330       0.0419963
  50 TORSION   7  5  1  9               0.0044587       0.2554639
  51 TORSION   8  6  2 10               0.0000510       0.0029222
  52 TORSION   9  1  3 11              -0.0048481      -0.2777776
  53 TORSION  10  2  4 12              -0.0002871      -0.0164508
  54 TORSION  11  3  4 12              -0.0001069      -0.0061246

     ------------------------------------------
     THE POINT GROUP IS C1 , NAXIS= 1, ORDER= 1
     ------------------------------------------

     DIMENSIONS OF THE SYMMETRY SUBSPACES ARE
 A   =  192

 ..... DONE SETTING UP THE RUN .....
 STEP CPU TIME =     0.00 TOTAL CPU TIME =        0.0 (    0.0 MIN)
 TOTAL WALL CLOCK TIME=        0.0 SECONDS, CPU UTILIZATION IS   0.00%


          -----------------------------
          STATIONARY POINT LOCATION RUN
          -----------------------------

 OBTAINING INITIAL HESSIAN, HESS=GUESS   
 DIAGONAL GUESS HESSIAN IN INTERNAL COORDS IS
     1  0.4886     2  0.4891     3  0.3532     4  0.4886     5  0.3532
     6  0.4891     7  0.4894     8  0.3532     9  0.3532    10  0.3773
    11  0.4869    12  0.3773    13  0.2338    14  0.2701    15  0.2706
    16  0.2704    17  0.2706    18  0.2338    19  0.2701    20  0.2704
    21  0.2338    22  0.2705    23  0.2338    24  0.2338    25  0.2338
    26  0.2706    27  0.2699    28  0.2337    29  0.2699    30  0.2337
    31  0.2500    32  0.2500    33  0.2500    34  0.2500    35  0.2500
    36  0.2500    37  0.2500    38  0.2500    39  0.2500    40  0.2500
    41  0.2500    42  0.2500    43  0.2500    44  0.2500    45  0.2500
    46  0.2500    47  0.2500    48  0.2500    49  0.2500    50  0.2500
    51  0.2500    52  0.2500    53  0.2500    54  0.2500
 TRANSFORMING HESSIAN TO SYMMETRY COORDINATES

          PARAMETERS CONTROLLING GEOMETRY SEARCH ARE
          METHOD =QA                  UPHESS =BFGS    
          NNEG   =         0          NFRZ   =         3
          NSTEP  =        50          IFOLOW =         1
          HESS   =GUESS               RESTAR =         F
          IHREP  =         0          HSSEND =         F
          NPRT   =         0          NPUN   =         0
          OPTTOL = 5.000E-04          RMIN   = 1.500E-03
          RMAX   = 1.000E-01          RLIM   = 7.000E-02
          DXMAX  = 3.000E-01          PURIFY =         F
          MOVIE  =         F          TRUPD  =         T
          TRMAX  = 5.000E-01          TRMIN  = 5.000E-02
          ITBMAT =         5          STPT   =         F
          STSTEP = 1.000E-02          PROJCT=          F
          FROZEN COORD(S)=   1   2   3


      ***** EQUILIBRIUM GEOMETRY LOCATED *****
            (SUBJECT TO   3 CONSTRAINT(S))
 COORDINATES OF ALL ATOMS ARE (ANGS)
   ATOM   CHARGE       X              Y              Z
 ------------------------------------------------------------
 C           6.0   1.2768961940  -1.3888634827   0.0000419015
 C           6.0   1.2768945644   1.3888374452  -0.0002498641
 C           6.0   2.4727326106  -0.6926026974   0.0001384185
 C           6.0   2.4727314375   0.6925802618   0.0000643082
 C           6.0   0.0788413006  -0.6920279131  -0.0000844191
 C           6.0   0.0788431264   0.6920006410  -0.0001026473
 CL         17.0  -1.4301060481  -1.5625383685  -0.0000133265
 CL         17.0  -1.4300915149   1.5625310119   0.0000456212
 H           1.0   1.2733390519  -2.4624301083  -0.0017818223
 H           1.0   1.2733341058   2.4624057282  -0.0003038081
 H           1.0   3.4039345608  -1.2289639443   0.0004724191
 H           1.0   3.4039249191   1.2289547790   0.0001730643


                     --------------------
                     INTERNAL COORDINATES
                     --------------------

                 - - ATOMS - -         COORDINATE      COORDINATE
 NO.   TYPE    I  J  K  L  M  N        (BOHR,RAD)       (ANG,DEG)
 ----------------------------------------------------------------
   1 STRETCH   1  5                     2.6191052       1.3859709
   2 STRETCH   1  3                     2.6149355       1.3837644
   3 STRETCH   1  9                     2.0287608       1.0735741
   4 STRETCH   2  6                     2.6191008       1.3859685
   5 STRETCH   2 10                     2.0287610       1.0735742
   6 STRETCH   2  4                     2.6149329       1.3837630
   7 STRETCH   3  4                     2.6176162       1.3851830
   8 STRETCH   3 11                     2.0307483       1.0746258
   9 STRETCH   4 12                     2.0307468       1.0746250
  10 STRETCH   5  7                     3.2919822       1.7420421
  11 STRETCH   5  6                     2.6154347       1.3840286
  12 STRETCH   6  8                     3.2919802       1.7420410
  13 BEND      1  3 11                  2.0917597     119.8490009
  14 BEND      1  5  7                  2.0915228     119.8354318
  15 BEND      1  3  4                  2.0980519     120.2095192
  16 BEND      1  5  6                  2.0976044     120.1838810
  17 BEND      2  4  3                  2.0980512     120.2094781
  18 BEND      2  4 12                  2.0917475     119.8483015
  19 BEND      2  6  8                  2.0915073     119.8345403
  20 BEND      2  6  5                  2.0976091     120.1841481
  21 BEND      3  1  9                  2.1013654     120.3993698
  22 BEND      3  1  5                  2.0875268     119.6064754
  23 BEND      3  4 12                  2.0933867     119.9422202
  24 BEND      4  3 11                  2.0933737     119.9414788
  25 BEND      4  2 10                  2.1013668     120.3994487
  26 BEND      4  2  6                  2.0875271     119.6064951
  27 BEND      5  6  8                  2.0940689     119.9813116
  28 BEND      5  1  9                  2.0942914     119.9940561
  29 BEND      6  5  7                  2.0940580     119.9806867
  30 BEND      6  2 10                  2.0942913     119.9940536
  31 TORSION   1  3  4  2              -0.0001197      -0.0068588
  32 TORSION   1  5  6  8              -3.1413890    -179.9883325
  33 TORSION   1  5  6  2               0.0002130       0.0122039
  34 TORSION   1  3  4 12               3.1415569     179.9979518
  35 TORSION   2  6  5  7              -3.1415169    -179.9956625
  36 TORSION   2  4  3 11              -3.1414964    -179.9944830
  37 TORSION   3  4  2 10               3.1415880     179.9997328
  38 TORSION   3  4  2  6               0.0003215       0.0184185
  39 TORSION   3  1  5  7              -3.1414649    -179.9926803
  40 TORSION   3  1  5  6              -0.0000093      -0.0005352
  41 TORSION   4  3  1  9               3.1395615     179.8836259
  42 TORSION   4  2  6  5              -0.0003680      -0.0210871
  43 TORSION   4  3  1  5              -0.0000373      -0.0021386
  44 TORSION   4  2  6  8               3.1412340     179.9794485
  45 TORSION   5  6  2 10               3.1415494     179.9975219
  46 TORSION   5  1  3 11               3.1413395     179.9854971
  47 TORSION   6  5  1  9              -3.1396164    -179.8867690
  48 TORSION   6  2  4 12              -3.1413551    -179.9863876
  49 TORSION   7  5  6  8               0.0000663       0.0038011
  50 TORSION   7  5  1  9               0.0021133       0.1210859
  51 TORSION   8  6  2 10              -0.0000339      -0.0019426
  52 TORSION   9  1  3 11              -0.0022469      -0.1287384
  53 TORSION  10  2  4 12              -0.0000885      -0.0050733
  54 TORSION  11  3  4 12               0.0001803       0.0103276

          INTERNUCLEAR DISTANCES (ANGS.)


 =====================================================
   GAMESS/COSab RESULTS
 =====================================================

   Dielectric Constant                  = INFTY
   Basic Grid Size                      =                 1082
   Number of Segments                   =                   92
   Number of Segments located on spheres=                  262
   Number of Segments of the cavity     =                  519
   Solvent Radius (rsolv)               = 1.40
   Outlying Charge Error Method         = double cavity

 =====================================================

  Total solvated Energy (a.u.)          = -1148.6047888985
  Total Energy corrected (a.u.)         = -1148.6049120163

  Outlying charge effect (a.u.)         =    -0.0001231177
  Outlying charge effect (kcal/mol)     =    -0.0772576007

  Dielectric Energy (a.u.)              =    -0.0083171632
  Dielectric energy corr. (a.u.)        =    -0.0084402809

  Sum of polarization charges           =     0.0218721708
  Sum of polarization charges(cor.)     =    -0.0218721708

  Total surface area of cavity (A**2)   =  156.44
  Total volume of cavity (A**3)         =  153.12

 =====================================================
 NPS=                   519
NR.  ATOM  (X, Y, Z)(a.u.)                  CHARGE(e)  AREA(A**2) SIGMA(e/A**2)
   1   1   2.514419  -1.632829  -3.645531   0.000407   0.092912   0.004385
   2   1   1.284307  -4.081688  -3.299500   0.000150   0.139368   0.001077
   3   1   3.948084  -4.726147  -2.740577   0.000214   0.278737   0.000768
   4   1   2.315614  -4.269725   3.401285   0.000474   0.371649   0.001277
   5   1   2.268300  -5.181370   2.779662  -0.000088   0.371649  -0.000238
   6   1   4.553933  -5.304957   1.586319  -0.000435   0.092912  -0.004677
   7   1   4.221997  -5.274329  -1.997570  -0.000302   0.278737  -0.001084
   8   1   1.521224  -5.036746  -2.769488  -0.000162   0.232280  -0.000698
   9   1   1.961732  -4.437490  -3.285348   0.000250   0.232280   0.001076
  10   1   3.181143  -4.501282  -3.189315   0.000302   0.232280   0.001299
  11   1   4.221388  -5.108991   2.200444  -0.000274   0.185824  -0.001477
  12   1   3.530410  -4.476068   3.099685   0.000802   0.418105   0.001918
  13   1   1.340296  -4.665761   2.994591   0.000156   0.185824   0.000837
  14   1   1.675591  -3.383709  -3.628183   0.000810   0.325193   0.002492
  15   1   2.055325  -2.329555  -3.750836   0.000960   0.232280   0.004131
  16   1   2.805401  -2.616659  -3.758947   0.001231   0.232280   0.005298
  17   1   3.490808  -3.628637  -3.480509   0.000798   0.278737   0.002863
  18   1   3.004317  -3.286313   3.673855   0.001870   0.511017   0.003659
  19   1   1.575557  -3.421516   3.598382   0.000947   0.418105   0.002264
  20   1   3.463674  -5.164779   2.593851  -0.000146   0.232280  -0.000628
  21   1   2.656224  -5.085531  -2.858041  -0.000089   0.325193  -0.000273
  22   1   1.307174  -5.320811   2.406676  -0.000420   0.092912  -0.004525
  23   1   2.360597  -2.087953   3.740865   0.002153   0.464561   0.004634
  24   1   2.613041  -3.685866  -3.621794   0.000659   0.278737   0.002364
  25   2   2.516823   1.639142   3.646785   0.000406   0.092912   0.004375
  26   2   1.286491   4.087398   3.297286   0.000152   0.139368   0.001088
  27   2   3.949899   4.730866   2.735473   0.000214   0.278737   0.000768
  28   2   2.313358   4.263709  -3.404499   0.000474   0.371649   0.001275
  29   2   2.266460   5.176440  -2.784440  -0.000091   0.371649  -0.000244
  30   2   4.552883   5.302104  -1.592830  -0.000436   0.092912  -0.004690
  31   2   4.223322   5.277746   1.991327  -0.000303   0.278737  -0.001086
  32   2   1.523060   5.041526   2.765448  -0.000160   0.232280  -0.000690
  33   2   1.963907   4.443172   3.282063   0.000251   0.232280   0.001079
  34   2   3.183255   4.506790   3.185111   0.000302   0.232280   0.001299
  35   2   4.219931   5.105065  -2.206391  -0.000272   0.185824  -0.001466
  36   2   3.528355   4.470573  -3.104065   0.000804   0.418105   0.001923
  37   2   1.338311   4.660460  -2.997852   0.000155   0.185824   0.000832
  38   2   1.677990   3.389993   3.626931   0.000811   0.325193   0.002492
  39   2   2.057801   2.336053   3.751175   0.000962   0.232280   0.004140
  40   2   2.807883   2.623168   3.758287   0.001230   0.232280   0.005296
  41   2   3.493110   3.634654   3.477626   0.000796   0.278737   0.002855
  42   2   3.001878   3.279818  -3.675805   0.001869   0.511017   0.003657
  43   2   1.573168   3.415160  -3.599622   0.000945   0.418105   0.002261
  44   2   3.461956   5.160168  -2.599392  -0.000147   0.232280  -0.000631
  45   2   2.658118   5.090461   2.853164  -0.000087   0.325193  -0.000268
  46   2   1.305582   5.316538  -2.411062  -0.000422   0.092912  -0.004539
  47   2   2.358109   2.081346  -3.740292   0.002153   0.464561   0.004634
  48   2   2.615436   3.692134   3.619392   0.000658   0.278737   0.002360
  49   3   3.913886  -0.802883   3.668010   0.000746   0.139368   0.005355
  50   3   7.030034  -0.824243   2.914504   0.000799   0.325193   0.002456
  51   3   5.721952  -3.695284   2.736755   0.000372   0.278737   0.001336
  52   3   6.141819  -2.045708  -3.403145   0.000787   0.371649   0.002116
  53   3   6.954521  -2.463287  -2.782747   0.000188   0.371649   0.000505
  54   3   5.914999  -4.503780  -1.591429  -0.000159   0.092912  -0.001714
  55   3   6.057973  -4.206326   1.992767   0.000049   0.278737   0.000177
  56   3   7.460145  -1.524247   2.543582   0.000010   0.278737   0.000036
  57   3   8.173747  -0.742490  -1.306158  -0.000101   0.092912  -0.001088
  58   3   7.882182  -0.774551   1.923424  -0.000340   0.185824  -0.001831
  59   3   6.575504  -1.770581   3.233019   0.000623   0.325193   0.001915
  60   3   5.912820  -2.919723   3.186425   0.000431   0.232280   0.001855
  61   3   5.911959  -4.116941  -2.205012  -0.000175   0.185824  -0.000941
  62   3   5.710708  -3.200358  -3.102815   0.001024   0.418105   0.002449
  63   3   7.017145  -1.103298  -2.957092   0.000668   0.371649   0.001798
  64   3   7.797675  -0.777961  -2.058244   0.000243   0.185824   0.001310
  65   3   5.860674  -1.044572   3.578440   0.001310   0.325193   0.004029
  66   3   4.793953  -0.982870   3.763685   0.000927   0.232280   0.003992
  67   3   4.471923  -1.649497   3.758971   0.001359   0.232280   0.005850
  68   3   5.002873  -2.749898   3.478576   0.000872   0.278737   0.003127
  69   3   4.945354  -2.147314  -3.674910   0.002099   0.511017   0.004108
  70   3   5.779565  -0.979588  -3.598467   0.001504   0.418105   0.003598
  71   3   6.340259  -3.489068  -2.597882   0.000124   0.232280   0.000533
  72   3   6.681363  -2.758554   2.854767   0.000252   0.325193   0.000775
  73   3   8.181793  -0.602243   1.213448  -0.000086   0.092912  -0.000929
  74   3   7.595964  -1.472665  -2.389801  -0.000106   0.185824  -0.000570
  75   3   4.232007  -0.988925  -3.739738   0.002507   0.464561   0.005397
  76   3   5.493108  -2.019663   3.620494   0.000810   0.278737   0.002906
  77   4   3.915411   0.803192  -3.667978   0.000746   0.139368   0.005354
  78   4   7.031246   0.824529  -2.913177   0.000799   0.325193   0.002457
  79   4   5.723041   3.695530  -2.735680   0.000372   0.278737   0.001334
  80   4   6.140388   2.045339   3.404226   0.000786   0.371649   0.002116
  81   4   6.953341   2.462995   2.784208   0.000187   0.371649   0.000503
  82   4   5.914278   4.503591   1.592665  -0.000159   0.092912  -0.001711
  83   4   6.058744   4.206502  -1.991501   0.000050   0.278737   0.000179
  84   4   7.461191   1.524503  -2.542006   0.000011   0.278737   0.000039
  85   4   8.173209   0.742368   1.307951  -0.000102   0.092912  -0.001093
  86   4   7.882984   0.774752  -1.921749  -0.000340   0.185824  -0.001829
  87   4   6.576832   1.770892  -3.231785   0.000623   0.325193   0.001916
  88   4   5.914109   2.920018  -3.185349   0.000431   0.232280   0.001855
  89   4   5.910990   4.116689   2.206208  -0.000175   0.185824  -0.000940
  90   4   5.709383   3.200012   3.103835   0.001024   0.418105   0.002450
  91   4   7.015916   1.102990   2.958441   0.000668   0.371649   0.001797
  92   4   7.796824   0.777757   2.059885   0.000243   0.185824   0.001309
  93   4   5.862157   1.044905  -3.577576   0.001310   0.325193   0.004030
  94   4   4.795515   0.983204  -3.763270   0.000928   0.232280   0.003995
  95   4   4.473471   1.649825  -3.758622   0.001359   0.232280   0.005850
  96   4   5.004286   2.750206  -3.477895   0.000871   0.278737   0.003125
  97   4   4.943809   2.146896   3.675505   0.002099   0.511017   0.004107
  98   4   5.778071   0.979193   3.599290   0.001504   0.418105   0.003598
  99   4   6.339137   3.488783   2.599192   0.000124   0.232280   0.000533
 100   4   6.682516   2.758829  -2.853389   0.000253   0.325193   0.000777
 101   4   8.182303   0.602377  -1.211666  -0.000086   0.092912  -0.000927
 102   4   7.594963   1.472423   2.391428  -0.000106   0.185824  -0.000573
 103   4   4.230455   0.988489   3.739920   0.002507   0.464561   0.005396
 104   4   5.494592   2.019995  -3.619683   0.000810   0.278737   0.002906
 105   5  -0.759416  -0.799943  -3.633505  -0.000069   0.139368  -0.000498
 106   5   0.044752  -2.130452  -3.687504   0.000334   0.232280   0.001440
 107   5  -0.318687  -1.368730  -3.750067   0.000399   0.185824   0.002146
 108   5   0.188595  -0.834168  -3.749614   0.000397   0.139368   0.002852
 109   5   0.775548  -0.991282   3.713538   0.001431   0.371649   0.003850
 110   5   0.016015  -2.070827   3.699067   0.000600   0.325193   0.001845
 111   5  -0.579379  -0.897604   3.685698   0.000228   0.371649   0.000613
 112   5   0.787375  -1.212763  -3.724093   0.000914   0.232280   0.003934
 113   6  -0.759331   0.799908   3.633162  -0.000001   0.139368  -0.000009
 114   6   0.044844   2.130414   3.687145   0.000340   0.232280   0.001462
 115   6  -0.318597   1.368693   3.749715   0.000400   0.185824   0.002152
 116   6   0.188683   0.834129   3.749252   0.000409   0.139368   0.002933
 117   6   0.775486   0.991241  -3.713912   0.001300   0.371649   0.003499
 118   6   0.015958   2.070788  -3.699426   0.000606   0.325193   0.001862
 119   6  -0.579441   0.897568  -3.686045   0.000392   0.371649   0.001055
 120   6   0.787464   1.212722   3.723720   0.000827   0.232280   0.003562
 121   7  -6.112526  -4.790930   0.018854  -0.003116   0.536887  -0.005804
 122   7  -5.336840  -1.859318  -2.621482   0.002657   0.488079   0.005443
 123   7  -5.986215  -1.514804   1.468602   0.001348   0.292848   0.004604
 124   7  -4.214261  -3.951378   3.424120   0.002463   0.488079   0.005045
 125   7  -2.688896  -6.713961   0.927724   0.002409   0.488079   0.004936
 126   7  -3.236796  -5.389967  -2.963480   0.002321   0.439271   0.005283
 127   7  -6.243329  -3.998395  -1.173337  -0.002123   0.585695  -0.003624
 128   7  -5.998652  -2.867291  -2.033622   0.000567   0.536887   0.001057
 129   7  -6.511313  -3.540305   0.393917  -0.002027   0.536887  -0.003775
 130   7  -6.423606  -2.356137   0.897095   0.000354   0.439271   0.000806
 131   7  -5.830980  -4.731765   1.433588  -0.002181   0.585695  -0.003724
 132   7  -5.033369  -4.661296   2.579787   0.000472   0.536887   0.000880
 133   7  -5.250788  -5.837684   0.436985  -0.002295   0.536887  -0.004275
 134   7  -4.089273  -6.516450   0.620068   0.000069   0.488079   0.000141
 135   7  -5.419913  -5.493022  -1.081814  -0.002776   0.683311  -0.004063
 136   7  -4.468746  -5.641972  -2.157812   0.000436   0.585695   0.000744
 137   7  -5.976295  -1.557851  -1.531000   0.001629   0.341655   0.004768
 138   7  -6.298599  -1.513736   0.068287   0.000896   0.341655   0.002624
 139   7  -5.595851  -1.860583   2.333008   0.002231   0.536887   0.004155
 140   7  -5.041541  -2.985908   3.087886   0.002661   0.585695   0.004543
 141   7  -3.643502  -5.246552   2.976636   0.002786   0.585695   0.004757
 142   7  -3.171525  -6.210339   2.043430   0.002567   0.585695   0.004382
 143   7  -2.782720  -6.808286  -0.368852   0.002431   0.536887   0.004529
 144   7  -3.036689  -6.327998  -1.871822   0.002696   0.585695   0.004604
 145   7  -4.096545  -4.517906  -3.258007   0.003014   0.634503   0.004749
 146   7  -4.918834  -3.151568  -3.171111   0.002938   0.634503   0.004630
 147   7  -3.027640  -1.634631   3.628218   0.001923   0.488079   0.003941
 148   7  -3.520314  -2.764009   3.781896   0.003724   0.585695   0.006358
 149   7  -2.832921  -4.206666   3.663052   0.003726   0.585695   0.006362
 150   7  -1.602361  -4.196332   3.500065   0.001981   0.439271   0.004510
 151   7  -1.213147  -5.309513   2.689770   0.001362   0.292848   0.004649
 152   7  -1.713056  -6.280573   1.718743   0.002820   0.439271   0.006421
 153   7  -1.629079  -6.671180   0.169219   0.002215   0.341655   0.006484
 154   7  -1.458644  -5.778121  -2.340465   0.002214   0.390463   0.005670
 155   7  -2.101025  -5.488705  -2.866157   0.002500   0.390463   0.006402
 156   7  -2.539185  -4.409160  -3.586067   0.003022   0.488079   0.006192
 157   7  -1.970936  -3.212596  -3.795380   0.002112   0.488079   0.004326
 158   7  -2.734897  -1.830236  -3.707621   0.001769   0.488079   0.003625
 159   7  -4.115827  -1.777747  -3.410193   0.003628   0.536887   0.006757
 160   7  -6.487742  -2.495884  -0.686050   0.000059   0.585695   0.000100
 161   7  -6.018906  -3.385241   1.954930  -0.000233   0.683311  -0.000341
 162   7  -4.582664  -5.834199   1.780370  -0.000240   0.585695  -0.000409
 163   7  -4.128124  -6.465831  -0.795940   0.000036   0.634503   0.000056
 164   7  -5.413341  -4.356807  -2.384870  -0.000129   0.585695  -0.000221
 165   7  -4.554728  -1.726858   3.173895   0.003092   0.439271   0.007038
 166   7  -2.170352  -5.493800   2.875284   0.003059   0.488079   0.006268
 167   7  -1.794772  -6.478313  -1.324424   0.002845   0.439271   0.006478
 168   7  -3.488159  -3.126506  -3.789483   0.004109   0.634503   0.006476
 169   7  -2.065345  -2.884815   3.820548   0.001884   0.488079   0.003860
 170   7  -1.412671  -4.341248  -3.378767   0.001380   0.341655   0.004040
 171   8  -6.112507   4.790918  -0.018288  -0.003117   0.536887  -0.005806
 172   8  -5.336605   1.859007   2.621652   0.002798   0.488079   0.005732
 173   8  -5.986331   1.514955  -1.468415   0.000946   0.292848   0.003230
 174   8  -4.214535   3.951742  -3.423811   0.002465   0.488079   0.005050
 175   8  -2.688947   6.714039  -0.927234   0.002410   0.488079   0.004937
 176   8  -3.236519   5.389610   2.963867   0.002321   0.439271   0.005283
 177   8  -6.243210   3.998250   1.173825  -0.002121   0.585695  -0.003621
 178   8  -5.998464   2.867049   2.033963   0.000606   0.536887   0.001129
 179   8  -6.511330   3.540336  -0.393458  -0.002015   0.536887  -0.003753
 180   8  -6.423670   2.356226  -0.896776   0.000278   0.439271   0.000634
 181   8  -5.831081   4.731912  -1.433052  -0.002177   0.585695  -0.003717
 182   8  -5.033569   4.661568  -2.579327   0.000474   0.536887   0.000882
 183   8  -5.250800   5.837716  -0.436375  -0.002295   0.536887  -0.004275
 184   8  -4.089299   6.516499  -0.619481   0.000069   0.488079   0.000141
 185   8  -5.419797   5.492884   1.082400  -0.002776   0.683311  -0.004063
 186   8  -4.468538   5.641710   2.158333   0.000436   0.585695   0.000744
 187   8  -5.976155   1.557665   1.531191   0.001333   0.341655   0.003902
 188   8  -6.298595   1.513731  -0.068074   0.001318   0.341655   0.003857
 189   8  -5.596040   1.860830  -2.332816   0.002837   0.536887   0.005284
 190   8  -5.041790   2.986237  -3.087614   0.002657   0.585695   0.004536
 191   8  -3.643734   5.246864  -2.976230   0.002786   0.585695   0.004757
 192   8  -3.171674   6.210545  -2.042956   0.002567   0.585695   0.004383
 193   8  -2.782660   6.808219   0.369360   0.002431   0.536887   0.004529
 194   8  -3.036503   6.327763   1.872298   0.002696   0.585695   0.004603
 195   8  -4.096246   4.517519   3.258370   0.003014   0.634503   0.004750
 196   8  -4.918548   3.151193   3.171391   0.002916   0.634503   0.004596
 197   8  -3.027940   1.635014  -3.628271   0.002209   0.488079   0.004526
 198   8  -3.520624   2.764411  -3.781780   0.003748   0.585695   0.006399
 199   8  -2.833216   4.207053  -3.662832   0.003726   0.585695   0.006361
 200   8  -1.602642   4.196696  -3.499952   0.001983   0.439271   0.004514
 201   8  -1.213354   5.309784  -2.689565   0.001361   0.292848   0.004647
 202   8  -1.713176   6.280737  -1.718386   0.002820   0.439271   0.006419
 203   8  -1.629066   6.671170  -0.168825   0.002214   0.341655   0.006481
 204   8  -1.458419   5.777828   2.340744   0.002215   0.390463   0.005672
 205   8  -2.100756   5.488355   2.866459   0.002500   0.390463   0.006402
 206   8  -2.538858   4.408731   3.586285   0.003022   0.488079   0.006191
 207   8  -1.970596   3.212141   3.795415   0.002106   0.488079   0.004314
 208   8  -2.734569   1.829793   3.707565   0.001866   0.488079   0.003824
 209   8  -4.115524   1.777343   3.410249   0.003468   0.536887   0.006460
 210   8  -6.487671   2.495794   0.686391   0.000007   0.585695   0.000012
 211   8  -6.019057   3.385447  -1.954530  -0.000289   0.683311  -0.000422
 212   8  -4.582791   5.834380  -1.779818  -0.000240   0.585695  -0.000410
 213   8  -4.128029   6.465721   0.796525   0.000035   0.634503   0.000056
 214   8  -5.413118   4.356523   2.385328  -0.000131   0.585695  -0.000223
 215   8  -4.554989   1.727196  -3.173806   0.002568   0.439271   0.005846
 216   8  -2.170574   5.494096  -2.874976   0.003059   0.488079   0.006267
 217   8  -1.794632   6.478135   1.324811   0.002847   0.439271   0.006481
 218   8  -3.487820   3.126058   3.789637   0.004119   0.634503   0.006491
 219   8  -2.065658   2.885217  -3.820543   0.001863   0.488079   0.003817
 220   8  -1.412363   4.340838   3.378881   0.001382   0.341655   0.004044
 221   9   2.702313  -7.074287   0.290425  -0.005126   0.471065  -0.010882
 222   9   1.877707  -6.398121  -1.649987  -0.003449   0.412182  -0.008367
 223   9   2.540110  -6.408952   1.709787  -0.003023   0.392554  -0.007701
 224   9   4.122727  -6.351092   0.450916  -0.002784   0.294415  -0.009456
 225   9   3.358380  -6.326418  -1.529562  -0.002536   0.353299  -0.007178
 226   9   1.569222  -6.942274  -0.311749  -0.004314   0.392554  -0.010991
 227   9   1.658934  -6.674534   1.176144  -0.004922   0.490692  -0.010031
 228   9   3.485260  -6.509085   1.191184  -0.003308   0.392554  -0.008428
 229   9   3.834136  -6.585194  -0.517262  -0.004542   0.471065  -0.009643
 230   9   2.563188  -6.902961  -0.977808  -0.003951   0.392554  -0.010066
 231  10   2.702128   7.073730  -0.298806  -0.005126   0.471065  -0.010882
 232  10   1.878806   6.400963   1.643331  -0.003447   0.412182  -0.008362
 233  10   2.538982   6.405914  -1.716895  -0.003025   0.392554  -0.007706
 234  10   4.122433   6.350248  -0.458974  -0.002784   0.294415  -0.009458
 235  10   3.359398   6.329042   1.522051  -0.002537   0.353299  -0.007180
 236  10   1.569436   6.942775   0.304348  -0.004314   0.392554  -0.010990
 237  10   1.658161   6.672433  -1.183133  -0.004923   0.490692  -0.010033
 238  10   3.484477   6.506949  -1.199094  -0.003309   0.392554  -0.008430
 239  10   3.834484   6.586045   0.508985  -0.004543   0.471065  -0.009643
 240  10   2.563842   6.904623   0.969816  -0.003950   0.392554  -0.010063
 241  11   8.585384  -3.504404  -0.054633  -0.006325   0.608459  -0.010395
 242  11   8.491231  -2.254494   1.339595  -0.002865   0.412182  -0.006950
 243  11   8.714997  -1.708467  -0.668708  -0.002826   0.353299  -0.007999
 244  11   7.850386  -3.272585  -1.765982  -0.002198   0.353299  -0.006222
 245  11   7.029345  -4.675000  -0.378851  -0.002859   0.333671  -0.008567
 246  11   7.288209  -4.103623   1.460403  -0.001943   0.333671  -0.005823
 247  11   8.854041  -2.047197   0.309910  -0.004367   0.490692  -0.008900
 248  11   8.517013  -2.630611  -1.262001  -0.003905   0.490692  -0.007959
 249  11   7.641549  -4.146004  -1.116156  -0.004063   0.510320  -0.007962
 250  11   7.556953  -4.450825   0.491372  -0.004353   0.490692  -0.008872
 251  11   8.149404  -3.316562   1.449693  -0.004451   0.549575  -0.008098
 252  12   8.585321   3.504418   0.056876  -0.006325   0.608459  -0.010395
 253  12   8.491768   2.254648  -1.337517  -0.002864   0.412182  -0.006949
 254  12   8.714709   1.708422   0.670823  -0.002826   0.353299  -0.008000
 255  12   7.849617   3.272413   1.767897  -0.002199   0.353299  -0.006223
 256  12   7.029127   4.674954   0.380568  -0.002859   0.333671  -0.008568
 257  12   7.288764   4.103768  -1.458637  -0.001943   0.333671  -0.005823
 258  12   8.854154   2.047252  -0.307703  -0.004367   0.490692  -0.008900
 259  12   8.516464   2.630502   1.264127  -0.003906   0.490692  -0.007960
 260  12   7.641035   4.145895   1.118073  -0.004064   0.510320  -0.007963
 261  12   7.557101   4.450877  -0.489459  -0.004353   0.490692  -0.008872
 262  12   8.149969   3.316721  -1.447649  -0.004450   0.549575  -0.008097
 263   1   2.411921  -0.905828  -3.380768   0.000195   0.048034   0.004064
 264   3   2.806032  -0.689050  -3.344887   0.000175   0.048034   0.003638
 265   5   2.017071  -0.688873  -3.344902   0.000138   0.048034   0.002878
 266   1   2.411287  -0.905748   3.380867   0.000215   0.048034   0.004471
 267   3   2.805405  -0.688971   3.345055   0.000207   0.048034   0.004306
 268   5   2.016444  -0.688794   3.344922   0.000117   0.048034   0.002427
 269   1   5.382669  -5.088681   0.395857  -0.000140   0.005602  -0.025024
 270   3   5.790991  -4.898685   0.400980  -0.000172   0.005602  -0.030775
 271  11   6.074465  -4.818265   0.364943  -0.000125   0.005602  -0.022395
 272   1   5.382845  -5.088867  -0.393226  -0.000131   0.005602  -0.023376
 273   3   5.791170  -4.898873  -0.398256  -0.000149   0.005602  -0.026530
 274  11   6.074628  -4.818436  -0.362130  -0.000124   0.005602  -0.022162
 275   3   3.421690  -1.116646   3.553012   0.001010   0.203049   0.004976
 276   3   4.448368  -2.879930   3.276938   0.001174   0.415995   0.002823
 277   3   5.387342  -4.492375   1.615743  -0.002239   0.415995  -0.005382
 278   1   3.260983  -2.125498   3.505366   0.001833   0.415995   0.004407
 279   1   4.436134  -4.143695   2.618169  -0.000366   0.415995  -0.000881
 280   1   5.033821  -5.169975   0.936213  -0.001268   0.203049  -0.006244
 281   3   5.592907  -4.845055  -0.933788  -0.001249   0.203107  -0.006148
 282   3   4.995700  -3.819098  -2.616759  -0.000291   0.416125  -0.000699
 283   3   3.820525  -1.800595  -3.504922   0.001891   0.416125   0.004545
 284   1   4.829229  -4.818206  -1.613711  -0.002389   0.416125  -0.005740
 285   1   3.890600  -3.205859  -3.276099   0.001113   0.416125   0.002675
 286   1   2.863730  -1.442162  -3.552767   0.000928   0.203107   0.004570
 287   1   0.445482  -3.356987  -3.282221  -0.000113   0.060580  -0.001863
 288   5   0.049734  -3.141942  -3.322805  -0.000211   0.060580  -0.003476
 289   7  -0.444065  -3.414488  -3.286524  -0.000244   0.060580  -0.004029
 290   1   0.445303  -3.356160   3.282438  -0.000120   0.060580  -0.001982
 291   5   0.049553  -3.141105   3.322946  -0.000223   0.060580  -0.003681
 292   7  -0.444245  -3.413660   3.286707  -0.000237   0.060580  -0.003904
 293   5   1.388268  -1.138365  -3.552612   0.000734   0.212912   0.003446
 294   5   0.557547  -2.566589  -3.526174   0.000192   0.212912   0.000903
 295   1   1.533079  -2.177312  -3.486088   0.001061   0.438230   0.002420
 296   5   0.557256  -2.565870   3.526195   0.000172   0.212838   0.000807
 297   5   1.387701  -1.138112   3.552528   0.000578   0.212838   0.002714
 298   1   1.532656  -2.176833   3.486205   0.000995   0.438061   0.002272
 299   1   0.808719  -5.449528  -2.024031  -0.000529   0.073020  -0.007247
 300   7  -0.080160  -5.451889  -1.973312  -0.000282   0.073020  -0.003868
 301   9   0.908657  -5.663567  -1.840934  -0.000679   0.073020  -0.009298
 302   1   0.809080  -5.456373   2.014872  -0.000493   0.073020  -0.006752
 303   7  -0.079807  -5.458562   1.964305  -0.000256   0.073020  -0.003511
 304   9   0.908986  -5.669790   1.831033  -0.000558   0.073020  -0.007636
 305   7  -0.622750  -4.022021  -3.252534   0.000091   0.341978   0.000266
 306   7  -0.547597  -5.193614  -2.526386   0.000407   0.341978   0.001189
 307   1   0.680761  -4.493031  -2.835279  -0.001442   0.674945  -0.002137
 308   7  -0.547286  -5.199979   2.519695   0.000401   0.343842   0.001167
 309   7  -0.622788  -4.023388   3.251504   0.000110   0.343842   0.000320
 310   1   0.680881  -4.496592   2.831165  -0.001477   0.678679  -0.002176
 311   9   4.497569  -5.873496   0.398849  -0.000791   0.069198  -0.011438
 312   9   3.934561  -5.873300   1.385472  -0.001463   0.155018  -0.009439
 313   9   2.728447  -5.870405   2.038158  -0.001348   0.155018  -0.008697
 314   9   1.594553  -5.866528   1.969810  -0.000502   0.069198  -0.007260
 315   1   4.544679  -5.549019   0.898786  -0.001609   0.150271  -0.010706
 316   1   3.509477  -5.547518   2.039257  -0.001201   0.150271  -0.007993
 317   1   1.988508  -5.542884   2.282053  -0.001152   0.150271  -0.007665
 318   9   1.594245  -5.859834  -1.980508  -0.000575   0.069210  -0.008303
 319   9   2.728306  -5.863480  -2.048996  -0.001413   0.155049  -0.009112
 320   9   3.934601  -5.868587  -1.396242  -0.001566   0.155049  -0.010103
 321   9   4.497614  -5.872126  -0.409428  -0.000794   0.069210  -0.011471
 322   1   1.988233  -5.535134  -2.291701  -0.001194   0.150290  -0.007942
 323   1   3.509437  -5.540591  -2.048988  -0.001199   0.150290  -0.007977
 324   1   4.544736  -5.545958  -0.908319  -0.001731   0.150290  -0.011519
 325  11   6.259525  -4.830097   0.264574  -0.000419   0.047758  -0.008766
 326   1   5.254002  -5.296555   0.254620  -0.000495   0.067406  -0.007337
 327  11   6.259962  -4.834585  -0.218602  -0.000409   0.045732  -0.008947
 328   1   5.253788  -5.292185  -0.301167  -0.000492   0.064546  -0.007617
 329   2   2.411353   0.906858   3.380916   0.000195   0.048033   0.004053
 330   4   2.805470   0.690071   3.345172   0.000175   0.048033   0.003638
 331   6   2.016513   0.689895   3.345054   0.000132   0.048033   0.002747
 332   2   2.411854   0.904593  -3.380718   0.000213   0.048033   0.004441
 333   4   2.805966   0.687830  -3.344770   0.000206   0.048033   0.004297
 334   6   2.017009   0.687654  -3.344770   0.000114   0.048033   0.002378
 335   2   5.382791   5.088646  -0.395097  -0.000141   0.005607  -0.025088
 336   4   5.791115   4.898652  -0.400074  -0.000173   0.005607  -0.030796
 337  12   6.074574   4.818238  -0.363899  -0.000126   0.005607  -0.022469
 338   2   5.382640   5.088752   0.394616  -0.000131   0.005607  -0.023296
 339   4   5.790962   4.898759   0.399800  -0.000149   0.005607  -0.026509
 340  12   6.074435   4.818336   0.363756  -0.000124   0.005607  -0.022141
 341   4   5.592493   4.844909   0.935096  -0.001247   0.203041  -0.006144
 342   4   4.994824   3.819174   2.617308  -0.000288   0.415978  -0.000692
 343   4   3.819724   1.801318   3.505140   0.001891   0.415978   0.004546
 344   2   4.828612   4.818121   1.614509  -0.002380   0.415978  -0.005723
 345   2   3.889675   3.206239   3.276159   0.001116   0.415978   0.002683
 346   2   2.863042   1.443097   3.552817   0.000927   0.203041   0.004568
 347   4   3.422342   1.115540  -3.552761   0.001010   0.203093   0.004974
 348   4   4.449153   2.879244  -3.276809   0.001174   0.416095   0.002821
 349   4   5.387814   4.492187  -1.615222  -0.002243   0.416095  -0.005390
 350   2   3.261704   2.124546  -3.505385   0.001833   0.416095   0.004406
 351   2   4.436843   4.143290  -2.618106  -0.000371   0.416095  -0.000891
 352   2   5.034115   5.169899  -0.935703  -0.001272   0.203093  -0.006262
 353   2   0.445771   3.356568   3.282069  -0.000112   0.060579  -0.001846
 354   6   0.050031   3.141523   3.322662  -0.000210   0.060579  -0.003469
 355   8  -0.443772   3.414076   3.286454  -0.000244   0.060579  -0.004022
 356   2   0.445030   3.356480  -3.282598  -0.000121   0.060579  -0.002000
 357   6   0.049281   3.141433  -3.323096  -0.000224   0.060579  -0.003690
 358   8  -0.444514   3.413987  -3.286784  -0.000237   0.060579  -0.003910
 359   6   0.557153   2.565895  -3.526458   0.000172   0.212977   0.000808
 360   6   1.388116   1.137230  -3.552620   0.000573   0.212977   0.002690
 361   2   1.532805   2.176403  -3.486324   0.000991   0.438379   0.002260
 362   6   1.387866   1.139135   3.552520   0.000697   0.212769   0.003275
 363   6   0.557672   2.566466   3.525916   0.000195   0.212769   0.000914
 364   2   1.532936   2.177624   3.485971   0.001069   0.437904   0.002442
 365   2   0.809153   5.452992   2.019042  -0.000528   0.073022  -0.007235
 366   8  -0.079733   5.455272   1.968502  -0.000281   0.073022  -0.003855
 367  10   0.909053   5.666716   1.835548  -0.000678   0.073022  -0.009289
 368   2   0.808687   5.452777  -2.019926  -0.000494   0.073022  -0.006759
 369   8  -0.080187   5.455063  -1.969181  -0.000257   0.073022  -0.003526
 370  10   0.908629   5.666521  -1.836478  -0.000558   0.073022  -0.007644
 371   8  -0.622385   4.022724   3.251858   0.000093   0.342924   0.000270
 372   8  -0.547128   5.196847   2.522810   0.000410   0.342924   0.001195
 373   2   0.681158   4.494834   2.832883  -0.001445   0.676840  -0.002135
 374   8  -0.547707   5.196627  -2.523324   0.000398   0.342884   0.001160
 375   8  -0.623122   4.022588  -3.252194   0.000109   0.342884   0.000319
 376   2   0.680512   4.494665  -2.833597  -0.001475   0.676759  -0.002179
 377  10   4.497519   5.872713  -0.405316  -0.000792   0.069201  -0.011438
 378  10   3.934322   5.870796  -1.391847  -0.001464   0.155023  -0.009441
 379  10   2.728069   5.866766  -2.044310  -0.001349   0.155023  -0.008704
 380  10   1.594172   5.863014  -1.975738  -0.000503   0.069201  -0.007272
 381   2   4.544535   5.547354  -0.904700  -0.001608   0.150277  -0.010700
 382   2   3.509107   5.543864  -2.044990  -0.001202   0.150277  -0.007999
 383   2   1.988072   5.538813  -2.287492  -0.001153   0.150277  -0.007675
 384  10   1.594543   5.863223   1.974614  -0.000574   0.069180  -0.008293
 385  10   2.728124   5.866981   2.043063  -0.001410   0.154965  -0.009100
 386  10   3.934105   5.870942   1.390875  -0.001566   0.154965  -0.010103
 387  10   4.497393   5.872756   0.404766  -0.000794   0.069180  -0.011471
 388   2   1.988349   5.539055   2.286353  -0.001191   0.150241  -0.007929
 389   2   3.508973   5.544079   2.043880  -0.001197   0.150241  -0.007965
 390   2   4.544337   5.547449   0.904087  -0.001731   0.150241  -0.011524
 391  12   6.259584   4.829968  -0.265529  -0.000410   0.046645  -0.008790
 392   2   5.254051   5.296336  -0.257493  -0.000486   0.065835  -0.007379
 393  12   6.259839   4.834645   0.217897  -0.000416   0.046559  -0.008935
 394   2   5.253627   5.292189   0.300642  -0.000499   0.065714  -0.007593
 395   3   3.000807  -0.341168  -3.313162   0.000280   0.102362   0.002736
 396   4   3.005218   0.112831  -3.294039   0.000276   0.102362   0.002698
 397   5   2.213214  -0.348776  -3.254704  -0.000004   0.102362  -0.000036
 398   3   3.004668  -0.112885   3.294157   0.000276   0.102361   0.002693
 399   4   3.000252   0.341114   3.313280   0.000279   0.102361   0.002729
 400   6   2.212673   0.348724   3.254691  -0.000007   0.102361  -0.000068
 401   4   8.201541   0.323525  -0.891263  -0.001222   0.205014  -0.005961
 402   4   7.020794   0.323434  -2.597666  -0.000457   0.420346  -0.001086
 403   4   4.672293   0.323383  -3.501532   0.002031   0.420346   0.004831
 404   3   7.797431  -0.323687  -1.580463  -0.002219   0.420346  -0.005280
 405   3   5.930543  -0.323778  -3.267816   0.001089   0.420346   0.002590
 406   3   3.874854  -0.323797  -3.550864   0.000927   0.205014   0.004519
 407   4   3.874140   0.323744   3.551128   0.000925   0.204970   0.004512
 408   4   5.929507   0.323734   3.268702   0.001088   0.420247   0.002589
 409   4   7.796739   0.323651   1.582412  -0.002219   0.420247  -0.005279
 410   3   4.671431  -0.323432   3.502013   0.002029   0.420247   0.004828
 411   3   7.019800  -0.323474   2.599077  -0.000457   0.420247  -0.001087
 412   3   8.201093  -0.323559   0.893544  -0.001222   0.204970  -0.005961
 413   3   2.608913  -0.348845   3.254765   0.000045   0.102272   0.000436
 414   5   1.821331  -0.340840   3.313253   0.000082   0.102272   0.000801
 415   6   1.816920   0.112771   3.294099   0.000054   0.102272   0.000525
 416   3   8.324921  -0.338952  -0.329865  -0.000247   0.012170  -0.020319
 417  11   8.383251  -0.627514  -0.295753  -0.000213   0.012170  -0.017463
 418  12   8.338962   0.402609  -0.290030  -0.000250   0.012170  -0.020582
 419  11   8.503031  -1.151638   0.596687  -0.000678   0.072515  -0.009355
 420  11   8.156390  -1.752859   1.556719  -0.001386   0.164135  -0.008446
 421  11   7.490521  -2.908590   2.063362  -0.001158   0.164135  -0.007054
 422  11   6.820108  -4.072825   1.582855  -0.001352   0.164135  -0.008235
 423  11   6.464694  -4.690469   0.636555  -0.000639   0.072515  -0.008814
 424   3   8.211379  -1.003959   1.113775  -0.001422   0.155952  -0.009117
 425   3   7.608042  -2.050785   2.165512  -0.001002   0.155952  -0.006422
 426   3   6.808556  -3.438802   2.181149  -0.001024   0.155952  -0.006564
 427   3   6.195647  -4.503545   1.153201  -0.001450   0.155952  -0.009301
 428  11   6.464988  -4.690751  -0.633661  -0.000651   0.072524  -0.008980
 429  11   6.820901  -4.073424  -1.580165  -0.001330   0.164163  -0.008102
 430  11   7.491641  -2.909220  -2.060783  -0.001267   0.164163  -0.007717
 431  11   8.157300  -1.753220  -1.554008  -0.001355   0.164163  -0.008255
 432  11   8.503401  -1.151738  -0.593764  -0.000635   0.072524  -0.008758
 433   3   6.196205  -4.504014  -1.150561  -0.001367   0.155968  -0.008766
 434   3   6.809694  -3.439548  -2.178737  -0.001017   0.155968  -0.006521
 435   3   7.609263  -2.051367  -2.163087  -0.000973   0.155968  -0.006240
 436   3   8.212048  -1.004185  -1.111105  -0.001404   0.155968  -0.009003
 437   4   2.609458   0.348790  -3.254714   0.000045   0.102272   0.000438
 438   5   1.817470  -0.112824  -3.294180   0.000069   0.102272   0.000679
 439   6   1.821889   0.340786  -3.313334   0.000074   0.102272   0.000721
 440   4   8.324780   0.338946   0.331872  -0.000247   0.012166  -0.020325
 441  11   8.338844  -0.402611   0.292058  -0.000251   0.012166  -0.020593
 442  12   8.383120   0.627512   0.297800  -0.000212   0.012166  -0.017467
 443  12   6.464696   4.690604   0.635403  -0.000651   0.072520  -0.008978
 444  12   6.820253   4.073143   1.581860  -0.001330   0.164149  -0.008102
 445  12   7.490789   2.908945   2.062529  -0.001267   0.164149  -0.007719
 446  12   8.156636   1.753081   1.555927  -0.001355   0.164149  -0.008257
 447  12   8.503138   1.151715   0.595848  -0.000635   0.072520  -0.008759
 448   4   6.195718   4.503779   1.152145  -0.001367   0.155961  -0.008765
 449   4   6.808807   3.439204   2.180303  -0.001017   0.155961  -0.006522
 450   4   7.608360   2.051120   2.164788  -0.000974   0.155961  -0.006243
 451   4   8.211572   1.004104   1.113028  -0.001404   0.155961  -0.009004
 452  12   8.503347   1.151588  -0.594216  -0.000678   0.072518  -0.009353
 453  12   8.157191   1.752732  -1.554527  -0.001386   0.164144  -0.008444
 454  12   7.491540   2.908454  -2.061624  -0.001157   0.164144  -0.007051
 455  12   6.820842   4.072745  -1.581498  -0.001352   0.164144  -0.008235
 456  12   6.464937   4.690437  -0.635357  -0.000640   0.072518  -0.008822
 457   4   8.211966   1.003860  -1.111459  -0.001422   0.155958  -0.009116
 458   4   7.609141   2.050619  -2.163644  -0.001001   0.155958  -0.006420
 459   4   6.809611   3.438671  -2.179781  -0.001023   0.155958  -0.006562
 460   4   6.196151   4.503483  -1.152143  -0.001451   0.155958  -0.009303
 461   5  -1.489252  -0.473636  -3.321884  -0.000382   0.060382  -0.006322
 462   6  -1.476114  -0.024076  -3.281346  -0.000336   0.060382  -0.005565
 463   7  -1.972337  -0.764731  -3.285548  -0.000310   0.060382  -0.005126
 464   5  -1.475613   0.024054   3.281233  -0.000339   0.060382  -0.005609
 465   6  -1.488740   0.473614   3.321773  -0.000378   0.060382  -0.006256
 466   8  -1.971830   0.764711   3.285509  -0.000314   0.060382  -0.005205
 467   6   0.924735   0.323229  -3.551017   0.000525   0.213566   0.002458
 468   6  -0.734582   0.323239  -3.525730  -0.000258   0.213566  -0.001209
 469   5   0.095892  -0.323395  -3.484643   0.000255   0.439835   0.000580
 470   6  -0.734280   0.323362   3.525489  -0.000194   0.213477  -0.000906
 471   6   0.924377   0.323354   3.550778   0.000603   0.213477   0.002827
 472   5   0.095863  -0.323273   3.484471   0.000247   0.439629   0.000562
 473   5  -1.720027  -0.345241   3.237863  -0.000849   0.147816  -0.005744
 474   7  -2.213973  -0.629403   3.229457  -0.000557   0.147816  -0.003769
 475   8  -2.212601   0.398401   3.183742  -0.000666   0.147816  -0.004506
 476   7  -1.944990  -1.550752  -3.546270  -0.000271   0.269175  -0.001006
 477   7  -1.110918  -2.996517  -3.546897  -0.000161   0.269175  -0.000597
 478   5  -0.827807  -1.869748  -3.469593  -0.001989   0.543921  -0.003657
 479   7  -1.111002  -2.995814   3.546938  -0.000153   0.269071  -0.000569
 480   7  -1.944768  -1.550578   3.546149  -0.000309   0.269071  -0.001147
 481   5  -0.827739  -1.869320   3.469530  -0.001994   0.543694  -0.003668
 482   6  -1.720506   0.345211  -3.237942  -0.000842   0.147816  -0.005698
 483   7  -2.213077  -0.398429  -3.183748  -0.000649   0.147816  -0.004392
 484   8  -2.214451   0.629375  -3.229462  -0.000589   0.147816  -0.003984
 485   8  -1.111340   2.996091  -3.547003  -0.000151   0.269116  -0.000561
 486   8  -1.945242   1.550631  -3.546195  -0.000343   0.269116  -0.001273
 487   6  -0.828137   1.869477  -3.469673  -0.002004   0.543792  -0.003685
 488   8  -1.944489   1.550645   3.546226  -0.000282   0.269128  -0.001048
 489   8  -1.110552   2.996166   3.546835  -0.000160   0.269128  -0.000595
 490   6  -0.827383   1.869520   3.469453  -0.001989   0.543818  -0.003657
 491   8  -2.909426   0.732767  -3.383221   0.000676   0.369877   0.001828
 492   8  -4.519753   0.732757  -2.738197   0.004196   0.739596   0.005674
 493   8  -5.813434   0.732725  -1.059423   0.004672   0.739596   0.006317
 494   8  -5.813276   0.732680   1.059985   0.004759   0.739596   0.006435
 495   8  -4.519345   0.732642   2.738566   0.004260   0.739596   0.005760
 496   8  -2.908921   0.732624   3.383351   0.000641   0.369877   0.001734
 497   7  -3.539739  -0.732652  -3.177944   0.002402   0.739596   0.003248
 498   7  -5.305642  -0.732672  -2.005989   0.004852   0.739596   0.006560
 499   7  -5.988898  -0.732712   0.000264   0.004657   0.739596   0.006297
 500   7  -5.305342  -0.732756   2.006415   0.004670   0.739596   0.006315
 501   7  -3.539265  -0.732785   3.178106   0.002510   0.739596   0.003394
 502   9   0.925452  -6.061617   1.567682  -0.001434   0.229866  -0.006239
 503   9   0.773664  -6.515304   0.386242  -0.004230   0.463429  -0.009127
 504   9   0.856421  -6.263689  -1.138649  -0.003965   0.463429  -0.008556
 505   7  -0.628111  -6.130415   1.316989   0.001454   0.660778   0.002201
 506   7  -0.725061  -6.418176  -0.464518   0.001736   0.660778   0.002627
 507   7  -0.553884  -5.901239  -1.831042   0.000729   0.334969   0.002178
 508  10   0.925148   6.058817  -1.573812  -0.001435   0.229870  -0.006242
 509  10   0.773597   6.514584  -0.393118  -0.004230   0.463437  -0.009128
 510  10   0.856669   6.265626   1.132217  -0.003964   0.463437  -0.008554
 511   8  -0.628360   6.128062  -1.322919   0.001451   0.660788   0.002195
 512   8  -0.724948   6.418947   0.458132   0.001737   0.660788   0.002629
 513   8  -0.553485   5.904380   1.825542   0.000732   0.334974   0.002186
 514  11   6.145175  -4.996058   0.021066  -0.000148   0.083568  -0.001771
 515   9   4.867900  -5.735425  -0.029725  -0.000410   0.083568  -0.004908
 516  12   6.145139   4.995952  -0.024767  -0.000150   0.084189  -0.001781
 517  10   4.867858   5.735398   0.024748  -0.000413   0.084189  -0.004910
 518  12   8.585764   0.736669   0.060236  -0.000753   0.200546  -0.003754
 519  11   8.585795  -0.736668  -0.058095  -0.000753   0.200546  -0.003755
 =====================================================


   1 warning(s) detected.
     A line exceeding 80 characters begins with "http://cactus.nci.ni".
 There may be a problem in your input file.

              2650333  WORDS OF DYNAMIC MEMORY USED
 EXECUTION OF GAMESS TERMINATED NORMALLY Fri Nov 25 07:41:38 2016
 DDI: 263640 bytes (0.3 MB / 0 MWords) used by master data server.

 ----------------------------------------
 CPU timing information for all processes
 ========================================
 0: 472.768 + 0.200 = 472.968
 ----------------------------------------
 ddikick.x: exited gracefully.
