----- GAMESS execution script -----

          ******************************************************
          *         GAMESS VERSION =  5 DEC 2014 (R1)          *
          *             FROM IOWA STATE UNIVERSITY             *
          * M.W.SCHMIDT, K.K.BALDRIDGE, J.A.BOATZ, S.T.ELBERT, *
          *   M.S.GORDON, J.H.JENSEN, S.KOSEKI, N.MATSUNAGA,   *
          *          K.A.NGUYEN, S.J.SU, T.L.WINDUS,           *
          *       TOGETHER WITH M.DUPUIS, J.A.MONTGOMERY       *
          *         J.COMPUT.CHEM.  14, 1347-1363(1993)        *
          **************** 64 BIT LINUX VERSION ****************

 EXECUTION OF GAMESS BEGUN Fri Nov 25 07:37:32 2016

            ECHO OF THE FIRST FEW INPUT CARDS -
 INPUT CARD>! SELECT RESTRICTED HARTREE-FOCK AS DEFAULT                                     
 INPUT CARD>$contrl scftyp=rhf $end                                                         
 INPUT CARD>                                                                                
 INPUT CARD>! THEORY: HF OR DFT                                                             
 INPUT CARD> $contrl mplevl=0 $end                                                          
 INPUT CARD>                                                                                
 INPUT CARD> $system timlim=10000 mwords=20 $end                                            
 INPUT CARD> $SCF DIRSCF=.TRUE. $end                                                        
 INPUT CARD>                                                                                
 INPUT CARD>                                                                                
 INPUT CARD>! BASIS SETS                                                                    
 INPUT CARD>! 6-311G(d,p)                                                                   
 INPUT CARD> $BASIS GBASIS=N311 NGAUSS=6 NDFUNC=1 NPFUNC=1 $END                             
 INPUT CARD>                                                                                
 INPUT CARD>! One of the following                                                          
 INPUT CARD> $guess guess=HUCKEL $end                                                       
 INPUT CARD>                                                                                
 INPUT CARD> $statpt projct=.FALSE. $end                                                    
 INPUT CARD> $STATPT IFREEZ(1)=1,2,3 $END                                                   
 INPUT CARD>                                                                                
 INPUT CARD>! Optimize the geometry with COSMO effects                                      
 INPUT CARD> $statpt opttol=0.0005 nstep=50 $end                                            
 INPUT CARD> $contrl nzvar=1 $end                                                           
 INPUT CARD> $zmat dlc=.t. auto=.t. $end                                                    
 INPUT CARD> $contrl runtyp=OPTIMIZE maxit=200 $end                                         
 INPUT CARD>                                                                                
 INPUT CARD>! Run COSMO on perfect conductor                                                
 INPUT CARD> $COSGMS PRFCND=.TRUE. $end                                                     
 INPUT CARD>                                                                                
 INPUT CARD>! Specifying RSOLV                                                              
 INPUT CARD> $COSGMS COSRAD = 1.4 $end                                                      
 INPUT CARD>                                                                                
 INPUT CARD>! available memory                                                              
 INPUT CARD> $SYSTEM MWORDS=40 $END                                                         
 INPUT CARD>                                                                                
 INPUT CARD> $DATA                                                                          
 INPUT CARD>                                                                                
 INPUT CARD>C1                                                                              
 INPUT CARD>C      6.0      0.0719000000   -1.3167000000    0.3754000000                    
 INPUT CARD>C      6.0     -1.1192000000   -0.6060000000    0.4164000000                    
 INPUT CARD>C      6.0     -1.1172000000    0.7583000000    0.1369000000                    
 INPUT CARD>C      6.0      0.0751000000    1.4312000000   -0.1891000000                    
 INPUT CARD>C      6.0      1.2967000000    0.7139000000   -0.2185000000                    
 INPUT CARD>C      6.0      1.2661000000   -0.6640000000    0.0597000000                    
 INPUT CARD>H      1.0      0.0774000000   -2.3822000000    0.5892000000                    
 INPUT CARD>H      1.0     -2.0489000000   -1.1104000000    0.6640000000                    
 INPUT CARD>H      1.0     -2.0588000000    1.3027000000    0.1739000000                    
 INPUT CARD>C      6.0     -0.0102000000    2.9173000000   -0.4676000000                    
 INPUT CARD>C      6.0      2.5926000000    1.4207000000   -0.5719000000                    
 INPUT CARD>H      1.0      2.1731000000   -1.2622000000    0.0376000000                    
   40000000 WORDS OF MEMORY AVAILABLE

     BASIS OPTIONS
     -------------
     GBASIS=N311         IGAUSS=       6      POLAR=POPN311 
     NDFUNC=       1     NFFUNC=       0     DIFFSP=       F
     NPFUNC=       1      DIFFS=       F     BASNAM=        


     RUN TITLE
     ---------
                                                                                 

 THE POINT GROUP OF THE MOLECULE IS C1      
 THE ORDER OF THE PRINCIPAL AXIS IS     0

 ATOM      ATOMIC                      COORDINATES (BOHR)
           CHARGE         X                   Y                   Z
 C           6.0     0.1358712985       -2.4882022080        0.7094031358
 C           6.0    -2.1149813255       -1.1451739486        0.7868819013
 C           6.0    -2.1112018735        1.4329792165        0.2587034877
 C           6.0     0.1419184217        2.7045758336       -0.3573471843
 C           6.0     2.4504076883        1.3490753826       -0.4129051283
 C           6.0     2.3925820731       -1.2547780558        0.1128166415
 H           1.0     0.1462647914       -4.5017052480        1.1134265520
 H           1.0    -3.8718595762       -2.0983517368        1.2547780558
 H           1.0    -3.8905678635        2.4617460442        0.3286233493
 C           6.0    -0.0192752051        5.5128976240       -0.8836358719
 C           6.0     4.8993035958        2.6847337108       -1.0807342924
 H           1.0     4.1065635439       -2.3852121417        0.0710536971
 H           1.0    -1.8103574962        5.9256137797       -1.8453174270
 H           1.0     1.4543331202        6.1024921322       -2.2107904330
 C           6.0     0.1458868463        7.0711656735        1.5282214063
 H           1.0     1.9278984527        6.7385738996        2.5252408374
 H           1.0    -1.3989641487        6.6113953406        2.8266521324
 H           1.0     0.0264561638        9.0878812476        1.0839468266
 H           1.0     5.0661664005        4.3784951136        0.1001554773
 H           1.0     4.7774162696        3.2994615746       -3.0562538399
 C           6.0     7.3491443663        1.1990311392       -0.7693074496
 H           1.0     7.4105604609       -0.4338810868       -2.0382584504
 H           1.0     7.5849821695        0.5321468381        1.1752205918
 H           1.0     8.9684505651        2.4039204290       -1.2269990838

          INTERNUCLEAR DISTANCES (ANGS.)




     $CONTRL OPTIONS
     ---------------
 SCFTYP=RHF          RUNTYP=OPTIMIZE     EXETYP=RUN     
 MPLEVL=       0     CITYP =NONE         CCTYP =NONE         VBTYP =NONE    
 DFTTYP=NONE         TDDFT =NONE    
 MULT  =       1     ICHARG=       0     NZVAR =       1     COORD =UNIQUE  
 PP    =NONE         RELWFN=NONE         LOCAL =NONE         NUMGRD=       F
 ISPHER=      -1     NOSYM =       0     MAXIT =     200     UNITS =ANGS    
 PLTORB=       F     MOLPLT=       F     AIMPAC=       F     FRIEND=        
 NPRINT=       7     IREST =       0     GEOM  =INPUT   
 NORMF =       0     NORMP =       0     ITOL  =      20     ICUT  =       9
 INTTYP=BEST         GRDTYP=BEST         QMTTOL= 1.0E-06

     $SYSTEM OPTIONS
     ---------------
  REPLICATED MEMORY=    40000000 WORDS (ON EVERY NODE).
 DISTRIBUTED MEMDDI=           0 MILLION WORDS IN AGGREGATE,
 MEMDDI DISTRIBUTED OVER   1 PROCESSORS IS           0 WORDS/PROCESSOR.
 TOTAL MEMORY REQUESTED ON EACH PROCESSOR=    40000000 WORDS.
 TIMLIM=       10000.00 MINUTES, OR       6.9 DAYS.
 PARALL= F  BALTYP=  DLB     KDIAG=    0  COREFL= F
 MXSEQ2=     300 MXSEQ3=     150  mem10=         0

     $COSGMS OPTIONS
     ---------------
     EPSI  =   INFTY     NSPA  =      92     COSRAD=    1.40
     DISEX =   10.00     OUTCHG=DBLCAV       COSBUG=       F
     COSWRT=       F     DCOSMO=       F

     SYMMETRY COORDINATES WILL NOT BE USED FOR 
     THE COSMO CALCULATION, EVEN IF SPECIFIED:
         -- SWITCHING TO C1 POINT GROUP --


     DEFINITION OF CAVITY
     ---------------------------
     ATOM         COORDINATES           RADIUS 
     1    0.1359   -2.4882    0.7094    2.0000
     2   -2.1150   -1.1452    0.7869    2.0000
     3   -2.1112    1.4330    0.2587    2.0000
     4    0.1419    2.7046   -0.3573    2.0000
     5    2.4504    1.3491   -0.4129    2.0000
     6    2.3926   -1.2548    0.1128    2.0000
     7    0.1463   -4.5017    1.1134    1.3000
     8   -3.8719   -2.0984    1.2548    1.3000
     9   -3.8906    2.4617    0.3286    1.3000
    10   -0.0193    5.5129   -0.8836    2.0000
    11    4.8993    2.6847   -1.0807    2.0000
    12    4.1066   -2.3852    0.0711    1.3000
    13   -1.8104    5.9256   -1.8453    1.3000
    14    1.4543    6.1025   -2.2108    1.3000
    15    0.1459    7.0712    1.5282    2.0000
    16    1.9279    6.7386    2.5252    1.3000
    17   -1.3990    6.6114    2.8267    1.3000
    18    0.0265    9.0879    1.0839    1.3000
    19    5.0662    4.3785    0.1002    1.3000
    20    4.7774    3.2995   -3.0563    1.3000
    21    7.3491    1.1990   -0.7693    2.0000
    22    7.4106   -0.4339   -2.0383    1.3000
    23    7.5850    0.5321    1.1752    1.3000
    24    8.9685    2.4039   -1.2270    1.3000

          ----------------
          PROPERTIES INPUT
          ----------------

     MOMENTS            FIELD           POTENTIAL          DENSITY
 IEMOM =       1   IEFLD =       0   IEPOT =       0   IEDEN =       0
 WHERE =COMASS     WHERE =NUCLEI     WHERE =NUCLEI     WHERE =NUCLEI  
 OUTPUT=BOTH       OUTPUT=BOTH       OUTPUT=BOTH       OUTPUT=BOTH    
 IEMINT=       0   IEFINT=       0                     IEDINT=       0
                                                       MORB  =       0
          EXTRAPOLATION IN EFFECT
          SOSCF IN EFFECT
 ORBITAL PRINTING OPTION: NPREO=     1   274     2     1

     -------------------------------
     INTEGRAL TRANSFORMATION OPTIONS
     -------------------------------
     NWORD  =            0
     CUTOFF = 1.0E-09     MPTRAN =       0
     DIRTRF =       T     AOINTS =DUP     

          ----------------------
          INTEGRAL INPUT OPTIONS
          ----------------------
 NOPK  =       1 NORDER=       0 SCHWRZ=       T


 -----------------------------------------------
  STATISTICS ON AUTOMATIC COORDINATE GENERATION 
 -----------------------------------------------
  NUMBER OF USER SPECIFIED BONDS                             0
  NUMBER OF BONDS                                           24
  NUMBER OF ANGLES                                          42
  NUMBER OF TORSIONS                                        54
  NUMBER OF EXTRA COORD.                                     0
  NUMBER OF EXTRA COORD. FOR CONSTRAINTS                     0
  NUMBER OF CONSTRAINED COORD.                               0

  TOTAL NUMBER OF PRIMITIVES                               120
 -----------------------------------------------

   --- ENCODED Z MATRIX ---
 COORD  TYPE   I   J   K   L   M   N
    1      1    1   7
    2      1    1   2
    3      1    1   6
    4      1    2   8
    5      1    2   3
    6      1    3   4
    7      1    3   9
    8      1    4  10
    9      1    4   5
   10      1    5  11
   11      1    5   6
   12      1    6  12
   13      1   10  15
   14      1   10  14
   15      1   10  13
   16      1   11  21
   17      1   11  20
   18      1   11  19
   19      1   15  18
   20      1   15  17
   21      1   15  16
   22      1   21  24
   23      1   21  23
   24      1   21  22
   25      2    1   6   5
   26      2    1   2   8
   27      2    1   6  12
   28      2    1   2   3
   29      2    2   1   7
   30      2    2   1   6
   31      2    2   3   9
   32      2    2   3   4
   33      2    3   4  10
   34      2    3   4   5
   35      2    3   2   8
   36      2    4  10  15
   37      2    4   5   6
   38      2    4   3   9
   39      2    4   5  11
   40      2    4  10  13
   41      2    4  10  14
   42      2    5   4  10
   43      2    5   6  12
   44      2    5  11  19
   45      2    5  11  20
   46      2    5  11  21
   47      2    6   1   7
   48      2    6   5  11
   49      2   10  15  16
   50      2   10  15  17
   51      2   10  15  18
   52      2   11  21  22
   53      2   11  21  23
   54      2   11  21  24
   55      2   13  10  14
   56      2   13  10  15
   57      2   14  10  15
   58      2   16  15  18
   59      2   16  15  17
   60      2   17  15  18
   61      2   19  11  20
   62      2   19  11  21
   63      2   20  11  21
   64      2   22  21  23
   65      2   22  21  24
   66      2   23  21  24
   67      3    1   6   5   4
   68      3    1   2   3   9
   69      3    1   2   3   4
   70      3    1   6   5  11
   71      3    2   3   4   5
   72      3    2   3   4  10
   73      3    2   1   6   5
   74      3    2   1   6  12
   75      3    3   4  10  13
   76      3    3   4  10  14
   77      3    3   4  10  15
   78      3    3   2   1   6
   79      3    3   2   1   7
   80      3    3   4   5   6
   81      3    3   4   5  11
   82      3    4   5  11  19
   83      3    4   5  11  20
   84      3    4   5  11  21
   85      3    4   5   6  12
   86      3    4   3   2   8
   87      3    4  10  15  16
   88      3    4  10  15  17
   89      3    4  10  15  18
   90      3    5   4   3   9
   91      3    5   4  10  14
   92      3    5   4  10  13
   93      3    5   6   1   7
   94      3    5   4  10  15
   95      3    5  11  21  22
   96      3    5  11  21  23
   97      3    5  11  21  24
   98      3    6   1   2   8
   99      3    6   5   4  10
  100      3    6   5  11  21
  101      3    6   5  11  20
  102      3    6   5  11  19
  103      3    7   1   6  12
  104      3    7   1   2   8
  105      3    8   2   3   9
  106      3    9   3   4  10
  107      3   10   4   5  11
  108      3   11   5   6  12
  109      3   13  10  15  18
  110      3   13  10  15  17
  111      3   13  10  15  16
  112      3   14  10  15  18
  113      3   14  10  15  17
  114      3   14  10  15  16
  115      3   19  11  21  24
  116      3   19  11  21  23
  117      3   19  11  21  22
  118      3   20  11  21  24
  119      3   20  11  21  23
  120      3   20  11  21  22

          INDEP./SYM. INTERNAL COORDINATES
          --------------------------------
 CRD  1=   0.2001 (  9) -0.2870 ( 33) -0.1095 ( 34)  0.4814 ( 39)  0.3969 ( 42)
           0.1204 ( 44)  0.1136 ( 45) -0.3366 ( 46) -0.4546 ( 48) -0.1015 ( 94)
 CRD  2=   0.1018 (  3) -0.1404 (  5) -0.1128 (  6) -0.1379 (  8)  0.1188 (  9)
           0.1906 ( 10) -0.4138 ( 33)  0.1199 ( 34) -0.4071 ( 36) -0.1665 ( 37)
           0.1043 ( 40)  0.1522 ( 41)  0.2927 ( 42)  0.3104 ( 46)  0.1575 ( 48)
           0.1777 ( 57) -0.1074 ( 63)  0.1007 ( 72) -0.1008 ( 76) -0.1488 ( 77)
          -0.1143 ( 99) -0.1278 (107)
 CRD  3=   0.1678 (  8)  0.1708 (  9)  0.1379 ( 10)  0.1197 ( 11) -0.1511 ( 33)
           0.5517 ( 36) -0.1828 ( 40) -0.1715 ( 41)  0.1777 ( 42) -0.1221 ( 44)
           0.3679 ( 46)  0.1391 ( 48) -0.1857 ( 56) -0.1318 ( 57) -0.1405 ( 63)
          -0.1246 ( 72) -0.1193 ( 92) -0.1185 ( 94)  0.1333 ( 99)
 CRD  4=   0.1040 ( 10) -0.1780 ( 33) -0.1106 ( 40)  0.1018 ( 41)  0.1374 ( 42)
          -0.1674 ( 49)  0.1295 ( 50)  0.1328 ( 52)  0.1694 ( 56) -0.1523 ( 57)
          -0.1261 ( 62) -0.1702 ( 70) -0.1177 ( 71)  0.1311 ( 75)  0.1436 ( 76)
           0.2679 ( 77)  0.1253 ( 80)  0.2542 ( 81) -0.1262 ( 82) -0.1378 ( 83)
          -0.2946 ( 84)  0.1859 ( 91)  0.1733 ( 92)  0.3101 ( 94)  0.1299 ( 97)
          -0.1631 (100)  0.2085 (107) -0.1586 (108)
 CRD  5=  -0.1381 (  5) -0.3052 (  6) -0.2663 (  8) -0.2664 (  9) -0.1980 ( 10)
          -0.1443 ( 13) -0.2166 ( 16) -0.1037 ( 25)  0.1032 ( 31) -0.2580 ( 33)
           0.1144 ( 34) -0.1181 ( 38) -0.2149 ( 39) -0.1222 ( 40)  0.1445 ( 42)
           0.1305 ( 45) -0.2700 ( 46)  0.2079 ( 48) -0.1543 ( 52)  0.1621 ( 62)
           0.1096 ( 84)  0.1258 ( 99)  0.1136 (100)  0.1325 (107)
 CRD  6=  -0.1418 (  6)  0.2032 (  8) -0.2582 ( 10)  0.1381 ( 11)  0.2258 ( 13)
          -0.1672 ( 16) -0.1293 ( 34)  0.1438 ( 37) -0.2207 ( 39)  0.2133 ( 42)
          -0.1165 ( 45)  0.1059 ( 49)  0.1391 ( 52) -0.2005 ( 53) -0.1006 ( 62)
           0.1946 ( 63) -0.1542 ( 82) -0.1361 ( 83) -0.2594 ( 84) -0.1432 ( 99)
          -0.2705 (100) -0.1471 (101) -0.1652 (102) -0.1546 (107)
 CRD  7=   0.1019 (  3) -0.3195 (  8)  0.2849 ( 10)  0.2137 ( 34)  0.1680 ( 36)
          -0.1900 ( 37)  0.1342 ( 39) -0.2040 ( 41) -0.2248 ( 42)  0.1684 ( 44)
          -0.1377 ( 46)  0.1621 ( 49) -0.1306 ( 51)  0.1138 ( 52) -0.1922 ( 53)
           0.1106 ( 54) -0.1354 ( 56)  0.1129 ( 57) -0.1287 ( 62)  0.1383 ( 63)
          -0.1116 ( 75) -0.1762 ( 77) -0.1049 ( 83) -0.1965 ( 84) -0.1040 ( 92)
          -0.1685 ( 94) -0.2338 (100) -0.1423 (101) -0.1019 (102)
 CRD  8=  -0.1002 (  3)  0.1601 (  8) -0.1659 ( 10) -0.1600 ( 13) -0.1126 ( 34)
          -0.1075 ( 36)  0.1304 ( 37)  0.1606 ( 40) -0.1527 ( 44)  0.1293 ( 46)
          -0.2429 ( 50)  0.1618 ( 52) -0.1544 ( 56)  0.1670 ( 57) -0.1549 ( 67)
          -0.1024 ( 69) -0.2122 ( 70) -0.1333 ( 76) -0.2532 ( 77)  0.1294 ( 78)
           0.1786 ( 80)  0.2347 ( 81) -0.1377 ( 84) -0.1036 ( 85) -0.1405 ( 90)
          -0.2004 ( 94)  0.1256 ( 95)  0.1513 ( 97)  0.1144 ( 98)  0.1273 ( 99)
           0.1835 (107) -0.1610 (108)
 CRD  9=  -0.1591 (  3) -0.2013 (  6) -0.2674 (  8) -0.3113 ( 10) -0.4432 ( 11)
           0.1936 ( 27)  0.1457 ( 31) -0.1498 ( 32)  0.1109 ( 37)  0.1110 ( 39)
          -0.1147 ( 43) -0.2032 ( 45)  0.2502 ( 46) -0.1186 ( 47) -0.2227 ( 48)
          -0.1004 ( 51)  0.1196 ( 52)  0.1147 ( 53) -0.1668 ( 54)
 CRD 10=  -0.4826 ( 13)  0.1274 ( 41)  0.2307 ( 44) -0.2112 ( 45) -0.1183 ( 49)
          -0.1974 ( 50) -0.1340 ( 52)  0.1131 ( 58)  0.1650 ( 59)  0.1423 ( 60)
          -0.1521 ( 62)  0.1074 ( 63)  0.1684 ( 70) -0.1280 ( 71) -0.1814 ( 72)
          -0.1028 ( 73)  0.1115 ( 86) -0.1280 ( 93) -0.1940 ( 95) -0.1987 ( 96)
          -0.2143 ( 97)  0.1303 ( 99) -0.1141 (101) -0.1016 (106)
 CRD 11=  -0.1714 (  2)  0.1928 (  6) -0.1208 (  9) -0.1287 ( 11) -0.1337 ( 12)
          -0.4727 ( 16)  0.1302 ( 25) -0.1135 ( 28)  0.1542 ( 35) -0.1022 ( 37)
           0.1209 ( 39) -0.1270 ( 40)  0.1319 ( 45)  0.1094 ( 46)  0.1854 ( 49)
          -0.1258 ( 50) -0.3877 ( 54) -0.1543 ( 62) -0.2022 ( 63)  0.1741 ( 65)
           0.1973 ( 66)  0.1224 ( 89)  0.1111 (102)
 CRD 12=   0.1460 (  3)  0.1887 (  4)  0.2052 (  5)  0.1567 (  6) -0.2861 (  9)
          -0.1308 ( 11) -0.1343 ( 12)  0.3001 ( 16)  0.1827 ( 25) -0.1961 ( 28)
           0.1233 ( 32)  0.1189 ( 35) -0.1478 ( 38) -0.1714 ( 40)  0.1546 ( 41)
          -0.2467 ( 43)  0.2437 ( 49) -0.2515 ( 50)  0.1745 ( 54) -0.1274 ( 58)
          -0.1017 ( 65) -0.1083 ( 66)  0.1480 ( 87)  0.1572 ( 88)  0.1910 ( 89)
 CRD 13=  -0.2272 (  1) -0.4689 (  2) -0.3023 (  3) -0.1829 (  4) -0.2593 (  5)
          -0.1090 ( 10)  0.2304 ( 16) -0.1990 ( 26) -0.1741 ( 27) -0.1843 ( 29)
           0.1309 ( 30) -0.1692 ( 31)  0.1209 ( 35)  0.2370 ( 38)  0.2174 ( 43)
           0.1312 ( 49)  0.1439 ( 54)  0.1036 ( 62)
 CRD 14=   0.1723 (  3) -0.2292 (  5)  0.3264 ( 13)  0.1019 ( 26)  0.1680 ( 27)
          -0.1265 ( 29) -0.1855 ( 31) -0.1637 ( 35)  0.1419 ( 38) -0.1068 ( 41)
          -0.1089 ( 43)  0.1024 ( 44)  0.1713 ( 47)  0.4178 ( 51) -0.1546 ( 52)
           0.1742 ( 53)  0.1279 ( 56)  0.1684 ( 57) -0.1708 ( 58) -0.1549 ( 60)
          -0.1198 ( 72)  0.1108 ( 76)  0.1030 ( 80) -0.1085 ( 92) -0.1032 ( 97)
           0.1426 ( 99)
 CRD 15=   0.3096 (  3) -0.2885 (  5) -0.2122 ( 13)  0.1638 ( 26)  0.2859 ( 27)
          -0.1804 ( 29) -0.2984 ( 31) -0.2319 ( 35)  0.2082 ( 38) -0.2297 ( 43)
           0.2659 ( 47) -0.2425 ( 51)  0.1355 ( 52) -0.1282 ( 57)  0.1231 ( 60)
 CRD 16=  -0.3620 (  2)  0.1329 (  3)  0.1403 (  5) -0.1891 (  6) -0.1753 (  7)
          -0.1666 (  9) -0.1444 ( 12)  0.1073 ( 25) -0.2657 ( 26)  0.1066 ( 27)
          -0.2446 ( 29) -0.1026 ( 30)  0.1480 ( 31)  0.1220 ( 32)  0.2916 ( 35)
          -0.2700 ( 38) -0.2139 ( 43)  0.3472 ( 47) -0.1954 ( 49)  0.2241 ( 50)
 CRD 17=   0.2115 (  3)  0.2145 (  5)  0.1277 (  6)  0.2867 (  7)  0.2016 (  9)
           0.2633 ( 12) -0.2458 ( 25) -0.3110 ( 26)  0.2455 ( 27) -0.3230 ( 29)
           0.1608 ( 30)  0.2265 ( 31) -0.2549 ( 32) -0.1070 ( 33)  0.1302 ( 34)
           0.2118 ( 35)  0.1106 ( 37)  0.1622 ( 47)  0.1587 ( 49) -0.1641 ( 50)
 CRD 18=  -0.1074 ( 19)  0.1521 ( 23) -0.1363 ( 24)  0.2834 ( 49)  0.1545 ( 50)
          -0.3539 ( 51) -0.4055 ( 52)  0.4727 ( 53) -0.1959 ( 59)  0.1934 ( 65)
          -0.1860 ( 66) -0.1107 ( 70)  0.1016 ( 72) -0.1300 ( 82) -0.1336 ( 83)
          -0.1183 ( 84)
 CRD 19=   0.1763 ( 11)  0.2072 ( 16)  0.1344 ( 17)  0.1655 ( 18) -0.1847 ( 22)
           0.1129 ( 24)  0.1015 ( 43)  0.1056 ( 44) -0.2261 ( 46)  0.3873 ( 52)
           0.3099 ( 53) -0.5038 ( 54) -0.1315 ( 61) -0.3382 ( 64)
 CRD 20=  -0.1220 (  1)  0.1653 (  4)  0.2540 (  6) -0.1025 ( 10)  0.1145 ( 12)
           0.1582 ( 14) -0.1225 ( 15)  0.1180 ( 20) -0.1050 ( 21) -0.1194 ( 28)
           0.1667 ( 30)  0.1039 ( 38) -0.1502 ( 40)  0.1786 ( 41) -0.2987 ( 49)
           0.3619 ( 50)  0.1267 ( 56) -0.1290 ( 57)  0.1548 ( 58) -0.1484 ( 60)
           0.1145 ( 63) -0.1026 ( 67) -0.1083 ( 69) -0.1753 ( 75) -0.1726 ( 76)
          -0.1269 ( 77) -0.1008 ( 86)  0.1198 ( 87)  0.1137 ( 88) -0.1678 ( 91)
          -0.1705 ( 92) -0.1220 ( 94)
 CRD 21=   0.1287 (  1)  0.1727 ( 13)  0.1430 ( 14)  0.1476 ( 15) -0.1224 ( 17)
          -0.1399 ( 19)  0.1137 ( 28) -0.1154 ( 30) -0.2101 ( 36)  0.1295 ( 44)
          -0.1455 ( 45)  0.2711 ( 49)  0.2175 ( 50) -0.3129 ( 51)  0.1979 ( 52)
          -0.2392 ( 53) -0.1344 ( 55)  0.1500 ( 56)  0.1082 ( 57) -0.2444 ( 59)
          -0.1310 ( 62) -0.1071 ( 65) -0.1051 ( 72)  0.1706 ( 82)  0.1616 ( 83)
           0.1300 ( 84)  0.1393 ( 99)  0.1067 (102)
 CRD 22=   0.3251 (  1) -0.3210 (  4)  0.2738 (  7) -0.1861 (  8)  0.1151 ( 10)
          -0.1862 ( 12) -0.1425 ( 15)  0.1380 ( 25) -0.1627 ( 26)  0.3061 ( 28)
           0.1489 ( 29) -0.2878 ( 30) -0.1906 ( 32) -0.1434 ( 35)  0.1543 ( 38)
          -0.1951 ( 40)  0.1389 ( 47) -0.1254 ( 49)  0.1026 ( 56) -0.1238 ( 57)
 CRD 23=   0.1576 ( 14) -0.2333 ( 44)  0.2292 ( 45)  0.1562 ( 50)  0.2676 ( 62)
          -0.2379 ( 63)  0.2031 ( 67)  0.1265 ( 68)  0.1862 ( 69)  0.2135 ( 70)
          -0.2108 ( 71) -0.2104 ( 72) -0.2319 ( 73) -0.1147 ( 74) -0.1579 ( 82)
          -0.1428 ( 83)  0.1898 ( 86) -0.1503 ( 90) -0.2335 ( 93) -0.1530 (101)
          -0.1680 (102) -0.1163 (103)  0.1301 (105) -0.1499 (106)
 CRD 24=   0.1290 (  6)  0.1106 (  7)  0.2771 ( 14) -0.2883 ( 15)  0.1501 ( 17)
          -0.1575 ( 18)  0.1045 ( 20) -0.1011 ( 21)  0.1242 ( 40) -0.1420 ( 41)
          -0.1003 ( 49)  0.1012 ( 50) -0.2891 ( 56)  0.2946 ( 57) -0.1474 ( 62)
           0.1857 ( 63)  0.2113 ( 75)  0.2125 ( 76)  0.1022 ( 83)  0.1215 ( 89)
           0.1920 ( 91)  0.1909 ( 92)  0.1624 (101)  0.1451 (102)
 CRD 25=   0.1105 ( 14) -0.1896 ( 15) -0.3739 ( 17)  0.3515 ( 18)  0.1040 ( 24)
          -0.1874 ( 56)  0.1424 ( 57)  0.2140 ( 62) -0.2016 ( 63) -0.1144 ( 68)
          -0.1011 ( 69)  0.1570 ( 75)  0.1289 ( 76) -0.1614 ( 82) -0.1541 ( 83)
          -0.1169 ( 85)  0.1478 ( 91)  0.1759 ( 92) -0.1494 ( 95) -0.1476 ( 96)
          -0.1789 ( 97) -0.1746 (101) -0.1819 (102)
 CRD 26=  -0.1589 ( 16) -0.4689 ( 22) -0.5047 ( 23) -0.5034 ( 24)  0.1803 ( 52)
           0.1787 ( 53)  0.1985 ( 54) -0.1900 ( 64) -0.1991 ( 65) -0.1976 ( 66)
 CRD 27=  -0.1642 ( 13) -0.4732 ( 19) -0.5025 ( 20) -0.5059 ( 21)  0.1779 ( 49)
           0.1782 ( 50)  0.1963 ( 51) -0.1974 ( 58) -0.1881 ( 59) -0.1968 ( 60)
 CRD 28=  -0.1613 (  1) -0.1765 (  4) -0.1078 (  5)  0.2127 (  8)  0.1861 ( 10)
          -0.1489 ( 11)  0.4285 ( 14)  0.2537 ( 15)  0.3506 ( 17)  0.4379 ( 18)
           0.1498 ( 27)  0.1441 ( 31) -0.1097 ( 43)  0.1155 ( 55) -0.1099 ( 57)
           0.1064 ( 92)
 CRD 29=  -0.3217 ( 14) -0.3812 ( 15)  0.3079 ( 17)  0.3048 ( 18)  0.2861 ( 19)
          -0.1662 ( 21) -0.2832 ( 22)  0.1252 ( 23)  0.1500 ( 24) -0.1367 ( 55)
          -0.1636 ( 59)  0.1322 ( 61)  0.1663 ( 64)  0.1270 (110) -0.1164 (114)
          -0.1216 (116)  0.1267 (120)
 CRD 30=   0.1016 ( 15) -0.3325 ( 19) -0.1217 ( 20)  0.4142 ( 21) -0.4647 ( 22)
           0.2706 ( 23)  0.1563 ( 24)  0.1625 ( 59) -0.2187 ( 60)  0.2251 ( 64)
          -0.1394 ( 65) -0.1429 ( 88)  0.1342 ( 95) -0.1071 ( 96)  0.1021 (109)
          -0.1328 (110)  0.1216 (112) -0.1133 (113) -0.1202 (116)  0.1210 (117)
          -0.1163 (119)  0.1250 (120)
 CRD 31=   0.3171 ( 19) -0.6021 ( 20)  0.3123 ( 21)  0.1391 ( 22) -0.1565 ( 23)
           0.3161 ( 58) -0.1511 ( 59) -0.1711 ( 60) -0.1586 ( 87)  0.1824 ( 89)
           0.1816 (109) -0.1595 (111)  0.1859 (112) -0.1551 (114)
 CRD 32=  -0.1300 ( 17) -0.1279 ( 22) -0.4637 ( 23)  0.5849 ( 24)  0.2554 ( 65)
          -0.3108 ( 66) -0.1222 ( 96)  0.2112 ( 97)  0.2321 (115) -0.1012 (116)
           0.2027 (118) -0.1307 (119)
 CRD 33=  -0.1986 ( 14) -0.2766 ( 15)  0.2783 ( 17)  0.2605 ( 18) -0.3813 ( 19)
           0.3050 ( 21)  0.3229 ( 22) -0.2467 ( 23)  0.1765 ( 59) -0.1519 ( 60)
           0.1276 ( 61) -0.1348 ( 64)  0.1171 ( 65) -0.1070 ( 88)  0.1112 (111)
          -0.1619 (113) -0.1430 (117)  0.1098 (119)
 CRD 34=   0.1200 (  1)  0.1509 (  4) -0.1996 (  8) -0.1524 ( 10)  0.1044 ( 11)
           0.1646 ( 14)  0.2889 ( 15)  0.3171 ( 17) -0.1055 ( 21) -0.1216 ( 31)
          -0.1496 ( 44)  0.1218 ( 61)  0.1553 ( 73)  0.2678 ( 74) -0.1361 ( 78)
          -0.1899 ( 85)  0.1426 ( 86)  0.1339 ( 90) -0.2402 ( 98)  0.1573 (103)
          -0.1296 (104) -0.1372 (108)  0.1261 (113) -0.1309 (116) -0.1513 (117)
 CRD 35=   0.1385 (  6)  0.2105 (  7) -0.1709 ( 10) -0.1070 ( 11) -0.2497 ( 12)
          -0.2546 ( 14)  0.2605 ( 15)  0.2643 ( 17) -0.1197 ( 33)  0.1015 ( 38)
           0.1422 ( 40)  0.1306 ( 48) -0.2165 ( 68) -0.1546 ( 69) -0.1160 ( 73)
           0.1845 ( 78)  0.2320 ( 79) -0.1026 ( 86)  0.1158 ( 90) -0.1634 ( 93)
           0.1323 ( 98) -0.1353 (103)  0.1798 (104) -0.1644 (105)  0.1119 (106)
           0.1055 (110)  0.1101 (111)
 CRD 36=   0.1033 (  1)  0.1047 (  4)  0.1159 (  6)  0.1476 (  7) -0.1919 ( 10)
          -0.1586 ( 12) -0.1965 ( 14)  0.2057 ( 15) -0.1573 ( 17)  0.3974 ( 18)
          -0.1557 ( 45)  0.2866 ( 68)  0.1446 ( 69) -0.1289 ( 78) -0.2536 ( 79)
           0.1250 ( 85) -0.2207 ( 90)  0.1720 ( 93) -0.1241 (104)  0.1572 (105)
          -0.1487 (106)  0.1151 (118)  0.1579 (119)  0.1282 (120)
 CRD 37=   0.1449 (  1)  0.1342 (  4) -0.1595 (  7) -0.3028 (  8)  0.1694 ( 11)
           0.2289 ( 12)  0.2506 ( 14) -0.1197 ( 27) -0.1016 ( 31) -0.1154 ( 40)
           0.1441 ( 43)  0.1102 ( 46) -0.1423 ( 48)  0.1892 ( 55)  0.1065 ( 72)
          -0.1397 ( 73) -0.2538 ( 74)  0.1451 ( 78)  0.1860 ( 85) -0.1837 ( 86)
           0.1307 ( 92)  0.2453 ( 98) -0.1021 ( 99) -0.1575 (103)  0.1489 (104)
          -0.1047 (105)  0.1360 (108) -0.1107 (109) -0.1053 (110) -0.1257 (111)
 CRD 38=   0.1208 (  1)  0.1545 (  9) -0.1652 ( 10) -0.2344 ( 12)  0.2513 ( 14)
          -0.2747 ( 15) -0.1173 ( 27) -0.1053 ( 29) -0.1050 ( 37) -0.1938 ( 87)
          -0.1965 ( 88) -0.1973 ( 89) -0.2547 (109) -0.2539 (110) -0.2512 (111)
          -0.2802 (112) -0.2794 (113) -0.2767 (114)
 CRD 39=   0.2023 ( 17) -0.1998 ( 18)  0.1473 ( 68) -0.1228 ( 74) -0.1601 ( 79)
           0.1233 ( 85) -0.1545 ( 90)  0.1588 ( 93) -0.2171 ( 95) -0.2164 ( 96)
          -0.2316 ( 97)  0.1062 ( 98)  0.1062 (101)  0.1093 (102) -0.1042 (106)
          -0.3115 (115) -0.2962 (116) -0.2969 (117) -0.2910 (118) -0.2757 (119)
          -0.2764 (120)
 CRD 40=  -0.3999 (  1) -0.2520 (  3)  0.4180 (  4)  0.2476 (  5) -0.1256 (  6)
           0.1634 (  7) -0.1500 (  8)  0.1708 ( 10)  0.1021 ( 11) -0.2060 ( 12)
           0.1934 ( 27) -0.1938 ( 31) -0.1740 ( 34)  0.1719 ( 37)  0.1844 ( 38)
          -0.2008 ( 39)  0.1907 ( 42) -0.1831 ( 43) -0.1046 (109) -0.1093 (111)
 CRD 41=  -0.2212 (  1)  0.1182 (  4)  0.3181 (  7) -0.1190 (  9)  0.1056 ( 11)
          -0.1211 ( 12)  0.3373 ( 26) -0.2338 ( 27) -0.2869 ( 29)  0.2217 ( 31)
           0.1235 ( 33) -0.3368 ( 35) -0.2388 ( 38)  0.1441 ( 39) -0.1176 ( 42)
           0.2284 ( 43)  0.3085 ( 47) -0.1496 ( 48)
 CRD 42=  -0.3439 (  1) -0.2626 (  2)  0.1710 (  3) -0.3887 (  4)  0.1485 (  5)
           0.2012 (  6)  0.3281 (  7) -0.1274 (  9) -0.1132 ( 10)  0.1755 ( 11)
           0.3355 ( 12)  0.1323 ( 25)  0.1148 ( 26)  0.1974 ( 29)  0.1249 ( 32)
          -0.1786 ( 43) -0.1549 ( 47)
 CRD 43=   0.2508 (  1) -0.1365 (  2)  0.2319 (  4) -0.1010 (  5) -0.1166 (  6)
           0.3494 (  7) -0.4049 (  9) -0.1172 ( 11)  0.2894 ( 12)  0.1192 ( 19)
           0.1336 ( 22) -0.1275 ( 31)  0.1328 ( 38)  0.1246 ( 40)  0.1066 ( 45)
           0.1023 ( 54) -0.1280 ( 56) -0.1041 ( 60) -0.1230 ( 62) -0.1170 ( 63)
          -0.1096 ( 65) -0.1050 ( 66) -0.1126 (112) -0.1353 (113) -0.1031 (114)
 CRD 44=  -0.1397 (  1) -0.1040 (  7) -0.2142 (  8)  0.1110 ( 11) -0.1383 ( 13)
           0.2534 ( 19)  0.1914 ( 20)  0.2014 ( 21) -0.1232 ( 22)  0.1156 ( 40)
           0.1404 ( 41)  0.2053 ( 49)  0.1940 ( 50)  0.2182 ( 51) -0.1048 ( 54)
           0.1107 ( 55) -0.1529 ( 56) -0.1808 ( 57) -0.2370 ( 58) -0.1840 ( 59)
          -0.2304 ( 60)  0.1070 ( 65)  0.1112 ( 66)  0.1055 ( 75) -0.1766 ( 76)
           0.1253 ( 86) -0.1446 ( 91)  0.1375 ( 92)  0.1000 (105)
 CRD 45=  -0.1990 (  1)  0.2024 (  2)  0.1353 (  3) -0.2442 (  4)  0.1771 (  6)
          -0.2153 (  7) -0.2316 ( 10)  0.1516 ( 11) -0.3109 ( 12) -0.1545 ( 16)
           0.2156 ( 22)  0.1834 ( 23)  0.1817 ( 24)  0.1119 ( 44)  0.1129 ( 45)
           0.1810 ( 52)  0.1853 ( 53)  0.1946 ( 54) -0.1360 ( 62) -0.1227 ( 63)
          -0.1804 ( 64) -0.2039 ( 65) -0.2064 ( 66)  0.1237 ( 82) -0.1004 ( 83)
           0.1327 (102)
 CRD 46=   0.1854 (  2) -0.1206 (  3) -0.1705 (  4)  0.3008 (  6) -0.1374 (  7)
          -0.2341 (  9) -0.1873 ( 14)  0.1336 ( 15)  0.1838 ( 16) -0.1221 ( 17)
           0.1719 ( 18) -0.1113 ( 21) -0.1652 ( 24) -0.1736 ( 29)  0.1503 ( 37)
           0.1034 ( 42)  0.1307 ( 47)  0.1107 ( 58)  0.1194 ( 64)  0.1184 ( 65)
           0.1149 ( 79)  0.1748 ( 86)  0.1013 ( 90) -0.1398 ( 93) -0.1708 ( 98)
           0.1277 (101) -0.1804 (103)  0.1336 (106) -0.1205 (110) -0.1340 (111)
          -0.1512 (119) -0.1171 (120)
 CRD 47=  -0.2039 (  2)  0.1462 (  4) -0.2096 (  6)  0.2524 (  9)  0.1776 ( 13)
          -0.1166 ( 15) -0.1314 ( 16) -0.2036 ( 17)  0.1580 ( 18) -0.1030 ( 20)
           0.1508 ( 23)  0.1136 ( 29) -0.1129 ( 37) -0.1077 ( 66) -0.1016 ( 75)
          -0.1397 ( 76)  0.1836 ( 79)  0.2192 ( 86) -0.2051 ( 93) -0.2142 ( 98)
           0.1317 (101)  0.1547 (102) -0.2189 (103)  0.1549 (105)  0.1312 (106)
          -0.1417 (116) -0.1674 (117)
 CRD 48=  -0.2754 (  1)  0.2568 (  2) -0.1131 (  5) -0.1289 (  6) -0.3059 (  9)
           0.3655 ( 11) -0.1259 ( 12)  0.2200 ( 13)  0.1439 ( 16) -0.1172 ( 20)
          -0.1245 ( 21) -0.2243 ( 26)  0.1039 ( 29) -0.1318 ( 30)  0.2229 ( 34)
           0.1541 ( 35)  0.1389 ( 38)  0.2016 ( 39) -0.1271 ( 42) -0.1016 ( 48)
           0.1473 ( 59)  0.1009 (111) -0.1106 (113)
 CRD 49=  -0.1385 (  1)  0.4159 (  3) -0.2080 (  4)  0.4126 (  5) -0.3028 (  6)
          -0.3543 ( 11)  0.1031 ( 16) -0.2244 ( 27) -0.2373 ( 31)  0.1123 ( 37)
           0.2272 ( 38)  0.2636 ( 43)
 CRD 50=  -0.1132 (  1) -0.1739 (  3)  0.2542 (  5) -0.3668 (  7) -0.1600 ( 11)
           0.3624 ( 12)  0.1115 ( 13) -0.1938 ( 16)  0.2490 ( 25) -0.1393 ( 27)
           0.1231 ( 28) -0.1373 ( 30) -0.2523 ( 32) -0.1252 ( 33)  0.1529 ( 34)
          -0.2023 ( 35) -0.1356 ( 37)  0.1587 ( 38) -0.1097 ( 43)  0.2078 ( 47)
           0.1187 ( 48) -0.1017 ( 64) -0.1139 (113)
 CRD 51=  -0.1047 (  1) -0.1080 (  6)  0.1386 (  8) -0.3128 ( 13)  0.1053 ( 15)
          -0.1569 ( 17)  0.1248 ( 18)  0.1309 ( 20)  0.1336 ( 23) -0.1176 ( 24)
          -0.1055 ( 55) -0.1001 ( 59) -0.1201 ( 60) -0.2082 ( 68) -0.1978 ( 74)
           0.1066 ( 76) -0.1785 ( 79) -0.1072 ( 84)  0.2497 ( 85)  0.2549 ( 90)
          -0.1860 ( 92)  0.1537 ( 93) -0.1226 ( 94)  0.1135 ( 97) -0.1629 (104)
          -0.2237 (105)  0.1259 (106)  0.2210 (108) -0.1061 (116) -0.1168 (117)
 CRD 52=   0.3997 (  2) -0.1754 (  3) -0.2416 (  4) -0.1308 (  6)  0.1718 (  7)
           0.2443 ( 10)  0.1250 ( 12) -0.1107 ( 15) -0.2323 ( 16)  0.1400 ( 21)
           0.1436 ( 23) -0.1988 ( 28) -0.1690 ( 29) -0.1908 ( 31)  0.1641 ( 32)
           0.2227 ( 35) -0.1240 ( 44)  0.2001 ( 47) -0.1510 ( 64)  0.1385 (113)
          -0.1567 (117)  0.1065 (119)
 CRD 53=   0.2316 (  1) -0.1051 (  2) -0.1166 (  3) -0.1530 (  4)  0.1768 (  5)
          -0.2656 (  8)  0.1754 ( 10)  0.1333 ( 11) -0.1376 ( 12)  0.1421 ( 13)
           0.1140 ( 15) -0.1169 ( 16)  0.1715 ( 19) -0.1826 ( 21) -0.1529 ( 25)
           0.1727 ( 26)  0.1541 ( 27) -0.1605 ( 28) -0.1212 ( 29)  0.2237 ( 30)
           0.1517 ( 41) -0.1024 ( 47) -0.1216 ( 55)  0.1819 ( 59) -0.1106 ( 64)
           0.1055 ( 87) -0.1003 ( 88)  0.1302 (109)  0.1724 (111) -0.2421 (113)
          -0.1167 (117)  0.1176 (119)
 CRD 54=   0.1014 (  2) -0.2092 (  3) -0.1455 (  8) -0.2567 ( 10)  0.2303 ( 14)
          -0.1022 ( 15)  0.1365 ( 16)  0.1196 ( 18)  0.1268 ( 19) -0.2574 ( 20)
           0.1230 ( 21)  0.1431 ( 22) -0.1770 ( 24) -0.1061 ( 29)  0.1631 ( 40)
          -0.1284 ( 43)  0.1300 ( 45) -0.1917 ( 58)  0.1010 ( 59)  0.1569 ( 64)
          -0.2111 ( 89) -0.1225 ( 92)  0.1353 (110)  0.2707 (111) -0.1318 (112)
           0.1393 (114)  0.1085 (115)  0.1224 (117) -0.2166 (119)
 CRD 55=  -0.1971 (  1)  0.1753 (  2)  0.1571 (  3) -0.3299 (  5)  0.1386 (  7)
          -0.2615 (  8)  0.1527 (  9) -0.2065 ( 11)  0.1053 ( 13) -0.1860 ( 16)
           0.1306 ( 19) -0.1683 ( 21)  0.1105 ( 22) -0.1935 ( 26) -0.1564 ( 27)
           0.1046 ( 29) -0.1913 ( 30)  0.1378 ( 32)  0.1498 ( 33) -0.1843 ( 34)
           0.1106 ( 35) -0.1914 ( 38)  0.1083 ( 41)  0.1319 ( 59) -0.1330 ( 61)
          -0.1762 (113)
 CRD 56=  -0.1703 ( 17)  0.1324 ( 18)  0.2498 ( 23) -0.2117 ( 24) -0.1147 ( 44)
           0.1875 ( 65) -0.1609 ( 66)  0.2013 ( 68)  0.1380 ( 70)  0.2256 ( 74)
           0.1130 ( 76) -0.1574 ( 81)  0.1396 ( 82)  0.1245 ( 83) -0.1644 ( 85)
          -0.1988 ( 86) -0.1321 ( 90) -0.1047 ( 93)  0.2375 ( 97)  0.1777 ( 98)
           0.1317 (103)  0.2718 (104) -0.1713 (106) -0.1164 (107) -0.1070 (108)
          -0.1409 (116) -0.1814 (117)  0.1285 (118) -0.1040 (119) -0.1445 (120)
 CRD 57=  -0.1216 (  2)  0.2178 (  3)  0.1402 (  4) -0.1008 (  5)  0.2984 (  6)
          -0.1003 (  7) -0.1791 (  9)  0.2016 ( 10) -0.1299 ( 11) -0.2199 ( 20)
           0.1692 ( 21) -0.1646 ( 22)  0.1017 ( 24)  0.1531 ( 28)  0.1238 ( 29)
           0.1438 ( 31) -0.1009 ( 32) -0.1039 ( 33)  0.1748 ( 37) -0.1106 ( 39)
           0.1048 ( 40)  0.1811 ( 42)  0.1385 ( 43) -0.1653 ( 58)  0.1308 ( 60)
          -0.1183 ( 64) -0.2295 ( 89) -0.1114 (109)  0.1413 (111) -0.1320 (112)
           0.1207 (114) -0.1171 (117)  0.1505 (119)
 CRD 58=  -0.1060 (  2) -0.2246 (  9)  0.1175 ( 10)  0.1426 ( 11) -0.1105 ( 12)
           0.1034 ( 13) -0.3558 ( 16)  0.1172 ( 17)  0.1303 ( 18) -0.1238 ( 19)
           0.1026 ( 21)  0.2263 ( 22) -0.1216 ( 25)  0.1480 ( 39) -0.1391 ( 44)
          -0.1048 ( 45) -0.2016 ( 48)  0.1006 ( 52)  0.1061 ( 60) -0.1880 ( 61)
           0.1677 ( 62)  0.1448 ( 63) -0.1560 ( 66) -0.1616 ( 82)  0.1906 ( 83)
           0.1066 ( 95) -0.1087 ( 96)  0.1643 (101) -0.1878 (102)  0.1082 (113)
           0.1230 (117) -0.1546 (119)
 CRD 59=  -0.1020 (  8)  0.3448 ( 13) -0.1206 ( 14) -0.1259 ( 15)  0.1323 ( 16)
          -0.2083 ( 19)  0.1322 ( 23) -0.1012 ( 24)  0.1077 ( 41)  0.1755 ( 55)
          -0.1498 ( 56) -0.1578 ( 57)  0.1157 ( 58)  0.1158 ( 60)  0.1338 ( 65)
          -0.1127 ( 68)  0.1069 ( 70) -0.1100 ( 71) -0.1713 ( 72)  0.1850 ( 75)
          -0.1453 ( 76) -0.1696 ( 79)  0.1172 ( 82)  0.1040 ( 88) -0.2081 ( 91)
           0.1222 ( 92)  0.1423 ( 93)  0.1128 ( 97)  0.1461 ( 99) -0.1158 (101)
           0.1732 (103) -0.1192 (104) -0.1630 (105) -0.1160 (111)  0.1222 (113)
           0.1012 (118)
 CRD 60=  -0.2469 (  8)  0.1336 ( 14)  0.1237 ( 15) -0.1042 ( 17) -0.2192 ( 19)
           0.1058 ( 20)  0.1137 ( 21) -0.1305 ( 23)  0.1089 ( 24)  0.1531 ( 36)
           0.1025 ( 40)  0.1811 ( 51) -0.1913 ( 55) -0.1656 ( 59) -0.1091 ( 80)
          -0.1314 ( 84) -0.1676 ( 87)  0.1651 ( 88) -0.1031 ( 92)  0.1244 ( 95)
           0.1368 (104)  0.1644 (109)  0.3349 (110) -0.1675 (112) -0.3298 (114)
          -0.1767 (115) -0.1346 (118)
 CRD 61=  -0.2404 ( 10)  0.1867 ( 17)  0.1440 ( 18) -0.2309 ( 22)  0.1544 ( 23)
           0.2295 ( 46) -0.1178 ( 53)  0.2059 ( 54) -0.2544 ( 61) -0.1842 ( 64)
           0.1090 ( 65) -0.1303 ( 82)  0.1032 ( 83) -0.2113 ( 95)  0.1522 ( 96)
           0.1016 (101) -0.1319 (102)  0.2243 (115)  0.3584 (116) -0.1430 (118)
          -0.3724 (120)
 CRD 62=   0.1156 (  8) -0.1062 ( 17)  0.1932 ( 18) -0.1284 ( 23)  0.1923 ( 24)
          -0.1067 ( 36) -0.1509 ( 52)  0.1029 ( 53)  0.1182 ( 55) -0.1365 ( 62)
           0.1116 ( 63)  0.1404 ( 66)  0.1666 ( 67)  0.1518 ( 69)  0.1145 ( 70)
          -0.1361 ( 72) -0.1102 ( 73)  0.1099 ( 74) -0.1202 ( 79) -0.1587 ( 84)
           0.1059 ( 90) -0.1157 ( 91)  0.1359 ( 95)  0.2313 ( 96)  0.1529 ( 98)
          -0.1064 (100)  0.1454 (101)  0.1791 (103) -0.2479 (105) -0.1138 (108)
          -0.1533 (110)  0.1652 (114) -0.1851 (115) -0.2760 (118)
 CRD 63=  -0.1068 (  6)  0.1035 (  9) -0.2248 ( 14)  0.2317 ( 15) -0.1964 ( 20)
           0.1954 ( 21)  0.1461 ( 33) -0.1437 ( 40)  0.1556 ( 41) -0.1488 ( 42)
          -0.1749 ( 49)  0.1734 ( 50) -0.1830 ( 56)  0.1734 ( 57) -0.1455 ( 58)
           0.1469 ( 60)  0.1176 ( 75)  0.1213 ( 76) -0.2146 ( 77)  0.2951 ( 87)
           0.2948 ( 88)  0.1089 ( 91)  0.1052 ( 92) -0.2270 ( 94) -0.3110 (109)
          -0.3253 (112)
 CRD 64=   0.1031 ( 13) -0.1146 ( 36) -0.1610 ( 67)  0.1552 ( 68) -0.1470 ( 70)
           0.1082 ( 71) -0.1210 ( 72)  0.3468 ( 73)  0.1957 ( 75)  0.1344 ( 77)
          -0.2990 ( 78)  0.1016 ( 79)  0.1762 ( 85) -0.1545 ( 86) -0.2056 ( 91)
          -0.1027 ( 94)  0.1769 ( 99) -0.3783 (103)  0.3306 (104) -0.2030 (106)
           0.1629 (107)  0.1903 (108)
 CRD 65=  -0.1283 ( 17)  0.1169 ( 18) -0.3338 ( 69)  0.1142 ( 70)  0.2210 ( 71)
           0.1017 ( 72) -0.1306 ( 74)  0.1491 ( 75)  0.1232 ( 77)  0.2415 ( 78)
          -0.2014 ( 81)  0.1323 ( 82)  0.1184 ( 83) -0.1348 ( 90)  0.1198 ( 93)
           0.1679 ( 95)  0.1705 ( 96)  0.1078 ( 99) -0.2456 (100) -0.2501 (104)
           0.3483 (105) -0.2541 (106)  0.2079 (108) -0.1263 (115) -0.1199 (118)
 CRD 66=  -0.2851 ( 67)  0.1787 ( 69) -0.2674 ( 71)  0.2012 ( 73) -0.1564 ( 75)
          -0.1237 ( 77) -0.1423 ( 78)  0.3138 ( 80)  0.2153 ( 82)  0.2032 ( 83)
           0.2158 ( 91)  0.1355 ( 92)  0.1682 ( 94)  0.1159 ( 95)  0.1161 ( 96)
          -0.2289 (100) -0.1257 (101) -0.1136 (102) -0.1312 (103) -0.1183 (105)
           0.2003 (106) -0.3022 (107)  0.2565 (108)

 THE DETERMINANT OF THE G MATRIX IS 10**(   -27)


                     --------------------
                     INTERNAL COORDINATES
                     --------------------

                 - - ATOMS - -         COORDINATE      COORDINATE
 NO.   TYPE    I  J  K  L  M  N        (BOHR,RAD)       (ANG,DEG)
 ----------------------------------------------------------------
   1 STRETCH   1  7                     2.0536644       1.0867525
   2 STRETCH   1  2                     2.6222253       1.3876220
   3 STRETCH   1  6                     2.6400746       1.3970674
   4 STRETCH   2  8                     2.0528263       1.0863090
   5 STRETCH   2  3                     2.6317030       1.3926373
   6 STRETCH   3  4                     2.6595164       1.4073556
   7 STRETCH   3  9                     2.0565489       1.0882789
   8 STRETCH   4 10                     2.8617537       1.5143750
   9 STRETCH   4  5                     2.6776092       1.4169299
  10 STRETCH   5 11                     2.8682870       1.5178322
  11 STRETCH   5  6                     2.6570246       1.4060370
  12 STRETCH   6 12                     2.0536207       1.0867293
  13 STRETCH  10 15                     2.8762012       1.5220202
  14 STRETCH  10 14                     2.0689327       1.0948321
  15 STRETCH  10 13                     2.0744016       1.0977261
  16 STRETCH  11 21                     2.8820164       1.5250975
  17 STRETCH  11 20                     2.0725406       1.0967413
  18 STRETCH  11 19                     2.0715143       1.0961982
  19 STRETCH  15 18                     2.0685225       1.0946150
  20 STRETCH  15 17                     2.0697526       1.0952660
  21 STRETCH  15 16                     2.0688718       1.0947999
  22 STRETCH  21 24                     2.0696358       1.0952042
  23 STRETCH  21 23                     2.0691891       1.0949678
  24 STRETCH  21 22                     2.0689154       1.0948230
  25 BEND      1  6  5                  2.1190036     121.4099628
  26 BEND      1  2  8                  2.0984960     120.2349636
  27 BEND      1  6 12                  2.0497439     117.4416730
  28 BEND      1  2  3                  2.0881557     119.6425071
  29 BEND      2  1  7                  2.0951880     120.0454314
  30 BEND      2  1  6                  2.0956945     120.0744498
  31 BEND      2  3  9                  2.0737260     118.8157497
  32 BEND      2  3  4                  2.1130974     121.0715601
  33 BEND      3  4 10                  2.0533960     117.6509245
  34 BEND      3  4  5                  2.0865175     119.5486455
  35 BEND      3  2  8                  2.0965330     120.1224949
  36 BEND      4 10 15                  1.9543472     111.9758472
  37 BEND      4  5  6                  2.0637571     118.2445736
  38 BEND      4  3  9                  2.0963619     120.1126879
  39 BEND      4  5 11                  2.1003882     120.3433775
  40 BEND      4 10 13                  1.9061814     109.2161515
  41 BEND      4 10 14                  1.9363903     110.9469894
  42 BEND      5  4 10                  2.1430518     122.7878222
  43 BEND      5  6 12                  2.1144377     121.1483551
  44 BEND      5 11 19                  1.8931419     108.4690424
  45 BEND      5 11 20                  1.8858209     108.0495783
  46 BEND      5 11 21                  2.0494002     117.4219829
  47 BEND      6  1  7                  2.0923027     119.8801157
  48 BEND      6  5 11                  2.1188126     121.3990180
  49 BEND     10 15 16                  1.9460168     111.4985481
  50 BEND     10 15 17                  1.9421169     111.2751043
  51 BEND     10 15 18                  1.9228127     110.1690548
  52 BEND     11 21 22                  1.9453173     111.4584707
  53 BEND     11 21 23                  1.9439754     111.3815847
  54 BEND     11 21 24                  1.9188529     109.9421719
  55 BEND     13 10 14                  1.8347480     105.1233148
  56 BEND     13 10 15                  1.9076724     109.3015797
  57 BEND     14 10 15                  1.9204934     110.0361644
  58 BEND     16 15 18                  1.8859581     108.0574399
  59 BEND     16 15 17                  1.8805974     107.7502940
  60 BEND     17 15 18                  1.8841157     107.9518753
  61 BEND     19 11 20                  1.8813588     107.7939183
  62 BEND     19 11 21                  1.8665178     106.9435895
  63 BEND     20 11 21                  1.8816741     107.8119867
  64 BEND     22 21 23                  1.8950839     108.5803092
  65 BEND     22 21 24                  1.8761423     107.4950354
  66 BEND     23 21 24                  1.8820762     107.8350212
  67 TORSION   1  6  5  4              -0.0145342      -0.8327474
  68 TORSION   1  2  3  9              -3.1405552    -179.9405576
  69 TORSION   1  2  3  4               0.0013462       0.0771302
  70 TORSION   1  6  5 11              -3.1332784    -179.5236295
  71 TORSION   2  3  4  5              -0.0131513      -0.7535143
  72 TORSION   2  3  4 10              -3.1328324    -179.4980757
  73 TORSION   2  1  6  5               0.0029591       0.1695424
  74 TORSION   2  1  6 12              -3.1392340    -179.8648577
  75 TORSION   3  4 10 13              -0.6180327     -35.4106633
  76 TORSION   3  4 10 14              -2.6325136    -150.8319161
  77 TORSION   3  4 10 15               1.4974193      85.7958035
  78 TORSION   3  2  1  6               0.0038351       0.2197360
  79 TORSION   3  2  1  7              -3.1381129    -179.8006245
  80 TORSION   3  4  5  6               0.0193551       1.1089662
  81 TORSION   3  4  5 11               3.1383497     179.8141912
  82 TORSION   4  5 11 19               0.8882296      50.8918047
  83 TORSION   4  5 11 20              -1.1467645     -65.7047651
  84 TORSION   4  5 11 21               3.0052189     172.1863615
  85 TORSION   4  5  6 12               3.1276811     179.2029249
  86 TORSION   4  3  2  8              -3.1390720    -179.8555744
  87 TORSION   4 10 15 16               1.0463525      59.9515821
  88 TORSION   4 10 15 17              -1.0538265     -60.3798105
  89 TORSION   4 10 15 18               3.1402748     179.9244918
  90 TORSION   5  4  3  9               3.1287540     179.2644012
  91 TORSION   5  4 10 14               0.5317533      30.4672189
  92 TORSION   5  4 10 13               2.5462342     145.8884718
  93 TORSION   5  6  1  7              -3.1382788    -179.8101310
  94 TORSION   5  4 10 15              -1.6214992     -92.9050614
  95 TORSION   5 11 21 22               1.1092993      63.5581653
  96 TORSION   5 11 21 23              -1.0101860     -57.8793949
  97 TORSION   5 11 21 24              -3.0953131    -177.3483748
  98 TORSION   6  1  2  8              -3.1389334    -179.8476363
  99 TORSION   6  5  4 10               3.1378603     179.7861509
 100 TORSION   6  5 11 21              -0.1596967      -9.1499477
 101 TORSION   6  5 11 20               1.9715052     112.9589257
 102 TORSION   6  5 11 19              -2.2766861    -130.4445045
 103 TORSION   7  1  6 12               0.0027134       0.1554689
 104 TORSION   7  1  2  8               0.0023039       0.1320032
 105 TORSION   8  2  3  9               0.0022120       0.1267378
 106 TORSION   9  3  4 10               0.0090729       0.5198398
 107 TORSION  10  4  5 11              -0.0263305      -1.5086241
 108 TORSION  11  5  6 12               0.0089368       0.5120428
 109 TORSION  13 10 15 18              -1.0283194     -58.9183611
 110 TORSION  13 10 15 17               1.0607646      60.7773366
 111 TORSION  13 10 15 16              -3.1222417    -178.8912708
 112 TORSION  14 10 15 18               0.9780899      56.0404208
 113 TORSION  14 10 15 17               3.0671739     175.7361185
 114 TORSION  14 10 15 16              -1.1158324     -63.9324889
 115 TORSION  19 11 21 24              -0.9645544     -55.2648942
 116 TORSION  19 11 21 23               1.1205727      64.2040858
 117 TORSION  19 11 21 22              -3.0431274    -174.3583541
 118 TORSION  20 11 21 24               1.0545371      60.4205247
 119 TORSION  20 11 21 23               3.1396641     179.8895047
 120 TORSION  20 11 21 22              -1.0240359     -58.6729352

     ------------------------------------------
     THE POINT GROUP IS C1 , NAXIS= 1, ORDER= 1
     ------------------------------------------

     DIMENSIONS OF THE SYMMETRY SUBSPACES ARE
 A   =  274

 ..... DONE SETTING UP THE RUN .....
 STEP CPU TIME =     0.02 TOTAL CPU TIME =        0.0 (    0.0 MIN)
 TOTAL WALL CLOCK TIME=        0.0 SECONDS, CPU UTILIZATION IS 100.00%


          -----------------------------
          STATIONARY POINT LOCATION RUN
          -----------------------------

 OBTAINING INITIAL HESSIAN, HESS=GUESS   
 DIAGONAL GUESS HESSIAN IN INTERNAL COORDS IS
     1  0.3486     2  0.4843     3  0.4754     4  0.3489     5  0.4796
     6  0.4660     7  0.3475     8  0.3785     9  0.4574    10  0.3760
    11  0.4672    12  0.3486    13  0.3729    14  0.3431    15  0.3412
    16  0.3707    17  0.3419    18  0.3422    19  0.3433    20  0.3428
    21  0.3432    22  0.3429    23  0.3430    24  0.3431    25  0.2676
    26  0.2330    27  0.2324    28  0.2694    29  0.2330    30  0.2690
    31  0.2326    32  0.2678    33  0.2585    34  0.2659    35  0.2327
    36  0.2502    37  0.2660    38  0.2317    39  0.2575    40  0.2245
    41  0.2247    42  0.2578    43  0.2319    44  0.2244    45  0.2244
    46  0.2497    47  0.2324    48  0.2583    49  0.2243    50  0.2242
    51  0.2243    52  0.2241    53  0.2241    54  0.2241    55  0.2028
    56  0.2241    57  0.2243    58  0.2029    59  0.2029    60  0.2029
    61  0.2028    62  0.2240    63  0.2240    64  0.2029    65  0.2029
    66  0.2029    67  0.2500    68  0.2500    69  0.2500    70  0.2500
    71  0.2500    72  0.2500    73  0.2500    74  0.2500    75  0.2500
    76  0.2500    77  0.2500    78  0.2500    79  0.2500    80  0.2500
    81  0.2500    82  0.2500    83  0.2500    84  0.2500    85  0.2500
    86  0.2500    87  0.2500    88  0.2500    89  0.2500    90  0.2500
    91  0.2500    92  0.2500    93  0.2500    94  0.2500    95  0.2500
    96  0.2500    97  0.2500    98  0.2500    99  0.2500   100  0.2500
   101  0.2500   102  0.2500   103  0.2500   104  0.2500   105  0.2500
   106  0.2500   107  0.2500   108  0.2500   109  0.2500   110  0.2500
   111  0.2500   112  0.2500   113  0.2500   114  0.2500   115  0.2500
   116  0.2500   117  0.2500   118  0.2500   119  0.2500   120  0.2500
 TRANSFORMING HESSIAN TO SYMMETRY COORDINATES

          PARAMETERS CONTROLLING GEOMETRY SEARCH ARE
          METHOD =QA                  UPHESS =BFGS    
          NNEG   =         0          NFRZ   =         3
          NSTEP  =        50          IFOLOW =         1
          HESS   =GUESS               RESTAR =         F
          IHREP  =         0          HSSEND =         F
          NPRT   =         0          NPUN   =         0
          OPTTOL = 5.000E-04          RMIN   = 1.500E-03
          RMAX   = 1.000E-01          RLIM   = 7.000E-02
          DXMAX  = 3.000E-01          PURIFY =         F
          MOVIE  =         F          TRUPD  =         T
          TRMAX  = 5.000E-01          TRMIN  = 5.000E-02
          ITBMAT =         5          STPT   =         F
          STSTEP = 1.000E-02          PROJCT=          F
          FROZEN COORD(S)=   1   2   3


      ***** EQUILIBRIUM GEOMETRY LOCATED *****
            (SUBJECT TO   3 CONSTRAINT(S))
 COORDINATES OF ALL ATOMS ARE (ANGS)
   ATOM   CHARGE       X              Y              Z
 ------------------------------------------------------------
 C           6.0   0.0745369003  -1.3107107025   0.3837480233
 C           6.0  -1.1134938403  -0.6061526559   0.4076301977
 C           6.0  -1.1001121857   0.7495194870   0.1190881596
 C           6.0   0.0764060808   1.4203960533  -0.1909572897
 C           6.0   1.2870968597   0.7066768364  -0.2152342617
 C           6.0   1.2578992346  -0.6542943996   0.0722866941
 H           1.0   0.0876722388  -2.3641204265   0.6024712286
 H           1.0  -2.0402756046  -1.0985962680   0.6446144061
 H           1.0  -2.0251908444   1.3009190257   0.1349271312
 C           6.0  -0.0004601380   2.9126679838  -0.4606908226
 C           6.0   2.5845773890   1.4203082781  -0.5760603412
 H           1.0   2.1680653342  -1.2242284846   0.0568658953
 H           1.0  -0.9404257321   3.1227677422  -0.9615747510
 H           1.0   0.7845348852   3.2201666092  -1.1402889046
 C           6.0   0.0737247931   3.7560867314   0.8196975983
 H           1.0   1.0029286296   3.5840177381   1.3549730761
 H           1.0  -0.7451282747   3.5103723936   1.4895989443
 H           1.0   0.0105691931   4.8144814319   0.5832747106
 H           1.0   2.6611801372   2.3233500081   0.0210605234
 H           1.0   2.5134071603   1.7553044878  -1.6085712338
 C           6.0   3.8816478020   0.6289265253  -0.4155195557
 H           1.0   3.9201828376  -0.2318318427  -1.0758995639
 H           1.0   4.0212711469   0.2821610996   0.6042308512
 H           1.0   4.7218176462   1.2702316710  -0.6649417322


                     --------------------
                     INTERNAL COORDINATES
                     --------------------

                 - - ATOMS - -         COORDINATE      COORDINATE
 NO.   TYPE    I  J  K  L  M  N        (BOHR,RAD)       (ANG,DEG)
 ----------------------------------------------------------------
   1 STRETCH   1  7                     2.0332647       1.0759574
   2 STRETCH   1  2                     2.6105519       1.3814447
   3 STRETCH   1  6                     2.6240919       1.3886097
   4 STRETCH   2  8                     2.0331789       1.0759120
   5 STRETCH   2  3                     2.6193555       1.3861034
   6 STRETCH   3  4                     2.6255625       1.3893879
   7 STRETCH   3  9                     2.0353523       1.0770621
   8 STRETCH   4 10                     2.8693609       1.5184005
   9 STRETCH   4  5                     2.6562293       1.4056161
  10 STRETCH   5 11                     2.8801563       1.5241132
  11 STRETCH   5  6                     2.6292082       1.3913172
  12 STRETCH   6 12                     2.0295560       1.0739949
  13 STRETCH  10 15                     2.9007467       1.5350092
  14 STRETCH  10 14                     2.0463439       1.0828786
  15 STRETCH  10 13                     2.0515166       1.0856159
  16 STRETCH  11 21                     2.8872948       1.5278907
  17 STRETCH  11 20                     2.0556939       1.0878265
  18 STRETCH  11 19                     2.0509454       1.0853136
  19 STRETCH  15 18                     2.0528407       1.0863166
  20 STRETCH  15 17                     2.0524753       1.0861232
  21 STRETCH  15 16                     2.0523741       1.0860697
  22 STRETCH  21 24                     2.0522190       1.0859876
  23 STRETCH  21 23                     2.0524476       1.0861086
  24 STRETCH  21 22                     2.0514555       1.0855836
  25 BEND      1  6  5                  2.1254395     121.7787154
  26 BEND      1  2  8                  2.1073350     120.7414008
  27 BEND      1  6 12                  2.0652647     118.3309487
  28 BEND      1  2  3                  2.0793529     119.1381448
  29 BEND      2  1  7                  2.1016991     120.4184865
  30 BEND      2  1  6                  2.0893954     119.7135362
  31 BEND      2  3  9                  2.0821464     119.2982010
  32 BEND      2  3  4                  2.1257277     121.7952227
  33 BEND      3  4 10                  2.0615866     118.1202130
  34 BEND      3  4  5                  2.0806353     119.2116191
  35 BEND      3  2  8                  2.0964956     120.1203512
  36 BEND      4 10 15                  1.9707516     112.9157479
  37 BEND      4  5  6                  2.0658094     118.3621604
  38 BEND      4  3  9                  2.0753112     118.9065756
  39 BEND      4  5 11                  2.0939187     119.9727031
  40 BEND      4 10 13                  1.8922994     108.4207698
  41 BEND      4 10 14                  1.9324980     110.7239787
  42 BEND      5  4 10                  2.1407105     122.6536755
  43 BEND      5  6 12                  2.0924810     119.8903300
  44 BEND      5 11 19                  1.8959182     108.6281123
  45 BEND      5 11 20                  1.8893585     108.2522669
  46 BEND      5 11 21                  2.0435026     117.0840759
  47 BEND      6  1  7                  2.0920880     119.8678116
  48 BEND      6  5 11                  2.1232814     121.6550603
  49 BEND     10 15 16                  1.9448582     111.4321669
  50 BEND     10 15 17                  1.9323557     110.7158278
  51 BEND     10 15 18                  1.9294205     110.5476490
  52 BEND     11 21 22                  1.9572480     112.1420489
  53 BEND     11 21 23                  1.9532054     111.9104254
  54 BEND     11 21 24                  1.9036803     109.0728458
  55 BEND     13 10 14                  1.8578686     106.4480315
  56 BEND     13 10 15                  1.8969043     108.6846087
  57 BEND     14 10 15                  1.9096689     109.4159658
  58 BEND     16 15 18                  1.8874249     108.1414830
  59 BEND     16 15 17                  1.8809485     107.7704123
  60 BEND     17 15 18                  1.8868513     108.1086167
  61 BEND     19 11 20                  1.8448045     105.6995105
  62 BEND     19 11 21                  1.8894004     108.2546711
  63 BEND     20 11 21                  1.8910169     108.3472885
  64 BEND     22 21 23                  1.8896062     108.2664629
  65 BEND     22 21 24                  1.8765920     107.5208024
  66 BEND     23 21 24                  1.8804462     107.7416312
  67 TORSION   1  6  5  4              -0.0047859      -0.2742096
  68 TORSION   1  2  3  9               3.1393563     179.8718682
  69 TORSION   1  2  3  4              -0.0024075      -0.1379419
  70 TORSION   1  6  5 11              -3.1262103    -179.1186540
  71 TORSION   2  3  4  5               0.0016508       0.0945844
  72 TORSION   2  3  4 10              -3.1164201    -178.5577183
  73 TORSION   2  1  6  5               0.0040880       0.2342232
  74 TORSION   2  1  6 12              -3.1379937    -179.7937929
  75 TORSION   3  4 10 13              -0.6103090     -34.9681291
  76 TORSION   3  4 10 14              -2.6423852    -151.3975170
  77 TORSION   3  4 10 15               1.4926394      85.5219363
  78 TORSION   3  2  1  6              -0.0004353      -0.0249430
  79 TORSION   3  2  1  7              -3.1394405    -179.8766897
  80 TORSION   3  4  5  6               0.0019008       0.1089089
  81 TORSION   3  4  5 11               3.1236754     178.9734192
  82 TORSION   4  5 11 19               0.8676864      49.7147709
  83 TORSION   4  5 11 20              -1.1275912     -64.6062186
  84 TORSION   4  5 11 21               3.0132611     172.6471412
  85 TORSION   4  5  6 12               3.1373032     179.7542344
  86 TORSION   4  3  2  8               3.1412089     179.9780101
  87 TORSION   4 10 15 16               1.0469885      59.9880247
  88 TORSION   4 10 15 17              -1.0462446     -59.9453990
  89 TORSION   4 10 15 18              -3.1367611    -179.7231698
  90 TORSION   5  4  3  9              -3.1401124    -179.9151885
  91 TORSION   5  4 10 14               0.5235920      29.9996127
  92 TORSION   5  4 10 13               2.5556682     146.4290006
  93 TORSION   5  6  1  7              -3.1400778    -179.9132050
  94 TORSION   5  4 10 15              -1.6245688     -93.0809340
  95 TORSION   5 11 21 22               1.1073954      63.4490811
  96 TORSION   5 11 21 23              -1.0201181     -58.4484643
  97 TORSION   5 11 21 24              -3.0990983    -177.5652533
  98 TORSION   6  1  2  8               3.1391206     179.8583644
  99 TORSION   6  5  4 10               3.1188536     178.6971498
 100 TORSION   6  5 11 21              -0.1488188      -8.5266908
 101 TORSION   6  5 11 20               1.9935142     114.2199494
 102 TORSION   6  5 11 19              -2.2943934    -131.4590611
 103 TORSION   7  1  6 12               0.0010259       0.0587789
 104 TORSION   7  1  2  8               0.0001155       0.0066177
 105 TORSION   8  2  3  9              -0.0002126      -0.0121799
 106 TORSION   9  3  4 10               0.0250020       1.4325089
 107 TORSION  10  4  5 11              -0.0425571      -2.4383398
 108 TORSION  11  5  6 12               0.0158788       0.9097901
 109 TORSION  13 10 15 18              -1.0364454     -59.3839447
 110 TORSION  13 10 15 17               1.0540711      60.3938262
 111 TORSION  13 10 15 16              -3.1358811    -179.6727501
 112 TORSION  14 10 15 18               0.9856341      56.4726715
 113 TORSION  14 10 15 17               3.0761505     176.2504423
 114 TORSION  14 10 15 16              -1.1138017     -63.8161340
 115 TORSION  19 11 21 24              -0.9501805     -54.4413337
 116 TORSION  19 11 21 23               1.1287996      64.6754553
 117 TORSION  19 11 21 22              -3.0268721    -173.4269993
 118 TORSION  20 11 21 24               1.0426076      59.7370142
 119 TORSION  20 11 21 23               3.1215877     178.8538032
 120 TORSION  20 11 21 22              -1.0340840     -59.2486514

          INTERNUCLEAR DISTANCES (ANGS.)


 =====================================================
   GAMESS/COSab RESULTS
 =====================================================

   Dielectric Constant                  = INFTY
   Basic Grid Size                      =                 1082
   Number of Segments                   =                   92
   Number of Segments located on spheres=                  323
   Number of Segments of the cavity     =                  843
   Solvent Radius (rsolv)               = 1.40
   Outlying Charge Error Method         = double cavity

 =====================================================

  Total solvated Energy (a.u.)          =  -386.9340618712
  Total Energy corrected (a.u.)         =  -386.9340657042

  Outlying charge effect (a.u.)         =    -0.0000038330
  Outlying charge effect (kcal/mol)     =    -0.0024052470

  Dielectric Energy (a.u.)              =    -0.0068398837
  Dielectric energy corr. (a.u.)        =    -0.0068437167

  Sum of polarization charges           =     0.0291967444
  Sum of polarization charges(cor.)     =    -0.0291967444

  Total surface area of cavity (A**2)   =  189.30
  Total volume of cavity (A**3)         =  194.14

 =====================================================
 NPS=                   843
NR.  ATOM  (X, Y, Z)(a.u.)                  CHARGE(e)  AREA(A**2) SIGMA(e/A**2)
   1   1   0.701489  -0.843415   4.086971   0.001420   0.139368   0.010189
   2   1   2.150749  -3.675888   3.692830   0.001102   0.325193   0.003390
   3   1  -0.980131  -3.953052   4.018888   0.000970   0.278737   0.003478
   4   1  -0.221116  -4.774706  -2.253635   0.001664   0.371649   0.004477
   5   1  -0.079953  -5.543283  -1.473178   0.001064   0.371649   0.002863
   6   1  -2.176395  -5.379113   0.023965   0.000149   0.092912   0.001600
   7   1  -1.349876  -4.634104   3.447006   0.000460   0.278737   0.001652
   8   1   1.719661  -4.451566   3.534494   0.000692   0.278737   0.002482
   9   1   2.207731  -5.472339  -0.294433  -0.000116   0.092912  -0.001247
  10   1   2.484654  -4.583222   2.811855   0.000235   0.185824   0.001265
  11   1   1.159678  -3.670800   4.163316   0.001374   0.325193   0.004226
  12   1  -0.160251  -3.657574   4.302819   0.000923   0.232280   0.003973
  13   1  -1.934142  -5.317378  -0.656947   0.000429   0.185824   0.002306
  14   1  -1.380369  -4.892172  -1.752033   0.001805   0.418105   0.004316
  15   1   1.085854  -4.987202  -1.937457   0.001700   0.371649   0.004575
  16   1   1.882585  -5.319405  -1.055494   0.000357   0.185824   0.001923
  17   1   1.465654  -2.644034   4.260879   0.002320   0.325193   0.007133
  18   1   1.005716  -1.663356   4.313267   0.001408   0.232280   0.006062
  19   1   0.274627  -1.704618   4.422460   0.001578   0.232280   0.006794
  20   1  -0.434010  -2.738254   4.451491   0.001960   0.278737   0.007030
  21   1  -0.949534  -3.852957  -2.621730   0.003623   0.511017   0.007090
  22   1   0.476970  -3.998266  -2.718187   0.002259   0.418105   0.005403
  23   1  -1.238001  -5.466118  -1.131579   0.000599   0.232280   0.002579
  24   1   0.318589  -4.306762   4.027326   0.001075   0.325193   0.003307
  25   1   2.683429  -4.902063   2.117340  -0.000107   0.092912  -0.001155
  26   1   1.142622  -5.543304  -1.244053   0.000348   0.185824   0.001872
  27   1  -0.331808  -2.705522  -3.017633   0.003683   0.464561   0.007929
  28   1   0.455339  -2.783117   4.479046   0.001529   0.278737   0.005486
  29   2  -1.863367  -1.422966  -2.991245   0.001092   0.139368   0.007838
  30   2  -4.843244  -1.180136  -1.833669   0.001147   0.325193   0.003526
  31   2  -3.542659  -3.999645  -1.246816   0.001186   0.278737   0.004255
  32   2  -3.086754  -1.122468   4.419731   0.001651   0.371649   0.004441
  33   2  -3.981190  -1.628351   4.014990   0.001032   0.371649   0.002777
  34   2  -3.132736  -3.903989   3.140315   0.000020   0.092912   0.000218
  35   2  -3.774561  -4.336517  -0.374847   0.000292   0.278737   0.001046
  36   2  -5.221867  -1.774407  -1.271467   0.000663   0.278737   0.002380
  37   2  -5.549975  -0.147602   1.959895  -0.000263   0.092912  -0.002827
  38   2  -5.547738  -0.899801  -0.767852   0.000189   0.185824   0.001015
  39   2  -4.444262  -2.186981  -2.008833   0.001360   0.325193   0.004183
  40   2  -3.789396  -3.325423  -1.816619   0.000984   0.232280   0.004237
  41   2  -3.041117  -3.400846   3.654699   0.000385   0.185824   0.002074
  42   2  -2.827860  -2.391068   4.264451   0.001528   0.325193   0.004699
  43   2  -4.009541  -0.259972   3.911930   0.001634   0.371649   0.004396
  44   2  -5.076270  -0.130294   2.872792   0.000288   0.185824   0.001552
  45   2  -3.779986  -1.572181  -2.590336   0.002273   0.325193   0.006991
  46   2  -2.749358  -1.587309  -2.927371   0.001374   0.232280   0.005915
  47   2  -2.434373  -2.250052  -2.829021   0.002095   0.232280   0.009021
  48   2  -2.928240  -3.250927  -2.258270   0.001525   0.278737   0.005471
  49   2  -1.885267  -1.077468   4.542798   0.002699   0.418105   0.006456
  50   2  -2.693481  -0.052439   4.339938   0.002301   0.418105   0.005503
  51   2  -3.405866  -2.691425   3.964040   0.000586   0.232280   0.002522
  52   2  -4.502766  -3.073035  -1.424148   0.001060   0.325193   0.003259
  53   2  -5.743722  -0.576238  -0.074729  -0.000026   0.092912  -0.000282
  54   2  -4.655518  -0.592402   3.503276   0.000548   0.232280   0.002359
  55   2  -1.141497  -0.087756   4.268690   0.003977   0.464561   0.008561
  56   2  -3.428562  -2.547872  -2.479863   0.001436   0.278737   0.005152
  57   2  -1.975979  -1.993630   4.451126   0.001032   0.232280   0.004443
  58   3  -1.777681   0.249088  -3.356983   0.001312   0.139368   0.009411
  59   3  -5.024455   0.643140  -2.013291   0.001225   0.278737   0.004397
  60   3  -3.233050   2.086490   3.761033   0.001725   0.278737   0.006189
  61   3  -4.191722   2.788874   3.042240   0.000510   0.185824   0.002745
  62   3  -5.322177   1.293253   2.161634   0.000038   0.046456   0.000815
  63   3  -5.525813   0.845663  -1.216287   0.000361   0.278737   0.001295
  64   3  -3.871322   2.175062  -3.014695   0.001326   0.325193   0.004078
  65   3  -4.518257   1.077649  -2.641856   0.000981   0.232280   0.004225
  66   3  -4.881113   1.498773   2.759840   0.000375   0.185824   0.002018
  67   3  -3.969934   1.919262   3.458533   0.000843   0.232280   0.003631
  68   3  -2.941872   1.828817  -3.431379   0.002130   0.325193   0.006550
  69   3  -2.383430   0.902286  -3.506873   0.001313   0.232280   0.005654
  70   3  -2.792908   0.314764  -3.319090   0.002148   0.232280   0.009249
  71   3  -3.960231   0.314589  -2.862179   0.001315   0.278737   0.004719
  72   3  -2.182899   1.882024   3.974264   0.002815   0.371649   0.007574
  73   3  -4.541036   2.073566   3.016165   0.000413   0.185824   0.002221
  74   3  -4.683593   1.994757  -2.451777   0.001198   0.371649   0.003225
  75   3  -0.953416   1.717798   3.820414   0.002457   0.278737   0.008814
  76   3  -3.599176   1.048405  -3.215543   0.001484   0.278737   0.005324
  77   4   0.510199   2.462801  -4.116034   0.000790   0.139368   0.005667
  78   4  -1.035280   2.428349  -3.942359   0.001271   0.232280   0.005472
  79   4  -0.209453   2.347075  -4.108571   0.000949   0.185824   0.005107
  80   4   0.015016   1.654393  -3.995005   0.000571   0.139368   0.004098
  81   4   0.692045   2.332908   3.362181   0.000960   0.139368   0.006888
  82   4  -0.594369   1.340054  -3.815104   0.002004   0.232280   0.008629
  83   5   2.726921   0.013648  -3.935232   0.000599   0.092912   0.006443
  84   5   1.916880   1.206856  -4.148671   0.000639   0.139368   0.004587
  85   5   2.375952   0.629809  -4.119302   0.000862   0.185824   0.004637
  86   5   1.879260   0.115464  -3.940868   0.000506   0.139368   0.003634
  87   5   2.360389   1.734738   3.350880   0.002577   0.325193   0.007924
  88   5   3.509498   1.854151   3.178620   0.002137   0.418105   0.005110
  89   5   1.285822   0.502018  -3.910352   0.001988   0.232280   0.008559
  90   6   2.011016  -0.059828   3.709524   0.000690   0.092912   0.007427
  91   6   3.612827  -3.155932   3.148693   0.000888   0.185824   0.004777
  92   6   3.382821  -2.759580  -3.172909   0.001859   0.418105   0.004446
  93   6   3.883143  -3.571928  -2.424959   0.000672   0.232280   0.002892
  94   6   3.393645  -4.773903  -0.722010  -0.000025   0.046456  -0.000532
  95   6   4.048865  -3.681045   2.484638   0.000225   0.232280   0.000970
  96   6   4.294312  -1.582886   3.375189   0.001051   0.232280   0.004527
  97   6   4.019999  -2.520339   3.288847   0.001215   0.278737   0.004360
  98   6   3.194929  -4.572828  -1.439441   0.000405   0.185824   0.002178
  99   6   2.840284  -3.801262  -2.600445   0.001649   0.371649   0.004437
 100   6   3.780436  -0.275505   3.511723   0.001536   0.232280   0.006611
 101   6   2.851326  -0.033419   3.687947   0.002057   0.232280   0.008854
 102   6   2.596567  -0.812206   3.885742   0.001817   0.185824   0.009778
 103   6   3.144360  -2.031889   3.750844   0.001072   0.232280   0.004617
 104   6   2.103874  -2.811689  -3.288050   0.003560   0.511017   0.006967
 105   6   2.963714  -1.694914  -3.568800   0.002555   0.418105   0.006112
 106   6   3.439415  -4.178873  -1.984205   0.000401   0.185824   0.002157
 107   6   4.647928  -2.533533   2.865165   0.000309   0.139368   0.002214
 108   6   1.411999  -1.656654  -3.493320   0.003679   0.464561   0.007919
 109   6   3.512231  -1.198265   3.741349   0.001891   0.325193   0.005816
 110   7   0.237584  -6.883835   1.576098  -0.005301   0.608459  -0.008712
 111   7   1.449725  -5.927753   2.639879  -0.002243   0.412182  -0.005441
 112   7   1.720133  -6.287915   0.586195  -0.002126   0.333671  -0.006372
 113   7  -0.175089  -6.491041  -0.212223  -0.001650   0.353299  -0.004671
 114   7  -1.590316  -6.171708   1.356269  -0.001924   0.333671  -0.005766
 115   7  -0.715840  -5.749703   3.039582  -0.001510   0.333671  -0.004525
 116   7   1.665520  -6.348936   1.634449  -0.003511   0.490692  -0.007156
 117   7   0.778704  -6.655504   0.204610  -0.003122   0.490692  -0.006363
 118   7  -0.933729  -6.594706   0.589318  -0.003358   0.510320  -0.006581
 119   7  -1.011420  -6.341016   2.206050  -0.003390   0.490692  -0.006909
 120   7   0.387817  -6.116350   2.946045  -0.003587   0.549575  -0.006528
 121   8  -5.987395  -3.144932   1.807998  -0.005340   0.608459  -0.008776
 122   8  -6.081082  -2.208708   0.186358  -0.002242   0.412182  -0.005439
 123   8  -6.017492  -1.258217   2.050231  -0.002186   0.353299  -0.006188
 124   8  -5.018270  -2.596268   3.318774  -0.001653   0.353299  -0.004678
 125   8  -4.409250  -4.279619   2.152399  -0.001923   0.333671  -0.005762
 126   8  -4.919428  -4.085271   0.287384  -0.001504   0.333671  -0.004508
 127   8  -6.294600  -1.783671   1.190653  -0.003524   0.490692  -0.007183
 128   8  -5.744577  -2.046921   2.788476  -0.003168   0.490692  -0.006456
 129   8  -4.908487  -3.590402   2.840868  -0.003375   0.510320  -0.006614
 130   8  -5.052070  -4.218465   1.334503  -0.003401   0.490692  -0.006931
 131   8  -5.765267  -3.282422   0.252327  -0.003614   0.549575  -0.006576
 132   9  -6.170467   3.195632   0.254300  -0.003605   0.451437  -0.007987
 133   9  -5.299867   3.260180   2.050265  -0.001361   0.274788  -0.004954
 134   9  -6.064915   1.981966   1.149464  -0.001961   0.294415  -0.006659
 135   9  -6.004445   2.246512  -0.862695  -0.002141   0.431809  -0.004959
 136   9  -5.585323   4.132498  -0.120477  -0.003865   0.412182  -0.009376
 137   9  -5.534746   3.999868   1.116800  -0.003716   0.412182  -0.009016
 138   9  -5.874929   2.762082   1.577506  -0.002262   0.372926  -0.006066
 139   9  -6.235420   1.980691   0.173200  -0.002300   0.353299  -0.006509
 140   9  -5.588963   3.281139  -1.246314  -0.003118   0.490692  -0.006355
 141  10  -0.491634   8.750733  -2.742231   0.000557   0.325193   0.001712
 142  10  -0.087112   6.049401  -4.609507   0.001236   0.325193   0.003802
 143  10  -0.941465   6.197041  -4.464947   0.000954   0.278737   0.003422
 144  10  -1.402464   8.481992  -2.728592   0.000283   0.278737   0.001016
 145  10  -0.145677   8.194066  -3.521550   0.000897   0.278737   0.003219
 146  10  -0.235053   7.149091  -4.265225   0.001188   0.278737   0.004261
 147  10  -0.451854   5.164675  -4.607650   0.000700   0.232280   0.003014
 148  10  -0.818969   4.290544  -4.355145   0.000361   0.185824   0.001940
 149  10   0.680336   8.697143  -2.774526   0.000305   0.278737   0.001093
 150  10   0.546429   4.859590  -4.554240   0.000324   0.232280   0.001394
 151  10  -1.352698   4.693566  -4.305666   0.000391   0.232280   0.001685
 152  10  -0.740548   7.752987  -3.816741   0.000935   0.278737   0.003356
 153  10   0.104087   4.322010  -4.458877   0.000249   0.185824   0.001340
 154  11   7.087685   5.611770  -2.014178   0.000279   0.185824   0.001502
 155  11   4.572989   0.587201  -4.217638   0.000108   0.139368   0.000772
 156  11   5.050616   1.091259  -4.512004   0.000005   0.046456   0.000108
 157  11   6.967656   5.830014  -1.302396   0.000276   0.278737   0.000991
 158  11   5.138883   3.130707   2.655713  -0.000006   0.046456  -0.000122
 159  11   5.432350   2.868312   2.646346  -0.000019   0.092912  -0.000202
 160  11   6.398253   5.828694  -2.538596   0.000972   0.325193   0.002990
 161  11   5.623894   6.072659  -2.589892   0.000512   0.185824   0.002757
 162  11   6.956595   5.149408  -3.066183   0.000393   0.278737   0.001408
 163  11   4.263313   0.969280  -4.398971   0.000048   0.046456   0.001030
 164  11   5.795631   6.264740  -1.883346   0.000340   0.139368   0.002439
 165  11   5.457418   3.413300   2.575248  -0.000015   0.046456  -0.000315
 166  12   5.858925  -4.019973   0.244006  -0.003504   0.392554  -0.008926
 167  12   4.960852  -4.054085  -1.395570  -0.001358   0.255160  -0.005323
 168  12   4.607951  -4.714845   0.021637  -0.001860   0.274788  -0.006769
 169  12   5.056007  -3.785988   1.824181  -0.000933   0.255160  -0.003658
 170  12   5.124261  -4.405710  -0.668654  -0.002724   0.392554  -0.006939
 171  12   4.973418  -4.435067   0.982565  -0.002710   0.392554  -0.006904
 172  12   5.737571  -3.548571   1.455887  -0.002435   0.294415  -0.008269
 173  13  -3.616603   6.823118  -3.159318  -0.002023   0.372926  -0.005426
 174  13  -3.995983   6.835564  -1.328513  -0.001427   0.333671  -0.004277
 175  13  -2.814943   5.158046  -3.916126  -0.001228   0.353299  -0.003474
 176  13  -2.332814   6.587815  -4.109469  -0.000841   0.353299  -0.002379
 177  13  -2.786733   7.985229  -2.637207  -0.001005   0.314043  -0.003200
 178  13  -4.157046   6.322845  -2.256814  -0.002183   0.372926  -0.005854
 179  13  -3.817904   5.528605  -3.133010  -0.002188   0.353299  -0.006193
 180  13  -3.137530   6.057118  -3.856758  -0.001474   0.333671  -0.004419
 181  13  -2.619572   7.457981  -3.520578  -0.001189   0.372926  -0.003188
 182  13  -3.575724   7.534592  -2.180629  -0.001573   0.392554  -0.004007
 183  14   2.897975   7.322721  -3.736055  -0.002743   0.412182  -0.006655
 184  14   2.394274   8.270415  -2.809656  -0.000868   0.274788  -0.003161
 185  14   1.518210   7.477106  -4.178807  -0.000773   0.294415  -0.002627
 186  14   1.651687   5.956301  -4.602249  -0.000760   0.235532  -0.003228
 187  14   3.240902   7.749879  -2.569833  -0.001746   0.333671  -0.005232
 188  14   2.027820   8.008553  -3.582619  -0.001127   0.314043  -0.003588
 189  14   1.901001   6.735005  -4.486734  -0.001562   0.353299  -0.004421
 190  15   2.655205   9.896557   1.899061   0.001022   0.232280   0.004400
 191  15   0.279049   8.679809   4.978666   0.000788   0.371649   0.002119
 192  15   0.034900   4.988824   4.683462   0.001348   0.325193   0.004147
 193  15  -2.881602   9.071136   0.424289   0.001210   0.418105   0.002894
 194  15  -2.750951   9.528786   1.401274   0.000651   0.185824   0.003506
 195  15  -3.565404   7.640695   1.034432   0.000620   0.278737   0.002223
 196  15  -3.437645   8.304441   1.364398   0.000714   0.232280   0.003073
 197  15   0.928241   5.397250   4.830677   0.000782   0.185824   0.004208
 198  15   1.297892   8.179454   4.980097   0.001082   0.418105   0.002588
 199  15   3.075274   9.372477   2.249777   0.001220   0.278737   0.004377
 200  15  -2.277043   9.715032   2.812548   0.001729   0.371649   0.004652
 201  15  -2.679494   9.146416   3.012736   0.001013   0.232280   0.004363
 202  15   3.265198   8.737542   0.198098   0.000467   0.232280   0.002009
 203  15   3.007288   9.460429   0.857750   0.001269   0.325193   0.003902
 204  15   2.172834   9.889351   3.084364   0.002282   0.511017   0.004465
 205  15   1.194452   9.429449   4.330231   0.001067   0.418105   0.002553
 206  15   0.030556   7.488134   5.306694   0.001447   0.418105   0.003460
 207  15   0.209472   6.048829   5.179243   0.001622   0.325193   0.004986
 208  15   0.995296   4.673056   4.318715   0.000766   0.185824   0.004120
 209  15   1.851984   9.391468  -0.918976   0.000039   0.092912   0.000417
 210  15  -0.993030  10.039309   3.634831   0.001197   0.371649   0.003220
 211  15  -0.193788   9.588697   4.372063   0.001061   0.464561   0.002284
 212  15  -0.803128   8.546277   4.910333   0.000859   0.325193   0.002641
 213  15  -2.170141   9.272549  -0.505729   0.000079   0.092912   0.000855
 214  15  -3.131609   8.963643   1.872481   0.001587   0.371649   0.004270
 215  15   0.797449   6.850403   5.262472   0.001234   0.325193   0.003796
 216  15   2.071998   9.270345   3.963512   0.000864   0.278737   0.003101
 217  15   3.503649   8.812004   1.382749   0.000757   0.232280   0.003259
 218  15  -1.601501   9.257772   4.115939   0.001503   0.418105   0.003595
 219  15   2.556424   9.386575  -0.241016   0.000789   0.325193   0.002426
 220  15   0.729391  10.192498   3.637080   0.000933   0.371649   0.002512
 221  16   3.823667   6.606139   4.073332  -0.002488   0.412182  -0.006036
 222  16   3.885148   8.193750   2.798033  -0.000604   0.294415  -0.002053
 223  16   2.332181   5.704758   4.729268  -0.000579   0.294415  -0.001967
 224  16   2.817991   7.654587   4.659603  -0.000908   0.372926  -0.002434
 225  16   4.121814   7.461289   3.337434  -0.001734   0.314043  -0.005522
[...]
 584  23   6.041222   0.399456   3.221177  -0.000399   0.251721  -0.001587
 585  23   6.494610  -0.802221   2.981387  -0.001507   0.506934  -0.002973
 586   6   4.717481  -0.600108   3.244318   0.002529   0.712792   0.003548
 587   6   5.249619  -1.943743   2.845350   0.000917   0.360765   0.002543
 588  12   3.830421  -4.861883   0.775186  -0.000817   0.308431  -0.002647
 589   7   2.558184  -5.581811   0.924495  -0.000724   0.308431  -0.002346
 590   9  -5.973330   0.971115   0.807284  -0.000389   0.228953  -0.001697
 591   8  -5.963567  -0.439218   1.243968  -0.000363   0.228953  -0.001586
 592   9  -4.193556   5.263774   0.228339  -0.001035   0.228819  -0.004523
 593  13  -3.810945   6.079656  -0.218482  -0.000749   0.228819  -0.003273
 594  15  -3.631656   6.326008   0.474143  -0.000190   0.228819  -0.000832
 595  13  -4.171912   4.950673  -2.409423  -0.000631   0.289341  -0.002181
 596  13  -4.271509   5.692270  -1.275792  -0.001995   0.579402  -0.003443
 597   9  -4.897424   4.161969  -1.329545  -0.002572   0.579402  -0.004439
 598   9  -4.872090   4.851183  -0.159354  -0.001263   0.289341  -0.004364
 599   9  -4.140053   5.257940   1.137949  -0.000307   0.112934  -0.002718
 600  15  -3.672999   6.348757   1.419062  -0.000170   0.112934  -0.001507
 601  17  -3.721413   6.259206   1.709291  -0.000367   0.112934  -0.003252
 602  15  -3.873536   6.509009   1.006687   0.000368   0.187265   0.001967
 603   9  -4.703721   4.938469   0.698849  -0.000593   0.127887  -0.004641
 604  17  -4.006675   6.178882   2.067981   0.000053   0.251021   0.000212
 605  17  -3.899761   5.604019   2.904544  -0.000712   0.501544  -0.001420
 606   9  -4.769983   4.618583   1.566843  -0.001277   0.501544  -0.002546
 607   9  -4.592140   4.020372   2.374463  -0.000051   0.251021  -0.000203
 608  10  -2.150021   8.542928  -1.573772  -0.000046   0.028793  -0.001594
 609  13  -2.363713   8.375548  -1.707573  -0.000092   0.028793  -0.003193
 610  15  -2.102840   8.786947  -1.139273  -0.000010   0.028793  -0.000357
 611  13  -2.403411   8.242696  -2.225839  -0.000186   0.066699  -0.002788
 612  13  -1.986159   7.891692  -3.156093  -0.000420   0.147084  -0.002857
 613  13  -1.754274   6.921319  -3.998285  -0.000305   0.147084  -0.002073
 614  13  -1.928702   5.644271  -4.206623  -0.000368   0.147084  -0.002500
 615  13  -2.312548   4.688616  -3.887151  -0.000203   0.066699  -0.003049
 616  10  -1.871818   8.318212  -2.466750  -0.000340   0.147168  -0.002310
 617  10  -1.410571   7.574561  -3.644267  -0.000080   0.147168  -0.000542
 618  10  -1.376602   6.245872  -4.265347  -0.000048   0.147168  -0.000326
 619  10  -1.783082   4.847281  -4.089195  -0.000253   0.147168  -0.001716
 620  10   1.633331   8.751394  -1.933187  -0.000043   0.027708  -0.001560
 621  14   1.828163   8.607194  -2.112101  -0.000097   0.027708  -0.003503
 622  15   1.641361   8.992899  -1.494848  -0.000010   0.027708  -0.000363
 623  10   1.568181   4.771612  -4.353790  -0.000284   0.081871  -0.003465
 624  14   1.816694   4.943910  -4.382818  -0.000363   0.081871  -0.004430
 625  20   2.563711   4.337100  -4.476335  -0.000335   0.081871  -0.004090
 626  14   1.336602   5.427281  -4.518010  -0.000214   0.067040  -0.003186
 627  14   0.970630   6.450868  -4.477597  -0.000271   0.148235  -0.001830
 628  14   0.986054   7.643449  -3.920172  -0.000439   0.148235  -0.002961
 629  14   1.540199   8.352511  -2.959254  -0.000585   0.148235  -0.003944
 630  10   0.790364   5.649218  -4.518813  -0.000179   0.147509  -0.001212
 631  10   0.486156   7.067378  -4.228524  -0.000101   0.147509  -0.000683
 632  10   0.823262   8.192889  -3.329874  -0.000270   0.147509  -0.001831
 633  10   1.445890   8.642817  -2.407103  -0.000165   0.081904  -0.002019
 634  10   1.324428   9.087800  -1.594077   0.000008   0.026518   0.000291
 635  15   1.366018   9.394483  -1.200749  -0.000017   0.026518  -0.000633
 636  18   1.227250   9.633330  -1.076552  -0.000041   0.026518  -0.001540
 637  10  -1.713880   8.964039  -1.336536  -0.000007   0.026518  -0.000264
 638  15  -1.713409   9.269047  -0.939722  -0.000022   0.026518  -0.000819
 639  18  -1.575492   9.519164  -0.838979  -0.000053   0.026518  -0.002011
 640  15   1.539008   9.282461  -1.279793   0.000031   0.026370   0.001179
 641  10   1.475353   8.899330  -1.883846   0.000029   0.026370   0.001102
 642  15  -1.901990   9.133792  -0.982516   0.000047   0.047160   0.001006
 643  10  -1.983779   8.715053  -1.562061   0.000028   0.047160   0.000600
 644  18   0.822496   9.863095  -1.128336  -0.000422   0.205532  -0.002053
 645  18  -0.647925   9.840637  -1.071897  -0.001560   0.421218  -0.003703
 646  10   0.280567   9.118367  -1.968322   0.000025   0.562378   0.000045
 647  10  -1.377499   9.016722  -1.765645   0.000287   0.289435   0.000991
 648  20   2.759889   3.615128  -4.709260  -0.000595   0.216059  -0.002752
 649  10   1.333032   4.341800  -4.485153   0.000305   0.310224   0.000984
 650  11   4.930973   6.492096  -1.597386   0.000037   0.082213   0.000452
 651  14   4.101290   6.883446  -1.774714  -0.000188   0.082213  -0.002289
 652  19   4.923475   6.571645  -1.302775  -0.000249   0.082213  -0.003028
 653  11   4.851847   5.961774  -3.101466  -0.000017   0.082418  -0.000204
 654  14   4.030022   6.403768  -3.151702  -0.000353   0.082418  -0.004277
 655  20   4.789095   5.848013  -3.379092  -0.000214   0.082418  -0.002597
 656  14   3.775841   7.092307  -2.477935  -0.001495   0.308808  -0.004842
 657  11   4.953032   6.339332  -2.514832   0.000819   0.435635   0.001881
 658  11   4.857920   4.130898   2.553562  -0.000366   0.079467  -0.004609
 659  16   4.116997   4.993120   2.998062  -0.000363   0.079467  -0.004566
 660  19   4.870703   4.434881   2.556871  -0.000399   0.079467  -0.005020
 661  16   3.591317   4.997229   3.578505  -0.000542   0.198105  -0.002734
 662  11   4.706904   3.784438   2.839769   0.000361   0.290061   0.001246
 663  11   6.199073   3.648291   2.330467  -0.000025   0.029177  -0.000860
 664  19   6.135295   3.940686   2.286357  -0.000067   0.029177  -0.002302
 665  21   6.616454   3.376556   2.344004   0.000023   0.029177   0.000789
 666  11   7.582092   5.281949  -0.463584  -0.000057   0.034315  -0.001657
 667  19   7.394243   5.412552  -0.266234  -0.000141   0.034315  -0.004111
 668  24   8.235265   4.932977  -0.559550  -0.000051   0.034315  -0.001478
 669  19   6.940618   5.886421  -0.314536  -0.000246   0.073436  -0.003355
 670  19   6.027375   6.351112  -0.900139  -0.000579   0.165392  -0.003501
 671  11   6.768963   5.890124  -0.905693  -0.000442   0.158810  -0.002784
 672  11   5.691957   6.355394  -1.471161  -0.000013   0.089719  -0.000150
 673  19   5.515772   4.186151   2.439659  -0.000292   0.067768  -0.004315
 674  11   5.698115   3.767023   2.442550  -0.000155   0.082794  -0.001873
 675  11   7.221593   4.099520  -3.711805  -0.000051   0.029259  -0.001741
 676  20   7.002482   4.105681  -3.922020  -0.000101   0.029259  -0.003451
 677  21   7.625062   3.818740  -3.630536  -0.000023   0.029259  -0.000790
 678  11   5.582746   1.248709  -4.523793  -0.000036   0.029259  -0.001247
 679  20   5.509980   1.509437  -4.661500  -0.000081   0.029259  -0.002775
 680  21   6.007140   1.004327  -4.432157  -0.000005   0.029259  -0.000180
 681  20   5.451624   5.601873  -3.588765  -0.000201   0.074891  -0.002680
 682  20   6.353597   4.872932  -3.887448  -0.000663   0.169155  -0.003919
 683  11   5.991281   5.447007  -3.322048  -0.000328   0.161556  -0.002033
 684  11   6.904041   4.558332  -3.673300  -0.000150   0.091496  -0.001638
 685  20   5.010875   1.663759  -4.836120  -0.000180   0.071073  -0.002531
 686  20   4.125945   1.687660  -4.767365  -0.000184   0.071073  -0.002591
 687  11   4.578591   1.344751  -4.555661  -0.000428   0.155071  -0.002763
 688  11   5.680878   0.586351  -4.265634  -0.000006   0.024138  -0.000257
 689  21   6.098222   0.314701  -4.254966  -0.000029   0.024138  -0.001211
 690  22   6.205624   0.032993  -4.231057  -0.000064   0.024138  -0.002631
 691  11   6.120666   2.701203   2.598883  -0.000003   0.024529  -0.000118
 692  21   6.543443   2.455449   2.693527  -0.000014   0.024529  -0.000587
 693  23   6.654516   2.203657   2.819586  -0.000043   0.024529  -0.001767
 694  11   7.687529   4.073870  -3.393495  -0.000006   0.028283  -0.000229
 695  21   8.126732   3.839712  -3.371769  -0.000029   0.028283  -0.001014
 696  24   8.399256   3.892786  -3.250971  -0.000052   0.028283  -0.001841
 697  21   6.111664   0.555061  -4.363321   0.000050   0.062483   0.000794
 698  11   5.544682   0.984541  -4.461535   0.000047   0.062483   0.000760
 699  21   7.982559   3.790250  -3.531386   0.000024   0.025373   0.000930
 700  11   7.385799   4.179919  -3.585257   0.000023   0.025373   0.000919
 701  21   6.703469   2.929354   2.559508   0.000126   0.116784   0.001081
 702  11   6.023844   3.187321   2.525922   0.000073   0.116784   0.000625
 703  22   5.928982  -0.479942  -4.047995  -0.000502   0.188930  -0.002658
 704  11   5.208905   0.398510  -4.214072   0.000194   0.266028   0.000731
 705  23   6.528674   1.869158   2.976676  -0.000332   0.160744  -0.002065
 706  11   5.591167   2.477174   2.734982   0.000170   0.226417   0.000751
 707  24   8.604724   4.192943  -2.952539  -0.000501   0.201736  -0.002485
 708  24   8.700349   4.755265  -1.602699  -0.001795   0.413610  -0.004339
 709  11   7.616884   4.832799  -2.586476  -0.000105   0.552054  -0.000190
 710  11   7.717512   5.324832  -0.997683   0.000172   0.284286   0.000607
 711  12   6.693950  -3.061779  -0.393684  -0.000459   0.080685  -0.005691
 712  21   7.494635  -2.644427  -0.562057   0.000022   0.080685   0.000269
 713  22   7.463268  -2.707713  -0.859106  -0.000202   0.080685  -0.002504
 714  12   6.663694  -2.605450   1.104778  -0.000332   0.078973  -0.004198
 715  21   7.463866  -2.155717   1.084991   0.000060   0.078973   0.000756
 716  23   7.475650  -2.030170   1.363021  -0.000087   0.078973  -0.001106
 717  21   7.530550  -2.519438   0.429516   0.000810   0.469563   0.001724
 718  12   6.393484  -3.293733   0.336968  -0.002576   0.333311  -0.007727
 719  22   7.378099  -2.957092  -1.239977  -0.000103   0.239905  -0.000429
 720  22   6.722000  -2.917972  -2.220536  -0.001524   0.480030  -0.003176
 721  12   6.092377  -3.563073  -0.947338  -0.002696   0.480030  -0.005617
 722  12   5.403766  -3.431343  -1.897051  -0.000627   0.239905  -0.002615
 723  23   7.121510  -1.821173   2.161724  -0.000407   0.443787  -0.000917
 724  12   6.149269  -2.822703   1.637319  -0.001504   0.443787  -0.003390
 725  15  -2.469958   8.813366  -0.749659   0.000377   0.272840   0.001381
 726  15  -3.310917   7.748742   0.107648   0.000233   0.530811   0.000439
 727  13  -3.086517   7.851183  -1.315273  -0.001666   0.395970  -0.004206
 728  13  -3.732818   6.831279  -0.584692  -0.000585   0.193600  -0.003019
 729  14   3.535618   7.404470  -1.219259  -0.000758   0.222729  -0.003405
 730  15   3.460400   7.711904  -0.528676  -0.000081   0.222729  -0.000365
 731  19   4.289755   6.972070  -0.716895  -0.000489   0.222729  -0.002196
 732  15   2.980583   8.488840  -0.697526   0.000244   0.267867   0.000910
 733  15   2.062424   9.064120  -1.187808   0.000328   0.267867   0.001223
 734  14   2.648171   8.175428  -1.885130  -0.001744   0.388289  -0.004491
 735  19   4.926603   6.816670  -1.077294   0.000079   0.119088   0.000664
 736  14   3.778378   7.379575  -1.709235  -0.000048   0.119088  -0.000403
 737  20   3.148587   4.370820  -4.856064  -0.000646   0.244878  -0.002638
 738  20   3.946928   5.223676  -4.576494  -0.001601   0.490020  -0.003266
 739  20   4.665810   5.834369  -3.832764  -0.000143   0.244878  -0.000582
 740  14   2.422410   5.581721  -4.500956  -0.001650   0.490020  -0.003367
 741  14   3.368330   6.494176  -3.862976  -0.002123   0.490020  -0.004333
 742  15   3.959042   7.800530   1.368511  -0.000130   0.092496  -0.001409
 743  16   4.083340   7.643736   1.600198  -0.000314   0.092496  -0.003397
 744  19   4.704121   7.031135   1.037951  -0.000448   0.092496  -0.004849
 745  16   3.835263   8.187738   2.047753  -0.000155   0.070699  -0.002188
 746  16   3.369475   8.615466   2.993853  -0.000298   0.157761  -0.001891
 747  16   2.662047   8.396684   4.151596  -0.000367   0.157761  -0.002327
 748  16   2.060941   7.392767   4.872367  -0.000386   0.157761  -0.002444
 749  16   1.826716   6.038882   4.843737  -0.000300   0.157761  -0.001901
 750  16   1.953547   5.045055   4.304074  -0.000158   0.070699  -0.002237
 751  15   3.472146   8.659930   2.150498  -0.000072   0.154234  -0.000467
 752  15   2.749821   8.923044   3.489020   0.000002   0.154234   0.000014
 753  15   1.971589   8.195860   4.606241  -0.000171   0.154234  -0.001106
 754  15   1.474787   6.793590   5.017883  -0.000002   0.154234  -0.000012
 755  15   1.474763   5.324069   4.545513  -0.000038   0.154234  -0.000244
 756  17  -0.999937   5.061211   4.654750  -0.000055   0.071973  -0.000764
 757  17  -0.946017   6.123385   5.110266  -0.000338   0.161241  -0.002094
 758  17  -1.378850   7.449910   5.067768  -0.000376   0.161241  -0.002332
 759  17  -2.224906   8.290122   4.341787  -0.000351   0.161241  -0.002178
 760  17  -3.104575   8.267032   3.258059  -0.000260   0.161241  -0.001613
 761  17  -3.623163   7.391000   2.302835  -0.000455   0.161241  -0.002824
 762  15  -0.537860   5.426969   4.810771  -0.000011   0.156426  -0.000071
 763  15  -0.691749   6.943104   5.178787  -0.000047   0.156426  -0.000300
 764  15  -1.453871   8.234315   4.720831  -0.000179   0.156426  -0.001143
 765  15  -2.482273   8.721259   3.642381   0.000052   0.156426   0.000331
 766  15  -3.315529   8.185450   2.427319   0.000006   0.156426   0.000037
 767  15  -3.636756   7.205040   1.675052  -0.000103   0.087930  -0.001166
 768  18  -1.726139   9.861014  -0.448417  -0.000132   0.068758  -0.001922
 769  18  -2.115113  10.065117   0.569178  -0.000325   0.152493  -0.002133
 770  18  -1.878753  10.366157   1.853695  -0.000277   0.152493  -0.001818
 771  18  -0.891817  10.619558   2.724453  -0.000298   0.152493  -0.001957
 772  18   0.440900  10.721385   2.824309  -0.000370   0.152493  -0.002424
 773  18   1.572780  10.629875   2.112307  -0.000242   0.152493  -0.001586
 774  18   2.039581  10.382560   0.880476  -0.000306   0.152493  -0.002004
 775  18   1.649841  10.080877  -0.365945  -0.000432   0.152493  -0.002835
 776  15  -2.117314   9.570804  -0.103726  -0.000243   0.150881  -0.001612
 777  15  -2.339543   9.882832   1.352476   0.000015   0.150881   0.000101
 778  15  -1.614214  10.211577   2.630402   0.000069   0.150881   0.000459
 779  15  -0.238822  10.422202   3.205909  -0.000133   0.150881  -0.000885
 780  15   1.222511  10.428319   2.842949  -0.000081   0.150881  -0.000538
 781  15   2.170417  10.227420   1.690393   0.000066   0.150881   0.000437
 782  15   2.216109   9.901902   0.220963  -0.000102   0.150881  -0.000675
 783  15   1.637033   9.634187  -0.822826  -0.000060   0.084003  -0.000714
 784  19   5.003154   6.947611  -0.034520  -0.001796   0.427575  -0.004201
 785  15   3.894524   8.019680   0.611867   0.000689   0.615551   0.001119
 786  19   5.375707   6.773236   1.177489  -0.000882   0.275892  -0.003197
 787  19   5.458286   5.909623   2.096342  -0.002387   0.552007  -0.004324
 788  19   5.100685   4.838686   2.663927  -0.000446   0.275892  -0.001616
 789  16   4.440486   7.217164   2.346152  -0.001605   0.552007  -0.002908
 790  16   4.269088   6.011519   3.272526  -0.002255   0.552007  -0.004084
 791  19   7.632041   5.158748   0.035058  -0.000068   0.032117  -0.002113
 792  21   8.271803   4.797443  -0.070560  -0.000027   0.032117  -0.000837
 793  24   8.516970   4.754659  -0.242306  -0.000099   0.032117  -0.003072
 794  21   8.140098   4.758378   0.475040   0.000296   0.291533   0.001015
 795  21   7.463734   3.926879   1.811383   0.000098   0.565130   0.000173
 796  19   7.049290   5.129024   1.058634  -0.002141   0.425024  -0.005037
 797  19   6.351843   4.347586   2.141751  -0.000545   0.206827  -0.002633
 798  24   8.665643   4.943446  -0.450884   0.000154   0.099242   0.001556
 799  19   7.441992   5.556234   0.016125   0.000094   0.099242   0.000948
 800  21   6.465263   1.117479  -4.570438   0.000342   0.236757   0.001445
 801  21   7.300376   2.253888  -4.455287   0.000236   0.463065   0.000509
 802  21   7.808597   3.454241  -3.904866   0.000247   0.236757   0.001043
 803  20   5.977665   2.222094  -4.830145  -0.001267   0.341330  -0.003712
 804  20   6.709855   3.495754  -4.467372  -0.001341   0.341330  -0.003928
 805  22   6.695785  -0.173192  -4.366487  -0.000150   0.072407  -0.002077
 806  22   7.859086  -0.122873  -4.364203  -0.000403   0.162502  -0.002480
 807  22   9.061543  -0.529884  -3.763525  -0.000323   0.162502  -0.001986
 808  22   9.530742  -1.322337  -2.703221  -0.000408   0.162502  -0.002512
 809  22   9.053183  -2.139644  -1.665761  -0.000461   0.162502  -0.002835
 810  22   8.131748  -2.598462  -1.121473  -0.000086   0.072407  -0.001181
 811  21   7.097917   0.286587  -4.392473  -0.000293   0.157103  -0.001868
 812  21   8.643259   0.141432  -4.113107  -0.000116   0.157103  -0.000741
 813  21   9.640272  -0.573956  -3.122460  -0.000013   0.157103  -0.000084
 814  21   9.635286  -1.534053  -1.871307  -0.000212   0.157103  -0.001350
 815  21   8.630569  -2.301986  -0.928959  -0.000115   0.157103  -0.000732
 816  23   8.150520  -1.831825   1.521899  -0.000125   0.066819  -0.001867
 817  23   9.092053  -1.306487   1.571630  -0.000305   0.147357  -0.002067
 818  23   9.773211  -0.225445   1.845974  -0.000367   0.147357  -0.002490
 819  23   9.669328   1.003524   2.278101  -0.000226   0.147357  -0.001531
 820  23   8.820735   1.903290   2.700245  -0.000287   0.147357  -0.001947
 821  23   7.556888   2.124528   2.948513  -0.000416   0.147357  -0.002825
 822  21   8.583183  -1.769945   1.127039  -0.000094   0.147429  -0.000638
 823  21   9.696446  -0.827228   1.295186  -0.000116   0.147429  -0.000787
 824  21  10.037758   0.538560   1.712885  -0.000048   0.147429  -0.000323
 825  21   9.474610   1.797169   2.217971   0.000024   0.147429   0.000163
 826  21   8.225636   2.459959   2.614350  -0.000135   0.147429  -0.000917
 827  21   7.044720   2.444984   2.770940  -0.000075   0.081634  -0.000918
 828  24   9.115555   4.584120  -0.144378  -0.000167   0.066547  -0.002509
 829  24   9.775527   3.930027   0.396953  -0.000309   0.146649  -0.002104
 830  24  10.571146   2.899459   0.427238  -0.000267   0.146649  -0.001818
 831  24  11.084342   1.945804  -0.296065  -0.000310   0.146649  -0.002111
 832  24  11.117348   1.436564  -1.494223  -0.000366   0.146649  -0.002497
 833  24  10.657445   1.567982  -2.705509  -0.000248   0.146649  -0.001688
 834  24   9.881863   2.289414  -3.463140  -0.000313   0.146649  -0.002132
 835  24   9.089481   3.322847  -3.475152  -0.000414   0.146649  -0.002824
 836  21   9.049160   4.303446   0.367950  -0.000221   0.146930  -0.001504
 837  21   9.975336   3.274523   0.842243   0.000038   0.146930   0.000259
 838  21  10.748882   2.101792   0.432650   0.000042   0.146930   0.000287
 839  21  11.071702   1.237181  -0.702987  -0.000154   0.146930  -0.001047
 840  21  10.819394   1.013878  -2.127035  -0.000117   0.146930  -0.000795
 841  21  10.089188   1.517936  -3.290720   0.000024   0.146930   0.000165
 842  21   9.162478   2.555109  -3.745600  -0.000096   0.146930  -0.000652
 843  21   8.493612   3.513006  -3.535764  -0.000077   0.081301  -0.000945
 =====================================================

              6539235  WORDS OF DYNAMIC MEMORY USED
 EXECUTION OF GAMESS TERMINATED NORMALLY Fri Nov 25 08:06:48 2016
 DDI: 263640 bytes (0.3 MB / 0 MWords) used by master data server.

 ----------------------------------------
 CPU timing information for all processes
 ========================================
 0: 1755.160 + 0.440 = 1755.600
 ----------------------------------------
 ddikick.x: exited gracefully.
