----- GAMESS execution script -----

          ******************************************************
          *         GAMESS VERSION =  5 DEC 2014 (R1)          *
          *             FROM IOWA STATE UNIVERSITY             *
          * M.W.SCHMIDT, K.K.BALDRIDGE, J.A.BOATZ, S.T.ELBERT, *
          *   M.S.GORDON, J.H.JENSEN, S.KOSEKI, N.MATSUNAGA,   *
          *          K.A.NGUYEN, S.J.SU, T.L.WINDUS,           *
          *       TOGETHER WITH M.DUPUIS, J.A.MONTGOMERY       *
          *         J.COMPUT.CHEM.  14, 1347-1363(1993)        *
          **************** 64 BIT LINUX VERSION ****************

 EXECUTION OF GAMESS BEGUN Fri Nov 25 07:58:31 2016

            ECHO OF THE FIRST FEW INPUT CARDS -
 INPUT CARD>! SELECT RESTRICTED HARTREE-FOCK AS DEFAULT                                     
 INPUT CARD>$contrl scftyp=rhf $end                                                         
 INPUT CARD>                                                                                
 INPUT CARD>! THEORY: HF OR DFT                                                             
 INPUT CARD> $contrl mplevl=0 $end                                                          
 INPUT CARD>                                                                                
 INPUT CARD> $system timlim=10000 mwords=20 $end                                            
 INPUT CARD> $SCF DIRSCF=.TRUE. $end                                                        
 INPUT CARD>                                                                                
 INPUT CARD>                                                                                
 INPUT CARD>! BASIS SETS                                                                    
 INPUT CARD>! 6-311G(d,p)                                                                   
 INPUT CARD> $BASIS GBASIS=N311 NGAUSS=6 NDFUNC=1 NPFUNC=1 $END                             
 INPUT CARD>                                                                                
 INPUT CARD>! One of the following                                                          
 INPUT CARD> $guess guess=HUCKEL $end                                                       
 INPUT CARD>                                                                                
 INPUT CARD> $statpt projct=.FALSE. $end                                                    
 INPUT CARD> $STATPT IFREEZ(1)=1,2,3 $END                                                   
 INPUT CARD>                                                                                
 INPUT CARD>! Optimize the geometry with COSMO effects                                      
 INPUT CARD> $statpt opttol=0.0005 nstep=50 $end                                            
 INPUT CARD> $contrl nzvar=1 $end                                                           
 INPUT CARD> $zmat dlc=.t. auto=.t. $end                                                    
 INPUT CARD> $contrl runtyp=OPTIMIZE maxit=200 $end                                         
 INPUT CARD>                                                                                
 INPUT CARD>! Run COSMO on perfect conductor                                                
 INPUT CARD> $COSGMS PRFCND=.TRUE. $end                                                     
 INPUT CARD>                                                                                
 INPUT CARD>! Specifying RSOLV                                                              
 INPUT CARD> $COSGMS COSRAD = 1.4 $end                                                      
 INPUT CARD>                                                                                
 INPUT CARD>! available memory                                                              
 INPUT CARD> $SYSTEM MWORDS=40 $END                                                         
 INPUT CARD>                                                                                
 INPUT CARD> $DATA                                                                          
 INPUT CARD>Benzene, 1,2-dimethyl-, ID: C95476                                              
 INPUT CARD>C1                                                                              
 INPUT CARD>C      6.0      2.4622000000    0.7186000000    1.2688000000                    
 INPUT CARD>C      6.0      2.9371000000    2.1268000000    1.2491000000                    
 INPUT CARD>C      6.0      2.0421000000    3.1967000000    1.1106000000                    
 INPUT CARD>C      6.0      4.3031000000    2.3863000000    1.3710000000                    
 INPUT CARD>C      6.0      0.5805000000    2.9609000000    0.9816000000                    
 INPUT CARD>C      6.0      2.5308000000    4.5048000000    1.0928000000                    
 INPUT CARD>C      6.0      4.7827000000    3.6895000000    1.3490000000                    
 INPUT CARD>C      6.0      3.8942000000    4.7505000000    1.2082000000                    
 INPUT CARD>H      1.0      1.9215000000    0.5044000000    2.2017000000                    
 INPUT CARD>H      1.0      3.2889000000    0.0000000000    1.1920000000                    
 INPUT CARD>H      1.0      1.7723000000    0.5202000000    0.4365000000                    
 INPUT CARD>H      1.0      5.0055000000    1.5521000000    1.4822000000                    
   40000000 WORDS OF MEMORY AVAILABLE

     BASIS OPTIONS
     -------------
     GBASIS=N311         IGAUSS=       6      POLAR=POPN311 
     NDFUNC=       1     NFFUNC=       0     DIFFSP=       F
     NPFUNC=       1      DIFFS=       F     BASNAM=        


     RUN TITLE
     ---------
 Benzene, 1,2-dimethyl-, ID: C95476                                              

 THE POINT GROUP OF THE MOLECULE IS C1      
 THE ORDER OF THE PRINCIPAL AXIS IS     0

 ATOM      ATOMIC                      COORDINATES (BOHR)
           CHARGE         X                   Y                   Z
 C           6.0     4.6528833270        1.3579570948        2.3976843332
 C           6.0     5.5503141985        4.0190692307        2.3604567313
 C           6.0     3.8590094395        6.0408870650        2.0987296820
 C           6.0     8.1316798978        4.5094531245        2.5908143292
 C           6.0     1.0969859359        5.5952896770        1.8549550295
 C           6.0     4.7825185297        8.5128376295        2.0650925594
 C           6.0     9.0379924815        6.9721440317        2.5492403574
 C           6.0     7.3589709414        8.9771433047        2.2831669384
 H           1.0     3.6311084854        0.9531777882        4.1606097072
 H           1.0     6.2151198010        0.0000000000        2.2525533774
 H           1.0     3.3491613680        0.9830354588        0.8248653936
 H           1.0     9.4590234315        2.9330437055        2.8009518590
 H           1.0     0.6485539590        4.7747706532        0.0000000000
 H           1.0     0.0000000000        7.3451759417        2.0546990664
 H           1.0     0.4183853337        4.2675681981        3.3011623280
 H           1.0     3.4597103383       10.0951051990        1.8602462623
 H           1.0    11.0668023019        7.3327037502        2.7264966551
 H           1.0     8.0642166800       10.9222382638        2.2406481036

          INTERNUCLEAR DISTANCES (ANGS.)




     $CONTRL OPTIONS
     ---------------
 SCFTYP=RHF          RUNTYP=OPTIMIZE     EXETYP=RUN     
 MPLEVL=       0     CITYP =NONE         CCTYP =NONE         VBTYP =NONE    
 DFTTYP=NONE         TDDFT =NONE    
 MULT  =       1     ICHARG=       0     NZVAR =       1     COORD =UNIQUE  
 PP    =NONE         RELWFN=NONE         LOCAL =NONE         NUMGRD=       F
 ISPHER=      -1     NOSYM =       0     MAXIT =     200     UNITS =ANGS    
 PLTORB=       F     MOLPLT=       F     AIMPAC=       F     FRIEND=        
 NPRINT=       7     IREST =       0     GEOM  =INPUT   
 NORMF =       0     NORMP =       0     ITOL  =      20     ICUT  =       9
 INTTYP=BEST         GRDTYP=BEST         QMTTOL= 1.0E-06

     $SYSTEM OPTIONS
     ---------------
  REPLICATED MEMORY=    40000000 WORDS (ON EVERY NODE).
 DISTRIBUTED MEMDDI=           0 MILLION WORDS IN AGGREGATE,
 MEMDDI DISTRIBUTED OVER   1 PROCESSORS IS           0 WORDS/PROCESSOR.
 TOTAL MEMORY REQUESTED ON EACH PROCESSOR=    40000000 WORDS.
 TIMLIM=       10000.00 MINUTES, OR       6.9 DAYS.
 PARALL= F  BALTYP=  DLB     KDIAG=    0  COREFL= F
 MXSEQ2=     300 MXSEQ3=     150  mem10=         0

     $COSGMS OPTIONS
     ---------------
     EPSI  =   INFTY     NSPA  =      92     COSRAD=    1.40
     DISEX =   10.00     OUTCHG=DBLCAV       COSBUG=       F
     COSWRT=       F     DCOSMO=       F

     SYMMETRY COORDINATES WILL NOT BE USED FOR 
     THE COSMO CALCULATION, EVEN IF SPECIFIED:
         -- SWITCHING TO C1 POINT GROUP --


     DEFINITION OF CAVITY
     ---------------------------
     ATOM         COORDINATES           RADIUS 
     1    4.6529    1.3580    2.3977    2.0000
     2    5.5503    4.0191    2.3605    2.0000
     3    3.8590    6.0409    2.0987    2.0000
     4    8.1317    4.5095    2.5908    2.0000
     5    1.0970    5.5953    1.8550    2.0000
     6    4.7825    8.5128    2.0651    2.0000
     7    9.0380    6.9721    2.5492    2.0000
     8    7.3590    8.9771    2.2832    2.0000
     9    3.6311    0.9532    4.1606    1.3000
    10    6.2151    0.0000    2.2526    1.3000
    11    3.3492    0.9830    0.8249    1.3000
    12    9.4590    2.9330    2.8010    1.3000
    13    0.6486    4.7748    0.0000    1.3000
    14    0.0000    7.3452    2.0547    1.3000
    15    0.4184    4.2676    3.3012    1.3000
    16    3.4597   10.0951    1.8602    1.3000
    17   11.0668    7.3327    2.7265    1.3000
    18    8.0642   10.9222    2.2406    1.3000

          ----------------
          PROPERTIES INPUT
          ----------------

     MOMENTS            FIELD           POTENTIAL          DENSITY
 IEMOM =       1   IEFLD =       0   IEPOT =       0   IEDEN =       0
 WHERE =COMASS     WHERE =NUCLEI     WHERE =NUCLEI     WHERE =NUCLEI  
 OUTPUT=BOTH       OUTPUT=BOTH       OUTPUT=BOTH       OUTPUT=BOTH    
 IEMINT=       0   IEFINT=       0                     IEDINT=       0
                                                       MORB  =       0
          EXTRAPOLATION IN EFFECT
          SOSCF IN EFFECT
 ORBITAL PRINTING OPTION: NPREO=     1   212     2     1

     -------------------------------
     INTEGRAL TRANSFORMATION OPTIONS
     -------------------------------
     NWORD  =            0
     CUTOFF = 1.0E-09     MPTRAN =       0
     DIRTRF =       T     AOINTS =DUP     

          ----------------------
          INTEGRAL INPUT OPTIONS
          ----------------------
 NOPK  =       1 NORDER=       0 SCHWRZ=       T


 -----------------------------------------------
  STATISTICS ON AUTOMATIC COORDINATE GENERATION 
 -----------------------------------------------
  NUMBER OF USER SPECIFIED BONDS                             0
  NUMBER OF BONDS                                           18
  NUMBER OF ANGLES                                          30
  NUMBER OF TORSIONS                                        36
  NUMBER OF EXTRA COORD.                                     0
  NUMBER OF EXTRA COORD. FOR CONSTRAINTS                     0
  NUMBER OF CONSTRAINED COORD.                               0

  TOTAL NUMBER OF PRIMITIVES                                84
 -----------------------------------------------

   --- ENCODED Z MATRIX ---
 COORD  TYPE   I   J   K   L   M   N
    1      1    1  11
    2      1    1  10
    3      1    1   2
    4      1    1   9
    5      1    2   4
    6      1    2   3
    7      1    3   6
    8      1    3   5
    9      1    4   7
   10      1    4  12
   11      1    5  14
   12      1    5  13
   13      1    5  15
   14      1    6   8
   15      1    6  16
   16      1    7  17
   17      1    7   8
   18      1    8  18
   19      2    1   2   4
   20      2    1   2   3
   21      2    2   4  12
   22      2    2   3   5
   23      2    2   4   7
   24      2    2   3   6
   25      2    2   1  10
   26      2    2   1   9
   27      2    2   1  11
   28      2    3   5  15
   29      2    3   6   8
   30      2    3   5  13
   31      2    3   2   4
   32      2    3   5  14
   33      2    3   6  16
   34      2    4   7   8
   35      2    4   7  17
   36      2    5   3   6
   37      2    6   8  18
   38      2    6   8   7
   39      2    7   8  18
   40      2    7   4  12
   41      2    8   7  17
   42      2    8   6  16
   43      2    9   1  11
   44      2    9   1  10
   45      2   10   1  11
   46      2   13   5  15
   47      2   13   5  14
   48      2   14   5  15
   49      3    1   2   4  12
   50      3    1   2   4   7
   51      3    1   2   3   5
   52      3    1   2   3   6
   53      3    2   3   5  14
   54      3    2   3   6  16
   55      3    2   3   6   8
   56      3    2   4   7   8
   57      3    2   4   7  17
   58      3    2   3   5  15
   59      3    2   3   5  13
   60      3    3   2   1  10
   61      3    3   2   1  11
   62      3    3   2   4  12
   63      3    3   2   4   7
   64      3    3   6   8  18
   65      3    3   6   8   7
   66      3    3   2   1   9
   67      3    4   2   1   9
   68      3    4   2   3   5
   69      3    4   7   8  18
   70      3    4   7   8   6
   71      3    4   2   3   6
   72      3    4   2   1  11
   73      3    4   2   1  10
   74      3    5   3   6  16
   75      3    5   3   6   8
   76      3    6   3   5  14
   77      3    6   3   5  13
   78      3    6   3   5  15
   79      3    6   8   7  17
   80      3    7   8   6  16
   81      3    8   7   4  12
   82      3   12   4   7  17
   83      3   16   6   8  18
   84      3   17   7   8  18

          INDEP./SYM. INTERNAL COORDINATES
          --------------------------------
 CRD  1=   0.2904 (  6) -0.3997 ( 19)  0.4833 ( 20)  0.4837 ( 22) -0.1092 ( 25)
           0.1010 ( 28) -0.1088 ( 32) -0.3993 ( 36)
 CRD  2=  -0.1973 (  3) -0.2325 (  5)  0.2312 (  7)  0.1958 (  8) -0.1932 (  9)
           0.1925 ( 14) -0.4303 ( 19)  0.2420 ( 20) -0.1148 ( 21) -0.2422 ( 22)
          -0.1879 ( 24) -0.1914 ( 25)  0.1882 ( 31)  0.1907 ( 32)  0.1146 ( 33)
           0.4300 ( 36) -0.1007 ( 39)  0.1011 ( 41)
 CRD  3=  -0.2518 ( 26)  0.2012 ( 27)  0.1979 ( 28) -0.2550 ( 30)  0.1810 ( 49)
           0.2138 ( 50) -0.3793 ( 51) -0.3139 ( 52)  0.1174 ( 54)  0.1508 ( 55)
           0.1169 ( 62)  0.1498 ( 63) -0.1045 ( 67) -0.3138 ( 68) -0.1499 ( 70)
          -0.2484 ( 71) -0.1342 ( 72)  0.1818 ( 74)  0.2152 ( 75) -0.1028 ( 77)
          -0.1351 ( 78)
 CRD  4=   0.3953 (  3) -0.1626 (  5)  0.1520 (  7) -0.4063 (  8)  0.3007 ( 20)
          -0.1157 ( 21) -0.2997 ( 22)  0.2576 ( 24)  0.1428 ( 26)  0.1800 ( 27)
          -0.1853 ( 28) -0.1407 ( 30) -0.2542 ( 31)  0.1144 ( 33)  0.1237 ( 34)
          -0.1231 ( 38) -0.1275 ( 43)  0.1301 ( 46)  0.1013 ( 48)
 CRD  5=   0.3977 (  3)  0.3422 (  5)  0.2603 (  6)  0.3485 (  7)  0.3872 (  8)
           0.1270 (  9)  0.1242 ( 14)  0.1511 ( 19)  0.1151 ( 23) -0.1142 ( 24)
           0.1481 ( 25)  0.1125 ( 29) -0.1209 ( 31)  0.1496 ( 32)  0.1534 ( 36)
          -0.1808 ( 40) -0.1825 ( 42) -0.1111 ( 44) -0.1096 ( 45) -0.1091 ( 47)
          -0.1067 ( 48)
 CRD  6=   0.4101 ( 26) -0.3269 ( 27)  0.3219 ( 28) -0.4112 ( 30)  0.1068 ( 45)
          -0.1077 ( 48) -0.1188 ( 49) -0.2339 ( 50)  0.1569 ( 52)  0.1943 ( 53)
           0.1341 ( 57) -0.1943 ( 60) -0.1344 ( 64) -0.1561 ( 68)  0.1110 ( 72)
           0.1189 ( 74)  0.2340 ( 75) -0.1110 ( 78)
 CRD  7=   0.3158 (  6) -0.2833 (  9) -0.2856 ( 14) -0.2128 ( 16) -0.1904 ( 17)
          -0.2144 ( 18)  0.3013 ( 21) -0.2132 ( 23)  0.2031 ( 25) -0.1524 ( 27)
          -0.1591 ( 28) -0.2126 ( 29)  0.2009 ( 32)  0.3038 ( 33)  0.1895 ( 34)
           0.1925 ( 38) -0.1349 ( 39) -0.1360 ( 41)
 CRD  8=   0.2764 (  6)  0.1641 (  9)  0.1607 ( 10)  0.1665 ( 14)  0.1612 ( 15)
           0.1205 ( 16)  0.5242 ( 17)  0.1204 ( 18)  0.2617 ( 25) -0.1397 ( 27)
          -0.1437 ( 28)  0.2612 ( 32) -0.1797 ( 35) -0.1787 ( 37)  0.1837 ( 39)
           0.1735 ( 40)  0.1845 ( 41)  0.1745 ( 42)
 CRD  9=  -0.3495 (  9) -0.1257 ( 10)  0.3461 ( 14)  0.1255 ( 15) -0.1025 ( 16)
           0.1000 ( 18)  0.1890 ( 21)  0.1047 ( 23)  0.1451 ( 25) -0.1052 ( 29)
          -0.1416 ( 32) -0.1867 ( 33)  0.1432 ( 34) -0.3320 ( 35)  0.3330 ( 37)
          -0.1423 ( 38) -0.1908 ( 39) -0.2937 ( 40)  0.1888 ( 41)  0.2919 ( 42)
 CRD 10=  -0.1166 (  2)  0.2876 (  5) -0.2875 (  7) -0.1122 (  9)  0.1167 ( 11)
           0.1128 ( 14)  0.2038 ( 21) -0.3628 ( 25)  0.1467 ( 26)  0.2770 ( 27)
          -0.2810 ( 28) -0.1435 ( 30)  0.3630 ( 32) -0.2039 ( 33) -0.1880 ( 40)
           0.1882 ( 42) -0.1700 ( 43)  0.1703 ( 46)
 CRD 11=   0.2300 (  9)  0.2288 ( 14) -0.2317 ( 17) -0.1912 ( 21)  0.1285 ( 25)
           0.1264 ( 32) -0.1897 ( 33)  0.3472 ( 35)  0.3473 ( 37) -0.3793 ( 39)
           0.2598 ( 40) -0.3799 ( 41)  0.2578 ( 42)
 CRD 12=  -0.1323 (  1)  0.1657 (  4)  0.1667 ( 12) -0.1310 ( 13)  0.4122 ( 26)
          -0.3279 ( 27) -0.3248 ( 28)  0.4141 ( 30) -0.1546 ( 44)  0.1911 ( 45)
          -0.1531 ( 47)  0.1918 ( 48) -0.1152 ( 51) -0.1484 ( 52)  0.1085 ( 54)
           0.1056 ( 55)  0.1080 ( 62)  0.1055 ( 63) -0.1486 ( 68) -0.1273 ( 70)
          -0.1818 ( 71)
 CRD 13=  -0.1897 (  5) -0.1322 (  6) -0.1896 (  7) -0.1216 (  9) -0.3088 ( 10)
          -0.1239 ( 14) -0.3096 ( 15) -0.2000 ( 17) -0.1559 ( 21)  0.2430 ( 23)
          -0.1216 ( 24)  0.3104 ( 25) -0.1895 ( 27) -0.1903 ( 28)  0.2434 ( 29)
          -0.1213 ( 31)  0.3104 ( 32) -0.1555 ( 33) -0.1217 ( 34) -0.1218 ( 38)
           0.1271 ( 39)  0.1258 ( 41)  0.1084 ( 43)  0.1085 ( 46)
 CRD 14=  -0.1541 ( 50) -0.2572 ( 53)  0.2082 ( 55)  0.2086 ( 56)  0.2087 ( 57)
          -0.2535 ( 58) -0.2560 ( 59)  0.2569 ( 60)  0.2530 ( 61) -0.2074 ( 63)
          -0.2088 ( 64) -0.2087 ( 65)  0.2557 ( 66)  0.2013 ( 67)  0.1986 ( 72)
           0.2025 ( 73)  0.1531 ( 75) -0.2013 ( 76) -0.2001 ( 77) -0.1976 ( 78)
 CRD 15=   0.1532 (  3) -0.1524 (  8) -0.1050 (  9) -0.2347 ( 10)  0.1064 ( 14)
           0.2336 ( 15)  0.3604 ( 16) -0.3597 ( 18) -0.1286 ( 21)  0.1720 ( 23)
           0.1823 ( 25) -0.1709 ( 29) -0.1827 ( 32)  0.1278 ( 33) -0.3424 ( 34)
           0.1629 ( 35) -0.1622 ( 37)  0.3416 ( 38) -0.1794 ( 39)  0.1796 ( 41)
 CRD 16=  -0.2240 ( 53) -0.1377 ( 54) -0.2293 ( 58) -0.2303 ( 59) -0.2211 ( 60)
          -0.2261 ( 61) -0.1375 ( 62) -0.2274 ( 66) -0.2985 ( 67)  0.1290 ( 69)
           0.1357 ( 70) -0.2971 ( 72) -0.2921 ( 73) -0.2927 ( 76) -0.2990 ( 77)
          -0.2979 ( 78)  0.1294 ( 79)  0.1227 ( 84)
 CRD 17=   0.1091 (  1) -0.1353 (  4)  0.1355 ( 12) -0.1076 ( 13) -0.2149 ( 26)
           0.1719 ( 27) -0.1690 ( 28)  0.2173 ( 30)  0.1143 ( 44) -0.1432 ( 45)
          -0.1140 ( 47)  0.1427 ( 48) -0.1816 ( 49) -0.2424 ( 50)  0.1988 ( 53)
           0.1046 ( 54)  0.1672 ( 55)  0.1673 ( 56)  0.1832 ( 57)  0.1654 ( 58)
           0.1738 ( 59) -0.2011 ( 60) -0.1678 ( 61) -0.1073 ( 62) -0.1681 ( 63)
          -0.1850 ( 64) -0.1693 ( 65) -0.1758 ( 66) -0.1000 ( 67) -0.1254 ( 73)
           0.1805 ( 74)  0.2431 ( 75)  0.1217 ( 76) -0.1065 ( 80)  0.1065 ( 81)
           0.1224 ( 82) -0.1221 ( 83)
 CRD 18=  -0.2695 (  1) -0.2857 (  2) -0.2706 (  4) -0.1277 (  5) -0.1280 (  7)
          -0.2859 ( 11) -0.2712 ( 12) -0.2701 ( 13) -0.1089 ( 16) -0.1089 ( 18)
           0.1188 ( 25)  0.1942 ( 26)  0.2143 ( 27)  0.2152 ( 28)  0.1934 ( 30)
           0.1196 ( 32)  0.1069 ( 40)  0.1072 ( 42) -0.2212 ( 43) -0.1633 ( 44)
          -0.1784 ( 45) -0.2212 ( 46) -0.1625 ( 47) -0.1799 ( 48)
 CRD 19=  -0.3301 (  1) -0.3283 (  2) -0.3272 (  4)  0.3276 ( 11)  0.3263 ( 12)
           0.3300 ( 13)  0.1754 ( 25)  0.1412 ( 26)  0.1344 ( 27) -0.1338 ( 28)
          -0.1413 ( 30) -0.1751 ( 32) -0.1395 ( 43) -0.1724 ( 44) -0.1695 ( 45)
           0.1394 ( 46)  0.1718 ( 47)  0.1692 ( 48)
 CRD 20=   0.1641 (  1) -0.4453 (  2) -0.4584 ( 11)  0.1990 ( 13)  0.2834 ( 43)
          -0.1753 ( 44)  0.2937 ( 46) -0.2004 ( 47)  0.1327 ( 58) -0.1748 ( 59)
           0.1338 ( 61) -0.1626 ( 66) -0.1613 ( 67)  0.1351 ( 72) -0.1755 ( 77)
           0.1320 ( 78)
 CRD 21=   0.2998 (  1) -0.3690 (  2)  0.1416 (  4)  0.3417 ( 11) -0.1213 ( 12)
          -0.3041 ( 13)  0.2996 ( 43) -0.2120 ( 44) -0.2814 ( 46)  0.2115 ( 47)
          -0.1290 ( 58)  0.1747 ( 59)  0.1413 ( 61) -0.1816 ( 66) -0.1842 ( 67)
           0.1386 ( 72)  0.1776 ( 77) -0.1261 ( 78)
 CRD 22=  -0.2946 (  1)  0.3945 (  4)  0.1083 ( 11) -0.3856 ( 12)  0.2707 ( 13)
           0.2200 ( 44) -0.2854 ( 45) -0.2006 ( 47)  0.2830 ( 48)  0.1855 ( 53)
          -0.1247 ( 58) -0.1941 ( 60)  0.1190 ( 61)  0.1556 ( 72) -0.1575 ( 73)
           0.1489 ( 76) -0.1612 ( 78)
 CRD 23=  -0.3143 (  1)  0.3940 (  4)  0.4128 ( 12) -0.3093 ( 13)  0.2125 ( 44)
          -0.2643 ( 45)  0.2097 ( 47) -0.2772 ( 48) -0.1923 ( 53)  0.1240 ( 58)
          -0.1886 ( 60)  0.1137 ( 61)  0.1210 ( 72) -0.1813 ( 73) -0.1841 ( 76)
           0.1321 ( 78)
 CRD 24=  -0.3352 (  1) -0.3015 (  3) -0.2714 (  4)  0.1649 (  5)  0.1649 (  7)
          -0.3019 (  8)  0.1436 (  9) -0.2703 ( 12) -0.3359 ( 13)  0.1431 ( 14)
           0.2414 ( 16)  0.2415 ( 18)  0.1290 ( 21)  0.1292 ( 33) -0.2097 ( 40)
          -0.2100 ( 42)
 CRD 25=   0.1805 ( 49)  0.1118 ( 53) -0.2343 ( 56) -0.1819 ( 57)  0.1026 ( 60)
           0.1699 ( 62) -0.2479 ( 64) -0.2012 ( 65)  0.3396 ( 69)  0.2928 ( 70)
           0.1138 ( 74)  0.1236 ( 75)  0.2404 ( 79) -0.1915 ( 80) -0.3225 ( 81)
          -0.2702 ( 82) -0.2381 ( 83)  0.2871 ( 84)
 CRD 26=  -0.1392 (  1)  0.1762 (  4) -0.1487 ( 12)  0.1206 ( 13)  0.1122 ( 26)
          -0.1038 ( 30) -0.1286 ( 49)  0.1008 ( 50) -0.1681 ( 52)  0.3382 ( 54)
          -0.2047 ( 57) -0.2953 ( 62)  0.1167 ( 64) -0.1241 ( 65) -0.1166 ( 67)
           0.1548 ( 68) -0.1812 ( 69) -0.1150 ( 72) -0.1210 ( 73)  0.1882 ( 74)
           0.1479 ( 76)  0.1260 ( 77)  0.1200 ( 78)  0.3000 ( 79) -0.3710 ( 80)
           0.2643 ( 81) -0.1301 ( 83)
 CRD 27=  -0.2996 (  2) -0.1936 (  3) -0.1967 (  5)  0.1962 (  7)  0.1929 (  8)
          -0.4099 ( 10)  0.2997 ( 11)  0.4097 ( 15)  0.2299 ( 19) -0.1075 ( 21)
           0.1078 ( 23)  0.1422 ( 24) -0.1855 ( 25) -0.1082 ( 29) -0.1420 ( 31)
           0.1856 ( 32)  0.1079 ( 33) -0.2305 ( 36)
 CRD 28=   0.1533 (  1)  0.1182 (  3)  0.1214 (  4) -0.1185 (  8) -0.2177 (  9)
          -0.1202 ( 12) -0.1545 ( 13)  0.2177 ( 14) -0.3071 ( 16)  0.3061 ( 18)
          -0.2609 ( 20) -0.2531 ( 21)  0.2607 ( 22) -0.1945 ( 24)  0.1943 ( 31)
           0.2527 ( 33) -0.1026 ( 39)  0.2698 ( 40)  0.1032 ( 41) -0.2702 ( 42)
          -0.1232 ( 43)  0.1230 ( 46)
 CRD 29=  -0.1172 (  5)  0.1164 (  7)  0.1339 (  9)  0.2689 ( 10) -0.1354 ( 14)
          -0.2711 ( 15)  0.3111 ( 16) -0.3092 ( 18)  0.1318 ( 19) -0.1576 ( 21)
           0.1581 ( 33) -0.3398 ( 35) -0.1320 ( 36)  0.3403 ( 37) -0.3037 ( 39)
           0.1503 ( 40)  0.3029 ( 41) -0.1502 ( 42)
 CRD 30=  -0.2026 (  5)  0.1751 (  6) -0.2031 (  7) -0.1438 (  9) -0.3394 ( 10)
          -0.1424 ( 14) -0.3383 ( 15)  0.4047 ( 16)  0.2610 ( 17)  0.4074 ( 18)
           0.1517 ( 21) -0.1165 ( 23) -0.1164 ( 29)  0.1511 ( 33)  0.1185 ( 35)
           0.1168 ( 37) -0.1599 ( 39) -0.1611 ( 41)
 CRD 31=   0.1714 (  2) -0.1407 (  5) -0.4512 (  6) -0.1412 (  7)  0.3897 ( 10)
           0.1712 ( 11)  0.3894 ( 15)  0.2721 ( 16) -0.1801 ( 17)  0.2718 ( 18)
           0.1047 ( 21)  0.1295 ( 25)  0.1296 ( 32)  0.1051 ( 33) -0.1087 ( 40)
          -0.1090 ( 42) -0.1239 ( 44) -0.1101 ( 45) -0.1247 ( 47) -0.1092 ( 48)
 CRD 32=   0.2012 (  1) -0.1731 (  3)  0.1768 (  4) -0.2886 (  5)  0.2891 (  7)
           0.1738 (  8) -0.1761 ( 12) -0.2024 ( 13)  0.2068 ( 16) -0.2063 ( 18)
          -0.1362 ( 20)  0.1452 ( 21)  0.1363 ( 22) -0.1585 ( 24)  0.1307 ( 25)
           0.1554 ( 26)  0.1624 ( 27) -0.1627 ( 28) -0.1558 ( 30)  0.1587 ( 31)
          -0.1310 ( 32) -0.1452 ( 33)  0.1151 ( 34) -0.1149 ( 38)  0.1458 ( 39)
          -0.1462 ( 41) -0.2046 ( 43) -0.1295 ( 44) -0.1453 ( 45)  0.2048 ( 46)
           0.1297 ( 47)  0.1457 ( 48)
 CRD 33=  -0.2233 (  2)  0.1793 (  3) -0.1850 (  5)  0.3181 (  6) -0.1841 (  7)
           0.1788 (  8) -0.1132 (  9)  0.2142 ( 10) -0.2211 ( 11) -0.1126 ( 14)
           0.2133 ( 15)  0.2555 ( 16) -0.3415 ( 17)  0.2552 ( 18)  0.1258 ( 19)
          -0.1298 ( 21) -0.1224 ( 25) -0.1220 ( 32) -0.1298 ( 33)  0.1257 ( 36)
           0.1598 ( 44)  0.1365 ( 45)  0.1632 ( 47)  0.1309 ( 48)
 CRD 34=   0.1775 (  1) -0.2209 (  4)  0.2227 ( 12) -0.1735 ( 13)  0.1257 ( 44)
          -0.1516 ( 45) -0.1209 ( 47)  0.1549 ( 48) -0.1436 ( 49)  0.1160 ( 52)
           0.1171 ( 53) -0.3169 ( 57) -0.1183 ( 60)  0.3167 ( 64)  0.1657 ( 67)
          -0.1154 ( 68) -0.2780 ( 69)  0.2049 ( 72)  0.1450 ( 74) -0.1629 ( 77)
          -0.2084 ( 78)  0.2780 ( 79) -0.2476 ( 82)  0.2462 ( 83)
 CRD 35=  -0.1356 (  1)  0.1777 (  3) -0.1060 (  4)  0.3096 (  5) -0.3093 (  6)
           0.3098 (  7)  0.1772 (  8) -0.3899 (  9) -0.1410 ( 13) -0.3885 ( 14)
           0.2330 ( 17) -0.1377 ( 21) -0.1367 ( 33)  0.1620 ( 40)  0.1633 ( 42)
           0.1448 ( 43)  0.1436 ( 46)
 CRD 36=   0.1663 (  2) -0.1522 (  3)  0.2399 (  5) -0.2392 (  7)  0.1537 (  8)
           0.2655 (  9) -0.3573 ( 10) -0.1664 ( 11) -0.2688 ( 14)  0.3579 ( 15)
          -0.1958 ( 23)  0.1954 ( 29) -0.2187 ( 35)  0.2183 ( 37) -0.1774 ( 39)
           0.1228 ( 40)  0.1772 ( 41) -0.1216 ( 42) -0.1084 ( 44)  0.1097 ( 47)
 CRD 37=  -0.1185 (  1)  0.3788 (  3) -0.1257 (  4) -0.2402 (  5) -0.2003 (  6)
          -0.2413 (  7)  0.3775 (  8)  0.1632 (  9) -0.1262 ( 12) -0.1174 ( 13)
           0.1635 ( 14) -0.1530 ( 16)  0.1836 ( 17) -0.1546 ( 18)  0.1933 ( 21)
          -0.1213 ( 25) -0.1209 ( 32)  0.1932 ( 33)  0.1103 ( 35)  0.1108 ( 37)
          -0.1880 ( 40) -0.1889 ( 42)  0.1440 ( 43)  0.1438 ( 46)
 CRD 38=  -0.1732 (  1)  0.2019 (  4)  0.2000 ( 12) -0.1736 ( 13) -0.1108 ( 44)
           0.1492 ( 45) -0.1061 ( 47)  0.1528 ( 48) -0.2140 ( 49) -0.1024 ( 51)
           0.2562 ( 53) -0.3023 ( 54)  0.2573 ( 60) -0.3027 ( 62)  0.1144 ( 69)
           0.1668 ( 73) -0.2128 ( 74)  0.1653 ( 76)  0.1152 ( 79)  0.2534 ( 80)
           0.2529 ( 81)  0.1579 ( 82)  0.1593 ( 83)  0.2094 ( 84)
 CRD 39=  -0.3155 (  3)  0.3170 (  8)  0.1191 (  9)  0.1689 ( 10) -0.1145 ( 14)
          -0.1708 ( 15) -0.2722 ( 16)  0.2733 ( 18)  0.1054 ( 20) -0.1056 ( 22)
           0.1983 ( 23)  0.1974 ( 24) -0.2002 ( 29) -0.1965 ( 31) -0.2629 ( 34)
           0.2639 ( 38) -0.1807 ( 39) -0.1345 ( 40)  0.1822 ( 41)  0.1350 ( 42)
 CRD 40=   0.1395 (  1) -0.1651 (  2) -0.1885 (  9)  0.1994 ( 10) -0.1654 ( 11)
           0.1403 ( 13) -0.1905 ( 14)  0.1978 ( 15) -0.1492 ( 16)  0.4489 ( 17)
          -0.1468 ( 18)  0.1989 ( 23)  0.1966 ( 29) -0.1258 ( 34)  0.2370 ( 35)
           0.2357 ( 37) -0.1233 ( 38) -0.1124 ( 39) -0.1264 ( 40) -0.1112 ( 41)
          -0.1249 ( 42) -0.1463 ( 43) -0.1454 ( 46)  0.1151 ( 59)  0.1148 ( 66)
           0.1150 ( 67)  0.1152 ( 77)
 CRD 41=  -0.1989 (  2)  0.2120 (  3) -0.1789 (  5)  0.1790 (  7) -0.2116 (  8)
           0.3169 (  9)  0.1984 ( 11) -0.3163 ( 14) -0.1768 ( 16)  0.1764 ( 18)
          -0.1369 ( 19)  0.1797 ( 21) -0.1762 ( 24)  0.1764 ( 31) -0.1792 ( 33)
          -0.1688 ( 34)  0.1367 ( 36)  0.1690 ( 38) -0.1886 ( 39) -0.1299 ( 40)
           0.1886 ( 41)  0.1298 ( 42)  0.1166 ( 44) -0.1174 ( 47) -0.1055 ( 59)
           0.1051 ( 66)  0.1048 ( 67) -0.1051 ( 77)
 CRD 42=  -0.1878 (  1)  0.2361 (  4)  0.2365 ( 12) -0.1883 ( 13) -0.1316 ( 44)
           0.1627 ( 45) -0.1310 ( 47)  0.1639 ( 48)  0.1182 ( 49)  0.1382 ( 51)
           0.1574 ( 52)  0.1426 ( 53) -0.1159 ( 55)  0.1867 ( 57) -0.1360 ( 58)
           0.1421 ( 60) -0.1356 ( 61) -0.1158 ( 63)  0.1851 ( 64) -0.1000 ( 67)
           0.1578 ( 68) -0.1225 ( 69)  0.1769 ( 71) -0.1551 ( 72)  0.1226 ( 73)
           0.1177 ( 74)  0.1235 ( 76) -0.1552 ( 78) -0.1240 ( 79) -0.2247 ( 80)
          -0.2238 ( 81) -0.3185 ( 84)
 CRD 43=  -0.1894 (  1)  0.2333 (  2)  0.1367 (  3) -0.1040 (  4) -0.2373 (  5)
           0.2369 (  7) -0.1372 (  8) -0.2323 ( 11)  0.1023 ( 12)  0.1905 ( 13)
           0.1094 ( 19) -0.2323 ( 20)  0.2320 ( 22) -0.1228 ( 24) -0.1843 ( 25)
           0.1228 ( 31)  0.1836 ( 32) -0.1092 ( 36)  0.1996 ( 43) -0.1991 ( 46)
          -0.1467 ( 58)  0.1827 ( 59)  0.1477 ( 61) -0.1829 ( 66) -0.1835 ( 67)
           0.1471 ( 72)  0.1832 ( 77) -0.1462 ( 78)
 CRD 44=  -0.1446 (  1)  0.2501 (  2) -0.1446 (  5)  0.3250 (  6) -0.1446 (  7)
           0.1173 ( 10)  0.2493 ( 11) -0.1492 ( 13)  0.1172 ( 15)  0.1327 ( 17)
           0.2087 ( 19) -0.1276 ( 20) -0.1278 ( 22)  0.1352 ( 23) -0.1516 ( 25)
           0.1251 ( 27)  0.1279 ( 28)  0.1348 ( 29) -0.1513 ( 32)  0.2090 ( 36)
           0.1513 ( 43) -0.1238 ( 44)  0.1510 ( 46) -0.1271 ( 47)  0.1400 ( 58)
          -0.1773 ( 59)  0.1431 ( 61) -0.1748 ( 66) -0.1753 ( 67)  0.1426 ( 72)
          -0.1767 ( 77)  0.1405 ( 78)
 CRD 45=   0.1807 (  1) -0.2257 (  4)  0.2269 ( 12) -0.1770 ( 13)  0.1338 ( 26)
          -0.1078 ( 27)  0.1052 ( 28) -0.1350 ( 30)  0.1267 ( 44) -0.1557 ( 45)
          -0.1238 ( 47)  0.1569 ( 48)  0.2199 ( 50) -0.1156 ( 52)  0.1132 ( 53)
          -0.1065 ( 55) -0.1070 ( 56) -0.1818 ( 58) -0.1183 ( 59) -0.1136 ( 60)
           0.1799 ( 61)  0.1072 ( 63)  0.1076 ( 65)  0.1231 ( 66)  0.1147 ( 68)
           0.2048 ( 69) -0.2285 ( 73) -0.2198 ( 75)  0.2282 ( 76) -0.2043 ( 79)
           0.2792 ( 82) -0.2798 ( 83)
 CRD 46=  -0.3185 ( 49)  0.2079 ( 52)  0.1290 ( 54) -0.2271 ( 55) -0.2034 ( 56)
          -0.1094 ( 62)  0.2211 ( 63)  0.2468 ( 65)  0.1414 ( 67) -0.1981 ( 68)
           0.1473 ( 69)  0.1160 ( 72)  0.2440 ( 73)  0.3182 ( 74) -0.2313 ( 76)
          -0.1412 ( 77) -0.1174 ( 78) -0.1447 ( 79) -0.1108 ( 80)  0.1272 ( 81)
           0.2405 ( 82) -0.2890 ( 83)
 CRD 47=  -0.1766 ( 50)  0.1960 ( 51)  0.1163 ( 54)  0.2925 ( 56) -0.1270 ( 57)
          -0.1508 ( 58) -0.1288 ( 59) -0.1375 ( 61)  0.1353 ( 62) -0.1394 ( 64)
           0.2569 ( 65) -0.1207 ( 66) -0.3902 ( 70) -0.1721 ( 75)  0.1040 ( 76)
           0.1174 ( 80) -0.3211 ( 82) -0.2789 ( 83)  0.4267 ( 84)
 CRD 48=   0.2303 ( 49) -0.3018 ( 51)  0.1212 ( 53) -0.2886 ( 55)  0.2010 ( 56)
           0.2117 ( 58)  0.1925 ( 59)  0.1220 ( 60)  0.2123 ( 61) -0.2892 ( 63)
           0.2005 ( 65)  0.1943 ( 66) -0.1214 ( 67) -0.1545 ( 70)  0.3300 ( 71)
          -0.1034 ( 72) -0.1937 ( 73)  0.2304 ( 74) -0.1939 ( 76) -0.1226 ( 77)
          -0.1034 ( 78) -0.1367 ( 82) -0.1367 ( 83)  0.1014 ( 84)

 THE DETERMINANT OF THE G MATRIX IS 10**(   -19)


                     --------------------
                     INTERNAL COORDINATES
                     --------------------

                 - - ATOMS - -         COORDINATE      COORDINATE
 NO.   TYPE    I  J  K  L  M  N        (BOHR,RAD)       (ANG,DEG)
 ----------------------------------------------------------------
   1 STRETCH   1 11                     2.0770211       1.0991123
   2 STRETCH   1 10                     2.0750164       1.0980515
   3 STRETCH   1  2                     2.8086092       1.4862521
   4 STRETCH   1  9                     2.0774446       1.0993364
   5 STRETCH   2  4                     2.6376106       1.3957635
   6 STRETCH   2  3                     2.6489168       1.4017465
   7 STRETCH   3  6                     2.6390415       1.3965207
   8 STRETCH   3  5                     2.8083370       1.4861081
   9 STRETCH   4  7                     2.6244956       1.3888234
  10 STRETCH   4 12                     2.0714887       1.0961847
  11 STRETCH   5 14                     2.0749404       1.0980113
  12 STRETCH   5 13                     2.0773062       1.0992632
  13 STRETCH   5 15                     2.0772238       1.0992196
  14 STRETCH   6  8                     2.6270217       1.3901601
  15 STRETCH   6 16                     2.0725236       1.0967324
  16 STRETCH   7 17                     2.0682099       1.0944497
  17 STRETCH   7  8                     2.6286747       1.3910348
  18 STRETCH   8 18                     2.0694380       1.0950995
  19 BEND      1  2  4                  2.0802647     119.1903889
  20 BEND      1  2  3                  2.1182008     121.3639648
  21 BEND      2  4 12                  2.0880307     119.6353444
  22 BEND      2  3  5                  2.1123055     121.0261924
  23 BEND      2  4  7                  2.1071888     120.7330246
  24 BEND      2  3  6                  2.0860573     119.5222768
  25 BEND      2  1 10                  1.9590475     112.2451540
  26 BEND      2  1  9                  1.9315912     110.6720227
  27 BEND      2  1 11                  1.9407335     111.1958384
  28 BEND      3  5 15                  1.9415120     111.2404413
  29 BEND      3  6  8                  2.1033077     120.5106539
  30 BEND      3  5 13                  1.9310350     110.6401540
  31 BEND      3  2  4                  2.0847198     119.4456454
  32 BEND      3  5 14                  1.9582104     112.1971910
  33 BEND      3  6 16                  2.0863520     119.5391663
  34 BEND      4  7  8                  2.0906440     119.7850780
  35 BEND      4  7 17                  2.0955250     120.0647393
  36 BEND      5  3  6                  2.0848224     119.4515229
  37 BEND      6  8 18                  2.0928345     119.9105826
  38 BEND      6  8  7                  2.0944315     120.0020848
  39 BEND      7  8 18                  2.0959166     120.0871744
  40 BEND      7  4 12                  2.0879610     119.6313548
  41 BEND      8  7 17                  2.0970161     120.1501724
  42 BEND      8  6 16                  2.0935228     119.9500210
  43 BEND      9  1 11                  1.8741343     107.3799855
  44 BEND      9  1 10                  1.8777311     107.5860644
  45 BEND     10  1 11                  1.8770397     107.5464519
  46 BEND     13  5 15                  1.8741321     107.3798612
  47 BEND     13  5 14                  1.8806788     107.7549566
  48 BEND     14  5 15                  1.8747692     107.4163638
  49 TORSION   1  2  4 12              -0.0030689      -0.1758374
  50 TORSION   1  2  4  7               3.1351744     179.6322620
  51 TORSION   1  2  3  5               0.0028529       0.1634569
  52 TORSION   1  2  3  6              -3.1381744    -179.8041473
  53 TORSION   2  3  5 14               2.9378430     168.3260025
  54 TORSION   2  3  6 16               3.1415396     179.9969575
  55 TORSION   2  3  6  8               0.0024792       0.1420466
  56 TORSION   2  4  7  8               0.0034846       0.1996545
  57 TORSION   2  4  7 17              -3.1387499    -179.8371218
  58 TORSION   2  3  5 15               0.8371664      47.9661023
  59 TORSION   2  3  5 13              -1.2444192     -71.2999662
  60 TORSION   3  2  1 10               2.9526564     169.1747495
  61 TORSION   3  2  1 11               0.8490376      48.6462709
  62 TORSION   3  2  4 12               3.1387100     179.8348341
  63 TORSION   3  2  4  7              -0.0062320      -0.3570664
  64 TORSION   3  6  8 18               3.1338033     179.5537029
  65 TORSION   3  6  8  7              -0.0052665      -0.3017471
  66 TORSION   3  2  1  9              -1.2324100     -70.6118904
  67 TORSION   4  2  1  9               1.9093726     109.3989929
  68 TORSION   4  2  3  5              -3.1389302    -179.8474537
  69 TORSION   4  7  8 18              -3.1367817    -179.7243536
  70 TORSION   4  7  8  6               0.0022836       0.1308390
  71 TORSION   4  2  3  6               0.0032279       0.1849422
  72 TORSION   4  2  1 11              -2.2923651    -131.3428458
  73 TORSION   4  2  1 10              -0.1887463     -10.8143672
  74 TORSION   5  3  6 16               0.0005033       0.0288385
  75 TORSION   5  3  6  8              -3.1385570    -179.8260725
  76 TORSION   6  3  5 14              -0.2043147     -11.7063708
  77 TORSION   6  3  5 13               1.8966085     108.6676606
  78 TORSION   6  3  5 15              -2.3049913    -132.0662709
  79 TORSION   6  8  7 17              -3.1386667    -179.8323528
  80 TORSION   7  8  6 16               3.1388689     179.8439376
  81 TORSION   8  7  4 12              -3.1414572    -179.9922384
  82 TORSION  12  4  7 17              -0.0005064      -0.0290148
  83 TORSION  16  6  8 18              -0.0052467      -0.3006123
  84 TORSION  17  7  8 18               0.0054534       0.3124546

     ------------------------------------------
     THE POINT GROUP IS C1 , NAXIS= 1, ORDER= 1
     ------------------------------------------

     DIMENSIONS OF THE SYMMETRY SUBSPACES ARE
 A   =  212

 ..... DONE SETTING UP THE RUN .....
 STEP CPU TIME =     0.02 TOTAL CPU TIME =        0.0 (    0.0 MIN)
 TOTAL WALL CLOCK TIME=        0.0 SECONDS, CPU UTILIZATION IS  66.67%


          -----------------------------
          STATIONARY POINT LOCATION RUN
          -----------------------------

 OBTAINING INITIAL HESSIAN, HESS=GUESS   
 DIAGONAL GUESS HESSIAN IN INTERNAL COORDS IS
     1  0.3403     2  0.3410     3  0.3998     4  0.3401     5  0.4766
     6  0.4711     7  0.4759     8  0.3999     9  0.4831    10  0.3422
    11  0.3410    12  0.3402    13  0.3402    14  0.4819    15  0.3419
    16  0.3434    17  0.4810    18  0.3430    19  0.2615    20  0.2610
    21  0.2319    22  0.2610    23  0.2690    24  0.2680    25  0.2262
    26  0.2261    27  0.2262    28  0.2262    29  0.2689    30  0.2262
    31  0.2680    32  0.2262    33  0.2318    34  0.2694    35  0.2325
    36  0.2614    37  0.2323    38  0.2693    39  0.2323    40  0.2323
    41  0.2323    42  0.2322    43  0.2025    44  0.2025    45  0.2025
    46  0.2025    47  0.2025    48  0.2025    49  0.2500    50  0.2500
    51  0.2500    52  0.2500    53  0.2500    54  0.2500    55  0.2500
    56  0.2500    57  0.2500    58  0.2500    59  0.2500    60  0.2500
    61  0.2500    62  0.2500    63  0.2500    64  0.2500    65  0.2500
    66  0.2500    67  0.2500    68  0.2500    69  0.2500    70  0.2500
    71  0.2500    72  0.2500    73  0.2500    74  0.2500    75  0.2500
    76  0.2500    77  0.2500    78  0.2500    79  0.2500    80  0.2500
    81  0.2500    82  0.2500    83  0.2500    84  0.2500
 TRANSFORMING HESSIAN TO SYMMETRY COORDINATES

          PARAMETERS CONTROLLING GEOMETRY SEARCH ARE
          METHOD =QA                  UPHESS =BFGS    
          NNEG   =         0          NFRZ   =         3
          NSTEP  =        50          IFOLOW =         1
          HESS   =GUESS               RESTAR =         F
          IHREP  =         0          HSSEND =         F
          NPRT   =         0          NPUN   =         0
          OPTTOL = 5.000E-04          RMIN   = 1.500E-03
          RMAX   = 1.000E-01          RLIM   = 7.000E-02
          DXMAX  = 3.000E-01          PURIFY =         F
          MOVIE  =         F          TRUPD  =         T
          TRMAX  = 5.000E-01          TRMIN  = 5.000E-02
          ITBMAT =         5          STPT   =         F
          STSTEP = 1.000E-02          PROJCT=          F
          FROZEN COORD(S)=   1   2   3


      ***** EQUILIBRIUM GEOMETRY LOCATED *****
            (SUBJECT TO   3 CONSTRAINT(S))
 COORDINATES OF ALL ATOMS ARE (ANGS)
   ATOM   CHARGE       X              Y              Z
 ------------------------------------------------------------
 C           6.0   2.4474700042   0.7037580976   1.2827608429
 C           6.0   2.9445923371   2.1309044061   1.2424173410
 C           6.0   2.0470600492   3.2013098569   1.1160153233
 C           6.0   4.3025268108   2.3985411154   1.3462706144
 C           6.0   0.5632245311   2.9509362194   0.9674124665
 C           6.0   2.5422865103   4.4982514899   1.1147334876
 C           6.0   4.7877955160   3.6994449433   1.3355156942
 C           6.0   3.9027656549   4.7546718759   1.2254594750
 H           1.0   1.8174427162   0.5371946150   2.1526427433
 H           1.0   3.2765942450   0.0085630290   1.3314431052
 H           1.0   1.8542221666   0.4631512772   0.4054934043
 H           1.0   4.9942313317   1.5784479377   1.4342195069
 H           1.0   0.3519400182   2.4031165553   0.0527503196
 H           1.0   0.0142941340   3.8841126091   0.9344250096
 H           1.0   0.1754628755   2.3601207817   1.7922093362
 H           1.0   1.8568452049   5.3233517732   1.0231646214
 H           1.0   5.8453771052   3.8793518108   1.4167632721
 H           1.0   4.2611010906   5.7691199679   1.2225177812


                     --------------------
                     INTERNAL COORDINATES
                     --------------------

                 - - ATOMS - -         COORDINATE      COORDINATE
 NO.   TYPE    I  J  K  L  M  N        (BOHR,RAD)       (ANG,DEG)
 ----------------------------------------------------------------
   1 STRETCH   1 11                     2.0522744       1.0860169
   2 STRETCH   1 10                     2.0467688       1.0831035
   3 STRETCH   1  2                     2.8568662       1.5117886
   4 STRETCH   1  9                     2.0539612       1.0869095
   5 STRETCH   2  4                     2.6228423       1.3879485
   6 STRETCH   2  3                     2.6505450       1.4026081
   7 STRETCH   3  6                     2.6234600       1.3882754
   8 STRETCH   3  5                     2.8575117       1.5121302
   9 STRETCH   4  7                     2.6238981       1.3885072
  10 STRETCH   4 12                     2.0341941       1.0764492
  11 STRETCH   5 14                     2.0468715       1.0831578
  12 STRETCH   5 13                     2.0539456       1.0869013
  13 STRETCH   5 15                     2.0525172       1.0861454
  14 STRETCH   6  8                     2.6245533       1.3888539
  15 STRETCH   6 16                     2.0344242       1.0765710
  16 STRETCH   7 17                     2.0330558       1.0758469
  17 STRETCH   7  8                     2.6108971       1.3816273
  18 STRETCH   8 18                     2.0331185       1.0758800
  19 BEND      1  2  4                  2.0964237     120.1162304
  20 BEND      1  2  3                  2.1087869     120.8245904
  21 BEND      2  4 12                  2.0804681     119.2020414
  22 BEND      2  3  5                  2.1064747     120.6921121
  23 BEND      2  4  7                  2.1200085     121.4675391
  24 BEND      2  3  6                  2.0768886     118.9969501
  25 BEND      2  1 10                  1.9341335     110.8176843
  26 BEND      2  1  9                  1.9354538     110.8933321
  27 BEND      2  1 11                  1.9468107     111.5440348
  28 BEND      3  5 15                  1.9452523     111.4547445
  29 BEND      3  6  8                  2.1198027     121.4557501
  30 BEND      3  5 13                  1.9357529     110.9104737
  31 BEND      3  2  4                  2.0779026     119.0550489
  32 BEND      3  5 14                  1.9365436     110.9557743
  33 BEND      3  6 16                  2.0816837     119.2716877
  34 BEND      4  7  8                  2.0855427     119.4927945
  35 BEND      4  7 17                  2.0939843     119.9764603
  36 BEND      5  3  6                  2.0997596     120.3073649
  37 BEND      6  8 18                  2.0945398     120.0082905
  38 BEND      6  8  7                  2.0861284     119.5263530
  39 BEND      7  8 18                  2.1025136     120.4651569
  40 BEND      7  4 12                  2.0827046     119.3301826
  41 BEND      8  7 17                  2.1036494     120.5302299
  42 BEND      8  6 16                  2.0816951     119.2723454
  43 BEND      9  1 11                  1.8711934     107.2114844
  44 BEND      9  1 10                  1.8853515     108.0226818
  45 BEND     10  1 11                  1.8883792     108.1961571
  46 BEND     13  5 15                  1.8707527     107.1862355
  47 BEND     13  5 14                  1.8860796     108.0643985
  48 BEND     14  5 15                  1.8868693     108.1096463
  49 TORSION   1  2  4 12               0.0225852       1.2940366
  50 TORSION   1  2  4  7              -3.1221194    -178.8842647
  51 TORSION   1  2  3  5              -0.0382831      -2.1934599
  52 TORSION   1  2  3  6               3.1152745     178.4920801
  53 TORSION   2  3  5 14               3.0898335     177.0344195
  54 TORSION   2  3  6 16              -3.1360305    -179.6813097
  55 TORSION   2  3  6  8               0.0085408       0.4893534
  56 TORSION   2  4  7  8               0.0053540       0.3067590
  57 TORSION   2  4  7 17              -3.1407718    -179.9529709
  58 TORSION   2  3  5 15               0.9860087      56.4941388
  59 TORSION   2  3  5 13              -1.0968944     -62.8474224
  60 TORSION   3  2  1 10               3.0903852     177.0660293
  61 TORSION   3  2  1 11               0.9852360      56.4498637
  62 TORSION   3  2  4 12              -3.1318034    -179.4391163
  63 TORSION   3  2  4  7               0.0066773       0.3825824
  64 TORSION   3  6  8 18              -3.1409386    -179.9625252
  65 TORSION   3  6  8  7               0.0034766       0.1991939
  66 TORSION   3  2  1  9              -1.0990521     -62.9710454
  67 TORSION   4  2  1  9               2.0295150     116.2826417
  68 TORSION   4  2  3  5               3.1161989     178.5450457
  69 TORSION   4  7  8 18               3.1340342     179.5669303
  70 TORSION   4  7  8  6              -0.0103942      -0.5955423
  71 TORSION   4  2  3  6              -0.0134288      -0.7694143
  72 TORSION   4  2  1 11              -2.1693823    -124.2964493
  73 TORSION   4  2  1 10              -0.0642331      -3.6802836
  74 TORSION   5  3  6 16               0.0174799       1.0015239
  75 TORSION   5  3  6  8              -3.1211341    -178.8278130
  76 TORSION   6  3  5 14              -0.0638809      -3.6601056
  77 TORSION   6  3  5 13               2.0325765     116.4580525
  78 TORSION   6  3  5 15              -2.1677057    -124.2003863
  79 TORSION   6  8  7 17               3.1357572     179.6656559
  80 TORSION   7  8  6 16              -3.1351374    -179.6301418
  81 TORSION   8  7  4 12              -3.1393545    -179.8717660
  82 TORSION  12  4  7 17              -0.0022950      -0.1314958
  83 TORSION  16  6  8 18               0.0036327       0.2081390
  84 TORSION  17  7  8 18              -0.0029997      -0.1718715

          INTERNUCLEAR DISTANCES (ANGS.)


 =====================================================
   GAMESS/COSab RESULTS
 =====================================================

   Dielectric Constant                  = INFTY
   Basic Grid Size                      =                 1082
   Number of Segments                   =                   92
   Number of Segments located on spheres=                  284
   Number of Segments of the cavity     =                  689
   Solvent Radius (rsolv)               = 1.40
   Outlying Charge Error Method         = double cavity

 =====================================================

  Total solvated Energy (a.u.)          =  -308.8510694879
  Total Energy corrected (a.u.)         =  -308.8510987860

  Outlying charge effect (a.u.)         =    -0.0000292981
  Outlying charge effect (kcal/mol)     =    -0.0183848208

  Dielectric Energy (a.u.)              =    -0.0067644028
  Dielectric energy corr. (a.u.)        =    -0.0067937008

  Sum of polarization charges           =     0.0256717801
  Sum of polarization charges(cor.)     =    -0.0256717801

  Total surface area of cavity (A**2)   =  155.84
  Total volume of cavity (A**3)         =  152.50

 =====================================================
 NPS=                   689
NR.  ATOM  (X, Y, Z)(a.u.)                  CHARGE(e)  AREA(A**2) SIGMA(e/A**2)
   1   1   6.535856   1.099903  -0.828664   0.000271   0.185824   0.001460
   2   1   1.106909   0.010351   2.017001   0.000491   0.185824   0.002641
   3   1   3.702872  -2.287901   3.011701   0.000394   0.371649   0.001061
   4   1   6.026286  -0.556127   5.384411   0.001320   0.371649   0.003553
   5   1   5.741486   0.727265  -1.136092   0.000613   0.278737   0.002199
   6   1   5.447682  -0.267749  -0.900856   0.000705   0.232280   0.003037
   7   1   6.430024   0.296380  -0.731599   0.000396   0.185824   0.002132
   8   1   6.998189   0.140457  -0.266241   0.000438   0.232280   0.001886
   9   1   4.739673   2.149215   6.111855   0.000032   0.092912   0.000342
  10   1   5.154705  -0.425827   5.728772   0.000819   0.278737   0.002938
  11   1   3.175312  -1.830039   3.906375   0.000595   0.418105   0.001423
  12   1   1.147161  -0.105110   2.783576   0.000555   0.185824   0.002985
  13   1   5.006067  -1.501064  -0.050757   0.001156   0.325193   0.003555
  14   1   5.745821  -1.495086   0.177378   0.000731   0.232280   0.003145
  15   1   1.527591  -0.825172   2.210446   0.000966   0.325193   0.002969
  16   1   2.499094  -1.785473   2.666917   0.000671   0.418105   0.001604
  17   1   4.617305  -2.161843   3.870399   0.000939   0.418105   0.002246
  18   1   5.316349  -1.427116   4.915084   0.001244   0.325193   0.003826
  19   1   5.947780   0.696599   5.907386   0.001020   0.418105   0.002439
  20   1   5.688685   1.652267   6.036401   0.000291   0.185824   0.001567
  21   1   3.880657  -1.972865   0.744221   0.000750   0.371649   0.002017
  22   1   3.527355  -2.238353   1.835113   0.000587   0.464561   0.001263
  23   1   4.652643  -2.448757   2.496271   0.000369   0.325193   0.001134
  24   1   6.806644   0.315755   5.338920   0.000628   0.325193   0.001930
  25   1   5.358542   1.527744  -1.278254   0.000329   0.185824   0.001769
  26   1   6.103076  -0.666484  -0.424476   0.001348   0.371649   0.003627
  27   1   5.208547   1.284568   6.157921   0.000186   0.139368   0.001334
  28   1   4.372429  -1.672629   4.705556   0.000865   0.325193   0.002661
  29   1   1.871368  -1.176232   3.072712   0.000583   0.278737   0.002091
  30   1   4.849488  -2.237343   1.195793   0.000972   0.418105   0.002325
  31   1   2.400134  -1.599287   1.555825   0.000503   0.371649   0.001354
  32   2   5.962066   3.507881   6.070307   0.000617   0.092912   0.006643
  33   2   4.623001   4.080993   6.007735   0.000690   0.139368   0.004951
  34   2   5.264298   3.728633   6.103518   0.000795   0.185824   0.004277
  35   2   5.703408   4.320392   6.113294   0.000538   0.139368   0.003862
  36   2   6.085518   4.527287  -1.361934   0.002755   0.371649   0.007412
  37   2   5.355565   3.650706  -1.407060   0.001212   0.232280   0.005218
  38   2   6.404340   3.211892  -1.245890   0.001616   0.371649   0.004348
  39   2   5.232544   4.842598   6.023226   0.001688   0.232280   0.007269
  40   3   3.662943   6.730905  -1.602887   0.000619   0.092912   0.006661
  41   3   4.002406   5.313098  -1.595607   0.000679   0.139368   0.004871
  42   3   3.767413   6.008797  -1.668915   0.000813   0.185824   0.004374
  43   3   4.422805   6.341927  -1.618150   0.000508   0.139368   0.003642
  44   3   4.207781   6.276226   5.866320   0.002825   0.371649   0.007602
  45   3   3.221870   5.702846   5.816535   0.001207   0.232280   0.005197
  46   3   2.973120   6.817708   5.699618   0.001640   0.371649   0.004412
  47   3   4.853410   5.785702  -1.530308   0.001948   0.232280   0.008385
  48   4   7.115770   5.351154   6.091535   0.000801   0.092912   0.008618
  49   4  10.290230   4.236816   5.631603   0.001007   0.278737   0.003612
  50   4   9.642026   3.192712  -0.650363   0.001671   0.371649   0.004496
  51   4  10.305681   2.771920   0.003762   0.000811   0.278737   0.002910
  52   4   8.794870   1.971635   5.243076   0.000175   0.139368   0.001258
  53   4  10.457586   3.481578   5.330616   0.000700   0.278737   0.002511
  54   4  11.711868   3.836878   1.556837  -0.000117   0.092912  -0.001264
  55   4  11.159000   4.021962   4.746871   0.000282   0.185824   0.001515
  56   4   9.487723   3.573273   5.938523   0.001410   0.325193   0.004336
  57   4   8.373282   2.712078   5.847289   0.001153   0.278737   0.004137
  58   4   8.850807   2.445267  -0.523257   0.001559   0.371649   0.004194
  59   4  10.586207   3.768136  -0.225348   0.001407   0.325193   0.004328
  60   4  11.197345   4.049843   0.388585   0.000516   0.139368   0.003701
  61   4   9.035492   4.509883   6.213546   0.002316   0.325193   0.007122
  62   4   7.903693   5.118229   6.270995   0.001499   0.232280   0.006454
  63   4   7.404181   4.439511   6.251912   0.001660   0.185824   0.008932
  64   4   7.792683   3.370322   6.124486   0.001237   0.232280   0.005326
  65   4   8.407398   3.518896  -1.086343   0.003357   0.511017   0.006570
  66   4   9.578866   4.338656  -0.941468   0.002323   0.418105   0.005557
  67   4   9.393101   1.895152   0.149462   0.000431   0.232280   0.001855
  68   4   9.331074   2.676186   5.609523   0.000961   0.278737   0.003448
  69   4  11.557285   4.057269   4.065957  -0.000055   0.092912  -0.000590
  70   4  11.189520   3.449593   0.606489   0.000346   0.185824   0.001860
  71   4   8.137396   4.846885  -1.222262   0.003869   0.464561   0.008327
  72   4   8.306463   3.984100   6.279395   0.001840   0.325193   0.005658
  73   5   0.942988   7.325772   5.176202   0.000270   0.185824   0.001452
  74   5  -0.823803   2.304629   1.947431   0.000483   0.185824   0.002599
  75   5  -2.611212   5.289678   0.996083   0.000391   0.371649   0.001053
  76   5  -0.386960   7.420354  -1.134637   0.001326   0.371649   0.003568
  77   5   0.429785   6.587902   5.414036   0.000611   0.278737   0.002193
  78   5  -0.583002   6.473310   5.109336   0.000703   0.232280   0.003027
  79   5   0.140418   7.357838   5.030857   0.000395   0.185824   0.002127
  80   5   0.106428   7.967473   4.593969   0.000439   0.232280   0.001892
  81   5   2.117242   5.749154  -1.797572   0.000033   0.092912   0.000352
  82   5  -0.376844   6.558489  -1.524895   0.000821   0.278737   0.002946
  83   5  -2.189400   4.742122   0.095720   0.000589   0.418105   0.001408
  84   5  -0.883844   2.403380   1.179817   0.000548   0.185824   0.002951
  85   5  -1.816302   6.284294   4.170187   0.001149   0.325193   0.003535
  86   5  -1.677956   7.024079   3.988819   0.000727   0.232280   0.003130
  87   5  -1.567692   2.865688   1.736877   0.000977   0.325193   0.003005
  88   5  -2.330140   4.003589   1.291661   0.000681   0.418105   0.001629
  89   5  -2.287729   6.215040   0.203301   0.000935   0.418105   0.002237
  90   5  -1.387600   6.838559  -0.756305   0.001243   0.325193   0.003823
  91   5   0.866887   7.165863  -1.595171   0.001028   0.418105   0.002458
  92   5   1.774884   6.761299  -1.689746   0.000295   0.185824   0.001590
  93   5  -2.412204   5.294352   3.283591   0.000748   0.371649   0.002011
  94   5  -2.682447   5.183493   2.130506   0.000601   0.464561   0.001294
  95   5  -2.631074   6.287854   1.478699   0.000291   0.278737   0.001044
  96   5   0.594086   8.044357  -0.995443   0.000646   0.325193   0.001985
  97   5   1.148352   6.072436   5.573973   0.000326   0.185824   0.001753
  98   5  -0.841567   7.209116   4.654142   0.001343   0.371649   0.003613
  99   5   1.343285   6.354712  -1.859778   0.000190   0.139368   0.001360
 100   5  -1.793459   5.937732  -0.618635   0.000861   0.325193   0.002649
 101   5  -1.805366   3.306966   0.880306   0.000581   0.278737   0.002085
 102   5  -2.489868   6.315720   2.879516   0.000966   0.418105   0.002310
 103   5  -2.321920   3.973251   2.325332   0.000428   0.325193   0.001315
 104   6   5.683510   7.550460  -1.444331   0.000808   0.092912   0.008695
 105   6   5.084893  10.839472  -0.848894   0.000985   0.278737   0.003532
 106   6   3.519149  10.046658   5.306860   0.001669   0.371649   0.004491
 107   6   3.260691  10.806028   4.672873   0.000815   0.278737   0.002926
 108   6   2.580958   9.733499  -0.690061   0.000191   0.139368   0.001370
 109   6   4.349271  11.116880  -0.582640   0.000692   0.278737   0.002482
 110   6   4.649035  12.090490   3.277812  -0.000117   0.092912  -0.001261
 111   6   4.957675  11.684020   0.075351   0.000286   0.185824   0.001541
 112   6   4.319521  10.179175  -1.244773   0.001410   0.325193   0.004335
 113   6   3.280450   9.224531  -1.275490   0.001165   0.278737   0.004179
 114   6   2.660800   9.402236   5.085920   0.001553   0.371649   0.004178
 115   6   4.271639  10.900159   4.977432   0.001411   0.325193   0.004340
 116   6   4.692671  11.486023   4.421322   0.000519   0.139368   0.003725
 117   6   5.184292   9.589185  -1.492705   0.002317   0.325193   0.007124
 118   6   5.598007   8.374937  -1.586493   0.001445   0.232280   0.006220
 119   6   4.845849   7.998081  -1.639151   0.001666   0.185824   0.008964
 120   6   3.850169   8.555779  -1.550100   0.001245   0.232280   0.005361
 121   6   3.604353   8.753160   5.681540   0.003342   0.511017   0.006539
 122   6   4.615849   9.773821   5.660028   0.002345   0.418105   0.005608
 123   6   2.256186  10.065215   4.418082   0.000435   0.232280   0.001872
 124   6   3.388456  10.160465  -0.979604   0.000960   0.278737   0.003445
 125   6   5.012092  12.033810   0.781189  -0.000071   0.092912  -0.000759
 126   6   4.115884  11.592152   4.168546   0.000347   0.185824   0.001867
 127   6   4.856289   8.254005   5.877580   0.003893   0.464561   0.008379
 128   6   4.550140   8.964937  -1.635655   0.001850   0.325193   0.005689
 129   7   7.839238   7.041389   6.104470   0.000922   0.139368   0.006613
 130   7  10.315278   8.979099   5.477480   0.001052   0.325193   0.003234
 131   7  11.138102   5.928131   5.487642   0.001175   0.278737   0.004215
 132   7  10.927096   7.225058  -0.746875   0.001607   0.371649   0.004323
 133   7  11.765711   7.445137  -0.062740   0.001049   0.371649   0.002823
 134   7  12.156714   5.258528   1.252295   0.000058   0.092912   0.000624
 135   7  11.781732   5.719249   4.802296   0.000364   0.278737   0.001304
 136   7  11.119960   8.699210   5.182976   0.000701   0.278737   0.002514
 137   7  11.451793   9.798931   1.736768  -0.000124   0.092912  -0.001336
 138   7  11.022312   9.520965   4.519697   0.000369   0.185824   0.001984
 139   7  10.537248   7.973372   5.855435   0.001374   0.325193   0.004226
 140   7  10.757399   6.664614   5.878521   0.000948   0.232280   0.004081
 141   7  11.960586   5.530467   0.609083   0.000306   0.185824   0.001647
 142   7  11.300344   6.073085  -0.368835   0.001806   0.418105   0.004320
 143   7  10.968358   8.525628  -0.346738   0.001397   0.371649   0.003758
 144   7  11.371893   9.412683   0.786765   0.000357   0.185824   0.001919
 145   7   9.498939   8.091039   6.111280   0.002318   0.325193   0.007128
 146   7   8.622969   7.466761   6.249008   0.001511   0.232280   0.006504
 147   7   8.796891   6.748137   6.287058   0.002127   0.232280   0.009158
 148   7   9.924944   6.227608   6.119852   0.001313   0.278737   0.004711
 149   7  10.092338   6.374478  -1.055745   0.003356   0.511017   0.006566
 150   7   9.990073   7.807913  -1.043958   0.002952   0.418105   0.007061
 151   7  11.925965   6.271296   0.182486   0.000547   0.232280   0.002357
 152   7  11.274901   7.264985   5.564872   0.001019   0.325193   0.003133
 153   7  11.202942   9.816555   3.810105   0.000102   0.092912   0.001094
 154   7  11.518419   8.722720   0.247722   0.000508   0.232280   0.002186
 155   7   8.815737   6.810014  -1.244235   0.003340   0.464561   0.007189
 156   7   9.828981   7.107683   6.219714   0.001458   0.278737   0.005232
 157   8   7.448673   7.984420  -1.328057   0.001069   0.139368   0.007670
 158   8   9.728472  10.056531  -0.440654   0.001570   0.325193   0.004827
 159   8   6.863975  11.385581  -0.558279   0.001178   0.278737   0.004226
 160   8   7.712962  10.614552   5.709136   0.001645   0.371649   0.004426
 161   8   8.112251  11.439849   5.093341   0.001030   0.371649   0.002772
 162   8   6.108422  12.268775   3.692981   0.000056   0.092912   0.000607
 163   8   6.722555  12.016686   0.155373   0.000349   0.278737   0.001252
 164   8   9.568588  10.879663  -0.109784   0.000640   0.278737   0.002295
 165   8  10.489297  10.829601   3.403852  -0.000248   0.092912  -0.002670
 166   8  10.319232  10.607347   0.588165   0.000263   0.185824   0.001414
 167   8   8.799564  10.466767  -0.855916   0.001430   0.325193   0.004398
 168   8   7.549848  10.907240  -0.933642   0.000948   0.232280   0.004083
 169   8   6.302892  11.994182   4.335568   0.000309   0.185824   0.001665
 170   8   6.665352  11.198508   5.295883   0.001809   0.418105   0.004327
 171   8   9.024784  10.455948   5.381627   0.001730   0.371649   0.004655
 172   8  10.036169  10.764441   4.324997   0.000210   0.185824   0.001131
 173   8   8.758467   9.439237  -1.171954   0.001568   0.325193   0.004820
 174   8   8.006899   8.691128  -1.398878   0.002042   0.232280   0.008790
 175   8   7.331126   8.986568  -1.463403   0.002082   0.232280   0.008961
 176   8   6.996323  10.175791  -1.251114   0.001318   0.278737   0.004729
 177   8   6.717489   9.920923   5.917991   0.003397   0.511017   0.006647
 178   8   8.111721   9.577150   5.975178   0.002369   0.418105   0.005666
 179   8   6.999288  11.810658   4.797482   0.000550   0.232280   0.002366
 180   8   8.207111  11.297047  -0.555905   0.001021   0.325193   0.003138
 181   8  10.595567  10.695772   1.322564  -0.000159   0.092912  -0.001710
 182   8   9.347744  10.996316   4.835282   0.000476   0.232280   0.002047
 183   8   6.921542   8.580440   6.046048   0.003772   0.464561   0.008120
 184   8   7.852627   9.937179  -1.310455   0.001493   0.278737   0.005358
 185   9   2.300843   0.541770   6.195320  -0.002871   0.451437  -0.006361
 186   9   1.238917  -0.066432   4.279590  -0.001015   0.274788  -0.003693
 187   9   3.642563   1.610393   6.442245  -0.001083   0.314043  -0.003449
 188   9   3.620926  -0.384054   6.078509  -0.001068   0.333671  -0.003202
 189   9   2.330599  -1.013601   4.904983  -0.001033   0.333671  -0.003095
 190   9   1.513308   0.627373   5.549074  -0.002186   0.294415  -0.007424
 191   9   2.648229   1.749577   6.276425  -0.002751   0.392554  -0.007007
 192   9   3.641879   0.578873   6.476583  -0.001721   0.412182  -0.004174
 193   9   2.784902  -0.648894   5.754347  -0.002081   0.431809  -0.004820
 194   9   1.626173  -0.335463   5.037947  -0.001727   0.353299  -0.004888
 195  10   7.618349  -1.983552   2.479381  -0.002385   0.372926  -0.006396
 196  10   7.726679  -0.865295   0.812387  -0.001297   0.314043  -0.004131
 197  10   6.575273  -2.316231   1.846749  -0.001446   0.372926  -0.003877
 198  10   6.621469  -2.014480   3.830195  -0.001047   0.294415  -0.003558
 199  10   7.675185  -0.721954   4.329903  -0.001243   0.274788  -0.004524
 200  10   8.183824  -1.267480   1.868397  -0.002640   0.372926  -0.007078
 201  10   7.158435  -1.741365   1.097639  -0.001632   0.431809  -0.003780
 202  10   6.613295  -2.368377   2.930050  -0.001813   0.412182  -0.004398
 203  10   7.239752  -1.484915   4.154274  -0.001304   0.333671  -0.003907
 204  10   8.104643  -1.334077   3.259845  -0.002851   0.392554  -0.007263
 205  11   2.243041   0.029439  -1.164996  -0.002926   0.431809  -0.006775
 206  11   3.973880  -0.538424  -1.187152  -0.000926   0.314043  -0.002950
 207  11   3.798135   1.341661  -1.627673  -0.001418   0.333671  -0.004249
 208  11   1.324459  -0.227664   0.504574  -0.001353   0.333671  -0.004055
 209  11   2.353736  -1.172912   0.047096  -0.001377   0.412182  -0.003342
 210  11   3.738543   0.236487  -1.594250  -0.001609   0.392554  -0.004100
 211  11   2.804175   0.805059  -1.587542  -0.002265   0.333671  -0.006788
 212  11   1.656050  -0.270775  -0.376962  -0.002306   0.372926  -0.006185
 213  11   3.114745  -0.985316  -0.790003  -0.001802   0.431809  -0.004173
 214  12  11.417640   1.536666   2.863908  -0.003824   0.471065  -0.008117
 215  12  11.272092   2.466562   4.260655  -0.001785   0.372926  -0.004787
 216  12  11.801836   2.641139   2.136434  -0.001863   0.333671  -0.005583
 217  12  10.431175   1.430734   1.085753  -0.001665   0.314043  -0.005303
 218  12  10.033328   1.428291   4.516864  -0.001799   0.314043  -0.005727
 219  12  11.813324   2.651176   3.240959  -0.002915   0.412182  -0.007073
 220  12  11.299109   2.000061   1.443606  -0.002413   0.431809  -0.005588
 221  12  10.627618   0.960490   1.982731  -0.003085   0.372926  -0.008273
 222  12  10.491729   0.834841   3.267295  -0.003520   0.392554  -0.008966
 223  12  10.842494   1.589610   4.166521  -0.002474   0.372926  -0.006634
 224  13   0.148455   3.613399  -2.115574  -0.002875   0.451437  -0.006369
 225  13  -0.738809   2.565991  -0.303581  -0.001019   0.274788  -0.003710
 226  13   1.431197   4.773658  -2.222855  -0.001087   0.314043  -0.003461
 227  13  -0.559589   5.058989  -1.966050  -0.001070   0.333671  -0.003208
 228  13  -1.458669   3.829011  -0.909052  -0.001036   0.333671  -0.003106
 229  13   0.066905   2.789636  -1.515626  -0.002185   0.294415  -0.007423
 230  13   1.398963   3.762629  -2.111727  -0.002754   0.392554  -0.007015
 231  13   0.416969   4.943258  -2.311118  -0.001721   0.412182  -0.004176
 232  13  -0.974289   4.261598  -1.708467  -0.002086   0.431809  -0.004831
 233  13  -0.895117   3.031251  -1.049604  -0.001731   0.353299  -0.004898
 234  14  -1.770849   9.003791   1.580677  -0.002603   0.412182  -0.006314
 235  14  -0.663118   8.917861   3.517630  -0.001379   0.333671  -0.004133
 236  14  -2.250337   8.063830   2.335654  -0.001456   0.372926  -0.003905
 237  14  -1.699832   8.221599   0.257261  -0.000994   0.294415  -0.003377
 238  14  -0.408913   8.960913  -0.027895  -0.001304   0.314043  -0.004153
 239  14  -1.016915   9.454727   2.453436  -0.002897   0.412182  -0.007030
 240  14  -1.646144   8.524321   3.119624  -0.001762   0.451437  -0.003904
 241  14  -2.262288   8.014770   1.183775  -0.001480   0.372926  -0.003969
 242  14  -1.242239   8.850100   0.301776  -0.001355   0.294415  -0.004601
 243  14  -0.852585   9.541879   1.123395  -0.002578   0.353299  -0.007298
 244  15  -0.826021   3.255955   5.188282  -0.002922   0.431809  -0.006767
 245  15  -1.107527   5.053089   5.287401  -0.000927   0.314043  -0.002952
 246  15   0.688195   4.547323   5.815840  -0.001419   0.333671  -0.004252
 247  15  -1.122639   2.481126   3.453629  -0.001352   0.333671  -0.004053
 248  15  -1.916311   3.626547   3.922976  -0.001375   0.412182  -0.003336
 249  15  -0.407815   4.672346   5.719879  -0.001609   0.392554  -0.004099
 250  15   0.001888   3.658772   5.685583  -0.002263   0.333671  -0.006783
 251  15  -1.166933   2.768572   4.350473  -0.002302   0.372926  -0.006173
 252  15  -1.661328   4.301298   4.814467  -0.001801   0.431809  -0.004170
 253  16   2.426916  12.262376   1.822000  -0.003824   0.471065  -0.008117
 254  16   3.413100  12.034738   0.475740  -0.001797   0.372926  -0.004820
 255  16   3.527456  12.413655   2.636010  -0.001866   0.333671  -0.005592
 256  16   2.036411  11.215559   3.524306  -0.001663   0.314043  -0.005297
 257  16   2.188756  10.971179   0.073014  -0.001903   0.333671  -0.005702
 258  16   3.614973  12.481785   1.536961  -0.002927   0.412182  -0.007101
 259  16   2.765593  11.991516   3.256564  -0.002412   0.431809  -0.005585
 260  16   1.668101  11.536513   2.615668  -0.003093   0.372926  -0.008293
 261  16   1.609937  11.492293   1.319897  -0.003536   0.392554  -0.009007
 262  16   2.472458  11.756475   0.490690  -0.002476   0.372926  -0.006639
 263  17  13.456403   7.788870   2.804060  -0.005370   0.608459  -0.008825
 264  17  12.477935   8.746309   4.085045  -0.002264   0.412182  -0.005493
 265  17  12.471398   9.230523   2.048628  -0.001914   0.353299  -0.005418
 266  17  12.885509   7.432388   1.052011  -0.001674   0.353299  -0.004738
 267  17  13.025054   5.883993   2.517619  -0.002295   0.333671  -0.006877
 268  17  12.710699   6.561011   4.311822  -0.001513   0.333671  -0.004533
 269  17  12.711607   9.096539   3.056653  -0.003271   0.490692  -0.006666
 270  17  12.951218   8.370978   1.526616  -0.003202   0.490692  -0.006525
 271  17  13.223149   6.652228   1.763416  -0.003346   0.510320  -0.006557
 272  17  13.217551   6.426663   3.386162  -0.003573   0.490692  -0.007283
 273  17  12.877166   7.715018   4.269457  -0.003612   0.549575  -0.006572
 274  18   8.912454  13.202574   2.364248  -0.005368   0.608459  -0.008823
 275  18   9.772144  12.147461   1.074799  -0.002266   0.412182  -0.005497
 276  18  10.119469  11.946690   3.129197  -0.001922   0.353299  -0.005439
 277  18   8.356384  12.605161   4.054385  -0.001674   0.353299  -0.004738
 278  18   6.948147  13.086409   2.521324  -0.002289   0.333671  -0.006861
 279  18   7.674807  12.760630   0.748707  -0.001510   0.333671  -0.004525
 280  18  10.091033  12.261250   2.133201  -0.003273   0.490692  -0.006671
 281  18   9.320767  12.536271   3.635172  -0.003204   0.490692  -0.006530
 282  18   7.689677  13.109175   3.326224  -0.003344   0.510320  -0.006553
 283  18   7.568831  13.231267   1.696897  -0.003570   0.490692  -0.007275
 284  18   8.835439  12.725808   0.862542  -0.003609   0.549575  -0.006567
 285   1   6.235398   2.363676   5.817082   0.000139   0.052301   0.002662
 286   2   6.406063   2.825684   5.846462   0.000285   0.052301   0.005449
 287   4   6.848191   2.922685   5.841594   0.000317   0.052301   0.006066
 288   1   6.812536   1.977476  -0.733486   0.000127   0.052301   0.002437
 289   2   6.990447   2.434635  -0.786346   0.000259   0.052301   0.004947
 290   4   7.425935   2.536079  -0.715856   0.000400   0.052301   0.007641
 291   1   4.533075   2.476213   6.031644  -0.000009   0.025911  -0.000362
 292   2   4.696891   2.937686   5.976126   0.000064   0.025911   0.002469
 293   9   4.276288   2.323883   6.084111  -0.000059   0.025911  -0.002265
 294   1   4.638596   2.231159  -1.253172  -0.000021   0.024950  -0.000847
 295   2   4.801253   2.695382  -1.223343   0.000029   0.024950   0.001172
 296  11   4.388236   2.068661  -1.303459  -0.000085   0.024950  -0.003395
 297   2   5.415564   3.042694   5.989354   0.000524   0.232699   0.002253
 298   1   5.447151   2.283073   5.983136   0.000192   0.232699   0.000826
 299   2   6.080131   2.612276  -1.048142   0.000563   0.327143   0.001721
 300   1   5.485072   2.069268  -1.113331   0.000122   0.327143   0.000371
 301   1   7.587517   0.571965   4.723590  -0.000137   0.070552  -0.001942
 302   4   8.164981   1.166245   4.691307  -0.000158   0.070552  -0.002246
 303  10   7.714356   0.363884   4.542762  -0.000309   0.070552  -0.004377
 304   1   7.789118   0.512055   0.434501  -0.000127   0.070552  -0.001799
 305   4   8.361786   1.107760   0.504221  -0.000122   0.070552  -0.001723
 306  10   7.898166   0.309260   0.632156  -0.000285   0.070552  -0.004038
 307   4   7.363024   2.604693   5.832613   0.001110   0.320314   0.003465
 308   4   8.210667   1.700336   5.207218   0.000428   0.320314   0.001337
 309   1   6.902157   1.368689   5.454291   0.000175   0.642515   0.000273
 310   4   8.274277   1.831485  -0.149688   0.000902   0.525512   0.001716
 311   1   7.195993   1.266377  -0.397164   0.000323   0.525512   0.000615
 312   1   0.932913   0.793024   1.480639   0.000044   0.087056   0.000509
 313   5   0.380352   1.596919   1.387169   0.000183   0.087056   0.002106
 314  11   0.970668   0.770742   1.177915  -0.000206   0.087056  -0.002368
 315   1   0.567677   1.297765   2.610237   0.000184   0.087077   0.002116
 316   5  -0.127417   1.981087   2.509096   0.000045   0.087077   0.000511
 317  15  -0.161698   2.005676   2.812122  -0.000205   0.087077  -0.002357
 318   5  -0.154242   1.814342   1.823810   0.000710   0.291680   0.002435
 319   1   0.721395   0.758434   2.153055   0.000715   0.291680   0.002450
 320   1   0.903661   0.819182   3.326014  -0.000074   0.092039  -0.000801
 321   9   0.918680   0.824454   3.632280  -0.000229   0.092039  -0.002484
 322  15   0.302806   1.649427   3.478137  -0.000129   0.092039  -0.001404
 323   9   1.166637   0.130392   3.731547  -0.000175   0.067863  -0.002575
 324   9   1.780290  -0.730931   4.011081  -0.000531   0.150049  -0.003538
 325   9   2.816180  -1.231848   4.665434  -0.000575   0.150049  -0.003831
 326   9   3.825654  -0.908859   5.458405  -0.000398   0.150049  -0.002652
 327   9   4.406149   0.109234   6.073771  -0.000469   0.150049  -0.003128
 328   9   4.326175   1.416431   6.266134  -0.000595   0.150049  -0.003967
 329   1   1.411858  -0.301580   3.407273  -0.000213   0.149363  -0.001423
 330   1   2.409530  -1.264251   3.945535  -0.000372   0.149363  -0.002491
 331   1   3.620498  -1.369594   4.802431  -0.000274   0.149363  -0.001833
 332   1   4.561847  -0.575600   5.636244  -0.000157   0.149363  -0.001048
 333   1   4.858183   0.801100   6.114464  -0.000271   0.149363  -0.001813
 334   1   4.595958   1.979123   6.150095  -0.000105   0.082910  -0.001272
 335  10   7.402336  -0.245514   4.636685  -0.000246   0.069415  -0.003549
 336  10   6.683326  -1.106965   4.580718  -0.000449   0.154585  -0.002905
 337  10   5.987627  -1.989989   3.819660  -0.000597   0.154585  -0.003859
 338  10   5.764374  -2.346636   2.528963  -0.000613   0.154585  -0.003968
 339  10   6.108152  -2.025806   1.255456  -0.000527   0.154585  -0.003410
 340  10   6.873314  -1.163425   0.538682  -0.000414   0.154585  -0.002679
 341  10   7.595532  -0.302927   0.526405  -0.000249   0.069415  -0.003587
 342   1   6.868641  -0.346080   4.889708  -0.000333   0.151693  -0.002195
 343   1   5.936636  -1.485511   4.491720  -0.000246   0.151693  -0.001622
 344   1   5.390802  -2.221845   3.273029  -0.000373   0.151693  -0.002457
 345   1   5.462391  -2.243119   1.749955  -0.000371   0.151693  -0.002443
 346   1   6.121073  -1.540321   0.567778  -0.000181   0.151693  -0.001196
 347   1   7.087786  -0.411204   0.227348  -0.000304   0.151693  -0.002001
 348  11   4.331848   1.554722  -1.444522  -0.000200   0.068912  -0.002904
 349  11   4.603630   0.482952  -1.334359  -0.000482   0.152935  -0.003150
 350  11   4.333892  -0.728439  -0.819696  -0.000452   0.152935  -0.002955
 351  11   3.455253  -1.386463  -0.045032  -0.000516   0.152935  -0.003377
 352  11   2.330138  -1.219698   0.670098  -0.000585   0.152935  -0.003822
 353  11   1.422635  -0.296931   1.030714  -0.000512   0.152935  -0.003350
 354   1   4.844496   1.283220  -1.302266  -0.000370   0.151120  -0.002449
 355   1   4.951661  -0.185599  -0.971882  -0.000243   0.151120  -0.001606
 356   1   4.270548  -1.294367  -0.207169  -0.000141   0.151120  -0.000935
 357   1   3.082103  -1.585737   0.676442  -0.000380   0.151120  -0.002513
 358   1   1.876537  -0.939525   1.314477  -0.000347   0.151120  -0.002294
 359   1   1.184633   0.054031   1.509878  -0.000060   0.084191  -0.000709
 360  15  -0.267783   1.930003   3.148056  -0.000135   0.133713  -0.001008
 361   1   0.692671   0.750930   2.977268   0.000481   0.190673   0.002522
 362   2   6.420548   5.495272  -1.043091   0.000649   0.049094   0.013211
 363   3   6.117318   5.837739  -1.048375   0.000564   0.049094   0.011482
 364   4   6.860857   5.573202  -0.972869   0.000561   0.049094   0.011417
 365   2   5.522227   6.103228   5.627741   0.000582   0.049140   0.011842
 366   3   5.235431   6.459586   5.623343   0.000585   0.049140   0.011909
 367   6   5.389677   6.883609   5.586044   0.000552   0.049140   0.011241
 368   2   3.636026   3.884173   5.631456   0.000198   0.087989   0.002253
 369   3   3.354914   4.236223   5.545167   0.000209   0.087989   0.002370
 370   9   3.319655   3.203300   5.673359  -0.000202   0.087989  -0.002301
 371   2   3.915523   4.011376  -1.207148   0.000206   0.088197   0.002341
 372   3   3.620873   4.352060  -1.293983   0.000162   0.088197   0.001840
 373  13   2.901696   4.154768  -1.392079  -0.000204   0.088197  -0.002318
 374   3   5.445762   5.661716  -1.306396   0.001696   0.188422   0.009000
 375   3   4.339971   4.723305  -1.401284   0.001039   0.188422   0.005517
 376   2   5.307807   4.693481  -1.254168   0.002580   0.383124   0.006735
 377   3   3.691975   5.023819   5.745017   0.001100   0.188192   0.005847
 378   3   4.802557   5.958315   5.772730   0.001533   0.188192   0.008146
 379   2   4.669580   4.988630   5.777332   0.002551   0.382627   0.006667
 380   2   5.928875   5.977419   5.631977   0.001043   0.103074   0.010121
 381   4   6.376310   6.060513   5.648549   0.000970   0.103074   0.009411
 382   6   5.794236   6.753015   5.532029   0.000865   0.103074   0.008391
 383   4   6.718196   5.251716   5.965019   0.002086   0.206423   0.010105
 384   4   7.021730   3.680495   6.045393   0.001461   0.206423   0.007079
 385   2   6.239669   4.339315   5.906924   0.003550   0.423397   0.008385
 386   4   7.635626   3.290277  -0.975423   0.001337   0.215524   0.006204
 387   4   7.323983   4.924662  -1.112542   0.001804   0.215524   0.008373
 388   2   6.840514   3.986035  -1.038438   0.003577   0.444116   0.008055
 389   6   5.502654   7.078670   5.691292   0.000138   0.011071   0.012427
 390   2   5.700034   5.967198   5.750226   0.000101   0.011071   0.009142
 391   9   3.784573   2.429789   6.073863  -0.000784   0.224953  -0.003485
 392   2   4.157343   3.491761   5.909742   0.000694   0.316827   0.002191
 393   2   3.837139   3.318037  -1.116165  -0.000012   0.221217  -0.000054
 394  11   3.464023   2.656211  -1.187846  -0.000801   0.221217  -0.003622
 395  13   2.817398   3.473516  -1.288641  -0.000664   0.221217  -0.003003
 396  11   3.959963   2.148403  -1.357981  -0.000397   0.120747  -0.003284
 397   2   4.640029   3.048298  -1.313622   0.000465   0.170214   0.002730
 398  13   2.545550   3.955888  -1.629281  -0.000125   0.046881  -0.002664
 399   2   4.032476   3.701370  -1.356981   0.000269   0.066889   0.004028
 400   3   6.060299   6.257249  -1.033645   0.000985   0.103120   0.009556
 401   4   6.795033   5.988294  -0.900489   0.000864   0.103120   0.008382
 402   6   6.217335   6.684491  -1.016779   0.000956   0.103120   0.009272
 403   4   7.077976   5.656262  -1.060012   0.000134   0.010467   0.012824
 404   3   6.020226   6.041041  -1.166650   0.000076   0.010467   0.007263
 405   3   2.333550   7.551921   5.235958   0.000259   0.052199   0.004954
 406   5   1.857776   7.455401   5.147256   0.000127   0.052199   0.002439
 407   6   2.510215   7.967186   5.199233   0.000400   0.052199   0.007657
 408   3   3.043525   7.274237  -1.385402   0.000286   0.052199   0.005472
 409   5   2.558918   7.181172  -1.391726   0.000140   0.052199   0.002681
 410   6   3.212094   7.692668  -1.346622   0.000317   0.052199   0.006068
 411   3   2.886548   5.561934  -1.619590   0.000065   0.025890   0.002493
 412   5   2.408965   5.480126  -1.710188  -0.000009   0.025890  -0.000341
 413  13   2.220357   5.255419  -1.786529  -0.000059   0.025890  -0.002267
 414   3   2.204576   5.337305   5.548810   0.000030   0.025088   0.001198
 415   5   1.719001   5.252753   5.543180  -0.000022   0.025088  -0.000857
 416  15   1.515810   5.029825   5.569111  -0.000085   0.025088  -0.003399
 417   5   2.362451   6.420542  -1.612962   0.000196   0.235918   0.000832
 418   3   3.106493   6.259968  -1.580755   0.000530   0.235918   0.002245
 419   5   1.706396   6.117882   5.447747   0.000121   0.325898   0.000371
 420   3   2.342443   6.615537   5.449342   0.000561   0.325898   0.001723
 421   6   3.270316   8.032610   5.512883   0.001345   0.215679   0.006238
 422   6   4.818741   7.441554   5.719498   0.001786   0.215679   0.008283
 423   3   3.819423   7.128680   5.562753   0.003577   0.444454   0.008047
 424   6   5.496670   7.175658  -1.354299   0.002050   0.207175   0.009897
 425   6   4.000976   7.746639  -1.498805   0.001466   0.207175   0.007076
 426   3   4.513235   6.856853  -1.375857   0.003523   0.425078   0.008288
 427   3   2.671887   4.279538   5.413790  -0.000018   0.221337  -0.000080
 428   9   2.647755   3.239428   5.529567  -0.000659   0.221337  -0.002979
 429  15   1.955219   4.018434   5.426473  -0.000804   0.221337  -0.003630
 430   9   3.053325   2.872837   5.877280  -0.000121   0.045242  -0.002670
 431   3   3.063158   4.395186   5.686243   0.000244   0.064558   0.003780
 432  13   2.242954   4.756761  -1.802122  -0.000775   0.222849  -0.003476
 433   3   3.338512   4.941337  -1.558722   0.000650   0.313869   0.002071
 434  15   1.523950   4.586132   5.600499  -0.000405   0.122855  -0.003296
 435   3   2.522013   5.110979   5.647343   0.000449   0.173187   0.002592
 436   4   7.277410   6.095615  -0.902969   0.000929   0.102589   0.009059
 437   6   6.692923   6.794827  -0.940503   0.000855   0.102589   0.008339
 438   7   7.434138   6.522767  -0.925101   0.001017   0.102589   0.009917
 439   4   6.572210   6.516938   5.609069   0.000864   0.102581   0.008426
 440   6   5.983271   7.212390   5.571248   0.000919   0.102581   0.008962
 441   8   6.428371   7.293016   5.626011   0.000970   0.102581   0.009458
 442   6   6.347247   6.882216  -1.158469   0.000091   0.009623   0.009473
 443   4   7.173949   5.886087  -1.049336   0.000083   0.009623   0.008578
 444   6   5.748275   7.136328   5.699257   0.000091   0.011122   0.008155
 445   4   6.585546   6.149122   5.808970   0.000103   0.011122   0.009275
 446   4   6.949670   6.392385   5.738965   0.000567   0.048114   0.011787
 447   7   7.094313   6.820302   5.770301   0.000638   0.048114   0.013259
 448   8   6.817859   7.168892   5.699328   0.000568   0.048114   0.011813
 449   4  11.776548   4.081437   3.440398  -0.000083   0.008216  -0.010120
 450   7  11.896270   4.517020   3.425922  -0.000083   0.008216  -0.010104
 451  12  11.755090   3.787577   3.397444  -0.000098   0.008216  -0.011946
 452   4  11.870527   4.036824   2.285237  -0.000082   0.008216  -0.009989
 453   7  11.989055   4.472974   2.285429  -0.000083   0.008216  -0.010091
 454  12  11.840585   3.746991   2.346552  -0.000086   0.008216  -0.010478
 455   7   7.668215   6.480165   6.000624   0.001947   0.197541   0.009857
 456   7   9.542624   5.780399   5.933793   0.002869   0.403537   0.007110
 457   7  11.409777   5.072389   4.543212  -0.000443   0.403537  -0.001097
 458   4   8.161734   5.603939   6.035509   0.003828   0.403537   0.009487
 459   4  10.366259   4.776506   5.421771   0.001316   0.403537   0.003262
 460   4  11.628218   4.293536   3.944697  -0.000438   0.197541  -0.002216
 461   7  12.033659   4.816505   1.743996  -0.000418   0.197473  -0.002117
 462   7  11.030260   5.176793   0.050356   0.001386   0.403386   0.003437
 463   7   8.959855   5.940651  -0.973221   0.003683   0.403386   0.009129
 464   4  11.466289   4.330163   1.070408  -0.000450   0.403386  -0.001116
 465   4   9.853375   4.917571  -0.653316   0.002708   0.403386   0.006713
 466   4   8.019475   5.598176  -1.075950   0.001677   0.197473   0.008492
 467   8   6.630184   7.311132   5.778919   0.000062   0.008543   0.007254
 468   4   6.824247   6.204885   5.837575   0.000139   0.008543   0.016245
 469   4   8.983934   1.224320   0.781230  -0.000292   0.080807  -0.003608
 470  10   8.433917   0.501423   0.989083  -0.000368   0.080807  -0.004555
 471  12   9.186608   1.120410   0.977992  -0.000441   0.080807  -0.005455
 472   4   8.640272   1.347905   4.636588  -0.000270   0.080807  -0.003340
 473  10   8.131550   0.610157   4.381181  -0.000322   0.080807  -0.003987
 474  12   8.873932   1.232851   4.485739  -0.000445   0.080807  -0.005502
 475  10   8.060425   0.109315   0.731423  -0.000131   0.067865  -0.001925
 476   4   8.864039   1.203016   0.496346   0.000149   0.095847   0.001553
 477  10   7.827373   0.185862   4.515373  -0.000004   0.009470  -0.000449
 478   4   8.549975   1.310847   4.842661   0.000058   0.013375   0.004344
 479  12  11.653275   3.372931   3.679636  -0.000467   0.076093  -0.006134
 480  12  10.942525   2.867223   4.554100  -0.000966   0.174140  -0.005548
 481  12   9.812721   1.942916   4.821062  -0.000920   0.174140  -0.005283
 482   4  11.331274   3.584437   4.174203  -0.000927   0.162024  -0.005723
 483   4  10.200678   2.723998   5.042968  -0.000448   0.162024  -0.002768
 484   4   9.163084   1.842492   4.983804  -0.000215   0.092964  -0.002314
 485  12   9.801138   1.501170   0.792921  -0.000416   0.075270  -0.005533
 486  12  10.733405   2.291604   0.831251  -0.000779   0.171756  -0.004535
 487  12  11.593447   3.109993   1.698325  -0.001106   0.171756  -0.006442
 488   4   9.951404   2.025626   0.491278  -0.000545   0.160696  -0.003395
 489   4  11.144654   3.078766   0.926663  -0.000647   0.160696  -0.004025
 490   4  11.767134   3.712696   1.942119  -0.000430   0.091958  -0.004672
 491   5   0.949342   8.747970  -0.308630  -0.000133   0.070567  -0.001878
 492   6   1.628044   9.215297  -0.207041  -0.000156   0.070567  -0.002205
 493  14   0.752397   8.896439  -0.131812  -0.000308   0.070567  -0.004371
 494   5   0.650579   8.723269   3.964476  -0.000124   0.070567  -0.001750
 495   6   1.336438   9.191188   3.963700  -0.000116   0.070567  -0.001637
 496  14   0.480035   8.873921   3.763694  -0.000281   0.070567  -0.003981
 497   6   2.983621   8.251689  -1.320878   0.001117   0.320289   0.003488
 498   6   2.194231   9.201280  -0.689967   0.000429   0.320289   0.001339
 499   5   1.666896   7.982497  -1.039274   0.000190   0.642443   0.000296
 500   6   1.992899   8.950384   4.650049   0.000916   0.526145   0.001741
 501   5   1.242513   7.969603   4.797438   0.000327   0.526145   0.000622
 502   5   0.009143   2.044564   0.671960  -0.000076   0.092046  -0.000824
 503  11   0.737814   1.321852   0.526514  -0.000130   0.092046  -0.001417
 504  13   0.036452   2.074028   0.367926  -0.000230   0.092046  -0.002500
 505  11   0.899788   0.696175   0.833409  -0.000136   0.133086  -0.001020
 506   5  -0.114748   1.830276   1.001772   0.000476   0.189789   0.002510
 507  13  -0.599701   2.439429   0.247332  -0.000175   0.067849  -0.002580
 508  13  -1.328713   3.202014  -0.041011  -0.000533   0.150012  -0.003556
 509  13  -1.609762   4.339094  -0.657125  -0.000577   0.150012  -0.003849
 510  13  -1.075496   5.319478  -1.367718  -0.000399   0.150012  -0.002660
 511  13   0.061109   5.752354  -1.889526  -0.000469   0.150012  -0.003123
 512  13   1.346967   5.465164  -2.014538  -0.000596   0.150012  -0.003971
 513   5  -1.005510   2.736525   0.561770  -0.000215   0.149337  -0.001441
 514   5  -1.754668   3.907338   0.033580  -0.000375   0.149337  -0.002512
 515   5  -1.604753   5.160969  -0.751889  -0.000274   0.149337  -0.001832
 516   5  -0.615525   5.997680  -1.481524  -0.000158   0.149337  -0.001058
 517   5   0.818679   6.083933  -1.864469  -0.000271   0.149337  -0.001815
 518   5   1.937525   5.630897  -1.851573  -0.000105   0.082893  -0.001269
 519  14   0.106466   8.695339  -0.280311  -0.000256   0.069603  -0.003682
 520  14  -0.862992   8.123597  -0.321662  -0.000444   0.155091  -0.002864
 521  14  -1.896502   7.539135   0.343054  -0.000609   0.155091  -0.003928
 522  14  -2.367695   7.306324   1.598188  -0.000642   0.155091  -0.004138
 523  14  -2.075925   7.524301   2.909272  -0.000530   0.155091  -0.003419
 524  14  -1.145434   8.100246   3.718012  -0.000411   0.155091  -0.002647
 525  14  -0.180114   8.671645   3.818544  -0.000237   0.069603  -0.003405
 526   5  -0.061774   8.199871  -0.573717  -0.000336   0.152024  -0.002209
 527   5  -1.362496   7.444303  -0.302813  -0.000245   0.152024  -0.001615
 528   5  -2.256504   6.958726   0.837851  -0.000380   0.152024  -0.002503
 529   5  -2.363106   6.949913   2.362550  -0.000376   0.152024  -0.002476
 530   5  -1.636909   7.421615   3.622028  -0.000185   0.152024  -0.001217
 531   5  -0.387146   8.172971   4.079966  -0.000307   0.152024  -0.002020
 532  15   0.991643   5.051160   5.678076  -0.000199   0.068815  -0.002891
 533  15  -0.012186   5.498826   5.526814  -0.000480   0.152661  -0.003147
 534  15  -1.214419   5.458512   4.932728  -0.000451   0.152661  -0.002955
 535  15  -1.954668   4.743202   4.072325  -0.000515   0.152661  -0.003372
 536  15  -1.928608   3.646970   3.299328  -0.000568   0.152661  -0.003721
 537  15  -1.146952   2.620489   2.931525  -0.000511   0.152661  -0.003345
 538   5   0.815770   5.607702   5.553033  -0.000369   0.150963  -0.002441
 539   5  -0.590953   5.969992   5.151201  -0.000244   0.150963  -0.001617
 540   5  -1.742852   5.521904   4.288684  -0.000143   0.150963  -0.000948
 541   5  -2.166369   4.447653   3.320071  -0.000369   0.150963  -0.002447
 542   5  -1.687390   3.188875   2.643572  -0.000298   0.150963  -0.001975
 543   5  -0.811483   2.353683   2.457103  -0.000059   0.084072  -0.000707
 544   6   6.640492   7.192456  -1.052332   0.000558   0.048106   0.011592
 545   7   7.380548   6.929136  -0.979759   0.000563   0.048106   0.011694
 546   8   7.087720   7.263894  -1.051638   0.000558   0.048106   0.011593
 547   7   7.494868   6.725679  -1.063631   0.000073   0.008032   0.009092
 548   6   6.441593   7.106751  -1.168735   0.000132   0.008032   0.016387
 549   6   5.026794  12.206573   1.388631  -0.000086   0.008450  -0.010221
 550   8   5.474484  12.249862   1.434211  -0.000083   0.008450  -0.009779
 551  16   4.731448  12.233848   1.415514  -0.000098   0.008450  -0.011552
 552   6   4.921849  12.251050   2.574967  -0.000084   0.008450  -0.009944
 553   8   5.370871  12.293774   2.605488  -0.000084   0.008450  -0.009967
 554  16   4.635975  12.274310   2.494774  -0.000088   0.008450  -0.010366
 555   8   5.682019  12.250275   3.166900  -0.000415   0.197469  -0.002103
 556   8   5.762963  11.111294   4.809848   0.001396   0.403366   0.003460
 557   8   6.105945   8.890139   5.739328   0.003634   0.403366   0.009009
 558   6   5.066488  11.738389   3.776128  -0.000438   0.403366  -0.001086
 559   6   5.267715   9.959699   5.422599   0.002741   0.403366   0.006796
 560   6   5.605990   8.017498   5.763970   0.001687   0.197469   0.008544
 561   8   6.863287   7.895976  -1.263076   0.001793   0.196630   0.009119
 562   8   6.483942   9.847411  -1.121256   0.002864   0.401510   0.007134
 563   8   6.010969  11.730889   0.328204  -0.000397   0.401510  -0.000988
 564   6   6.085875   8.528561  -1.315145   0.003786   0.401510   0.009429
 565   6   5.601394  10.798811  -0.619896   0.001323   0.401510   0.003296
 566   6   5.242939  12.048179   0.890965  -0.000418   0.196630  -0.002127
 567   6   1.570823   9.807202   3.724690  -0.000288   0.081116  -0.003545
 568  14   0.780480   9.394870   3.443990  -0.000361   0.081116  -0.004449
 569  16   1.516080  10.034701   3.535268  -0.000439   0.081116  -0.005412
 570   6   1.885245   9.641709  -0.120128  -0.000262   0.081116  -0.003232
 571  14   1.056984   9.249335   0.062842  -0.000314   0.081116  -0.003869
 572  16   1.802098   9.884158   0.037790  -0.000436   0.081116  -0.005377
 573  14   0.314612   9.075156   3.661692  -0.000119   0.070820  -0.001683
 574   6   1.511100   9.674985   4.003873   0.000153   0.100039   0.001533
 575  14   0.594498   9.030802  -0.111520  -0.000002   0.006600  -0.000360
 576   6   1.844341   9.575300  -0.328958   0.000049   0.009323   0.005215
 577  16   4.323220  12.217165   1.106885  -0.000468   0.075963  -0.006156
 578  16   3.759201  11.644826   0.171699  -0.000960   0.173743  -0.005525
 579  16   2.677852  10.704719  -0.204840  -0.000913   0.173743  -0.005257
 580   6   4.507077  11.886860   0.607480  -0.000924   0.161831  -0.005711
 581   6   3.524071  10.962436  -0.363895  -0.000448   0.161831  -0.002770
 582   6   2.480692  10.090649  -0.409046  -0.000210   0.092805  -0.002262
 583  16   1.980451  10.567596   3.780000  -0.000415   0.075260  -0.005520
 584  16   2.915618  11.352027   3.848044  -0.000776   0.171710  -0.004519
 585  16   3.923415  12.104899   3.088041  -0.001105   0.171710  -0.006437
 586   6   2.500540  10.609881   4.121004  -0.000542   0.160697  -0.003372
 587   6   3.764867  11.627460   3.825938  -0.000644   0.160697  -0.004006
 588   6   4.561999  12.186035   2.892125  -0.000429   0.091947  -0.004664
 589   8   7.070229   7.816591   5.901721   0.001572   0.179061   0.008779
 590   8   8.480600   8.991732   5.827337   0.002837   0.363449   0.007804
 591   8   9.995062  10.137197   4.631297   0.000396   0.363449   0.001091
 592   8  10.713153  10.521385   2.540139  -0.001484   0.363449  -0.004082
 593   8  10.347565   9.990580   0.390538   0.000271   0.363449   0.000746
 594   8   9.044570   8.757159  -0.957451   0.002874   0.363449   0.007908
 595   8   7.659098   7.571662  -1.182618   0.001729   0.179061   0.009658
 596   7   8.021278   7.776286   5.970905   0.003421   0.363449   0.009412
 597   7   9.718051   9.143415   5.434141   0.001686   0.363449   0.004639
 598   7  10.894727   9.949624   3.701611  -0.001027   0.363449  -0.002827
 599   7  11.080515   9.872349   1.466503  -0.000910   0.363449  -0.002504
 600   7  10.201082   8.942507  -0.376914   0.001722   0.363449   0.004737
 601   7   8.608290   7.532130  -1.091088   0.003278   0.363449   0.009020
 602   7  12.150635   4.809893   2.463320  -0.000130   0.014746  -0.008844
 603  12  11.905104   4.111867   2.518184  -0.000140   0.014746  -0.009475
 604  17  12.303422   5.060659   2.507829  -0.000167   0.014746  -0.011312
 605   7  12.084015   4.840599   3.262444  -0.000133   0.014746  -0.009019
 606  12  11.846505   4.138877   3.221096  -0.000144   0.014746  -0.009748
 607  17  12.243648   5.088210   3.224832  -0.000153   0.014746  -0.010362
 608  12  11.881253   3.570301   2.427761  -0.000196   0.029514  -0.006638
 609   7  12.167303   4.639287   2.369802  -0.000052   0.041657  -0.001260
 610  12  11.813572   3.604968   3.314205  -0.000179   0.027412  -0.006514
 611   7  12.078673   4.678157   3.390377  -0.000059   0.038690  -0.001534
 612  17  12.619912   5.498567   2.233765  -0.000468   0.067810  -0.006897
 613  17  12.588393   6.104217   1.303001  -0.000802   0.150986  -0.005310
 614  17  12.430175   7.300420   0.713753  -0.000749   0.150986  -0.004962
 615  17  12.189467   8.593719   0.983164  -0.000724   0.150986  -0.004798
 616  17  11.966862   9.443652   1.998648  -0.000950   0.150986  -0.006291
 617  17  11.855385   9.495033   3.335839  -0.000965   0.150986  -0.006391
 618  17  11.901622   8.726391   4.435929  -0.000751   0.150986  -0.004975
 619  17  12.086250   7.458939   4.839196  -0.000644   0.150986  -0.004265
 620  17  12.332115   6.222339   4.377114  -0.000839   0.150986  -0.005556
 621  17  12.513244   5.547731   3.513272  -0.000440   0.067810  -0.006487
 622   7  12.338984   5.426632   1.717386  -0.000836   0.148142  -0.005643
 623   7  12.239372   6.492264   0.654429  -0.000493   0.148142  -0.003327
 624   7  12.002599   7.969853   0.464597  -0.000435   0.148142  -0.002939
 625   7  11.727610   9.241921   1.227219  -0.000680   0.148142  -0.004589
 626   7  11.529322   9.776876   2.623597  -0.000994   0.148142  -0.006709
 627   7  11.490600   9.351162   4.070192  -0.000705   0.148142  -0.004760
 628   7  11.627625   8.142683   4.962476  -0.000371   0.148142  -0.002503
 629   7  11.883135   6.656458   4.927568  -0.000461   0.148142  -0.003111
 630   7  12.150353   5.513575   3.980054  -0.000886   0.148142  -0.005984
 631   8   5.741489  12.405763   2.453017  -0.000130   0.014668  -0.008851
 632  16   5.017507  12.285651   2.344223  -0.000140   0.014668  -0.009549
 633  18   6.016587  12.515874   2.432584  -0.000166   0.014668  -0.011320
 634   8   5.812457  12.378385   1.658353  -0.000132   0.014668  -0.008973
 635  16   5.079932  12.261569   1.645234  -0.000147   0.014668  -0.010031
 636  18   6.080262  12.491310   1.719586  -0.000152   0.014668  -0.010361
 637  16   4.474504  12.348984   2.404811  -0.000200   0.030245  -0.006612
 638   8   5.570049  12.445867   2.539306  -0.000054   0.042689  -0.001269
 639  16   4.555578  12.322256   1.509781  -0.000209   0.033532  -0.006244
 640   8   5.660691  12.403124   1.502498  -0.000074   0.047329  -0.001556
 641  18   6.481966  12.738157   2.750245  -0.000467   0.067839  -0.006889
 642  18   7.011235  12.553990   3.709876  -0.000801   0.151059  -0.005303
 643  18   8.123291  12.163045   4.353900  -0.000749   0.151059  -0.004961
 644  18   9.373771  11.720716   4.141966  -0.000726   0.151059  -0.004804
 645  18  10.239782  11.411966   3.162695  -0.000956   0.151059  -0.006326
 646  18  10.359195  11.365899   1.825575  -0.000966   0.151059  -0.006398
 647  18   9.682078  11.601779   0.689729  -0.000753   0.151059  -0.004984
 648  18   8.491571  12.020972   0.230117  -0.000641   0.151059  -0.004246
 649  18   7.285490  12.448189   0.638929  -0.000836   0.151059  -0.005535
 650  18   6.595864  12.694218   1.474884  -0.000439   0.067839  -0.006464
 651   8   6.330362  12.446103   3.242794  -0.000835   0.148196  -0.005636
 652   8   7.292311  12.109543   4.355521  -0.000492   0.148196  -0.003321
 653   8   8.694590  11.614955   4.611987  -0.000437   0.148196  -0.002951
 654   8   9.950829  11.169154   3.904949  -0.000700   0.148196  -0.004721
 655   8  10.535725  10.958553   2.530060  -0.000630   0.148196  -0.004252
 656   8  10.204701  11.071216   1.062235  -0.000711   0.148196  -0.004800
 657   8   9.096176  11.460033   0.115255  -0.000367   0.148196  -0.002478
 658   8   7.673686  11.962418   0.085103  -0.000457   0.148196  -0.003081
 659   8   6.532052  12.368295   0.984388  -0.000887   0.148196  -0.005985
 660  15  -0.207348   1.897345   3.883832  -0.000540   0.270382  -0.001996
 661  15   0.120692   2.406407   4.964054  -0.002226   0.540914  -0.004116
 662  15   1.049742   3.376093   5.635974  -0.001905   0.540914  -0.003521
 663   9   0.878360   0.979840   4.531050  -0.001473   0.540914  -0.002723
 664   9   1.509855   1.768330   5.642085  -0.002057   0.540914  -0.003802
 665   9   2.376748   2.605528   5.927098  -0.000597   0.270382  -0.002208
 666  12   9.171298   0.932380   4.365388  -0.000547   0.220574  -0.002482
 667  12   9.614546   0.505920   3.471860  -0.002216   0.441190  -0.005024
 668  12   9.732296   0.463576   2.150887  -0.002281   0.441190  -0.005171
 669  12   9.456324   0.829881   1.167836  -0.000533   0.220574  -0.002415
 670  10   8.328957  -0.184179   3.978633  -0.001555   0.441190  -0.003524
 671  10   8.719255  -0.531347   2.758892  -0.002033   0.441190  -0.004608
 672  10   8.552589  -0.264600   1.469824  -0.001692   0.441190  -0.003835
 673  13   2.174112   3.333298  -1.735351  -0.000602   0.270542  -0.002227
 674  13   1.189094   2.604233  -1.549942  -0.002063   0.541236  -0.003811
 675  13   0.239257   2.055470  -0.522782  -0.001477   0.541236  -0.002729
 676  11   2.696210   1.882695  -1.487678  -0.001908   0.541236  -0.003525
 677  11   1.546294   1.094163  -0.927054  -0.002238   0.541236  -0.004136
 678  11   0.923614   0.799315   0.103241  -0.000546   0.270542  -0.002017
 679  17  12.494336   5.109539   2.955555  -0.000452   0.243138  -0.001858
 680  12  11.996154   3.725051   2.822889  -0.000458   0.243138  -0.001884
 681  16   1.548023  10.221566   0.157811  -0.000511   0.220755  -0.002315
 682  16   1.145078  10.682475   1.049138  -0.002207   0.441539  -0.004999
 683  16   1.037358  10.739172   2.366356  -0.002262   0.441539  -0.005123
 684  16   1.287194  10.358850   3.347275  -0.000521   0.220755  -0.002359
 685  14   0.280977   9.555153   0.429418  -0.001527   0.441539  -0.003459
 686  14  -0.074101   9.934738   1.645854  -0.001965   0.441539  -0.004450
 687  14   0.076347   9.662858   2.931673  -0.001667   0.441539  -0.003776
 688  18   6.125499  12.719735   2.003707  -0.000445   0.241855  -0.001841
 689  16   4.671858  12.457474   2.026553  -0.000455   0.241855  -0.001882
 =====================================================

              3924812  WORDS OF DYNAMIC MEMORY USED
 EXECUTION OF GAMESS TERMINATED NORMALLY Fri Nov 25 08:28:01 2016
 DDI: 263640 bytes (0.3 MB / 0 MWords) used by master data server.

 ----------------------------------------
 CPU timing information for all processes
 ========================================
 0: 1769.12 + 0.628 = 1769.640
 ----------------------------------------
 ddikick.x: exited gracefully.
