----- GAMESS execution script -----

          ******************************************************
          *         GAMESS VERSION =  5 DEC 2014 (R1)          *
          *             FROM IOWA STATE UNIVERSITY             *
          * M.W.SCHMIDT, K.K.BALDRIDGE, J.A.BOATZ, S.T.ELBERT, *
          *   M.S.GORDON, J.H.JENSEN, S.KOSEKI, N.MATSUNAGA,   *
          *          K.A.NGUYEN, S.J.SU, T.L.WINDUS,           *
          *       TOGETHER WITH M.DUPUIS, J.A.MONTGOMERY       *
          *         J.COMPUT.CHEM.  14, 1347-1363(1993)        *
          **************** 64 BIT LINUX VERSION ****************

 EXECUTION OF GAMESS BEGUN Fri Nov 25 08:11:59 2016

            ECHO OF THE FIRST FEW INPUT CARDS -
 INPUT CARD>! SELECT RESTRICTED HARTREE-FOCK AS DEFAULT                                     
 INPUT CARD>$contrl scftyp=rhf $end                                                         
 INPUT CARD>                                                                                
 INPUT CARD>! THEORY: HF OR DFT                                                             
 INPUT CARD> $contrl mplevl=0 $end                                                          
 INPUT CARD>                                                                                
 INPUT CARD> $system timlim=10000 mwords=20 $end                                            
 INPUT CARD> $SCF DIRSCF=.TRUE. $end                                                        
 INPUT CARD>                                                                                
 INPUT CARD>                                                                                
 INPUT CARD>! BASIS SETS                                                                    
 INPUT CARD>! 6-311G(d,p)                                                                   
 INPUT CARD> $BASIS GBASIS=N311 NGAUSS=6 NDFUNC=1 NPFUNC=1 $END                             
 INPUT CARD>                                                                                
 INPUT CARD>! One of the following                                                          
 INPUT CARD> $guess guess=HUCKEL $end                                                       
 INPUT CARD>                                                                                
 INPUT CARD> $statpt projct=.FALSE. $end                                                    
 INPUT CARD> $STATPT IFREEZ(1)=1,2,3 $END                                                   
 INPUT CARD>                                                                                
 INPUT CARD>! Optimize the geometry with COSMO effects                                      
 INPUT CARD> $statpt opttol=0.0005 nstep=50 $end                                            
 INPUT CARD> $contrl nzvar=1 $end                                                           
 INPUT CARD> $zmat dlc=.t. auto=.t. $end                                                    
 INPUT CARD> $contrl runtyp=OPTIMIZE maxit=200 $end                                         
 INPUT CARD>                                                                                
 INPUT CARD>! Run COSMO on perfect conductor                                                
 INPUT CARD> $COSGMS PRFCND=.TRUE. $end                                                     
 INPUT CARD>                                                                                
 INPUT CARD>! Specifying RSOLV                                                              
 INPUT CARD> $COSGMS COSRAD = 1.4 $end                                                      
 INPUT CARD>                                                                                
 INPUT CARD>! available memory                                                              
 INPUT CARD> $SYSTEM MWORDS=40 $END                                                         
 INPUT CARD>                                                                                
 INPUT CARD> $DATA                                                                          
 INPUT CARD>                                                                                
 INPUT CARD>C1                                                                              
 INPUT CARD>C      6.0      0.4276000000   -1.3259000000    0.1457000000                    
 INPUT CARD>C      6.0     -0.3465000000   -0.7723000000   -0.8809000000                    
 INPUT CARD>C      6.0     -0.7883000000    0.5505000000   -0.8020000000                    
 INPUT CARD>C      6.0     -0.4725000000    1.3404000000    0.3098000000                    
 INPUT CARD>C      6.0      0.3014000000    0.7867000000    1.3365000000                    
 INPUT CARD>C      6.0      0.7435000000   -0.5359000000    1.2574000000                    
 INPUT CARD>C      6.0      0.8895000000   -2.7584000000    0.0690000000                    
 INPUT CARD>H      1.0     -0.6106000000   -1.3686000000   -1.7515000000                    
 INPUT CARD>H      1.0     -1.3825000000    0.9606000000   -1.6155000000                    
 INPUT CARD>C      6.0     -0.9342000000    2.7730000000    0.3872000000                    
 INPUT CARD>H      1.0      0.5651000000    1.3831000000    2.2071000000                    
 INPUT CARD>H      1.0      1.3381000000   -0.9461000000    2.0706000000                    
   40000000 WORDS OF MEMORY AVAILABLE

     BASIS OPTIONS
     -------------
     GBASIS=N311         IGAUSS=       6      POLAR=POPN311 
     NDFUNC=       1     NFFUNC=       0     DIFFSP=       F
     NPFUNC=       1      DIFFS=       F     BASNAM=        


     RUN TITLE
     ---------
                                                                                 

 THE POINT GROUP OF THE MOLECULE IS C1      
 THE ORDER OF THE PRINCIPAL AXIS IS     0

 ATOM      ATOMIC                      COORDINATES (BOHR)
           CHARGE         X                   Y                   Z
 C           6.0     0.8080468323       -2.5055876871        0.2753330764
 C           6.0    -0.6547900547       -1.4594353803       -1.6646596226
 C           6.0    -1.4896709961        1.0402941562       -1.5155602422
 C           6.0    -0.8928955292        2.5329887139        0.5854371110
 C           6.0     0.5695634127        1.4866474345        2.5256187826
 C           6.0     1.4050112719       -1.0127041568        2.3761414570
 C           6.0     1.6809112661       -5.2126201645        0.1303910932
 H           1.0    -1.1538666881       -2.5862789868       -3.3098550675
 H           1.0    -2.6125461780        1.8152707838       -3.0528523332
 C           6.0    -1.7653820177        5.2402101640        0.7317019024
 H           1.0     1.0678841557        2.6136800136        4.1708142275
 H           1.0     2.5286423442       -1.7878697570        3.9128666302
 H           1.0    -2.1387918729        5.7451449479        2.7068435048
 H           1.0    -3.5717710894        5.4467572144       -0.2634278027
 C           6.0     0.1696973937        7.0482999890       -0.3851261563
 H           1.0     0.5296901944        6.6251903404       -2.3789760459
 H           1.0     1.9738187942        6.9349164297        0.6232316308
 H           1.0    -0.5143834139        8.9962295371       -0.2566247891
 H           1.0     1.9736298216       -5.7470346739       -1.8507976324
 C           6.0    -0.2008778725       -7.0093716337        1.3519099716
 H           1.0     3.5279294465       -5.3985692017        1.0521994300
 H           1.0    -2.0473291351       -6.9082712933        0.4223537583
 H           1.0    -0.4733763599       -6.5637742458        3.3548305460
 H           1.0     0.4796124557       -8.9580570722        1.2160386731

          INTERNUCLEAR DISTANCES (ANGS.)




     $CONTRL OPTIONS
     ---------------
 SCFTYP=RHF          RUNTYP=OPTIMIZE     EXETYP=RUN     
 MPLEVL=       0     CITYP =NONE         CCTYP =NONE         VBTYP =NONE    
 DFTTYP=NONE         TDDFT =NONE    
 MULT  =       1     ICHARG=       0     NZVAR =       1     COORD =UNIQUE  
 PP    =NONE         RELWFN=NONE         LOCAL =NONE         NUMGRD=       F
 ISPHER=      -1     NOSYM =       0     MAXIT =     200     UNITS =ANGS    
 PLTORB=       F     MOLPLT=       F     AIMPAC=       F     FRIEND=        
 NPRINT=       7     IREST =       0     GEOM  =INPUT   
 NORMF =       0     NORMP =       0     ITOL  =      20     ICUT  =       9
 INTTYP=BEST         GRDTYP=BEST         QMTTOL= 1.0E-06

     $SYSTEM OPTIONS
     ---------------
  REPLICATED MEMORY=    40000000 WORDS (ON EVERY NODE).
 DISTRIBUTED MEMDDI=           0 MILLION WORDS IN AGGREGATE,
 MEMDDI DISTRIBUTED OVER   1 PROCESSORS IS           0 WORDS/PROCESSOR.
 TOTAL MEMORY REQUESTED ON EACH PROCESSOR=    40000000 WORDS.
 TIMLIM=       10000.00 MINUTES, OR       6.9 DAYS.
 PARALL= F  BALTYP=  DLB     KDIAG=    0  COREFL= F
 MXSEQ2=     300 MXSEQ3=     150  mem10=         0

     $COSGMS OPTIONS
     ---------------
     EPSI  =   INFTY     NSPA  =      92     COSRAD=    1.40
     DISEX =   10.00     OUTCHG=DBLCAV       COSBUG=       F
     COSWRT=       F     DCOSMO=       F

     SYMMETRY COORDINATES WILL NOT BE USED FOR 
     THE COSMO CALCULATION, EVEN IF SPECIFIED:
         -- SWITCHING TO C1 POINT GROUP --


     DEFINITION OF CAVITY
     ---------------------------
     ATOM         COORDINATES           RADIUS 
     1    0.8080   -2.5056    0.2753    2.0000
     2   -0.6548   -1.4594   -1.6647    2.0000
     3   -1.4897    1.0403   -1.5156    2.0000
     4   -0.8929    2.5330    0.5854    2.0000
     5    0.5696    1.4866    2.5256    2.0000
     6    1.4050   -1.0127    2.3761    2.0000
     7    1.6809   -5.2126    0.1304    2.0000
     8   -1.1539   -2.5863   -3.3099    1.3000
     9   -2.6125    1.8153   -3.0529    1.3000
    10   -1.7654    5.2402    0.7317    2.0000
    11    1.0679    2.6137    4.1708    1.3000
    12    2.5286   -1.7879    3.9129    1.3000
    13   -2.1388    5.7451    2.7068    1.3000
    14   -3.5718    5.4468   -0.2634    1.3000
    15    0.1697    7.0483   -0.3851    2.0000
    16    0.5297    6.6252   -2.3790    1.3000
    17    1.9738    6.9349    0.6232    1.3000
    18   -0.5144    8.9962   -0.2566    1.3000
    19    1.9736   -5.7470   -1.8508    1.3000
    20   -0.2009   -7.0094    1.3519    2.0000
    21    3.5279   -5.3986    1.0522    1.3000
    22   -2.0473   -6.9083    0.4224    1.3000
    23   -0.4734   -6.5638    3.3548    1.3000
    24    0.4796   -8.9581    1.2160    1.3000

          ----------------
          PROPERTIES INPUT
          ----------------

     MOMENTS            FIELD           POTENTIAL          DENSITY
 IEMOM =       1   IEFLD =       0   IEPOT =       0   IEDEN =       0
 WHERE =COMASS     WHERE =NUCLEI     WHERE =NUCLEI     WHERE =NUCLEI  
 OUTPUT=BOTH       OUTPUT=BOTH       OUTPUT=BOTH       OUTPUT=BOTH    
 IEMINT=       0   IEFINT=       0                     IEDINT=       0
                                                       MORB  =       0
          EXTRAPOLATION IN EFFECT
          SOSCF IN EFFECT
 ORBITAL PRINTING OPTION: NPREO=     1   274     2     1

     -------------------------------
     INTEGRAL TRANSFORMATION OPTIONS
     -------------------------------
     NWORD  =            0
     CUTOFF = 1.0E-09     MPTRAN =       0
     DIRTRF =       T     AOINTS =DUP     

          ----------------------
          INTEGRAL INPUT OPTIONS
          ----------------------
 NOPK  =       1 NORDER=       0 SCHWRZ=       T


 -----------------------------------------------
  STATISTICS ON AUTOMATIC COORDINATE GENERATION 
 -----------------------------------------------
  NUMBER OF USER SPECIFIED BONDS                             0
  NUMBER OF BONDS                                           24
  NUMBER OF ANGLES                                          42
  NUMBER OF TORSIONS                                        54
  NUMBER OF EXTRA COORD.                                     0
  NUMBER OF EXTRA COORD. FOR CONSTRAINTS                     0
  NUMBER OF CONSTRAINED COORD.                               0

  TOTAL NUMBER OF PRIMITIVES                               120
 -----------------------------------------------

   --- ENCODED Z MATRIX ---
 COORD  TYPE   I   J   K   L   M   N
    1      1    1   2
    2      1    1   7
    3      1    1   6
    4      1    2   3
    5      1    2   8
    6      1    3   4
    7      1    3   9
    8      1    4   5
    9      1    4  10
   10      1    5  11
   11      1    5   6
   12      1    6  12
   13      1    7  21
   14      1    7  20
   15      1    7  19
   16      1   10  15
   17      1   10  14
   18      1   10  13
   19      1   15  18
   20      1   15  17
   21      1   15  16
   22      1   20  24
   23      1   20  23
   24      1   20  22
   25      2    1   7  20
   26      2    1   7  19
   27      2    1   6  12
   28      2    1   2   3
   29      2    1   7  21
   30      2    1   6   5
   31      2    1   2   8
   32      2    2   3   9
   33      2    2   1   7
   34      2    2   1   6
   35      2    2   3   4
   36      2    3   2   8
   37      2    3   4   5
   38      2    3   4  10
   39      2    4   3   9
   40      2    4  10  13
   41      2    4  10  14
   42      2    4  10  15
   43      2    4   5   6
   44      2    4   5  11
   45      2    5   4  10
   46      2    5   6  12
   47      2    6   5  11
   48      2    6   1   7
   49      2    7  20  22
   50      2    7  20  23
   51      2    7  20  24
   52      2   10  15  16
   53      2   10  15  17
   54      2   10  15  18
   55      2   13  10  14
   56      2   13  10  15
   57      2   14  10  15
   58      2   16  15  17
   59      2   16  15  18
   60      2   17  15  18
   61      2   19   7  20
   62      2   19   7  21
   63      2   20   7  21
   64      2   22  20  23
   65      2   22  20  24
   66      2   23  20  24
   67      3    1   2   3   9
   68      3    1   7  20  24
   69      3    1   2   3   4
   70      3    1   7  20  22
   71      3    1   6   5  11
   72      3    1   6   5   4
   73      3    1   7  20  23
   74      3    2   1   7  21
   75      3    2   1   7  19
   76      3    2   1   7  20
   77      3    2   3   4  10
   78      3    2   3   4   5
   79      3    2   1   6  12
   80      3    2   1   6   5
   81      3    3   4  10  13
   82      3    3   4  10  14
   83      3    3   4  10  15
   84      3    3   2   1   6
   85      3    3   4   5   6
   86      3    3   4   5  11
   87      3    3   2   1   7
   88      3    4   5   6  12
   89      3    4  10  15  16
   90      3    4  10  15  17
   91      3    4  10  15  18
   92      3    4   3   2   8
   93      3    5   4  10  15
   94      3    5   4  10  14
   95      3    5   4  10  13
   96      3    5   4   3   9
   97      3    5   6   1   7
   98      3    6   5   4  10
   99      3    6   1   7  21
  100      3    6   1   7  19
  101      3    6   1   2   8
  102      3    6   1   7  20
  103      3    7   1   2   8
  104      3    7   1   6  12
  105      3    8   2   3   9
  106      3    9   3   4  10
  107      3   10   4   5  11
  108      3   11   5   6  12
  109      3   13  10  15  18
  110      3   13  10  15  17
  111      3   13  10  15  16
  112      3   14  10  15  18
  113      3   14  10  15  17
  114      3   14  10  15  16
  115      3   19   7  20  24
  116      3   19   7  20  23
  117      3   19   7  20  22
  118      3   21   7  20  24
  119      3   21   7  20  23
  120      3   21   7  20  22

          INDEP./SYM. INTERNAL COORDINATES
          --------------------------------
 CRD  1=   0.4566 ( 25) -0.1555 ( 26) -0.1577 ( 29)  0.1567 ( 40)  0.1572 ( 41)
          -0.4580 ( 42)  0.1150 ( 56)  0.1162 ( 57) -0.1137 ( 61) -0.1167 ( 63)
          -0.1004 ( 74) -0.2061 ( 77) -0.1098 ( 78) -0.1098 ( 80)  0.1105 ( 84)
           0.1105 ( 85)  0.2065 ( 87) -0.1006 ( 94) -0.2058 ( 97)  0.2065 ( 98)
           0.1084 (103) -0.1089 (104) -0.1088 (106)  0.1087 (107)
 CRD  2=   0.1337 (  1) -0.1443 (  3)  0.1615 (  4)  0.1351 (  6) -0.1429 (  8)
          -0.1802 ( 11)  0.4057 ( 33)  0.4062 ( 38) -0.4151 ( 45) -0.4159 ( 48)
          -0.1255 ( 76) -0.1274 ( 83) -0.1298 ( 93) -0.1316 (102)
 CRD  3=  -0.2463 (  2) -0.1419 (  4) -0.2463 (  9) -0.1146 ( 11) -0.1164 ( 14)
          -0.1164 ( 16) -0.4686 ( 25)  0.1310 ( 26)  0.1380 ( 29)  0.1293 ( 34)
           0.1293 ( 37)  0.1380 ( 40)  0.1311 ( 41) -0.4687 ( 42)  0.1516 ( 56)
           0.1415 ( 57)  0.1415 ( 61)  0.1516 ( 63)
 CRD  4=  -0.1386 ( 27)  0.1386 ( 31)  0.4227 ( 33) -0.4230 ( 38) -0.1385 ( 39)
           0.1387 ( 44)  0.4228 ( 45) -0.4229 ( 48)  0.1094 ( 68) -0.1011 ( 76)
           0.1012 ( 83) -0.1094 ( 91)
 CRD  5=  -0.1100 ( 26)  0.1076 ( 29) -0.1293 ( 33) -0.1293 ( 38)  0.1077 ( 40)
          -0.1099 ( 41)  0.1264 ( 45)  0.1265 ( 48)  0.1537 ( 49) -0.1540 ( 50)
           0.1537 ( 52) -0.1542 ( 53) -0.1687 ( 56)  0.1695 ( 57)  0.1694 ( 61)
          -0.1688 ( 63) -0.1334 ( 69) -0.1329 ( 72) -0.1522 ( 74) -0.1513 ( 75)
          -0.2907 ( 76) -0.1521 ( 81) -0.1513 ( 82) -0.2907 ( 83) -0.2908 ( 93)
          -0.1514 ( 94) -0.1522 ( 95) -0.1521 ( 99) -0.1513 (100) -0.2907 (102)
 CRD  6=  -0.3732 (  2) -0.1022 (  3) -0.2265 (  4) -0.1023 (  8) -0.3732 (  9)
          -0.2297 ( 11)  0.2523 ( 25) -0.1401 ( 26) -0.1092 ( 28) -0.1447 ( 29)
          -0.1079 ( 30) -0.1054 ( 33)  0.2170 ( 34) -0.1092 ( 35)  0.2170 ( 37)
          -0.1051 ( 38) -0.1447 ( 40) -0.1401 ( 41)  0.2523 ( 42) -0.1078 ( 43)
          -0.1110 ( 45) -0.1108 ( 48) -0.1583 ( 51) -0.1582 ( 54)
 CRD  7=  -0.1594 (  1) -0.2627 (  2) -0.1509 (  3)  0.1596 (  6)  0.1508 (  8)
           0.2627 (  9) -0.2950 ( 14)  0.2950 ( 16) -0.1647 ( 25)  0.1179 ( 34)
          -0.1179 ( 37)  0.1647 ( 42) -0.1802 ( 77) -0.1573 ( 78) -0.1573 ( 80)
           0.1573 ( 84)  0.1573 ( 85)  0.1802 ( 87) -0.1801 ( 97)  0.1801 ( 98)
           0.1084 (103) -0.1087 (104) -0.1085 (106)  0.1087 (107)
 CRD  8=   0.1333 ( 26) -0.1334 ( 29)  0.1335 ( 40) -0.1332 ( 41) -0.1893 ( 49)
           0.1894 ( 50)  0.1891 ( 52) -0.1895 ( 53) -0.2046 ( 56)  0.2050 ( 57)
          -0.2050 ( 61)  0.2047 ( 63)  0.1245 ( 74)  0.1245 ( 75)  0.2917 ( 76)
          -0.1244 ( 81) -0.1245 ( 82) -0.2917 ( 83) -0.2926 ( 93) -0.1254 ( 94)
          -0.1253 ( 95)  0.1254 ( 99)  0.1254 (100)  0.2926 (102)
 CRD  9=  -0.2273 (  1) -0.2694 (  2) -0.2369 (  3)  0.2272 (  6)  0.2371 (  8)
           0.2694 (  9)  0.1645 ( 14) -0.1645 ( 16)  0.1738 ( 25) -0.1072 ( 26)
          -0.1326 ( 27) -0.1047 ( 29) -0.1298 ( 31) -0.1280 ( 32)  0.1503 ( 34)
           0.1281 ( 36) -0.1503 ( 37)  0.1297 ( 39)  0.1046 ( 40)  0.1073 ( 41)
          -0.1738 ( 42)  0.1326 ( 44)  0.1339 ( 46) -0.1339 ( 47)  0.1219 ( 49)
           0.1245 ( 50) -0.1175 ( 51) -0.1219 ( 52) -0.1245 ( 53)  0.1175 ( 54)
           0.1040 ( 58) -0.1040 ( 64)  0.1007 ( 77)  0.1034 ( 78)  0.1034 ( 80)
          -0.1034 ( 84) -0.1035 ( 85) -0.1007 ( 87)  0.1007 ( 97) -0.1007 ( 98)
 CRD 10=  -0.2590 (  1)  0.2558 (  3)  0.1054 (  5)  0.2589 (  6) -0.1054 (  7)
          -0.2558 (  8)  0.1061 ( 10) -0.1061 ( 12)  0.1303 ( 26) -0.1794 ( 28)
          -0.1337 ( 29)  0.1799 ( 30) -0.1786 ( 32)  0.1793 ( 35)  0.1786 ( 36)
           0.1333 ( 40) -0.1307 ( 41) -0.1800 ( 43) -0.1769 ( 46)  0.1769 ( 47)
           0.2060 ( 49) -0.2005 ( 50) -0.2053 ( 52)  0.2010 ( 53)  0.1613 ( 68)
           0.1262 ( 70)  0.1259 ( 73) -0.1262 ( 89) -0.1258 ( 90) -0.1613 ( 91)
 CRD 11=   0.5014 ( 14)  0.5011 ( 16)  0.2426 ( 51)  0.2423 ( 54)  0.1232 ( 56)
           0.1252 ( 57) -0.1207 ( 58) -0.1634 ( 59) -0.1654 ( 60)  0.1257 ( 61)
           0.1230 ( 63) -0.1207 ( 64) -0.1631 ( 65) -0.1660 ( 66)
 CRD 12=  -0.3620 ( 14)  0.3625 ( 16) -0.3804 ( 51)  0.3805 ( 54)  0.1455 ( 56)
           0.1458 ( 57) -0.1618 ( 59) -0.1630 ( 60) -0.1458 ( 61) -0.1453 ( 63)
           0.1615 ( 65)  0.1630 ( 66)  0.1009 ( 74)  0.1008 ( 77) -0.1009 ( 81)
          -0.1008 ( 87)  0.1012 ( 94)  0.1008 ( 97) -0.1007 ( 98) -0.1010 (100)
 CRD 13=   0.1038 (  1) -0.1043 (  3)  0.2923 (  4)  0.1238 (  5)  0.1038 (  6)
           0.1238 (  7) -0.1044 (  8) -0.1238 ( 10) -0.2908 ( 11) -0.1239 ( 12)
          -0.1260 ( 26)  0.1186 ( 27)  0.1282 ( 29) -0.1198 ( 31)  0.2070 ( 32)
           0.2070 ( 36) -0.1198 ( 39)  0.1280 ( 40) -0.1262 ( 41)  0.1186 ( 44)
          -0.2058 ( 46) -0.2058 ( 47) -0.2244 ( 49)  0.2275 ( 50) -0.2245 ( 52)
           0.2273 ( 53) -0.1522 ( 68) -0.1196 ( 70) -0.1205 ( 73) -0.1197 ( 89)
          -0.1205 ( 90) -0.1522 ( 91)
 CRD 14=   0.2765 (  1)  0.2766 (  3) -0.1923 (  4)  0.1046 (  5)  0.2765 (  6)
           0.1046 (  7)  0.2765 (  8)  0.1041 ( 10) -0.1943 ( 11)  0.1041 ( 12)
           0.2784 ( 27)  0.2771 ( 31) -0.2491 ( 32) -0.2491 ( 36)  0.2771 ( 39)
           0.2784 ( 44) -0.2509 ( 46) -0.2509 ( 47)
 CRD 15=  -0.2363 (  4)  0.2359 ( 11) -0.2096 ( 27)  0.2107 ( 31) -0.2419 ( 32)
          -0.2419 ( 36)  0.2106 ( 39) -0.2096 ( 44)  0.2408 ( 46)  0.2408 ( 47)
          -0.2469 ( 49)  0.2509 ( 50) -0.2468 ( 52)  0.2509 ( 53)  0.1047 ( 59)
          -0.1004 ( 60)  0.1047 ( 65) -0.1004 ( 66) -0.1178 ( 68) -0.1178 ( 91)
 CRD 16=  -0.2335 (  1) -0.2337 (  3) -0.2883 (  4) -0.2342 (  5) -0.2335 (  6)
          -0.2342 (  7) -0.2337 (  8) -0.2344 ( 10) -0.2888 ( 11) -0.2344 ( 12)
           0.1137 ( 28)  0.1138 ( 30) -0.1991 ( 32)  0.1137 ( 33) -0.2275 ( 34)
           0.1137 ( 35) -0.1991 ( 36) -0.2275 ( 37)  0.1137 ( 38)  0.1138 ( 43)
           0.1138 ( 45) -0.1994 ( 46) -0.1994 ( 47)  0.1138 ( 48)
 CRD 17=  -0.1931 (  5)  0.1931 (  7) -0.1934 ( 10)  0.1934 ( 12)  0.1330 ( 27)
           0.2249 ( 28) -0.2251 ( 30) -0.1326 ( 31) -0.2249 ( 35)  0.1328 ( 39)
           0.2252 ( 43) -0.1331 ( 44)  0.2701 ( 49) -0.2721 ( 50) -0.2692 ( 52)
           0.2730 ( 53)  0.1206 ( 59) -0.1205 ( 60) -0.1204 ( 65)  0.1207 ( 66)
 CRD 18=  -0.1082 ( 14) -0.1078 ( 16)  0.1348 ( 19)  0.1350 ( 22)  0.1114 ( 25)
           0.1110 ( 42) -0.2708 ( 49) -0.2546 ( 50)  0.4245 ( 51) -0.2715 ( 52)
          -0.2529 ( 53)  0.4240 ( 54)  0.2377 ( 58)  0.2381 ( 64)
 CRD 19=   0.1537 (  1) -0.2163 (  2)  0.1542 (  3)  0.1820 (  5) -0.1537 (  6)
          -0.1819 (  7) -0.1543 (  8)  0.2162 (  9) -0.1838 ( 10)  0.1837 ( 12)
           0.1233 ( 14) -0.1236 ( 16)  0.2037 ( 27) -0.1512 ( 28) -0.1533 ( 30)
           0.2017 ( 31)  0.1511 ( 35) -0.2017 ( 39)  0.1533 ( 43) -0.2038 ( 44)
           0.1610 ( 49)  0.1605 ( 50) -0.2030 ( 51) -0.1614 ( 52) -0.1612 ( 53)
           0.2039 ( 54)  0.1589 ( 58) -0.1583 ( 64)
 CRD 20=   0.1291 (  1) -0.1302 (  3)  0.1293 (  6) -0.1300 (  8)  0.1028 ( 13)
          -0.1078 ( 15) -0.1079 ( 17)  0.1027 ( 18) -0.1929 ( 26)  0.1907 ( 29)
           0.1905 ( 40) -0.1929 ( 41)  0.1993 ( 49) -0.2093 ( 50)  0.1991 ( 52)
          -0.2095 ( 53) -0.1662 ( 56)  0.1625 ( 57)  0.1626 ( 61) -0.1664 ( 63)
          -0.1083 ( 68)  0.1403 ( 69) -0.1288 ( 70)  0.1399 ( 72) -0.1282 ( 73)
           0.1374 ( 74)  0.1357 ( 75)  0.1373 ( 81)  0.1357 ( 82) -0.1288 ( 89)
          -0.1282 ( 90) -0.1083 ( 91)  0.1347 ( 94)  0.1364 ( 95)  0.1365 ( 99)
           0.1348 (100)
 CRD 21=   0.2014 (  2) -0.1600 (  5)  0.1600 (  7) -0.2015 (  9)  0.1550 ( 10)
          -0.1550 ( 12)  0.1299 ( 13)  0.1232 ( 14)  0.1312 ( 15) -0.1233 ( 16)
          -0.1311 ( 17) -0.1300 ( 18) -0.1563 ( 25) -0.1259 ( 27)  0.1275 ( 28)
           0.1225 ( 30) -0.1312 ( 31) -0.1275 ( 35)  0.1312 ( 39)  0.1564 ( 42)
          -0.1225 ( 43)  0.1259 ( 44)  0.1858 ( 49)  0.1876 ( 50) -0.2459 ( 51)
          -0.1861 ( 52) -0.1875 ( 53)  0.2461 ( 54)  0.1026 ( 55)  0.1812 ( 58)
          -0.1025 ( 62) -0.1810 ( 64)
 CRD 22=   0.1422 (  5) -0.1422 (  7)  0.1438 ( 10) -0.1438 ( 12)  0.1363 ( 13)
          -0.1335 ( 15)  0.1338 ( 17) -0.1361 ( 18) -0.1620 ( 26) -0.1410 ( 27)
          -0.1288 ( 28)  0.1630 ( 29)  0.1301 ( 30)  0.1399 ( 31)  0.1288 ( 35)
          -0.1399 ( 39) -0.1630 ( 40)  0.1621 ( 41) -0.1301 ( 43)  0.1410 ( 44)
           0.1857 ( 49) -0.1831 ( 50) -0.1856 ( 52)  0.1834 ( 53)  0.1053 ( 56)
          -0.1065 ( 57)  0.1067 ( 61) -0.1051 ( 63) -0.1178 ( 68) -0.1225 ( 70)
          -0.1226 ( 73)  0.1397 ( 74)  0.1403 ( 75)  0.1186 ( 76) -0.1399 ( 81)
          -0.1404 ( 82) -0.1187 ( 83)  0.1226 ( 89)  0.1227 ( 90)  0.1179 ( 91)
          -0.1173 ( 93) -0.1390 ( 94) -0.1385 ( 95)  0.1385 ( 99)  0.1391 (100)
           0.1174 (102)
 CRD 23=   0.2391 ( 13) -0.2469 ( 15) -0.2468 ( 17)  0.2390 ( 18)  0.1021 ( 49)
          -0.1050 ( 50)  0.1021 ( 52) -0.1050 ( 53)  0.1803 ( 56) -0.1871 ( 57)
          -0.1872 ( 61)  0.1803 ( 63) -0.1447 ( 67) -0.1139 ( 68) -0.1832 ( 69)
          -0.1502 ( 71) -0.1897 ( 72)  0.1145 ( 76)  0.1146 ( 83) -0.1502 ( 88)
          -0.1138 ( 91) -0.1447 ( 92)  0.1115 ( 93)  0.1116 (102) -0.1062 (105)
          -0.1106 (108)
 CRD 24=   0.2406 ( 13) -0.2395 ( 15)  0.2400 ( 17) -0.2402 ( 18)  0.1015 ( 26)
          -0.1014 ( 29)  0.1013 ( 40) -0.1015 ( 41) -0.2342 ( 56)  0.2341 ( 57)
          -0.2337 ( 61)  0.2346 ( 63) -0.1081 ( 68) -0.1864 ( 74) -0.1859 ( 75)
           0.1860 ( 81)  0.1859 ( 82)  0.1081 ( 91)  0.1871 ( 94)  0.1872 ( 95)
          -0.1872 ( 99) -0.1867 (100)
 CRD 25=  -0.1655 ( 13) -0.1482 ( 15) -0.1471 ( 17) -0.1666 ( 18)  0.1019 ( 25)
           0.1019 ( 42)  0.1008 ( 55) -0.1274 ( 56) -0.1257 ( 57) -0.1263 ( 61)
           0.1007 ( 62) -0.1269 ( 63)  0.1345 ( 67)  0.1463 ( 69) -0.1238 ( 71)
          -0.1342 ( 72)  0.1198 ( 74) -0.2323 ( 77) -0.1407 ( 78)  0.1241 ( 79)
           0.1347 ( 80)  0.1202 ( 81) -0.1407 ( 84)  0.1347 ( 85)  0.1242 ( 86)
          -0.2323 ( 87) -0.1237 ( 88)  0.1347 ( 92) -0.1220 ( 94) -0.1289 ( 96)
           0.2263 ( 97)  0.2263 ( 98) -0.1224 (100) -0.1290 (101) -0.2206 (103)
           0.2156 (104)  0.1230 (105) -0.2205 (106)  0.2158 (107) -0.1133 (108)
 CRD 26=  -0.1071 ( 13)  0.1035 ( 15)  0.1036 ( 17) -0.1072 ( 18) -0.1355 ( 56)
           0.1324 ( 57)  0.1323 ( 61) -0.1354 ( 63) -0.2187 ( 67) -0.2226 ( 69)
          -0.2216 ( 71) -0.2255 ( 72)  0.1654 ( 74)  0.1634 ( 75)  0.1090 ( 77)
           0.1098 ( 78)  0.1085 ( 79)  0.1126 ( 80)  0.1655 ( 81)  0.1635 ( 82)
           0.1099 ( 84)  0.1127 ( 85)  0.1087 ( 86)  0.1090 ( 87) -0.2214 ( 88)
          -0.2188 ( 92)  0.1628 ( 94)  0.1648 ( 95)  0.1058 ( 96)  0.1133 ( 97)
           0.1133 ( 98)  0.1646 ( 99)  0.1627 (100)  0.1060 (101)  0.1051 (103)
           0.1092 (104) -0.2148 (105)  0.1050 (106)  0.1093 (107) -0.2175 (108)
 CRD 27=  -0.1161 ( 14)  0.1181 ( 16)  0.3389 ( 19)  0.3602 ( 20)  0.3602 ( 21)
          -0.3334 ( 22) -0.3545 ( 23) -0.3545 ( 24)  0.1248 ( 49)  0.1248 ( 50)
           0.1382 ( 51) -0.1268 ( 52) -0.1269 ( 53) -0.1403 ( 54)  0.1335 ( 58)
           0.1406 ( 59)  0.1406 ( 60) -0.1312 ( 64) -0.1383 ( 65) -0.1384 ( 66)
 CRD 28=   0.1226 ( 14)  0.1207 ( 16)  0.3403 ( 19)  0.3529 ( 20)  0.3523 ( 21)
           0.3458 ( 22)  0.3586 ( 23)  0.3581 ( 24) -0.1286 ( 49) -0.1282 ( 50)
          -0.1325 ( 51) -0.1265 ( 52) -0.1262 ( 53) -0.1303 ( 54)  0.1344 ( 58)
           0.1344 ( 59)  0.1342 ( 60)  0.1364 ( 64)  0.1367 ( 65)  0.1364 ( 66)
 CRD 29=   0.1175 (  2)  0.1720 (  5) -0.1720 (  7) -0.1175 (  9) -0.1725 ( 10)
           0.1725 ( 12)  0.3705 ( 13)  0.3707 ( 15) -0.3711 ( 17) -0.3709 ( 18)
          -0.1182 ( 32)  0.1181 ( 36)  0.1178 ( 46) -0.1178 ( 47) -0.1403 ( 55)
           0.1402 ( 62)
 CRD 30=  -0.3409 ( 13) -0.3420 ( 15) -0.3416 ( 17) -0.3404 ( 18)  0.2606 ( 19)
          -0.1236 ( 20) -0.1235 ( 21)  0.2598 ( 22) -0.1233 ( 23) -0.1233 ( 24)
          -0.1466 ( 55) -0.1578 ( 58) -0.1468 ( 62) -0.1575 ( 64)  0.1162 (110)
          -0.1160 (114) -0.1159 (117)  0.1161 (119)
 CRD 31=  -0.4617 ( 19)  0.2280 ( 20)  0.1987 ( 21)  0.4613 ( 22) -0.2243 ( 23)
          -0.2021 ( 24)  0.2235 ( 58) -0.1161 ( 59) -0.1004 ( 60) -0.2235 ( 64)
           0.1142 ( 65)  0.1023 ( 66) -0.1220 ( 70)  0.1184 ( 73)  0.1227 ( 89)
          -0.1179 ( 90) -0.1141 (110)  0.1265 (111) -0.1215 (113)  0.1191 (114)
           0.1219 (116) -0.1185 (117)  0.1148 (119) -0.1256 (120)
 CRD 32=   0.4817 ( 20) -0.4953 ( 21) -0.2479 ( 23)  0.2626 ( 24) -0.2571 ( 59)
           0.2640 ( 60)  0.1324 ( 65) -0.1398 ( 66)  0.1028 ( 68) -0.1965 ( 91)
          -0.1947 (109) -0.1946 (112)  0.1017 (115)  0.1021 (118)
 CRD 33=   0.2572 ( 20) -0.2535 ( 21)  0.4881 ( 23) -0.4891 ( 24) -0.1372 ( 59)
           0.1353 ( 60) -0.2604 ( 65)  0.2610 ( 66) -0.1964 ( 68) -0.1025 ( 91)
          -0.1012 (109) -0.1015 (112) -0.1945 (115) -0.1942 (118)
 CRD 34=   0.2463 ( 13)  0.2467 ( 15)  0.2468 ( 17)  0.2462 ( 18)  0.3846 ( 19)
          -0.1847 ( 20) -0.1886 ( 21)  0.3855 ( 22) -0.1855 ( 23) -0.1887 ( 24)
           0.1097 ( 55) -0.1751 ( 58)  0.1097 ( 62) -0.1756 ( 64) -0.1004 ( 70)
           0.1008 ( 73) -0.1001 ( 89)  0.1006 ( 90) -0.1376 (111)  0.1382 (113)
           0.1384 (116) -0.1378 (120)
 CRD 35=   0.2455 (  2)  0.2340 (  5) -0.2339 (  7) -0.2455 (  9) -0.2354 ( 10)
           0.2353 ( 12) -0.2199 ( 13) -0.2196 ( 15)  0.2195 ( 17)  0.2199 ( 18)
          -0.1710 ( 32)  0.1709 ( 36)  0.1691 ( 46) -0.1690 ( 47)  0.1209 ( 55)
          -0.1210 ( 62) -0.1093 ( 79)  0.1093 ( 86) -0.1093 ( 96)  0.1094 (101)
          -0.1089 (111)  0.1090 (113) -0.1091 (116)  0.1089 (120)
 CRD 36=  -0.1259 (  2)  0.1259 (  9)  0.2428 ( 67) -0.2420 ( 71)  0.1069 ( 74)
           0.1010 ( 77) -0.3091 ( 79) -0.1069 ( 81)  0.3091 ( 86) -0.1011 ( 87)
           0.2421 ( 88) -0.2427 ( 92)  0.1047 ( 94) -0.3099 ( 96)  0.1010 ( 97)
          -0.1010 ( 98) -0.1049 (100)  0.3099 (101)  0.1443 (103) -0.1436 (104)
          -0.1444 (106)  0.1435 (107)
 CRD 37=  -0.1906 (  5) -0.1903 (  7)  0.1888 ( 10)  0.1893 ( 12)  0.2976 ( 13)
          -0.2998 ( 15) -0.2976 ( 17)  0.2954 ( 18) -0.1072 ( 26)  0.1089 ( 29)
           0.1081 ( 40) -0.1065 ( 41)  0.1542 (109)  0.1656 (110)  0.1663 (111)
           0.1527 (112)  0.1642 (113)  0.1648 (114)  0.1539 (115)  0.1655 (116)
           0.1661 (117)  0.1555 (118)  0.1670 (119)  0.1676 (120)
 CRD 38=  -0.3000 ( 13)  0.3007 ( 15) -0.3028 ( 17)  0.3020 ( 18)  0.1085 ( 26)
          -0.1061 ( 29)  0.1070 ( 40) -0.1092 ( 41)  0.1763 (109)  0.1863 (110)
           0.1868 (111)  0.1774 (112)  0.1874 (113)  0.1880 (114) -0.1764 (115)
          -0.1864 (116) -0.1869 (117) -0.1751 (118) -0.1851 (119) -0.1856 (120)
 CRD 39=   0.3496 (  2) -0.3510 (  4)  0.3497 (  9) -0.3508 ( 11)  0.1058 ( 26)
           0.1042 ( 29)  0.1334 ( 32)  0.1975 ( 34)  0.1334 ( 36)  0.1975 ( 37)
           0.1041 ( 40)  0.1059 ( 41)  0.1332 ( 46)  0.1333 ( 47) -0.1029 (113)
          -0.1027 (116)
 CRD 40=   0.3387 (  5)  0.3387 (  7) -0.3408 ( 10) -0.3408 ( 12) -0.1079 ( 27)
           0.1071 ( 31)  0.1071 ( 39) -0.1079 ( 44)  0.1576 ( 68)  0.1501 ( 70)
           0.1502 ( 73)  0.1501 ( 89)  0.1503 ( 90)  0.1576 ( 91)  0.1501 (109)
           0.1427 (110)  0.1425 (111)  0.1492 (112)  0.1418 (113)  0.1416 (114)
           0.1491 (115)  0.1417 (116)  0.1416 (117)  0.1500 (118)  0.1426 (119)
           0.1425 (120)
 CRD 41=  -0.2967 ( 27)  0.2955 ( 31)  0.2676 ( 32) -0.1624 ( 33) -0.2676 ( 36)
           0.1624 ( 38) -0.2955 ( 39)  0.2967 ( 44) -0.1627 ( 45)  0.2686 ( 46)
          -0.2686 ( 47)  0.1627 ( 48)  0.1088 ( 68)  0.1080 ( 70)  0.1083 ( 73)
          -0.1080 ( 89) -0.1083 ( 90) -0.1088 ( 91) -0.1042 (109) -0.1037 (110)
          -0.1034 (111) -0.1042 (112) -0.1038 (113) -0.1035 (114)  0.1042 (115)
           0.1038 (116)  0.1035 (117)  0.1042 (118)  0.1037 (119)  0.1034 (120)
 CRD 42=  -0.2347 (  1)  0.2340 (  3) -0.3518 (  5)  0.2348 (  6)  0.3516 (  7)
          -0.2339 (  8) -0.3507 ( 10)  0.3506 ( 12) -0.1047 ( 28)  0.1044 ( 30)
           0.1047 ( 35) -0.1044 ( 43) -0.1145 ( 68) -0.1116 ( 70) -0.1120 ( 73)
           0.1116 ( 89)  0.1120 ( 90)  0.1145 ( 91)
 CRD 43=  -0.2287 (  1) -0.2250 (  3)  0.3287 (  5) -0.2285 (  6)  0.3290 (  7)
          -0.2251 (  8)  0.3242 ( 10)  0.3244 ( 12)  0.1218 ( 19)  0.1220 ( 22)
          -0.1005 ( 59) -0.1005 ( 60) -0.1007 ( 65) -0.1007 ( 66) -0.1047 (105)
           0.1049 (108)
 CRD 44=   0.1026 ( 14) -0.1016 ( 16)  0.2136 ( 19)  0.1506 ( 20)  0.1508 ( 21)
          -0.2149 ( 22) -0.1517 ( 23) -0.1520 ( 24) -0.1322 ( 26) -0.1316 ( 29)
           0.1312 ( 40)  0.1318 ( 41) -0.1577 ( 49) -0.1574 ( 50) -0.1798 ( 51)
           0.1565 ( 52)  0.1562 ( 53)  0.1785 ( 54) -0.1417 ( 56) -0.1425 ( 57)
          -0.1374 ( 58) -0.1901 ( 59) -0.1898 ( 60)  0.1434 ( 61)  0.1425 ( 63)
           0.1385 ( 64)  0.1914 ( 65)  0.1911 ( 66) -0.1114 ( 74)  0.1118 ( 75)
           0.1103 ( 81) -0.1112 ( 82) -0.1110 ( 94)  0.1105 ( 95) -0.1111 ( 99)
           0.1121 (100)
 CRD 45=   0.1389 (  1) -0.2007 (  2)  0.1439 (  3)  0.1261 (  4) -0.2221 (  5)
           0.1383 (  6) -0.2224 (  7)  0.1432 (  8) -0.2017 (  9) -0.2274 ( 10)
           0.1259 ( 11) -0.2267 ( 12)  0.1456 ( 19)  0.1257 ( 20)  0.1258 ( 21)
           0.1434 ( 22)  0.1242 ( 23)  0.1242 ( 24)  0.1240 ( 49)  0.1238 ( 50)
           0.1279 ( 51)  0.1255 ( 52)  0.1254 ( 53)  0.1297 ( 54)  0.1036 ( 55)
          -0.1211 ( 58) -0.1399 ( 59) -0.1397 ( 60)  0.1030 ( 62) -0.1197 ( 64)
          -0.1379 ( 65) -0.1378 ( 66)  0.1187 ( 74)  0.1198 ( 81) -0.1202 ( 94)
          -0.1190 (100) -0.1458 (105)  0.1459 (108)
 CRD 46=   0.3309 (  1) -0.3308 (  3) -0.2005 (  5)  0.3308 (  6) -0.2005 (  7)
          -0.3309 (  8)  0.2005 ( 10)  0.2005 ( 12) -0.1707 ( 13)  0.1700 ( 15)
           0.1701 ( 17) -0.1707 ( 18) -0.1057 ( 33) -0.1057 ( 38)  0.1056 ( 45)
           0.1057 ( 48)  0.1112 (110)  0.1113 (111)  0.1117 (113)  0.1118 (114)
           0.1118 (116)  0.1118 (117)  0.1111 (119)  0.1112 (120)
 CRD 47=   0.2145 (  1) -0.1141 (  2)  0.2144 (  3) -0.2145 (  6) -0.2143 (  8)
           0.1143 (  9) -0.2000 ( 14)  0.1990 ( 16) -0.1147 ( 20) -0.1148 ( 21)
           0.1150 ( 23)  0.1152 ( 24) -0.2044 ( 27) -0.2045 ( 31) -0.1168 ( 32)
           0.1129 ( 33) -0.2257 ( 34)  0.1168 ( 36)  0.2256 ( 37) -0.1129 ( 38)
           0.2045 ( 39)  0.2043 ( 44) -0.1128 ( 45)  0.1165 ( 46) -0.1164 ( 47)
           0.1128 ( 48)  0.1404 ( 58) -0.1408 ( 64)  0.1088 (111) -0.1087 (113)
           0.1087 (116) -0.1089 (120)
 CRD 48=   0.3072 ( 14)  0.3078 ( 16) -0.1033 ( 19) -0.1213 ( 20) -0.1204 ( 21)
          -0.1032 ( 22) -0.1206 ( 23) -0.1203 ( 24) -0.1175 ( 49) -0.1174 ( 50)
          -0.1242 ( 51) -0.1178 ( 52) -0.1177 ( 53) -0.1244 ( 54)  0.1350 ( 58)
           0.1215 ( 59)  0.1221 ( 60)  0.1345 ( 64)  0.1215 ( 65)  0.1217 ( 66)
          -0.1545 ( 67)  0.1547 ( 71)  0.1073 ( 74) -0.1346 ( 77) -0.1558 ( 79)
           0.1071 ( 81) -0.1561 ( 86) -0.1346 ( 87)  0.1545 ( 88) -0.1547 ( 92)
          -0.1074 ( 94)  0.1559 ( 96)  0.1344 ( 97)  0.1344 ( 98) -0.1074 (100)
           0.1561 (101) -0.2954 (105)  0.2953 (108)
 CRD 49=  -0.1636 (  1)  0.1635 (  3)  0.5047 (  4) -0.1662 (  5) -0.1635 (  6)
          -0.1663 (  7)  0.1636 (  8)  0.1664 ( 10) -0.5048 ( 11)  0.1664 ( 12)
          -0.2038 ( 27)  0.2038 ( 31) -0.1294 ( 32) -0.1295 ( 36)  0.2038 ( 39)
          -0.2038 ( 44)  0.1294 ( 46)  0.1295 ( 47)
 CRD 50=  -0.1921 (  1) -0.1918 (  3)  0.2913 (  5)  0.1921 (  6) -0.2913 (  7)
           0.1918 (  8) -0.2910 ( 10)  0.2910 ( 12)  0.2349 ( 28)  0.2347 ( 30)
           0.2463 ( 32) -0.1085 ( 34) -0.2349 ( 35) -0.2462 ( 36)  0.1085 ( 37)
          -0.2347 ( 43) -0.2460 ( 46)  0.2460 ( 47)
 CRD 51=   0.1494 (  1) -0.1503 (  3) -0.1434 (  5) -0.1495 (  6)  0.1431 (  7)
           0.1501 (  8) -0.1446 ( 10)  0.1444 ( 12) -0.1831 ( 13)  0.1827 ( 15)
          -0.1827 ( 17)  0.1832 ( 18)  0.1543 ( 20) -0.1544 ( 21) -0.1547 ( 23)
           0.1539 ( 24) -0.1259 ( 28)  0.1269 ( 30) -0.1421 ( 32)  0.1258 ( 35)
           0.1419 ( 36) -0.1270 ( 43) -0.1432 ( 46)  0.1431 ( 47)  0.1188 ( 59)
          -0.1186 ( 60) -0.1186 ( 65)  0.1187 ( 66) -0.1146 ( 67) -0.1504 ( 68)
          -0.1108 ( 71) -0.1146 ( 79)  0.1145 ( 86)  0.1109 ( 88)  0.1505 ( 91)
           0.1145 ( 92)  0.1145 ( 96) -0.1144 (101) -0.1154 (103) -0.1140 (104)
           0.1155 (106)  0.1139 (107) -0.1291 (110) -0.1291 (111) -0.1297 (113)
          -0.1298 (114)  0.1292 (116)  0.1296 (117)  0.1291 (119)  0.1295 (120)
 CRD 52=   0.1561 (  2) -0.2541 (  4)  0.1560 (  9) -0.2536 ( 11) -0.1383 ( 14)
          -0.1381 ( 16) -0.1432 ( 19)  0.1163 ( 20)  0.1179 ( 21) -0.1433 ( 22)
           0.1159 ( 23)  0.1184 ( 24) -0.1288 ( 26) -0.1153 ( 27) -0.1274 ( 29)
          -0.1163 ( 31) -0.1082 ( 34) -0.1083 ( 37) -0.1163 ( 39) -0.1276 ( 40)
          -0.1285 ( 41) -0.1154 ( 44)  0.1384 ( 55) -0.1663 ( 58)  0.1383 ( 62)
          -0.1664 ( 64) -0.1168 (109) -0.2017 (111)  0.1159 (112)  0.2026 (113)
           0.1158 (115)  0.2029 (116) -0.1168 (118) -0.2014 (120)
 CRD 53=   0.3106 (  2) -0.3106 (  9) -0.3088 ( 14)  0.3088 ( 16) -0.1262 ( 20)
          -0.1241 ( 21)  0.1257 ( 23)  0.1245 ( 24) -0.1158 ( 26) -0.1167 ( 29)
           0.1430 ( 34) -0.1429 ( 37)  0.1170 ( 40)  0.1155 ( 41) -0.1056 ( 56)
          -0.1055 ( 57)  0.1684 ( 58)  0.1054 ( 61)  0.1056 ( 63) -0.1683 ( 64)
           0.1213 (111) -0.1200 (113)  0.1202 (116) -0.1209 (120)
 CRD 54=   0.1351 (  1) -0.1328 (  3) -0.1351 (  6)  0.1329 (  8)  0.2346 ( 67)
           0.2356 ( 71) -0.1117 ( 74) -0.1113 ( 75)  0.2373 ( 79)  0.1116 ( 81)
           0.1112 ( 82) -0.2372 ( 86) -0.2357 ( 88) -0.2345 ( 92)  0.1116 ( 94)
           0.1121 ( 95) -0.2374 ( 96) -0.1120 ( 99) -0.1117 (100)  0.2373 (101)
           0.2374 (103)  0.2381 (104) -0.2375 (106) -0.2381 (107)
 CRD 55=  -0.1510 (  1)  0.1501 (  3) -0.1514 (  6)  0.1499 (  8) -0.1404 ( 13)
           0.1438 ( 15)  0.1433 ( 17) -0.1410 ( 18) -0.2196 ( 20)  0.2192 ( 21)
          -0.2200 ( 23)  0.2187 ( 24) -0.1144 ( 26)  0.1134 ( 29)  0.1357 ( 33)
           0.1355 ( 38)  0.1131 ( 40) -0.1148 ( 41) -0.1364 ( 45) -0.1362 ( 48)
          -0.1686 ( 59)  0.1663 ( 60) -0.1691 ( 65)  0.1659 ( 66) -0.2557 ( 68)
          -0.2558 ( 91) -0.1106 (109)  0.1327 (110)  0.1343 (111) -0.1114 (112)
           0.1319 (113)  0.1335 (114) -0.1119 (115)  0.1308 (116)  0.1336 (117)
          -0.1101 (118)  0.1326 (119)  0.1353 (120)
 CRD 56=   0.1010 (  2) -0.1009 (  9) -0.1441 ( 13)  0.2249 ( 14) -0.1371 ( 15)
          -0.2250 ( 16)  0.1376 ( 17)  0.1436 ( 18)  0.2388 ( 19) -0.2389 ( 22)
          -0.2120 ( 55)  0.1107 ( 58) -0.1163 ( 59) -0.1232 ( 60)  0.2120 ( 62)
          -0.1109 ( 64)  0.1156 ( 65)  0.1239 ( 66) -0.1126 ( 70)  0.1123 ( 73)
           0.1465 ( 74) -0.1060 ( 75) -0.1467 ( 81)  0.1058 ( 82)  0.1125 ( 89)
          -0.1123 ( 90)  0.1529 ( 94) -0.1531 (100)  0.1889 (111) -0.1947 (113)
           0.1952 (116) -0.1884 (120)
 CRD 57=   0.1611 (  1) -0.2461 (  2)  0.1604 (  3) -0.3006 (  4)  0.1610 (  6)
           0.1606 (  8) -0.2461 (  9) -0.3006 ( 11)  0.1428 ( 19)  0.1427 ( 22)
          -0.1787 ( 27)  0.1019 ( 28)  0.1020 ( 30) -0.1786 ( 31)  0.1019 ( 33)
          -0.2039 ( 34)  0.1019 ( 35) -0.2039 ( 37)  0.1020 ( 38) -0.1787 ( 39)
           0.1020 ( 43) -0.1787 ( 44)  0.1021 ( 45)  0.1022 ( 48)  0.1227 ( 58)
           0.1227 ( 64)  0.1233 (111) -0.1232 (113) -0.1232 (116)  0.1231 (120)
 CRD 58=   0.2255 (  1) -0.2255 (  3) -0.1262 (  5) -0.2256 (  6)  0.1262 (  7)
           0.2253 (  8) -0.1264 ( 10)  0.1263 ( 12) -0.1744 ( 20)  0.1715 ( 21)
           0.1745 ( 23) -0.1716 ( 24) -0.1376 ( 28)  0.1377 ( 30) -0.1211 ( 32)
          -0.1266 ( 33)  0.1375 ( 35)  0.1211 ( 36)  0.1264 ( 38) -0.1378 ( 43)
          -0.1267 ( 45) -0.1212 ( 46)  0.1212 ( 47)  0.1266 ( 48) -0.1354 ( 59)
           0.1275 ( 60)  0.1355 ( 65) -0.1276 ( 66)  0.2034 ( 68) -0.2033 ( 91)
          -0.1085 (109) -0.1115 (112)  0.1115 (115)  0.1085 (118)
 CRD 59=  -0.1137 (  2) -0.1136 (  9)  0.2692 ( 14)  0.2692 ( 16) -0.1779 ( 19)
          -0.1779 ( 22)  0.1040 ( 26)  0.1042 ( 29)  0.1041 ( 40)  0.1039 ( 41)
           0.1099 ( 55) -0.1346 ( 56) -0.1334 ( 57) -0.1334 ( 61)  0.1098 ( 62)
          -0.1345 ( 63) -0.1739 ( 75)  0.1720 ( 77) -0.1740 ( 82)  0.1720 ( 87)
           0.1737 ( 95) -0.1715 ( 97) -0.1716 ( 98)  0.1737 ( 99)  0.1830 (105)
          -0.1821 (108)  0.1054 (110) -0.1035 (114) -0.1036 (117)  0.1054 (119)
 CRD 60=   0.2048 (  2) -0.2044 (  9) -0.1023 ( 13)  0.1020 ( 18) -0.1839 ( 19)
           0.1842 ( 22) -0.1253 ( 25)  0.1249 ( 42) -0.1493 ( 51)  0.1489 ( 54)
          -0.1522 ( 55) -0.1375 ( 58)  0.1527 ( 62)  0.1379 ( 64)  0.1360 ( 70)
          -0.1407 ( 73) -0.1356 ( 89)  0.1405 ( 90)  0.1334 (109)  0.2753 (110)
          -0.1402 (112) -0.2744 (114)  0.1403 (115)  0.2750 (117) -0.1339 (118)
          -0.2759 (119)
 CRD 61=  -0.1783 (  2) -0.1789 (  9)  0.1267 ( 13)  0.1280 ( 15)  0.1283 ( 17)
           0.1268 ( 18) -0.1482 ( 19) -0.1478 ( 22)  0.1599 ( 25)  0.1602 ( 42)
           0.1441 ( 51)  0.1445 ( 54) -0.1892 ( 55) -0.1232 ( 58) -0.1888 ( 62)
          -0.1229 ( 64) -0.1204 ( 70)  0.1187 ( 73)  0.1053 ( 75)  0.1053 ( 82)
          -0.1210 ( 89)  0.1189 ( 90) -0.1059 ( 95) -0.1059 ( 99)  0.1384 (109)
           0.2575 (110) -0.1362 (112) -0.2570 (114) -0.1359 (115) -0.2563 (117)
           0.1379 (118)  0.2567 (119)
 CRD 62=   0.1624 ( 13) -0.1612 ( 15) -0.1646 ( 17)  0.1654 ( 18) -0.1421 ( 20)
           0.1420 ( 21) -0.1393 ( 23)  0.1394 ( 24)  0.1053 ( 26) -0.1049 ( 29)
          -0.1029 ( 33) -0.1050 ( 38) -0.1069 ( 40)  0.1074 ( 41)  0.1051 ( 45)
           0.1030 ( 48) -0.1231 ( 49)  0.1232 ( 50) -0.1255 ( 52)  0.1257 ( 53)
          -0.1293 ( 56)  0.1293 ( 57) -0.1062 ( 59)  0.1059 ( 60)  0.1269 ( 61)
          -0.1268 ( 63) -0.1041 ( 65)  0.1040 ( 66)  0.2079 ( 70)  0.2079 ( 73)
          -0.1560 ( 76) -0.1592 ( 83)  0.2121 ( 89)  0.2119 ( 90) -0.1599 ( 93)
          -0.1570 (102) -0.2281 (109) -0.2287 (112) -0.2245 (115) -0.2236 (118)
 CRD 63=  -0.1610 ( 13)  0.1662 ( 15) -0.1629 ( 17)  0.1579 ( 18) -0.1386 ( 20)
           0.1360 ( 21)  0.1414 ( 23) -0.1387 ( 24) -0.1081 ( 26)  0.1071 ( 29)
           0.1078 ( 33) -0.1057 ( 38) -0.1050 ( 40)  0.1060 ( 41)  0.1055 ( 45)
          -0.1075 ( 48)  0.1233 ( 49) -0.1251 ( 50) -0.1209 ( 52)  0.1227 ( 53)
          -0.1256 ( 56)  0.1252 ( 57) -0.1031 ( 59)  0.1019 ( 60) -0.1277 ( 61)
           0.1281 ( 63)  0.1052 ( 65) -0.1039 ( 66) -0.2134 ( 70) -0.2096 ( 73)
           0.1616 ( 76) -0.1584 ( 83)  0.2092 ( 89)  0.2055 ( 90) -0.1554 ( 93)
           0.1585 (102) -0.2234 (109) -0.2191 (112)  0.2235 (115)  0.2279 (118)
 CRD 64=   0.2880 ( 69)  0.2883 ( 72) -0.1429 ( 77) -0.1429 ( 78)  0.1942 ( 79)
          -0.1433 ( 80) -0.1429 ( 84) -0.1433 ( 85)  0.1942 ( 86) -0.1429 ( 87)
           0.1942 ( 96) -0.1433 ( 97) -0.1434 ( 98)  0.1941 (101)  0.1942 (103)
           0.1941 (104) -0.3788 (105)  0.1942 (106)  0.1941 (107) -0.3794 (108)
 CRD 65=  -0.1084 ( 25)  0.1084 ( 42)  0.1545 ( 67) -0.1543 ( 71) -0.2293 ( 75)
          -0.1526 ( 76) -0.1026 ( 77)  0.2027 ( 78)  0.2027 ( 80)  0.2295 ( 82)
           0.1523 ( 83) -0.2027 ( 84) -0.2028 ( 85)  0.1026 ( 87)  0.1544 ( 88)
          -0.1545 ( 92) -0.1578 ( 93) -0.2260 ( 95) -0.1025 ( 97)  0.1025 ( 98)
           0.2261 ( 99)  0.1576 (102)  0.2588 (103) -0.2585 (104) -0.2588 (106)
           0.2585 (107)
 CRD 66=   0.2794 ( 69) -0.2793 ( 72) -0.1692 ( 75) -0.1295 ( 76) -0.2750 ( 78)
           0.2750 ( 80) -0.1692 ( 82) -0.1293 ( 83) -0.2750 ( 84)  0.2750 ( 85)
           0.1318 ( 93)  0.1677 ( 95)  0.1677 ( 99)  0.1317 (102)  0.2275 (103)
          -0.2274 (104) -0.2061 (105)  0.2275 (106) -0.2274 (107)  0.2060 (108)

 THE DETERMINANT OF THE G MATRIX IS 10**(   -27)


                     --------------------
                     INTERNAL COORDINATES
                     --------------------

                 - - ATOMS - -         COORDINATE      COORDINATE
 NO.   TYPE    I  J  K  L  M  N        (BOHR,RAD)       (ANG,DEG)
 ----------------------------------------------------------------
   1 STRETCH   1  2                     2.6453541       1.3998612
   2 STRETCH   1  7                     2.8479686       1.5070802
   3 STRETCH   1  6                     2.6454609       1.3999177
   4 STRETCH   2  3                     2.6396789       1.3968580
   5 STRETCH   2  8                     2.0556075       1.0877807
   6 STRETCH   3  4                     2.6454618       1.3999182
   7 STRETCH   3  9                     2.0554086       1.0876755
   8 STRETCH   4  5                     2.6453584       1.3998635
   9 STRETCH   4 10                     2.8481001       1.5071498
  10 STRETCH   5 11                     2.0555277       1.0877385
  11 STRETCH   5  6                     2.6395217       1.3967748
  12 STRETCH   6 12                     2.0554690       1.0877074
  13 STRETCH   7 21                     2.0726273       1.0967872
  14 STRETCH   7 20                     2.8742920       1.5210099
  15 STRETCH   7 19                     2.0727739       1.0968648
  16 STRETCH  10 15                     2.8742001       1.5209613
  17 STRETCH  10 14                     2.0726761       1.0968130
  18 STRETCH  10 13                     2.0725777       1.0967610
  19 STRETCH  15 18                     2.0685523       1.0946308
  20 STRETCH  15 17                     2.0699022       1.0953452
  21 STRETCH  15 16                     2.0697956       1.0952888
  22 STRETCH  20 24                     2.0685510       1.0946301
  23 STRETCH  20 23                     2.0699042       1.0953462
  24 STRETCH  20 22                     2.0697049       1.0952407
  25 BEND      1  7 20                  1.9518427     111.8323500
  26 BEND      1  7 19                  1.9145181     109.6938081
  27 BEND      1  6 12                  2.0993009     120.2810832
  28 BEND      1  2  3                  2.1036302     120.5291311
  29 BEND      1  7 21                  1.9132157     109.6191851
  30 BEND      1  6  5                  2.1035402     120.5239728
  31 BEND      1  2  8                  2.0994947     120.2921863
  32 BEND      2  3  9                  2.0801262     119.1824517
  33 BEND      2  1  7                  2.1037233     120.5344672
  34 BEND      2  1  6                  2.0760019     118.9461473
  35 BEND      2  3  4                  2.1034753     120.5202583
  36 BEND      3  2  8                  2.0800600     119.1786609
  37 BEND      3  4  5                  2.0760298     118.9477440
  38 BEND      3  4 10                  2.1036779     120.5318669
  39 BEND      4  3  9                  2.0995834     120.2972689
  40 BEND      4 10 13                  1.9131540     109.6156515
  41 BEND      4 10 14                  1.9145775     109.6972083
  42 BEND      4 10 15                  1.9516986     111.8240922
  43 BEND      4  5  6                  2.1036359     120.5294582
  44 BEND      4  5 11                  2.0992196     120.2764221
  45 BEND      5  4 10                  2.1032688     120.5084232
  46 BEND      5  6 12                  2.0803439     119.1949229
  47 BEND      6  5 11                  2.0803296     119.1941068
  48 BEND      6  1  7                  2.1032481     120.5072389
  49 BEND      7 20 22                  1.9419292     111.2643494
  50 BEND      7 20 23                  1.9421178     111.2751508
  51 BEND      7 20 24                  1.9236724     110.2183099
  52 BEND     10 15 16                  1.9420820     111.2731036
  53 BEND     10 15 17                  1.9423445     111.2881434
  54 BEND     10 15 18                  1.9236790     110.2186857
  55 BEND     13 10 14                  1.8506854     106.0364635
  56 BEND     13 10 15                  1.9159507     109.7758870
  57 BEND     14 10 15                  1.9150700     109.7254298
  58 BEND     16 15 17                  1.8822954     107.8475802
  59 BEND     16 15 18                  1.8858433     108.0508616
  60 BEND     17 15 18                  1.8855289     108.0328465
  61 BEND     19  7 20                  1.9150456     109.7240287
  62 BEND     19  7 21                  1.8505536     106.0289110
  63 BEND     20  7 21                  1.9159456     109.7755983
  64 BEND     22 20 23                  1.8824446     107.8561331
  65 BEND     22 20 24                  1.8859906     108.0593020
  66 BEND     23 20 24                  1.8856389     108.0391531
  67 TORSION   1  2  3  9               3.1339522     179.5622358
  68 TORSION   1  7 20 24               3.1399613     179.9065291
  69 TORSION   1  2  3  4              -0.0085589      -0.4903879
  70 TORSION   1  7 20 22               1.0480832      60.0507467
  71 TORSION   1  6  5 11              -3.1344263    -179.5893993
  72 TORSION   1  6  5  4               0.0078842       0.4517322
  73 TORSION   1  7 20 23              -1.0516647     -60.2559473
  74 TORSION   2  1  7 21               2.5734101     147.4455378
  75 TORSION   2  1  7 19               0.5481943      31.4092212
  76 TORSION   2  1  7 20              -1.5806720     -90.5658368
  77 TORSION   2  3  4 10               3.1279688     179.2194097
  78 TORSION   2  3  4  5               0.0082263       0.4713315
  79 TORSION   2  1  6 12               3.1345616     179.5971511
  80 TORSION   2  1  6  5              -0.0079594      -0.4560402
  81 TORSION   3  4 10 13               2.5716964     147.3473525
  82 TORSION   3  4 10 14               0.5463231      31.3020060
  83 TORSION   3  4 10 15              -1.5825188     -90.6716468
  84 TORSION   3  2  1  6               0.0082950       0.4752666
  85 TORSION   3  4  5  6              -0.0078919      -0.4521741
  86 TORSION   3  4  5 11               3.1344264     179.5894036
  87 TORSION   3  2  1  7               3.1278729     179.2139170
  88 TORSION   4  5  6 12              -3.1346268    -179.6008862
  89 TORSION   4 10 15 16               1.0479947      60.0456705
  90 TORSION   4 10 15 17              -1.0518213     -60.2649218
  91 TORSION   4 10 15 18               3.1397914     179.8967934
  92 TORSION   4  3  2  8               3.1339665     179.5630512
  93 TORSION   5  4 10 15               1.5368811      88.0568012
  94 TORSION   5  4 10 14              -2.6174624    -149.9695459
  95 TORSION   5  4 10 13              -0.5920890     -33.9241995
  96 TORSION   5  4  3  9              -3.1342951    -179.5818805
  97 TORSION   5  6  1  7              -3.1275435    -179.1950440
  98 TORSION   6  5  4 10              -3.1276397    -179.2005542
  99 TORSION   6  1  7 21              -0.5905425     -33.8355940
 100 TORSION   6  1  7 19              -2.6157583    -149.8719105
 101 TORSION   6  1  2  8              -3.1342408    -179.5787691
 102 TORSION   6  1  7 20               1.5385606      88.1530314
 103 TORSION   7  1  2  8              -0.0146628      -0.8401187
 104 TORSION   7  1  6 12               0.0149775       0.8581473
 105 TORSION   8  2  3  9              -0.0067077      -0.3843251
 106 TORSION   9  3  4 10              -0.0145526      -0.8338023
 107 TORSION  10  4  5 11               0.0146786       0.8410235
 108 TORSION  11  5  6 12               0.0062480       0.3579823
 109 TORSION  13 10 15 18              -1.0160300     -58.2142321
 110 TORSION  13 10 15 17               1.0755426      61.6240527
 111 TORSION  13 10 15 16              -3.1078267    -178.0653550
 112 TORSION  14 10 15 18               1.0112323      57.9393433
 113 TORSION  14 10 15 17               3.1028049     177.7776281
 114 TORSION  14 10 15 16              -1.0805644     -61.9117795
 115 TORSION  19  7 20 24               1.0113977      57.9488186
 116 TORSION  19  7 20 23               3.1029570     177.7863422
 117 TORSION  19  7 20 22              -1.0804803     -61.9069638
 118 TORSION  21  7 20 24              -1.0156883     -58.1946541
 119 TORSION  21  7 20 23               1.0758710      61.6428695
 120 TORSION  21  7 20 22              -3.1075664    -178.0504365

     ------------------------------------------
     THE POINT GROUP IS C1 , NAXIS= 1, ORDER= 1
     ------------------------------------------

     DIMENSIONS OF THE SYMMETRY SUBSPACES ARE
 A   =  274

 ..... DONE SETTING UP THE RUN .....
 STEP CPU TIME =     0.02 TOTAL CPU TIME =        0.0 (    0.0 MIN)
 TOTAL WALL CLOCK TIME=        0.0 SECONDS, CPU UTILIZATION IS 100.00%


          -----------------------------
          STATIONARY POINT LOCATION RUN
          -----------------------------

 OBTAINING INITIAL HESSIAN, HESS=GUESS   
 DIAGONAL GUESS HESSIAN IN INTERNAL COORDS IS
     1  0.4729     2  0.3839     3  0.4728     4  0.4756     5  0.3479
     6  0.4728     7  0.3479     8  0.4729     9  0.3838    10  0.3479
    11  0.4757    12  0.3479    13  0.3418    14  0.3736    15  0.3418
    16  0.3737    17  0.3418    18  0.3418    19  0.3433    20  0.3428
    21  0.3428    22  0.3433    23  0.3428    24  0.3429    25  0.2507
    26  0.2250    27  0.2322    28  0.2681    29  0.2250    30  0.2681
    31  0.2322    32  0.2324    33  0.2596    34  0.2678    35  0.2681
    36  0.2324    37  0.2678    38  0.2596    39  0.2322    40  0.2250
    41  0.2250    42  0.2507    43  0.2681    44  0.2322    45  0.2596
    46  0.2324    47  0.2324    48  0.2596    49  0.2243    50  0.2243
    51  0.2243    52  0.2243    53  0.2243    54  0.2243    55  0.2027
    56  0.2242    57  0.2242    58  0.2029    59  0.2029    60  0.2029
    61  0.2242    62  0.2027    63  0.2242    64  0.2029    65  0.2029
    66  0.2029    67  0.2500    68  0.2500    69  0.2500    70  0.2500
    71  0.2500    72  0.2500    73  0.2500    74  0.2500    75  0.2500
    76  0.2500    77  0.2500    78  0.2500    79  0.2500    80  0.2500
    81  0.2500    82  0.2500    83  0.2500    84  0.2500    85  0.2500
    86  0.2500    87  0.2500    88  0.2500    89  0.2500    90  0.2500
    91  0.2500    92  0.2500    93  0.2500    94  0.2500    95  0.2500
    96  0.2500    97  0.2500    98  0.2500    99  0.2500   100  0.2500
   101  0.2500   102  0.2500   103  0.2500   104  0.2500   105  0.2500
   106  0.2500   107  0.2500   108  0.2500   109  0.2500   110  0.2500
   111  0.2500   112  0.2500   113  0.2500   114  0.2500   115  0.2500
   116  0.2500   117  0.2500   118  0.2500   119  0.2500   120  0.2500
 TRANSFORMING HESSIAN TO SYMMETRY COORDINATES

          PARAMETERS CONTROLLING GEOMETRY SEARCH ARE
          METHOD =QA                  UPHESS =BFGS    
          NNEG   =         0          NFRZ   =         3
          NSTEP  =        50          IFOLOW =         1
          HESS   =GUESS               RESTAR =         F
          IHREP  =         0          HSSEND =         F
          NPRT   =         0          NPUN   =         0
          OPTTOL = 5.000E-04          RMIN   = 1.500E-03
          RMAX   = 1.000E-01          RLIM   = 7.000E-02
          DXMAX  = 3.000E-01          PURIFY =         F
          MOVIE  =         F          TRUPD  =         T
          TRMAX  = 5.000E-01          TRMIN  = 5.000E-02
          ITBMAT =         5          STPT   =         F
          STSTEP = 1.000E-02          PROJCT=          F
          FROZEN COORD(S)=   1   2   3


      ***** EQUILIBRIUM GEOMETRY LOCATED *****
            (SUBJECT TO   3 CONSTRAINT(S))
 COORDINATES OF ALL ATOMS ARE (ANGS)
   ATOM   CHARGE       X              Y              Z
 ------------------------------------------------------------
 C           6.0   0.4403203968  -1.3225240692   0.1384159984
 C           6.0  -0.3322450339  -0.7623338675  -0.8718165161
 C           6.0  -0.7884558892   0.5436074937  -0.7836216252
 C           6.0  -0.4856199490   1.3369439044   0.3164526424
 C           6.0   0.2873823208   0.7764187276   1.3271747306
 C           6.0   0.7433335615  -0.5287041716   1.2390100389
 C           6.0   0.8933216542  -2.7644695697   0.0684264795
 H           1.0  -0.5852811927  -1.3510832568  -1.7374675200
 H           1.0  -1.3845108030   0.9482897212  -1.5842238771
 C           6.0  -0.9373871672   2.7791473314   0.3889374760
 H           1.0   0.5402084015   1.3653023701   2.1928339932
 H           1.0   1.3396085637  -0.9334932144   2.0394225809
 H           1.0  -1.1218906402   3.0478123815   1.4248924382
 H           1.0  -1.8791742285   2.8890275253  -0.1403280917
 C           6.0   0.0963320738   3.7410444453  -0.2087049627
 H           1.0   0.2818772426   3.5057965725  -1.2529863028
 H           1.0   1.0416872211   3.6682993849   0.3216195261
 H           1.0  -0.2494477820   4.7688173372  -0.1477742854
 H           1.0   1.0376371559  -3.0470918780  -0.9700655036
 C           6.0  -0.1130401751  -3.7204370933   0.7198531940
 H           1.0   1.8556669383  -2.8646527498   0.5616599969
 H           1.0  -1.0796977841  -3.6545281636   0.2284025256
 H           1.0  -0.2554376649  -3.4736248465   1.7682042019
 H           1.0   0.2314476386  -4.7484893980   0.6563647732


                     --------------------
                     INTERNAL COORDINATES
                     --------------------

                 - - ATOMS - -         COORDINATE      COORDINATE
 NO.   TYPE    I  J  K  L  M  N        (BOHR,RAD)       (ANG,DEG)
 ----------------------------------------------------------------
   1 STRETCH   1  2                     2.6261346       1.3896907
   2 STRETCH   1  7                     2.8592469       1.5130484
   3 STRETCH   1  6                     2.6275172       1.3904223
   4 STRETCH   2  3                     2.6194285       1.3861420
   5 STRETCH   2  8                     2.0353014       1.0770352
   6 STRETCH   3  4                     2.6261451       1.3896962
   7 STRETCH   3  9                     2.0353087       1.0770391
   8 STRETCH   4  5                     2.6275212       1.3904244
   9 STRETCH   4 10                     2.8592362       1.5130428
  10 STRETCH   5 11                     2.0353594       1.0770659
  11 STRETCH   5  6                     2.6178062       1.3852835
  12 STRETCH   6 12                     2.0353483       1.0770600
  13 STRETCH   7 21                     2.0522671       1.0860131
  14 STRETCH   7 20                     2.8975082       1.5332954
  15 STRETCH   7 19                     2.0520440       1.0858950
  16 STRETCH  10 15                     2.8975102       1.5332965
  17 STRETCH  10 14                     2.0520358       1.0858907
  18 STRETCH  10 13                     2.0522678       1.0860134
  19 STRETCH  15 18                     2.0524141       1.0860909
  20 STRETCH  15 17                     2.0529699       1.0863850
  21 STRETCH  15 16                     2.0530219       1.0864125
  22 STRETCH  20 24                     2.0524148       1.0860912
  23 STRETCH  20 23                     2.0529707       1.0863854
  24 STRETCH  20 22                     2.0530242       1.0864137
  25 BEND      1  7 20                  1.9584480     112.2108049
  26 BEND      1  7 19                  1.9092870     109.3940847
  27 BEND      1  6 12                  2.0878494     119.6249596
  28 BEND      1  2  3                  2.1135503     121.0975123
  29 BEND      1  7 21                  1.9094400     109.4028524
  30 BEND      1  6  5                  2.1135919     121.0998945
  31 BEND      1  2  8                  2.0880891     119.6386952
  32 BEND      2  3  9                  2.0815601     119.2646098
  33 BEND      2  1  7                  2.1141117     121.1296770
  34 BEND      2  1  6                  2.0560473     117.8028304
  35 BEND      2  3  4                  2.1135380     121.0968099
  36 BEND      3  2  8                  2.0815402     119.2634660
  37 BEND      3  4  5                  2.0560525     117.8031306
  38 BEND      3  4 10                  2.1141386     121.1312167
  39 BEND      4  3  9                  2.0880814     119.6382490
  40 BEND      4 10 13                  1.9094620     109.4041109
  41 BEND      4 10 14                  1.9092831     109.3938616
  42 BEND      4 10 15                  1.9584278     112.2096487
  43 BEND      4  5  6                  2.1135841     121.0994514
  44 BEND      4  5 11                  2.0878555     119.6253096
  45 BEND      5  4 10                  2.1123053     121.0261814
  46 BEND      5  6 12                  2.0817388     119.2748445
  47 BEND      6  5 11                  2.0817404     119.2749376
  48 BEND      6  1  7                  2.1123391     121.0281181
  49 BEND      7 20 22                  1.9326189     110.7309066
  50 BEND      7 20 23                  1.9330308     110.7545085
  51 BEND      7 20 24                  1.9360020     110.9247455
  52 BEND     10 15 16                  1.9325984     110.7297307
  53 BEND     10 15 17                  1.9330509     110.7556556
  54 BEND     10 15 18                  1.9360087     110.9251267
  55 BEND     13 10 14                  1.8676972     107.0111659
  56 BEND     13 10 15                  1.9083202     109.3386920
  57 BEND     14 10 15                  1.9084306     109.3450165
  58 BEND     16 15 17                  1.8818994     107.8248910
  59 BEND     16 15 18                  1.8893659     108.2526893
  60 BEND     17 15 18                  1.8891682     108.2413673
  61 BEND     19  7 20                  1.9084414     109.3456390
  62 BEND     19  7 21                  1.8677070     107.0117301
  63 BEND     20  7 21                  1.9082969     109.3373589
  64 BEND     22 20 23                  1.8819054     107.8252354
  65 BEND     22 20 24                  1.8893567     108.2521625
  66 BEND     23 20 24                  1.8891779     108.2419218
  67 TORSION   1  2  3  9               3.1406903     179.9482965
  68 TORSION   1  7 20 24               3.1397779     179.8960248
  69 TORSION   1  2  3  4               0.0027661       0.1584882
  70 TORSION   1  7 20 22               1.0416333      59.6811929
  71 TORSION   1  6  5 11              -3.1409148    -179.9611628
  72 TORSION   1  6  5  4              -0.0028217      -0.1616727
  73 TORSION   1  7 20 23              -1.0452145     -59.8863791
  74 TORSION   2  1  7 21               2.5913690     148.4745087
  75 TORSION   2  1  7 19               0.5506291      31.5487224
  76 TORSION   2  1  7 20              -1.5706320     -89.9905856
  77 TORSION   2  3  4 10               3.0994535     177.5856048
  78 TORSION   2  3  4  5              -0.0026521      -0.1519549
  79 TORSION   2  1  6 12               3.1408383     179.9567760
  80 TORSION   2  1  6  5               0.0027571       0.1579717
  81 TORSION   3  4 10 13               2.5898165     148.3855560
  82 TORSION   3  4 10 14               0.5490781      31.4598557
  83 TORSION   3  4 10 15              -1.5721532     -90.0777408
  84 TORSION   3  2  1  6              -0.0027290      -0.1563596
  85 TORSION   3  4  5  6               0.0026803       0.1535672
  86 TORSION   3  4  5 11               3.1407612     179.9523638
  87 TORSION   3  2  1  7               3.0994258     177.5840185
  88 TORSION   4  5  6 12              -3.1409149    -179.9611700
  89 TORSION   4 10 15 16               1.0414515      59.6707752
  90 TORSION   4 10 15 17              -1.0453885     -59.8963466
  91 TORSION   4 10 15 18               3.1395985     179.8857422
  92 TORSION   4  3  2  8               3.1407174     179.9498492
  93 TORSION   5  4 10 15               1.5286789      87.5868483
  94 TORSION   5  4 10 14              -2.6332752    -150.8755553
  95 TORSION   5  4 10 13              -0.5925367     -33.9498550
  96 TORSION   5  4  3  9              -3.1405627    -179.9409877
  97 TORSION   5  6  1  7              -3.0994398    -177.5848205
  98 TORSION   6  5  4 10              -3.0994690    -177.5864923
  99 TORSION   6  1  7 21              -0.5909344     -33.8580467
 100 TORSION   6  1  7 19              -2.6316743    -150.7838330
 101 TORSION   6  1  2  8              -3.1406667    -179.9469476
 102 TORSION   6  1  7 20               1.5302499      87.6768590
 103 TORSION   7  1  2  8              -0.0385119      -2.2065695
 104 TORSION   7  1  6 12               0.0386413       2.2139838
 105 TORSION   8  2  3  9              -0.0045438      -0.2603425
 106 TORSION   9  3  4 10              -0.0384571      -2.2034280
 107 TORSION  10  4  5 11               0.0386120       2.2123044
 108 TORSION  11  5  6 12               0.0041773       0.2393399
 109 TORSION  13 10 15 18              -1.0217175     -58.5401018
 110 TORSION  13 10 15 17               1.0764808      61.6778094
 111 TORSION  13 10 15 16              -3.1198645    -178.7550688
 112 TORSION  14 10 15 18               1.0178792      58.3201804
 113 TORSION  14 10 15 17               3.1160775     178.5380916
 114 TORSION  14 10 15 16              -1.0802678     -61.8947865
 115 TORSION  19  7 20 24               1.0180328      58.3289813
 116 TORSION  19  7 20 23               3.1162256     178.5465774
 117 TORSION  19  7 20 22              -1.0801119     -61.8858506
 118 TORSION  21  7 20 24              -1.0215687     -58.5315742
 119 TORSION  21  7 20 23               1.0766242      61.6860219
 120 TORSION  21  7 20 22              -3.1197133    -178.7464061

          INTERNUCLEAR DISTANCES (ANGS.)


 =====================================================
   GAMESS/COSab RESULTS
 =====================================================

   Dielectric Constant                  = INFTY
   Basic Grid Size                      =                 1082
   Number of Segments                   =                   92
   Number of Segments located on spheres=                  315
   Number of Segments of the cavity     =                  829
   Solvent Radius (rsolv)               = 1.40
   Outlying Charge Error Method         = double cavity

 =====================================================

  Total solvated Energy (a.u.)          =  -386.9396895444
  Total Energy corrected (a.u.)         =  -386.9396791140

  Outlying charge effect (a.u.)         =     0.0000104304
  Outlying charge effect (kcal/mol)     =     0.0065452031

  Dielectric Energy (a.u.)              =    -0.0066492089
  Dielectric energy corr. (a.u.)        =    -0.0066387784

  Sum of polarization charges           =     0.0300308292
  Sum of polarization charges(cor.)     =    -0.0300308292

  Total surface area of cavity (A**2)   =  194.22
  Total volume of cavity (A**3)         =  196.45

 =====================================================
 NPS=                   829
NR.  ATOM  (X, Y, Z)(a.u.)                  CHARGE(e)  AREA(A**2) SIGMA(e/A**2)
   1   1   3.673738  -0.657477  -1.416923   0.003110   0.371649   0.008368
   2   1   3.812398  -1.888830  -1.981087   0.001840   0.371649   0.004950
   3   1   4.356109  -1.672423  -0.825625   0.001741   0.371649   0.004684
   4   1  -2.520644  -2.688213   1.995832   0.000386   0.046456   0.008308
   5   2   2.600012   0.267124  -2.621563   0.001153   0.139368   0.008271
   6   2   0.529363  -0.322278  -5.067213   0.000994   0.278737   0.003568
   7   2  -4.039791  -3.058338  -1.486612   0.000951   0.185824   0.005115
   8   2  -3.786034  -3.275650  -2.618461   0.000668   0.232280   0.002877
   9   2   0.280200  -1.079537  -5.298434   0.000693   0.278737   0.002485
  10   2  -3.491335  -1.625085  -4.107313  -0.000095   0.092912  -0.001019
  11   2  -0.667678  -0.605122  -5.333232   0.000260   0.185824   0.001396
  12   2   1.335104  -1.016376  -4.849231   0.001417   0.325193   0.004359
  13   2   1.908158  -2.020812  -4.389084   0.001073   0.278737   0.003850
  14   2  -4.204295  -2.467422  -2.310043   0.001371   0.325193   0.004214
  15   2  -4.124372  -1.890064  -3.010067   0.000520   0.139368   0.003728
  16   2   1.714937  -0.158967  -4.322007   0.002342   0.325193   0.007203
  17   2   2.335613   0.050925  -3.457875   0.001399   0.232280   0.006023
  18   2   2.692598  -0.552046  -3.218910   0.002001   0.232280   0.008617
  19   2   2.570798  -1.726357  -3.640300   0.001465   0.278737   0.005256
  20   2  -4.209220  -2.419375  -0.940344   0.002359   0.371649   0.006346
  21   2   1.237685  -2.120009  -4.863468   0.000813   0.278737   0.002917
  22   2  -1.448922  -0.693787  -5.260303  -0.000071   0.092912  -0.000765
  23   2  -3.877345  -2.383491  -3.331547   0.000254   0.185824   0.001369
  24   2  -3.687699  -2.131553   0.460624   0.003148   0.325193   0.009681
  25   2   2.230516  -1.034421  -4.086558   0.001445   0.278737   0.005184
  26   3   2.151047   1.596429  -2.319449   0.000232   0.046456   0.004986
  27   3  -0.277871   1.351515  -5.045924   0.001194   0.278737   0.004285
  28   3  -5.229692   0.633960  -1.101265   0.001661   0.371649   0.004470
  29   3  -5.230736   1.443168  -1.824279   0.000782   0.278737   0.002804
  30   3  -4.145890  -0.348101  -3.791396   0.000101   0.092912   0.001086
  31   3  -1.179384   1.078794  -5.247142   0.000423   0.278737   0.001517
  32   3   0.166642   2.079656  -4.710741   0.001053   0.232280   0.004532
  33   3  -4.670460  -0.227432  -3.091571   0.000541   0.278737   0.001940
  34   3  -4.978561  -0.336530  -1.984885   0.001657   0.371649   0.004458
  35   3  -5.174425   1.714356  -0.994037   0.000634   0.185824   0.003414
  36   3   1.919298   1.931513  -2.838568   0.001538   0.139368   0.011034
  37   3   1.599185   1.918090  -3.467730   0.001634   0.185824   0.008791
  38   3   0.775767   1.483043  -4.471302   0.000726   0.185824   0.003909
  39   3  -4.863337  -0.419409  -0.579820   0.003399   0.511017   0.006651
  40   3  -4.973240   0.899515  -0.019736   0.002491   0.418105   0.005959
  41   3  -5.122876   0.568719  -2.416777   0.000874   0.278737   0.003134
  42   3  -0.488855   2.487122  -4.820111   0.000662   0.232280   0.002849
  43   3  -4.298235  -0.326411   0.655875   0.003572   0.464561   0.007690
  44   3   1.065808   2.027349  -4.079300   0.001417   0.232280   0.006100
  45   4  -3.780714   0.679828   2.234282   0.002916   0.371649   0.007845
  46   4  -4.423932   1.801778   1.808565   0.001976   0.371649   0.005318
  47   4  -3.800516   1.838413   2.943272   0.001807   0.371649   0.004862
  48   4   2.438830   2.716553  -1.128781   0.000386   0.046456   0.008313
  49   5   3.287233   2.165628   0.004784   0.001026   0.092912   0.011045
  50   5   4.144234   2.170479   3.414273   0.000651   0.232280   0.002802
  51   5  -1.756619   1.225902   5.497553   0.001672   0.371649   0.004499
  52   5  -0.878237   1.549999   6.009039   0.000657   0.232280   0.002827
  53   5   3.869647   2.535735   3.948988   0.000409   0.185824   0.002203
  54   5   1.236678   0.821887   6.166783  -0.000128   0.092912  -0.001375
  55   5   3.773897   1.853712   4.430669   0.000253   0.185824   0.001360
  56   5   4.004714   2.972164   2.698963   0.000985   0.232280   0.004243
  57   5  -2.232730   2.075451   4.999833   0.001166   0.278737   0.004183
  58   5  -0.844691   0.594478   5.913387   0.001436   0.325193   0.004416
  59   5   0.022763   0.379822   6.090048   0.000532   0.139368   0.003820
  60   5   4.190170   2.385919   2.135241   0.002047   0.278737   0.007343
  61   5   3.769051   2.226916   0.691355   0.001597   0.232280   0.006874
  62   5  -2.652563   1.113929   4.494792   0.003264   0.511017   0.006388
  63   5  -1.833379   0.108412   5.113829   0.002351   0.418105   0.005622
  64   5  -1.443281   2.457906   5.566955   0.000643   0.278737   0.002308
  65   5   3.743760   3.245521   3.444767   0.000567   0.185824   0.003051
  66   5   3.376618   1.491361   5.008937  -0.000072   0.092912  -0.000773
  67   5   0.100512   0.997608   6.231955   0.000327   0.185824   0.001761
  68   5  -2.659020  -0.062408   3.808411   0.003878   0.464561   0.008347
  69   5   3.995464   2.582895   1.449442   0.001136   0.139368   0.008155
  70   6  -2.162875  -1.875946   3.228941   0.001026   0.092912   0.011045
  71   6   0.062785  -1.212475   5.868132   0.000651   0.232280   0.002801
  72   6   5.139539  -0.446703   2.167793   0.001671   0.371649   0.004497
  73   6   5.058468  -0.597924   3.220776   0.000656   0.232280   0.002825
  74   6   0.686063  -1.502141   6.017623   0.000409   0.185824   0.002201
  75   6   3.869248   0.330919   4.879359  -0.000128   0.092912  -0.001375
  76   6   1.068332  -0.758008   6.098105   0.000253   0.185824   0.001362
  77   6  -0.356927  -2.135397   5.486176   0.000986   0.232280   0.004244
  78   6   5.097559  -1.408577   1.648973   0.001166   0.278737   0.004182
  79   6   4.877383   0.325607   3.026885   0.001436   0.325193   0.004415
  80   6   4.486768   0.643658   3.785849   0.000532   0.139368   0.003820
  81   6  -0.970284  -1.641917   5.210259   0.002046   0.278737   0.007341
  82   6  -1.892301  -1.774109   4.018689   0.001596   0.232280   0.006870
  83   6   4.856091  -0.590437   0.856389   0.003264   0.511017   0.006386
  84   6   4.778522   0.575872   1.692475   0.002350   0.418105   0.005621
  85   6   5.118850  -1.615248   2.672674   0.000643   0.278737   0.002307
  86   6   0.419309  -2.297049   5.751451   0.000568   0.185824   0.003055
  87   6   1.734683  -0.337336   6.047785  -0.000072   0.092912  -0.000775
  88   6   4.609180   0.069270   4.036721   0.000327   0.185824   0.001761
  89   6   4.205735   0.443501   0.253944   0.003878   0.464561   0.008349
  90   6  -1.387231  -1.971499   4.695905   0.001137   0.139368   0.008157
  91   7   4.708554  -3.843246  -1.674741   0.000478   0.232280   0.002056
  92   7   4.656699  -7.362526  -0.818866   0.001062   0.325193   0.003267
  93   7   4.391514  -7.126132  -1.703256   0.000860   0.278737   0.003084
  94   7   4.230261  -4.185289  -2.467373   0.000640   0.371649   0.001722
  95   7   5.097518  -4.737277  -1.427416   0.001501   0.418105   0.003589
  96   7   5.023435  -6.282276  -1.299087   0.001390   0.325193   0.004275
  97   7   3.777298  -8.146213  -1.045818   0.000816   0.418105   0.001952
  98   7   5.042436  -3.707186  -0.726211   0.000584   0.325193   0.001796
  99   7   4.177259  -8.067869   0.168057   0.000486   0.325193   0.001494
 100   7   2.875383  -8.328501  -1.669972   0.000086   0.185824   0.000461
 101   7   4.865138  -5.507734  -1.898124   0.001051   0.278737   0.003771
 102   8  -1.887722  -3.457463  -5.429564  -0.003283   0.412182  -0.007966
 103   8  -0.905238  -2.191731  -5.704926  -0.002008   0.392554  -0.005115
 104   8  -2.949794  -2.474806  -4.904899  -0.001843   0.294415  -0.006259
 105   8  -3.081096  -3.873316  -3.908993  -0.001773   0.314043  -0.005644
 106   8   0.077468  -3.181644  -5.342323  -0.001943   0.353299  -0.005499
 107   8  -2.095000  -2.226952  -5.508325  -0.003057   0.431809  -0.007079
 108   8  -2.972912  -3.365558  -4.658062  -0.002422   0.392554  -0.006170
 109   8  -2.065574  -4.436444  -4.535402  -0.004264   0.471065  -0.009052
 110   8  -0.938871  -4.183614  -5.113311  -0.003464   0.372926  -0.009290
 111   8  -0.798366  -3.189175  -5.636188  -0.001889   0.274788  -0.006875
 112   9  -3.949825   2.446838  -4.950314  -0.003664   0.451437  -0.008116
 113   9  -5.029663   1.844148  -3.450131  -0.001754   0.372926  -0.004704
 114   9  -3.751258   0.792075  -4.929515  -0.002324   0.333671  -0.006966
 115   9  -2.216568   1.946115  -5.412743  -0.001324   0.314043  -0.004215
 116   9  -3.560318   3.475799  -4.513255  -0.004172   0.451437  -0.009242
 117   9  -4.682750   2.758656  -3.905170  -0.003242   0.392554  -0.008258
 118   9  -4.585839   1.308951  -4.380417  -0.003181   0.510320  -0.006233
 119   9  -3.158340   1.520546  -5.374431  -0.003164   0.451437  -0.007009
 120   9  -2.493956   2.975417  -5.143094  -0.003592   0.490692  -0.007321
 121  10  -3.730904   8.389874   1.507783   0.000403   0.278737   0.001445
 122  10  -5.316407   5.069679   2.032655   0.001379   0.371649   0.003709
 123  10  -4.905198   5.606636   2.817677   0.000977   0.278737   0.003506
 124  10  -3.513893   8.132393   2.452614   0.000290   0.278737   0.001041
 125  10  -4.519921   7.702211   1.586719   0.001097   0.371649   0.002951
 126  10  -5.138966   6.379265   2.028267   0.001385   0.325193   0.004259
 127  10  -4.937697   4.384691   2.607639   0.000587   0.232280   0.002529
 128  10  -4.446927   3.657856   2.876248   0.000292   0.139368   0.002095
 129  10  -4.289208   8.061362   0.508316   0.000340   0.278737   0.001219
 130  10  -5.236397   3.851965   1.299255   0.000361   0.185824   0.001941
 131  10  -4.373427   4.203161   3.267561   0.000415   0.232280   0.001785
 132  10  -4.625852   7.191058   2.276308   0.000957   0.278737   0.003433
 133  10  -4.994892   3.730059   1.990983   0.000383   0.232280   0.001649
 134  11   1.818670   3.679498   6.190751  -0.003646   0.451437  -0.008078
 135  11   3.092133   3.120805   5.349025  -0.002222   0.412182  -0.005392
 136  11   1.679962   2.009720   6.440684  -0.001986   0.333671  -0.005953
 137  11  -0.132301   3.016348   6.268714  -0.001601   0.333671  -0.004799
 138  11   2.496310   2.576389   6.108060  -0.003268   0.451437  -0.007238
 139  11   0.830710   2.617747   6.592846  -0.002991   0.471065  -0.006350
 140  11   0.506159   3.899080   6.151430  -0.003439   0.412182  -0.008344
 141  11   1.553562   4.555220   5.503997  -0.004086   0.431809  -0.009462
 142  11   2.751165   4.079227   5.034654  -0.003037   0.431809  -0.007034
 143  12   3.797122  -2.416126   5.855965  -0.003647   0.451437  -0.008078
 144  12   2.319762  -1.901609   6.297588  -0.002221   0.412182  -0.005389
 145  12   3.931648  -0.747267   5.597750  -0.001986   0.333671  -0.005953
 146  12   4.955077  -1.924947   4.221947  -0.001601   0.333671  -0.004799
 147  12   3.232314  -1.288545   6.160000  -0.003268   0.451437  -0.007238
 148  12   4.609825  -1.392399   5.109938  -0.002991   0.471065  -0.006350
 149  12   4.561525  -2.754565   4.819822  -0.003438   0.412182  -0.008341
 150  12   3.481145  -3.417825   5.402579  -0.004085   0.431809  -0.009460
 151  12   2.354398  -2.926445   6.010931  -0.003040   0.431809  -0.007041
 152  13  -2.679956   6.546248   4.951559  -0.002433   0.431809  -0.005634
 153  13  -1.024568   7.008967   4.502043  -0.001559   0.353299  -0.004412
 154  13  -3.598522   4.903237   4.457865  -0.001256   0.353299  -0.003555
 155  13  -4.193679   6.203041   3.933003  -0.000722   0.333671  -0.002164
 156  13  -2.957949   7.839572   3.695872  -0.001036   0.353299  -0.002933
 157  13  -1.586045   6.354604   5.015536  -0.002032   0.333671  -0.006091
 158  13  -2.572816   5.408555   5.081563  -0.002090   0.333671  -0.006262
 159  13  -3.613669   5.827340   4.641908  -0.001379   0.314043  -0.004391
 160  13  -3.613598   7.083045   4.125386  -0.001672   0.431809  -0.003871
 161  13  -2.149536   7.581254   4.340541  -0.001811   0.451437  -0.004012
 162  14  -5.782968   6.099212  -1.068112  -0.002511   0.451437  -0.005562
 163  14  -4.320546   6.045941  -2.523303  -0.001051   0.235532  -0.004463
 164  14  -4.831015   7.283532  -1.299465  -0.001349   0.333671  -0.004044
 165  14  -5.763977   6.349780   0.322810  -0.000983   0.353299  -0.002781
 166  14  -5.758885   4.403664  -0.050232  -0.001077   0.333671  -0.003229
 167  14  -5.262448   5.561699  -2.024730  -0.002196   0.353299  -0.006216
 168  14  -4.832448   6.620608  -2.010185  -0.001392   0.333671  -0.004173
 169  14  -5.351721   7.123688  -0.417859  -0.001404   0.412182  -0.003406
 170  14  -5.963806   5.369709   0.188727  -0.001331   0.412182  -0.003230
 171  14  -5.770409   4.859371  -1.131075  -0.002299   0.392554  -0.005857
 172  15  -0.780619   9.547222  -3.081162   0.001035   0.232280   0.004456
 173  15   3.081559   8.949627  -1.924867   0.000810   0.371649   0.002181
 174  15   3.362182   5.260597  -1.342328   0.001659   0.371649   0.004464
 175  15  -0.010957   9.220883   2.707029   0.001231   0.418105   0.002944
 176  15   0.745125   9.820947   2.134846   0.000669   0.185824   0.003599
 177  15   0.651064   8.306424   3.146008   0.000505   0.232280   0.002172
 178  15   1.250889   8.594598   2.894387   0.000727   0.232280   0.003132
 179  15   3.018383   5.362463  -2.217909   0.001070   0.278737   0.003839
 180  15   2.787176   8.326683  -2.826908   0.001116   0.418105   0.002669
 181  15  -0.683099   8.885258  -3.594240   0.001616   0.371649   0.004349
 182  15  -2.055318   6.998387  -3.439625   0.000276   0.185824   0.001484
 183  15   1.853237  10.083122   1.157952   0.001747   0.371649   0.004701
 184  15   2.260487   9.592535   1.502681   0.001006   0.232280   0.004329
[...]
 570  12   1.737631  -1.663875   6.116414  -0.000836   0.154545  -0.005409
 571  12   1.416995  -2.707762   5.827358  -0.000256   0.069166  -0.003704
 572   6   1.808512  -0.826873   6.045399  -0.000810   0.150607  -0.005380
 573   6   1.125852  -2.187037   5.866083  -0.000443   0.150607  -0.002941
 574   6  -1.719646  -3.395999   3.631112   0.000883   0.102255   0.008636
 575  20  -2.109979  -4.439293   3.517565   0.000124   0.102255   0.001216
 576  23  -1.989355  -4.511120   3.790580   0.000041   0.102255   0.000400
 577  20  -2.443854  -4.261819   3.214701   0.000921   0.266091   0.003460
 578   6  -2.090411  -2.694924   3.334916   0.001812   0.266091   0.006811
 579  21   5.278454  -3.553377   1.020042  -0.000375   0.212469  -0.001766
 580  21   5.309503  -3.802719   1.930925  -0.000683   0.212469  -0.003215
 581   6   5.037799  -2.345127   1.849086   0.000970   0.593218   0.001635
 582  23  -0.230678  -4.926877   5.367748  -0.000727   0.295096  -0.002464
 583  23  -1.445517  -4.640745   4.667219  -0.001071   0.594319  -0.001802
 584   6  -0.297721  -3.154937   5.183693   0.003018   0.844325   0.003574
 585   6  -1.621682  -2.874817   4.243758   0.002515   0.427600   0.005882
 586   7   1.971772  -8.438699  -1.853278  -0.000036   0.028006  -0.001284
 587  19   1.992938  -8.288388  -2.115201  -0.000063   0.028006  -0.002262
 588  20   1.632203  -8.718208  -1.615503   0.000017   0.028006   0.000594
 589  19   3.475043  -4.413575  -3.226006  -0.000181   0.067134  -0.002702
 590  19   4.057566  -5.272447  -2.911316  -0.000346   0.148209  -0.002333
 591  19   4.120427  -6.535453  -2.558858  -0.000314   0.148209  -0.002120
 592  19   3.398017  -7.614409  -2.365617  -0.000452   0.148209  -0.003052
 593  19   2.433833  -8.110765  -2.364527  -0.000191   0.067134  -0.002844
 594   7   3.881062  -4.477012  -2.802326  -0.000240   0.147970  -0.001621
 595   7   4.405376  -5.787136  -2.372919  -0.000014   0.147970  -0.000092
 596   7   4.015221  -7.172521  -2.050111  -0.000125   0.147970  -0.000843
 597   7   2.863609  -8.089843  -1.960504  -0.000344   0.147970  -0.002323
 598   7   3.791841  -8.032938   1.553954  -0.000042   0.028025  -0.001487
 599  20   3.433287  -8.316682   1.756187  -0.000005   0.028025  -0.000181
 600  21   4.004317  -7.839944   1.650318  -0.000084   0.028025  -0.002980
 601   7   1.988914  -8.820621  -1.319279   0.000015   0.025975   0.000588
 602  20   1.675241  -9.163083  -1.134244  -0.000013   0.025975  -0.000491
 603  24   1.670766  -9.401606  -0.947854  -0.000039   0.025975  -0.001482
 604   7   3.397695  -8.511023   1.311406  -0.000004   0.025975  -0.000166
 605  20   3.103165  -8.849279   1.532187  -0.000019   0.025975  -0.000747
 606  24   2.970291  -9.116019   1.478813  -0.000051   0.025975  -0.001951
 607  20   1.580125  -9.034330  -1.375601   0.000069   0.048632   0.001428
 608   7   2.090815  -8.603552  -1.641275   0.000047   0.048632   0.000969
 609  20   3.228921  -8.694651   1.670017   0.000052   0.050644   0.001029
 610   7   3.707379  -8.220079   1.418816   0.000032   0.050644   0.000636
 611  21   4.440546  -7.662857   1.387373  -0.000179   0.067856  -0.002633
 612  21   4.938227  -7.262733   0.497608  -0.000440   0.150113  -0.002932
 613  21   5.396834  -6.224454  -0.186311  -0.000336   0.150113  -0.002240
 614  21   5.518516  -4.905231  -0.155790  -0.000395   0.150113  -0.002630
 615  21   5.353774  -3.952747   0.359091  -0.000221   0.067856  -0.003263
 616   7   4.349792  -7.755012   0.808551  -0.000393   0.149261  -0.002632
 617   7   4.983756  -6.937796  -0.262408  -0.000098   0.149261  -0.000658
 618   7   5.327385  -5.541760  -0.649329  -0.000038   0.149261  -0.000258
 619   7   5.243140  -4.125666  -0.197347  -0.000273   0.149261  -0.001830
 620  24   1.952397  -9.595740  -0.639047  -0.000399   0.201976  -0.001976
 621  24   2.692627  -9.476083   0.598056  -0.001467   0.413437  -0.003548
 622   7   2.858082  -8.743281  -0.665731   0.000061   0.553135   0.000110
 623   7   3.573548  -8.546858   0.802545   0.000285   0.284419   0.001003
 624   9  -2.972322   0.133298  -5.015706  -0.000918   0.343880  -0.002670
 625   8  -2.662374  -1.309041  -5.014308  -0.000927   0.343880  -0.002697
 626   8  -0.933793  -5.414882  -3.290463  -0.000980   0.240752  -0.004070
 627  19  -0.294806  -6.197468  -3.033535  -0.000804   0.240752  -0.003340
 628  20  -0.826282  -6.474346  -2.566023  -0.000212   0.240752  -0.000880
 629  19   0.018840  -6.110301  -3.631064  -0.000283   0.240223  -0.001179
 630  19   0.831196  -5.584050  -4.186017  -0.001449   0.480399  -0.003017
 631  19   1.662008  -4.852795  -4.326925  -0.000409   0.240223  -0.001701
 632   8  -0.649982  -4.908352  -4.326190  -0.002335   0.480399  -0.004861
 633   8   0.375176  -4.123805  -4.760332  -0.001706   0.480399  -0.003551
 634   8  -1.699429  -5.477355  -2.865343  -0.000215   0.121281  -0.001769
 635  20  -1.657688  -6.585388  -2.226097  -0.000186   0.121281  -0.001530
 636  22  -1.954226  -6.545353  -2.152446  -0.000339   0.121281  -0.002797
 637  20  -1.443540  -6.723014  -2.557770   0.000385   0.170732   0.002257
 638   8  -1.521095  -5.180017  -3.656849  -0.000526   0.115379  -0.004561
 639  22  -3.214935  -6.058271  -1.916935  -0.000088   0.324388  -0.000273
 640  22  -2.465486  -6.517925  -2.267035   0.000113   0.324388   0.000348
 641   8  -2.513525  -4.849497  -3.281425  -0.001169   0.647854  -0.001804
 642   9  -2.972966   4.613366  -3.357930  -0.000973   0.240683  -0.004041
 643  14  -3.213943   5.482330  -2.835480  -0.000804   0.240683  -0.003339
 644  15  -2.548982   5.788011  -3.040554  -0.000211   0.240683  -0.000877
 645  14  -3.870935   5.321015  -2.911955  -0.000285   0.240565  -0.001184
 646  14  -4.751913   4.780479  -2.487241  -0.001456   0.481086  -0.003027
 647  14  -5.293088   4.111863  -1.773962  -0.000411   0.240565  -0.001709
 648   9  -3.927201   3.962098  -3.636314  -0.002176   0.481086  -0.004522
 649   9  -4.814459   3.207727  -2.926338  -0.001622   0.481086  -0.003371
 650   9  -2.184153   4.680303  -3.737145  -0.000210   0.121362  -0.001727
 651  15  -1.793780   5.882071  -3.530006  -0.000185   0.121362  -0.001524
 652  16  -1.555414   5.829469  -3.718109  -0.000339   0.121362  -0.002795
 653  15  -2.198370   5.978590  -3.573103   0.000387   0.170713   0.002265
 654   9  -2.897885   4.267194  -3.997302  -0.000469   0.115354  -0.004062
 655  16  -0.581034   5.282996  -4.506914  -0.000086   0.323275  -0.000265
 656  16  -1.342710   5.737982  -4.188031   0.000116   0.323275   0.000360
 657   9  -1.982691   3.921303  -4.518307  -0.001088   0.645625  -0.001685
 658  10  -2.125861   8.439579   2.749262  -0.000042   0.028024  -0.001485
 659  13  -2.157657   8.285722   3.008098  -0.000084   0.028024  -0.002980
 660  15  -1.776455   8.721348   2.529059  -0.000005   0.028024  -0.000178
 661  13  -2.611230   8.104853   3.237144  -0.000180   0.067885  -0.002649
 662  13  -3.583523   7.601593   3.194495  -0.000443   0.150192  -0.002951
 663  13  -4.311097   6.504296   3.349489  -0.000326   0.150192  -0.002168
 664  13  -4.241481   5.225897   3.693431  -0.000393   0.150192  -0.002616
 665  13  -3.646553   4.366600   4.022239  -0.000216   0.067885  -0.003180
 666  10  -3.029072   8.086712   2.816451  -0.000364   0.149313  -0.002441
 667  10  -4.190293   7.154643   2.851363  -0.000092   0.149313  -0.000615
 668  10  -4.579932   5.747771   3.146829  -0.000064   0.149313  -0.000427
 669  10  -4.041903   4.429671   3.584491  -0.000271   0.149313  -0.001817
 670  10  -3.810187   8.086247  -0.732714  -0.000036   0.028006  -0.001276
 671  14  -4.019141   7.895258  -0.839976  -0.000064   0.028006  -0.002286
 672  15  -3.443211   8.371699  -0.916595   0.000016   0.028006   0.000585
 673  14  -5.445747   4.034031   0.382422  -0.000179   0.067106  -0.002666
 674  14  -5.614412   4.982507   0.879463  -0.000335   0.148135  -0.002262
 675  14  -5.480582   6.287534   0.912248  -0.000321   0.148135  -0.002165
 676  14  -4.992837   7.314987   0.257629  -0.000443   0.148135  -0.002987
 677  14  -4.464364   7.716701  -0.599370  -0.000193   0.067106  -0.002877
 678  10  -5.352729   4.205771   0.939289  -0.000264   0.147920  -0.001786
 679  10  -5.434772   5.611371   1.377093  -0.000036   0.147920  -0.000244
 680  10  -5.067095   6.991091   1.009262  -0.000105   0.147920  -0.000713
 681  10  -4.393778   7.804264  -0.020061  -0.000363   0.147920  -0.002457
 682  10  -3.426633   8.554799  -0.479264   0.000015   0.025972   0.000566
 683  15  -3.122781   8.895139  -0.683591  -0.000013   0.025972  -0.000495
 684  18  -2.991975   9.161039  -0.621637  -0.000039   0.025972  -0.001484
 685  10  -2.128992   8.831876   2.211183  -0.000005   0.025972  -0.000174
 686  15  -1.807508   9.175981   2.043413  -0.000019   0.025972  -0.000749
 687  18  -1.794971   9.416628   1.860156  -0.000051   0.025972  -0.001952
 688  15  -3.248207   8.718712  -0.875622   0.000069   0.048558   0.001424
 689  10  -3.725623   8.295096  -0.544614   0.000047   0.048558   0.000978
 690  15  -1.757912   9.059238   2.250176   0.000052   0.050766   0.001029
 691  10  -2.200667   8.592335   2.571463   0.000033   0.050766   0.000644
 692  18  -2.928886   9.429879  -0.252763  -0.000399   0.201953  -0.001978
 693  18  -2.367026   9.592468   1.070158  -0.001468   0.413388  -0.003551
 694  10  -3.412000   8.669011   0.604732   0.000048   0.553077   0.000086
 695  10  -2.643680   8.794239   2.053782   0.000299   0.284387   0.001051
 696  12   3.056344  -0.040743   5.782933  -0.000946   0.343667  -0.002751
 697  11   2.408728   1.271429   5.968001  -0.000946   0.343667  -0.002751
 698  11   0.755972   5.429011   4.235927  -0.001026   0.242236  -0.004234
 699  13   0.094047   6.203018   3.979500  -0.000777   0.242236  -0.003207
 700  15   0.646164   6.488606   3.541691  -0.000207   0.242236  -0.000855
 701  13  -1.789445   4.855225   5.187987  -0.000377   0.230588  -0.001635
 702  13  -1.006904   5.571199   5.062958  -0.001278   0.461071  -0.002772
 703  13  -0.232776   6.104636   4.556212  -0.000227   0.230588  -0.000983
 704  11  -0.497512   4.126399   5.625863  -0.001461   0.461071  -0.003169
 705  11   0.473997   4.906150   5.231575  -0.002067   0.461071  -0.004482
 706  11   1.549425   5.512458   3.852958  -0.000239   0.118890  -0.002007
 707  15   1.498485   6.616027   3.239636  -0.000170   0.118890  -0.001433
 708  17   1.797976   6.574746   3.180611  -0.000337   0.118890  -0.002832
 709  15   1.196630   6.749905   3.576890   0.000388   0.172440   0.002248
 710  11   1.409186   5.194338   4.593766  -0.000525   0.116872  -0.004493
 711  17   2.330551   6.533019   3.298263   0.000005   0.354298   0.000013
 712  17   3.162294   6.036823   2.910473  -0.000248   0.354298  -0.000701
 713  11   2.412597   4.849365   4.225233  -0.001539   0.707889  -0.002174
 714  12   3.009652  -4.566545   4.190667  -0.001025   0.242176  -0.004232
 715  20   2.611124  -5.736335   3.888859  -0.000207   0.242176  -0.000856
 716  21   3.263804  -5.429091   3.648721  -0.000777   0.242176  -0.003210
 717  12   2.239878  -4.644233   4.619960  -0.000238   0.118980  -0.001998
 718  20   1.875251  -5.837998   4.419619  -0.000170   0.118980  -0.001429
 719  23   1.646733  -5.781379   4.618260  -0.000337   0.118980  -0.002832
 720  20   2.335978  -5.937732   4.395115   0.000388   0.172431   0.002250
 721  12   2.888733  -4.216114   4.877859  -0.000525   0.116853  -0.004493
 722  21   5.231385  -4.063647   2.596429  -0.000377   0.230954  -0.001633
 723  21   4.730150  -4.718859   3.277624  -0.001283   0.461805  -0.002777
 724  21   3.910983  -5.261542   3.700738  -0.000228   0.230954  -0.000989
 725  12   4.753421  -3.158407   3.755431  -0.001467   0.461805  -0.003176
 726  12   3.929376  -3.905998   4.444615  -0.002072   0.461805  -0.004486
 727  23   1.422668  -5.673427   5.104478   0.000007   0.353184   0.000020
 728  23   0.579023  -5.181770   5.461312  -0.000245   0.353184  -0.000695
 729  12   1.971387  -3.853857   5.409151  -0.001526   0.705646  -0.002162
 730  15  -1.276631   8.824299   2.737539   0.000375   0.287067   0.001306
 731  15  -0.000114   7.895076   3.295145   0.000209   0.557464   0.000375
 732  13  -1.441701   7.867805   3.591352  -0.001796   0.417802  -0.004298
 733  13  -0.367924   6.947266   4.001455  -0.000616   0.203760  -0.003021
 734  15  -2.662759   6.792861  -3.009934   0.000360   0.289659   0.001244
 735  15  -3.146066   7.999853  -1.933380   0.000249   0.562272   0.000443
 736  14  -3.740673   6.698013  -2.297544  -0.001884   0.421818  -0.004466
 737  14  -4.124709   7.672840  -1.245833  -0.000533   0.205604  -0.002594
 738  16  -1.359324   6.634340  -3.935879  -0.000212   0.067874  -0.003122
 739  16  -0.863750   7.601902  -4.065792  -0.000283   0.150123  -0.001886
 740  16   0.239524   8.334577  -4.034812  -0.000239   0.150123  -0.001594
 741  16   1.540696   8.281516  -3.791661  -0.000314   0.150123  -0.002093
 742  16   2.519618   7.463931  -3.433539  -0.000323   0.150123  -0.002150
 743  16   2.784964   6.208653  -3.103607  -0.000177   0.150123  -0.001180
 744  16   2.440547   5.183372  -2.933833  -0.000121   0.067874  -0.001786
 745  15  -1.490439   7.175968  -3.732565  -0.000175   0.149333  -0.001172
 746  15  -0.562209   8.335474  -3.828843   0.000017   0.149333   0.000117
 747  15   0.861535   8.737893  -3.666522   0.000036   0.149333   0.000241
 748  15   2.211646   8.222358  -3.310490  -0.000124   0.149333  -0.000831
 749  15   2.948414   6.994954  -2.903073   0.000030   0.149333   0.000202
 750  15   2.777313   5.546341  -2.607137   0.000025   0.149333   0.000167
 751  17   3.736804   5.498715  -0.319309  -0.000083   0.067181  -0.001241
 752  17   3.988728   6.506595  -0.630121  -0.000268   0.148289  -0.001807
 753  17   3.967222   7.801251  -0.414176  -0.000293   0.148289  -0.001977
 754  17   3.565576   8.724261   0.428416  -0.000317   0.148289  -0.002137
 755  17   2.941191   8.913908   1.567454  -0.000209   0.148289  -0.001407
 756  17   2.338757   8.295870   2.556560  -0.000241   0.148289  -0.001622
 757  17   2.005302   7.376403   3.024834  -0.000223   0.067181  -0.003317
 758  15   3.661522   5.780097  -0.832930  -0.000007   0.148100  -0.000046
 759  15   3.865928   7.231465  -0.998195  -0.000009   0.148100  -0.000059
 760  15   3.615622   8.543273  -0.372042  -0.000120   0.148100  -0.000808
 761  15   3.008698   9.201439   0.800145   0.000031   0.148100   0.000207
 762  15   2.283001   8.948034   2.058999   0.000059   0.148100   0.000398
 763  15   1.722926   7.882365   2.911188  -0.000160   0.148100  -0.001077
 764  18  -1.429195   9.814141   1.835670  -0.000132   0.069112  -0.001913
 765  18  -0.373554  10.170000   1.823765  -0.000322   0.153466  -0.002097
 766  18   0.701767  10.573480   1.120219  -0.000275   0.153466  -0.001791
 767  18   1.134428  10.793521  -0.136155  -0.000290   0.153466  -0.001888
 768  18   0.745010  10.738874  -1.424353  -0.000367   0.153466  -0.002391
 769  18  -0.305000  10.432200  -2.210176  -0.000240   0.153466  -0.001562
 770  18  -1.580176  10.000673  -2.167753  -0.000307   0.153466  -0.001999
 771  18  -2.551718   9.623243  -1.314676  -0.000432   0.153466  -0.002814
 772  15  -0.933124   9.611432   2.101268  -0.000244   0.151479  -0.001608
 773  15   0.459529  10.099751   1.767540   0.000011   0.151479   0.000071
 774  15   1.354184  10.469673   0.604759   0.000082   0.151479   0.000541
 775  15   1.379840  10.567798  -0.904884  -0.000124   0.151479  -0.000818
 776  15   0.525856  10.353433  -2.135360  -0.000073   0.151479  -0.000483
 777  15  -0.853630   9.915474  -2.576404   0.000071   0.151479   0.000472
 778  15  -2.186563   9.435536  -2.045122  -0.000106   0.151479  -0.000703
 779  15  -2.905935   9.137109  -1.093616  -0.000062   0.084436  -0.000733
 780  20  -0.644932  -7.464405  -2.465430   0.000360   0.289568   0.001242
 781  20   0.609574  -8.503782  -2.025359   0.000249   0.562105   0.000444
 782  19   0.555843  -7.342639  -2.936033  -0.001883   0.421678  -0.004466
 783  19   1.711116  -8.149952  -2.471066  -0.000532   0.205540  -0.002590
 784  21   3.620246  -6.196339   3.420965  -0.000616   0.203814  -0.003023
 785  21   4.009858  -7.265523   2.485732  -0.001797   0.417921  -0.004301
 786  20   2.920443  -7.216166   3.474577   0.000209   0.557606   0.000374
 787  20   3.312933  -8.337353   2.293854   0.000375   0.287144   0.001305
 788  22  -2.173047  -7.355006  -1.980744  -0.000212   0.067850  -0.003120
 789  22  -2.485431  -8.282441  -1.490675  -0.000283   0.150060  -0.001886
 790  22  -3.049910  -8.898115  -0.462944  -0.000239   0.150060  -0.001594
 791  22  -3.631262  -8.689329   0.708534  -0.000314   0.150060  -0.002092
 792  22  -3.997240  -7.739491   1.555760  -0.000323   0.150060  -0.002151
 793  22  -4.001637  -6.428057   1.740271  -0.000177   0.150060  -0.001179
 794  22  -3.752465  -5.423312   1.384902  -0.000121   0.067850  -0.001785
 795  20  -1.884784  -7.862450  -1.875015  -0.000175   0.149290  -0.001172
 796  20  -2.409736  -8.934080  -0.986174   0.000018   0.149290   0.000117
 797  20  -3.088194  -9.175003   0.316000   0.000036   0.149290   0.000241
 798  20  -3.649117  -8.488970   1.511294  -0.000124   0.149290  -0.000831
 799  20  -3.868420  -7.150049   2.122196   0.000030   0.149290   0.000200
 800  20  -3.658492  -5.693131   1.904652   0.000025   0.149290   0.000167
 801  23  -2.398477  -5.161341   3.976006  -0.000084   0.067205  -0.001244
 802  23  -2.708665  -6.181738   4.174111  -0.000268   0.148351  -0.001806
 803  23  -2.409562  -7.416668   4.505482  -0.000293   0.148351  -0.001977
 804  23  -1.415586  -8.211959   4.827730  -0.000317   0.148351  -0.002137
 805  23  -0.116536  -8.255728   5.014481  -0.000209   0.148351  -0.001408
 806  23   0.978147  -7.530810   4.992498  -0.000241   0.148351  -0.001623
 807  23   1.469490  -6.576700   4.834606  -0.000223   0.067205  -0.003321
 808  20  -2.740433  -5.532912   3.669808  -0.000007   0.148141  -0.000049
 809  20  -2.867003  -6.967536   3.990376  -0.000009   0.148141  -0.000060
 810  20  -2.102085  -8.168508   4.377022  -0.000120   0.148141  -0.000807
 811  20  -0.745651  -8.664852   4.678119   0.000030   0.148141   0.000206
 812  20   0.670355  -8.261920   4.775588   0.000059   0.148141   0.000397
 813  20   1.590630  -7.117727   4.631204  -0.000160   0.148141  -0.001079
 814  24   2.768895  -9.477903   1.826502  -0.000132   0.069111  -0.001913
 815  24   2.164862  -9.735888   2.726325  -0.000322   0.153463  -0.002097
 816  24   0.999794 -10.158846   3.253324  -0.000275   0.153463  -0.001791
 817  24  -0.242911 -10.554494   2.916943  -0.000290   0.153463  -0.001888
 818  24  -1.047950 -10.758773   1.856667  -0.000367   0.153463  -0.002391
 819  24  -1.081505 -10.686976   0.512151  -0.000240   0.153463  -0.001562
 820  24  -0.329662 -10.368875  -0.559086  -0.000307   0.153463  -0.001999
 821  24   0.895819  -9.936373  -0.912842  -0.000432   0.153463  -0.002814
 822  20   2.669457  -9.189217   2.340786  -0.000244   0.151478  -0.001608
 823  20   1.619717  -9.603230   3.348678   0.000011   0.151478   0.000071
 824  20   0.191238 -10.088892   3.461768   0.000082   0.151478   0.000541
 825  20  -1.023643 -10.444816   2.633162  -0.000124   0.151478  -0.000818
 826  20  -1.521163 -10.523414   1.206451  -0.000073   0.151478  -0.000483
 827  20  -1.095018 -10.292096  -0.226762   0.000071   0.151478   0.000471
 828  20   0.078085  -9.846779  -1.072179  -0.000106   0.151478  -0.000703
 829  20   1.239832  -9.452435  -1.153917  -0.000062   0.084435  -0.000732
 =====================================================

              6539235  WORDS OF DYNAMIC MEMORY USED
 EXECUTION OF GAMESS TERMINATED NORMALLY Fri Nov 25 08:39:11 2016
 DDI: 263640 bytes (0.3 MB / 0 MWords) used by master data server.

 ----------------------------------------
 CPU timing information for all processes
 ========================================
 0: 1630.988 + 0.536 = 1631.524
 ----------------------------------------
 ddikick.x: exited gracefully.
