----- GAMESS execution script -----

          ******************************************************
          *         GAMESS VERSION =  5 DEC 2014 (R1)          *
          *             FROM IOWA STATE UNIVERSITY             *
          * M.W.SCHMIDT, K.K.BALDRIDGE, J.A.BOATZ, S.T.ELBERT, *
          *   M.S.GORDON, J.H.JENSEN, S.KOSEKI, N.MATSUNAGA,   *
          *          K.A.NGUYEN, S.J.SU, T.L.WINDUS,           *
          *       TOGETHER WITH M.DUPUIS, J.A.MONTGOMERY       *
          *         J.COMPUT.CHEM.  14, 1347-1363(1993)        *
          **************** 64 BIT LINUX VERSION ****************

 EXECUTION OF GAMESS BEGUN Fri Nov 25 08:06:55 2016

            ECHO OF THE FIRST FEW INPUT CARDS -
 INPUT CARD>! SELECT RESTRICTED HARTREE-FOCK AS DEFAULT                                     
 INPUT CARD>$contrl scftyp=rhf $end                                                         
 INPUT CARD>                                                                                
 INPUT CARD>! THEORY: HF OR DFT                                                             
 INPUT CARD> $contrl mplevl=0 $end                                                          
 INPUT CARD>                                                                                
 INPUT CARD> $system timlim=10000 mwords=20 $end                                            
 INPUT CARD> $SCF DIRSCF=.TRUE. $end                                                        
 INPUT CARD>                                                                                
 INPUT CARD>                                                                                
 INPUT CARD>! BASIS SETS                                                                    
 INPUT CARD>! 6-311G(d,p)                                                                   
 INPUT CARD> $BASIS GBASIS=N311 NGAUSS=6 NDFUNC=1 NPFUNC=1 $END                             
 INPUT CARD>                                                                                
 INPUT CARD>! One of the following                                                          
 INPUT CARD> $guess guess=HUCKEL $end                                                       
 INPUT CARD>                                                                                
 INPUT CARD> $statpt projct=.FALSE. $end                                                    
 INPUT CARD> $STATPT IFREEZ(1)=1,2,3 $END                                                   
 INPUT CARD>                                                                                
 INPUT CARD>! Optimize the geometry with COSMO effects                                      
 INPUT CARD> $statpt opttol=0.0005 nstep=50 $end                                            
 INPUT CARD> $contrl nzvar=1 $end                                                           
 INPUT CARD> $zmat dlc=.t. auto=.t. $end                                                    
 INPUT CARD> $contrl runtyp=OPTIMIZE maxit=200 $end                                         
 INPUT CARD>                                                                                
 INPUT CARD>! Run COSMO on perfect conductor                                                
 INPUT CARD> $COSGMS PRFCND=.TRUE. $end                                                     
 INPUT CARD>                                                                                
 INPUT CARD>! Specifying RSOLV                                                              
 INPUT CARD> $COSGMS COSRAD = 1.4 $end                                                      
 INPUT CARD>                                                                                
 INPUT CARD>! available memory                                                              
 INPUT CARD> $SYSTEM MWORDS=40 $END                                                         
 INPUT CARD>                                                                                
 INPUT CARD> $DATA                                                                          
 INPUT CARD>http://cactus.nci.nih.gov/chemical/structure/P-DICHLOROBENZENE/file?format=sdf&g
 INPUT CARD>C1                                                                              
 INPUT CARD>C      6.0     -0.6910000000    1.1982000000   -0.0001000000                    
 INPUT CARD>C      6.0      0.6910000000    1.1982000000    0.0002000000                    
 INPUT CARD>C      6.0      0.6910000000   -1.1982000000    0.0008000000                    
 INPUT CARD>C      6.0     -0.6910000000   -1.1982000000   -0.0001000000                    
 INPUT CARD>C      6.0     -1.3828000000    0.0000000000   -0.0003000000                    
 INPUT CARD>C      6.0      1.3828000000    0.0000000000    0.0004000000                    
 INPUT CARD>Cl    17.0      3.1188000000    0.0000000000   -0.0003000000                    
 INPUT CARD>Cl    17.0     -3.1188000000    0.0000000000   -0.0002000000                    
 INPUT CARD>H      1.0     -1.2310000000    2.1335000000    0.0043000000                    
 INPUT CARD>H      1.0      1.2310000000    2.1335000000    0.0000000000                    
 INPUT CARD>H      1.0      1.2310000000   -2.1335000000    0.0009000000                    
 INPUT CARD>H      1.0     -1.2310000000   -2.1335000000   -0.0002000000                    
   40000000 WORDS OF MEMORY AVAILABLE

     BASIS OPTIONS
     -------------
     GBASIS=N311         IGAUSS=       6      POLAR=POPN311 
     NDFUNC=       1     NFFUNC=       0     DIFFSP=       F
     NPFUNC=       1      DIFFS=       F     BASNAM=        


     RUN TITLE
     ---------
 http://cactus.nci.nih.gov/chemical/structure/P-DICHLOROBENZENE/file?format=sdf&g

 THE POINT GROUP OF THE MOLECULE IS C1      
 THE ORDER OF THE PRINCIPAL AXIS IS     0

 ATOM      ATOMIC                      COORDINATES (BOHR)
           CHARGE         X                   Y                   Z
 C           6.0    -1.3058006575        2.2642696785       -0.0001889726
 C           6.0     1.3058006575        2.2642696785        0.0003779452
 C           6.0     1.3058006575       -2.2642696785        0.0015117808
 C           6.0    -1.3058006575       -2.2642696785       -0.0001889726
 C           6.0    -2.6131130958        0.0000000000       -0.0005669178
 C           6.0     2.6131130958        0.0000000000        0.0007558904
 CL         17.0     5.8936774105        0.0000000000       -0.0005669178
 CL         17.0    -5.8936774105        0.0000000000       -0.0003779452
 H           1.0    -2.3262526909        4.0317303948        0.0081258217
 H           1.0     2.3262526909        4.0317303948        0.0000000000
 H           1.0     2.3262526909       -4.0317303948        0.0017007534
 H           1.0    -2.3262526909       -4.0317303948       -0.0003779452

          INTERNUCLEAR DISTANCES (ANGS.)




     $CONTRL OPTIONS
     ---------------
 SCFTYP=RHF          RUNTYP=OPTIMIZE     EXETYP=RUN     
 MPLEVL=       0     CITYP =NONE         CCTYP =NONE         VBTYP =NONE    
 DFTTYP=NONE         TDDFT =NONE    
 MULT  =       1     ICHARG=       0     NZVAR =       1     COORD =UNIQUE  
 PP    =NONE         RELWFN=NONE         LOCAL =NONE         NUMGRD=       F
 ISPHER=      -1     NOSYM =       0     MAXIT =     200     UNITS =ANGS    
 PLTORB=       F     MOLPLT=       F     AIMPAC=       F     FRIEND=        
 NPRINT=       7     IREST =       0     GEOM  =INPUT   
 NORMF =       0     NORMP =       0     ITOL  =      20     ICUT  =       9
 INTTYP=BEST         GRDTYP=BEST         QMTTOL= 1.0E-06

     $SYSTEM OPTIONS
     ---------------
  REPLICATED MEMORY=    40000000 WORDS (ON EVERY NODE).
 DISTRIBUTED MEMDDI=           0 MILLION WORDS IN AGGREGATE,
 MEMDDI DISTRIBUTED OVER   1 PROCESSORS IS           0 WORDS/PROCESSOR.
 TOTAL MEMORY REQUESTED ON EACH PROCESSOR=    40000000 WORDS.
 TIMLIM=       10000.00 MINUTES, OR       6.9 DAYS.
 PARALL= F  BALTYP=  DLB     KDIAG=    0  COREFL= F
 MXSEQ2=     300 MXSEQ3=     150  mem10=         0

     $COSGMS OPTIONS
     ---------------
     EPSI  =   INFTY     NSPA  =      92     COSRAD=    1.40
     DISEX =   10.00     OUTCHG=DBLCAV       COSBUG=       F
     COSWRT=       F     DCOSMO=       F

     SYMMETRY COORDINATES WILL NOT BE USED FOR 
     THE COSMO CALCULATION, EVEN IF SPECIFIED:
         -- SWITCHING TO C1 POINT GROUP --


     DEFINITION OF CAVITY
     ---------------------------
     ATOM         COORDINATES           RADIUS 
     1   -1.3058    2.2643   -0.0002    2.0000
     2    1.3058    2.2643    0.0004    2.0000
     3    1.3058   -2.2643    0.0015    2.0000
     4   -1.3058   -2.2643   -0.0002    2.0000
     5   -2.6131    0.0000   -0.0006    2.0000
     6    2.6131    0.0000    0.0008    2.0000
     7    5.8937    0.0000   -0.0006    2.0500
     8   -5.8937    0.0000   -0.0004    2.0500
     9   -2.3263    4.0317    0.0081    1.3000
    10    2.3263    4.0317    0.0000    1.3000
    11    2.3263   -4.0317    0.0017    1.3000
    12   -2.3263   -4.0317   -0.0004    1.3000

          ----------------
          PROPERTIES INPUT
          ----------------

     MOMENTS            FIELD           POTENTIAL          DENSITY
 IEMOM =       1   IEFLD =       0   IEPOT =       0   IEDEN =       0
 WHERE =COMASS     WHERE =NUCLEI     WHERE =NUCLEI     WHERE =NUCLEI  
 OUTPUT=BOTH       OUTPUT=BOTH       OUTPUT=BOTH       OUTPUT=BOTH    
 IEMINT=       0   IEFINT=       0                     IEDINT=       0
                                                       MORB  =       0
          EXTRAPOLATION IN EFFECT
          SOSCF IN EFFECT
 ORBITAL PRINTING OPTION: NPREO=     1   192     2     1

     -------------------------------
     INTEGRAL TRANSFORMATION OPTIONS
     -------------------------------
     NWORD  =            0
     CUTOFF = 1.0E-09     MPTRAN =       0
     DIRTRF =       T     AOINTS =DUP     

          ----------------------
          INTEGRAL INPUT OPTIONS
          ----------------------
 NOPK  =       1 NORDER=       0 SCHWRZ=       T


 -----------------------------------------------
  STATISTICS ON AUTOMATIC COORDINATE GENERATION 
 -----------------------------------------------
  NUMBER OF USER SPECIFIED BONDS                             0
  NUMBER OF BONDS                                           12
  NUMBER OF ANGLES                                          18
  NUMBER OF TORSIONS                                        24
  NUMBER OF EXTRA COORD.                                     0
  NUMBER OF EXTRA COORD. FOR CONSTRAINTS                     0
  NUMBER OF CONSTRAINED COORD.                               0

  TOTAL NUMBER OF PRIMITIVES                                54
 -----------------------------------------------

   --- ENCODED Z MATRIX ---
 COORD  TYPE   I   J   K   L   M   N
    1      1    1   5
    2      1    1   9
    3      1    1   2
    4      1    2  10
    5      1    2   6
    6      1    3   6
    7      1    3  11
    8      1    3   4
    9      1    4  12
   10      1    4   5
   11      1    5   8
   12      1    6   7
   13      2    1   5   4
   14      2    1   5   8
   15      2    1   2  10
   16      2    1   2   6
   17      2    2   6   7
   18      2    2   1   5
   19      2    2   1   9
   20      2    2   6   3
   21      2    3   6   7
   22      2    3   4   5
   23      2    3   4  12
   24      2    4   3  11
   25      2    4   3   6
   26      2    4   5   8
   27      2    5   1   9
   28      2    5   4  12
   29      2    6   3  11
   30      2    6   2  10
   31      3    1   5   4   3
   32      3    1   2   6   7
   33      3    1   2   6   3
   34      3    1   5   4  12
   35      3    2   6   3   4
   36      3    2   1   5   8
   37      3    2   6   3  11
   38      3    2   1   5   4
   39      3    3   4   5   8
   40      3    3   6   2  10
   41      3    4   3   6   7
   42      3    4   5   1   9
   43      3    5   4   3  11
   44      3    5   4   3   6
   45      3    5   1   2  10
   46      3    5   1   2   6
   47      3    6   3   4  12
   48      3    6   2   1   9
   49      3    7   6   2  10
   50      3    7   6   3  11
   51      3    8   5   4  12
   52      3    8   5   1   9
   53      3    9   1   2  10
   54      3   11   3   4  12

          INDEP./SYM. INTERNAL COORDINATES
          --------------------------------
 CRD  1=  -0.1940 (  1) -0.2431 (  3) -0.1940 (  5)  0.1940 (  6)  0.2431 (  8)
           0.1940 ( 10) -0.4047 ( 14) -0.4047 ( 17)  0.4047 ( 21)  0.4047 ( 26)
 CRD  2=  -0.1791 (  1)  0.1791 (  5) -0.1791 (  6)  0.1791 ( 10) -0.4153 ( 14)
           0.4153 ( 17) -0.4153 ( 21)  0.4153 ( 26) -0.1734 ( 27)  0.1734 ( 28)
          -0.1734 ( 29)  0.1734 ( 30)
 CRD  3=   0.3359 (  1) -0.3359 (  5) -0.3359 (  6)  0.3359 ( 10)  0.1556 ( 11)
          -0.1556 ( 12) -0.1485 ( 13)  0.1799 ( 15) -0.1800 ( 19)  0.1485 ( 20)
          -0.1799 ( 23)  0.1799 ( 24)  0.2542 ( 27)  0.2542 ( 28) -0.2542 ( 29)
          -0.2542 ( 30)
 CRD  4=  -0.1717 (  1)  0.3435 (  3) -0.1718 (  5) -0.1718 (  6)  0.3435 (  8)
          -0.1717 ( 10)  0.1509 ( 11)  0.1509 ( 12) -0.1796 ( 13)  0.1876 ( 15)
           0.1876 ( 19) -0.1796 ( 20)  0.1876 ( 23)  0.1876 ( 24) -0.2774 ( 27)
          -0.2774 ( 28) -0.2774 ( 29) -0.2774 ( 30)
 CRD  5=   0.3420 (  3) -0.3421 (  8) -0.1300 ( 14)  0.3161 ( 15) -0.1300 ( 17)
           0.3162 ( 19)  0.1300 ( 21) -0.3161 ( 23) -0.3161 ( 24)  0.1300 ( 26)
          -0.2487 ( 27)  0.2488 ( 28)  0.2488 ( 29) -0.2488 ( 30)
 CRD  6=  -0.1789 (  1)  0.2461 (  2) -0.2461 (  4)  0.1789 (  5) -0.1789 (  6)
           0.2461 (  7) -0.2461 (  9)  0.1789 ( 10) -0.1716 ( 15)  0.3236 ( 16)
          -0.3237 ( 18)  0.1716 ( 19)  0.3236 ( 22) -0.1716 ( 23)  0.1716 ( 24)
          -0.3237 ( 25)  0.1521 ( 27) -0.1521 ( 28)  0.1520 ( 29) -0.1520 ( 30)
 CRD  7=  -0.3473 (  1) -0.2146 (  2) -0.3473 (  3) -0.2146 (  4) -0.3473 (  5)
          -0.3473 (  6) -0.2146 (  7) -0.3473 (  8) -0.2146 (  9) -0.3473 ( 10)
          -0.2146 ( 11) -0.2146 ( 12)
 CRD  8=  -0.1237 (  2) -0.1237 (  4) -0.1237 (  7) -0.1238 (  9)  0.2475 ( 11)
           0.2475 ( 12) -0.3406 ( 13)  0.1703 ( 14) -0.2759 ( 15)  0.1703 ( 16)
           0.1703 ( 17)  0.1703 ( 18) -0.2759 ( 19) -0.3406 ( 20)  0.1703 ( 21)
           0.1703 ( 22) -0.2759 ( 23) -0.2759 ( 24)  0.1703 ( 25)  0.1703 ( 26)
           0.1056 ( 27)  0.1056 ( 28)  0.1056 ( 29)  0.1056 ( 30)
 CRD  9=   0.2215 ( 31)  0.3574 ( 32)  0.2215 ( 33) -0.2215 ( 35) -0.3574 ( 36)
          -0.2215 ( 38)  0.3574 ( 39) -0.3574 ( 41) -0.1411 ( 43)  0.1411 ( 45)
           0.1411 ( 47) -0.1411 ( 48)  0.2163 ( 49) -0.2163 ( 50)  0.2163 ( 51)
          -0.2163 ( 52)
 CRD 10=  -0.3152 (  2)  0.3152 (  4)  0.3152 (  7) -0.3152 (  9)  0.3152 ( 11)
          -0.3152 ( 12) -0.2118 ( 13)  0.1059 ( 14)  0.1059 ( 15) -0.2119 ( 16)
          -0.1059 ( 17)  0.2119 ( 18) -0.1058 ( 19)  0.2118 ( 20) -0.1059 ( 21)
           0.2119 ( 22) -0.1058 ( 23)  0.1058 ( 24) -0.2119 ( 25)  0.1059 ( 26)
          -0.1060 ( 27) -0.1060 ( 28)  0.1060 ( 29)  0.1060 ( 30)
 CRD 11=  -0.1752 ( 31) -0.1752 ( 32) -0.1752 ( 33) -0.1084 ( 34) -0.1752 ( 35)
          -0.1752 ( 36) -0.1084 ( 37) -0.1752 ( 38) -0.1752 ( 39) -0.1084 ( 40)
          -0.1752 ( 41) -0.1084 ( 42)  0.2834 ( 43)  0.3502 ( 44)  0.2834 ( 45)
           0.3502 ( 46)  0.2834 ( 47)  0.2834 ( 48) -0.1084 ( 49) -0.1084 ( 50)
          -0.1084 ( 51) -0.1084 ( 52)  0.2166 ( 53)  0.2166 ( 54)
 CRD 12=   0.1275 ( 31) -0.3073 ( 32) -0.1274 ( 33)  0.1247 ( 34)  0.1274 ( 35)
          -0.3072 ( 36)  0.1246 ( 37) -0.1274 ( 38)  0.3072 ( 39) -0.1246 ( 40)
           0.3073 ( 41) -0.1247 ( 42) -0.1246 ( 43) -0.1274 ( 44)  0.1246 ( 45)
           0.1274 ( 46) -0.1247 ( 47)  0.1247 ( 48) -0.3045 ( 49)  0.3045 ( 50)
           0.3045 ( 51) -0.3045 ( 52)  0.1219 ( 53) -0.1219 ( 54)
 CRD 13=  -0.1617 ( 31)  0.1453 ( 32) -0.1617 ( 33) -0.3839 ( 34)  0.1617 ( 35)
          -0.1454 ( 36)  0.3840 ( 37)  0.1617 ( 38)  0.1454 ( 39) -0.3840 ( 40)
          -0.1453 ( 41)  0.3839 ( 42) -0.2223 ( 43)  0.2223 ( 45)  0.2222 ( 47)
          -0.2222 ( 48)
 CRD 14=  -0.1280 (  1) -0.4010 (  2) -0.4010 (  4) -0.1280 (  5)  0.1280 (  6)
           0.4010 (  7)  0.4010 (  9)  0.1280 ( 10)  0.1759 ( 14)  0.1044 ( 15)
           0.1759 ( 17)  0.1044 ( 19) -0.1759 ( 21) -0.1044 ( 23) -0.1044 ( 24)
          -0.1759 ( 26) -0.1542 ( 27)  0.1542 ( 28)  0.1542 ( 29) -0.1542 ( 30)
 CRD 15=  -0.2413 (  2)  0.2413 (  4)  0.2413 (  7) -0.2413 (  9) -0.4823 ( 11)
           0.4823 ( 12)  0.1949 ( 15) -0.1949 ( 19) -0.1949 ( 23)  0.1949 ( 24)
           0.1813 ( 27)  0.1813 ( 28) -0.1813 ( 29) -0.1813 ( 30)
 CRD 16=  -0.2168 (  1) -0.2068 (  2)  0.2068 (  4)  0.2168 (  5) -0.2168 (  6)
          -0.2067 (  7)  0.2067 (  9)  0.2168 ( 10)  0.2406 ( 14) -0.2360 ( 15)
          -0.2406 ( 17)  0.2360 ( 19)  0.2406 ( 21) -0.2360 ( 23)  0.2360 ( 24)
          -0.2406 ( 26) -0.2150 ( 27)  0.2150 ( 28) -0.2150 ( 29)  0.2150 ( 30)
 CRD 17=  -0.1436 (  1)  0.2217 (  2)  0.2872 (  3)  0.2217 (  4) -0.1436 (  5)
          -0.1436 (  6)  0.2217 (  7)  0.2872 (  8)  0.2217 (  9) -0.1436 ( 10)
          -0.4435 ( 11) -0.4435 ( 12) -0.1267 ( 13) -0.1379 ( 15) -0.1380 ( 19)
          -0.1267 ( 20) -0.1379 ( 23) -0.1380 ( 24)
 CRD 18=   0.2022 (  1)  0.3176 (  2) -0.3176 (  4) -0.2022 (  5)  0.2022 (  6)
           0.3176 (  7) -0.3176 (  9) -0.2022 ( 10) -0.1657 ( 15)  0.1657 ( 19)
          -0.1657 ( 23)  0.1657 ( 24) -0.2593 ( 27)  0.2593 ( 28) -0.2593 ( 29)
           0.2593 ( 30)
 CRD 19=  -0.2146 (  1)  0.3473 (  2) -0.2146 (  3)  0.3473 (  4) -0.2146 (  5)
          -0.2146 (  6)  0.3473 (  7) -0.2146 (  8)  0.3473 (  9) -0.2146 ( 10)
           0.3473 ( 11)  0.3473 ( 12)
 CRD 20=  -0.2308 ( 32) -0.2315 ( 34) -0.2308 ( 36) -0.2315 ( 37)  0.2308 ( 39)
           0.2315 ( 40)  0.2308 ( 41)  0.2315 ( 42)  0.2315 ( 43) -0.2315 ( 45)
           0.2315 ( 47) -0.2315 ( 48) -0.3757 ( 53)  0.3757 ( 54)
 CRD 21=  -0.4151 (  1)  0.1911 (  2)  0.1911 (  4) -0.4151 (  5)  0.4151 (  6)
          -0.1911 (  7) -0.1911 (  9)  0.4151 ( 10)  0.1674 ( 14)  0.1674 ( 17)
          -0.1674 ( 21) -0.1674 ( 26)
 CRD 22=   0.2020 (  2) -0.4976 (  3)  0.2020 (  4) -0.2020 (  7)  0.4976 (  8)
          -0.2020 (  9)  0.1019 ( 14)  0.1208 ( 15)  0.1019 ( 17)  0.1208 ( 19)
          -0.1019 ( 21) -0.1208 ( 23) -0.1208 ( 24) -0.1019 ( 26) -0.2118 ( 27)
           0.2118 ( 28)  0.2118 ( 29) -0.2118 ( 30)
 CRD 23=  -0.2971 (  1)  0.1356 (  2) -0.1356 (  4)  0.2971 (  5)  0.2971 (  6)
          -0.1356 (  7)  0.1356 (  9) -0.2971 ( 10)  0.2789 ( 11) -0.2789 ( 12)
           0.1337 ( 13)  0.2378 ( 15) -0.2378 ( 19) -0.1337 ( 20) -0.2378 ( 23)
           0.2378 ( 24)  0.1745 ( 27)  0.1745 ( 28) -0.1745 ( 29) -0.1745 ( 30)
 CRD 24=   0.2605 (  2) -0.2605 (  4) -0.2604 (  7)  0.2605 (  9) -0.2567 ( 11)
           0.2567 ( 12) -0.2557 ( 13)  0.1279 ( 14)  0.1309 ( 15) -0.2577 ( 16)
          -0.1279 ( 17)  0.2577 ( 18) -0.1309 ( 19)  0.2557 ( 20) -0.1278 ( 21)
           0.2577 ( 22) -0.1308 ( 23)  0.1309 ( 24) -0.2577 ( 25)  0.1279 ( 26)
          -0.1269 ( 27) -0.1269 ( 28)  0.1268 ( 29)  0.1268 ( 30)
 CRD 25=  -0.2883 ( 34)  0.2884 ( 37)  0.2883 ( 40) -0.2884 ( 42) -0.2884 ( 43)
          -0.2883 ( 45)  0.2883 ( 47)  0.2884 ( 48)  0.2883 ( 49)  0.2883 ( 50)
          -0.2883 ( 51) -0.2884 ( 52)
 CRD 26=   0.3131 (  1) -0.2137 (  2)  0.2137 (  4) -0.3131 (  5)  0.3131 (  6)
          -0.2137 (  7)  0.2137 (  9) -0.3131 ( 10) -0.1216 ( 14) -0.2107 ( 15)
           0.2170 ( 16)  0.1216 ( 17) -0.2170 ( 18)  0.2107 ( 19) -0.1216 ( 21)
           0.2170 ( 22) -0.2107 ( 23)  0.2107 ( 24) -0.2170 ( 25)  0.1216 ( 26)
 CRD 27=  -0.1816 (  1) -0.1147 (  2)  0.3631 (  3) -0.1147 (  4) -0.1816 (  5)
          -0.1816 (  6) -0.1147 (  7)  0.3631 (  8) -0.1147 (  9) -0.1816 ( 10)
           0.2295 ( 11)  0.2295 ( 12)  0.2406 ( 13) -0.1203 ( 14) -0.1203 ( 16)
          -0.1203 ( 17) -0.1203 ( 18)  0.2406 ( 20) -0.1203 ( 21) -0.1203 ( 22)
          -0.1203 ( 25) -0.1203 ( 26)  0.2126 ( 27)  0.2126 ( 28)  0.2126 ( 29)
           0.2126 ( 30)
 CRD 28=  -0.2847 ( 31) -0.2847 ( 33)  0.2847 ( 35)  0.2847 ( 38)  0.2360 ( 43)
          -0.2360 ( 45) -0.2360 ( 47)  0.2360 ( 48)  0.3218 ( 49) -0.3218 ( 50)
           0.3218 ( 51) -0.3218 ( 52)
 CRD 29=  -0.1464 ( 31) -0.1464 ( 32) -0.1464 ( 33)  0.2008 ( 34) -0.1464 ( 35)
          -0.1464 ( 36)  0.2008 ( 37) -0.1464 ( 38) -0.1464 ( 39)  0.2008 ( 40)
          -0.1464 ( 41)  0.2008 ( 42)  0.2925 ( 44)  0.2926 ( 46)  0.2008 ( 49)
           0.2008 ( 50)  0.2008 ( 51)  0.2008 ( 52) -0.4018 ( 53) -0.4018 ( 54)
 CRD 30=  -0.3180 ( 31)  0.3180 ( 33) -0.3180 ( 35)  0.3180 ( 38)  0.3180 ( 44)
          -0.3180 ( 46) -0.2292 ( 49)  0.2292 ( 50)  0.2292 ( 51) -0.2292 ( 52)
           0.2830 ( 53) -0.2830 ( 54)

 THE DETERMINANT OF THE G MATRIX IS 10**(   -19)


                     --------------------
                     INTERNAL COORDINATES
                     --------------------

                 - - ATOMS - -         COORDINATE      COORDINATE
 NO.   TYPE    I  J  K  L  M  N        (BOHR,RAD)       (ANG,DEG)
 ----------------------------------------------------------------
   1 STRETCH   1  5                     2.6145713       1.3835717
   2 STRETCH   1  9                     2.0409088       1.0800025
   3 STRETCH   1  2                     2.6116014       1.3820000
   4 STRETCH   2 10                     2.0408919       1.0799936
   5 STRETCH   2  6                     2.6145713       1.3835717
   6 STRETCH   3  6                     2.6145714       1.3835717
   7 STRETCH   3 11                     2.0408919       1.0799936
   8 STRETCH   3  4                     2.6116019       1.3820003
   9 STRETCH   4 12                     2.0408919       1.0799936
  10 STRETCH   4  5                     2.6145713       1.3835717
  11 STRETCH   5  8                     3.2805643       1.7360000
  12 STRETCH   6  7                     3.2805646       1.7360001
  13 BEND      1  5  4                  2.0943714     119.9986418
  14 BEND      1  5  8                  2.0944069     120.0006771
  15 BEND      1  2 10                  2.0943985     120.0001932
  16 BEND      1  2  6                  2.0944070     120.0006790
  17 BEND      2  6  7                  2.0944068     120.0006712
  18 BEND      2  1  5                  2.0944070     120.0006790
  19 BEND      2  1  9                  2.0943927     119.9998634
  20 BEND      2  6  3                  2.0943715     119.9986449
  21 BEND      3  6  7                  2.0944070     120.0006817
  22 BEND      3  4  5                  2.0944069     120.0006770
  23 BEND      3  4 12                  2.0943985     120.0001941
  24 BEND      4  3 11                  2.0943985     120.0001941
  25 BEND      4  3  6                  2.0944066     120.0006572
  26 BEND      4  5  8                  2.0944069     120.0006771
  27 BEND      5  1  9                  2.0943757     119.9988888
  28 BEND      5  4 12                  2.0943798     119.9991233
  29 BEND      6  3 11                  2.0943798     119.9991249
  30 BEND      6  2 10                  2.0943798     119.9991255
  31 TORSION   1  5  4  3               0.0004182       0.0239584
  32 TORSION   1  2  6  7               3.1408764     179.9589608
  33 TORSION   1  2  6  3              -0.0004176      -0.0239252
  34 TORSION   1  5  4 12               3.1415327     179.9965625
  35 TORSION   2  6  3  4               0.0009189       0.0526488
  36 TORSION   2  1  5  8               3.1412755     179.9818272
  37 TORSION   2  6  3 11               3.1415327     179.9965622
  38 TORSION   2  1  5  4               0.0000832       0.0047651
  39 TORSION   3  4  5  8              -3.1407742    -179.9531036
  40 TORSION   3  6  2 10               3.1414727     179.9931247
  41 TORSION   4  3  6  7              -3.1403751    -179.9302373
  42 TORSION   4  5  1  9              -3.1367215    -179.7209007
  43 TORSION   5  4  3 11              -3.1415327    -179.9965627
  44 TORSION   5  4  3  6              -0.0009189      -0.0526498
  45 TORSION   5  1  2 10               3.1412119     179.9781846
  46 TORSION   5  1  2  6              -0.0000832      -0.0047652
  47 TORSION   6  3  4 12               3.1411519     179.9747464
  48 TORSION   6  2  1  9               3.1367214     179.7208979
  49 TORSION   7  6  2 10              -0.0004187      -0.0239892
  50 TORSION   7  6  3 11               0.0002387       0.0136762
  51 TORSION   8  5  4 12               0.0003403       0.0195005
  52 TORSION   8  5  1  9               0.0044709       0.2561613
  53 TORSION   9  1  2 10              -0.0051688      -0.2961522
  54 TORSION  11  3  4 12               0.0005381       0.0308335

     ------------------------------------------
     THE POINT GROUP IS C1 , NAXIS= 1, ORDER= 1
     ------------------------------------------

     DIMENSIONS OF THE SYMMETRY SUBSPACES ARE
 A   =  192

 ..... DONE SETTING UP THE RUN .....
 STEP CPU TIME =     0.01 TOTAL CPU TIME =        0.0 (    0.0 MIN)
 TOTAL WALL CLOCK TIME=        0.0 SECONDS, CPU UTILIZATION IS 100.00%


          -----------------------------
          STATIONARY POINT LOCATION RUN
          -----------------------------

 OBTAINING INITIAL HESSIAN, HESS=GUESS   
 DIAGONAL GUESS HESSIAN IN INTERNAL COORDS IS
     1  0.4881     2  0.3532     3  0.4896     4  0.3532     5  0.4881
     6  0.4881     7  0.3532     8  0.4896     9  0.3532    10  0.4881
    11  0.3773    12  0.3773    13  0.2704    14  0.2700    15  0.2338
    16  0.2705    17  0.2700    18  0.2705    19  0.2338    20  0.2704
    21  0.2700    22  0.2705    23  0.2338    24  0.2338    25  0.2705
    26  0.2700    27  0.2337    28  0.2337    29  0.2337    30  0.2337
    31  0.2500    32  0.2500    33  0.2500    34  0.2500    35  0.2500
    36  0.2500    37  0.2500    38  0.2500    39  0.2500    40  0.2500
    41  0.2500    42  0.2500    43  0.2500    44  0.2500    45  0.2500
    46  0.2500    47  0.2500    48  0.2500    49  0.2500    50  0.2500
    51  0.2500    52  0.2500    53  0.2500    54  0.2500
 TRANSFORMING HESSIAN TO SYMMETRY COORDINATES

          PARAMETERS CONTROLLING GEOMETRY SEARCH ARE
          METHOD =QA                  UPHESS =BFGS    
          NNEG   =         0          NFRZ   =         3
          NSTEP  =        50          IFOLOW =         1
          HESS   =GUESS               RESTAR =         F
          IHREP  =         0          HSSEND =         F
          NPRT   =         0          NPUN   =         0
          OPTTOL = 5.000E-04          RMIN   = 1.500E-03
          RMAX   = 1.000E-01          RLIM   = 7.000E-02
          DXMAX  = 3.000E-01          PURIFY =         F
          MOVIE  =         F          TRUPD  =         T
          TRMAX  = 5.000E-01          TRMIN  = 5.000E-02
          ITBMAT =         5          STPT   =         F
          STSTEP = 1.000E-02          PROJCT=          F
          FROZEN COORD(S)=   1   2   3


      ***** EQUILIBRIUM GEOMETRY LOCATED *****
            (SUBJECT TO   3 CONSTRAINT(S))
 COORDINATES OF ALL ATOMS ARE (ANGS)
   ATOM   CHARGE       X              Y              Z
 ------------------------------------------------------------
 C           6.0  -0.6923644410   1.2056960122   0.0001670497
 C           6.0   0.6923642317   1.2056967412   0.0001188869
 C           6.0   0.6923678557  -1.2056934999   0.0003005778
 C           6.0  -0.6923635889  -1.2056987710   0.0001637939
 C           6.0  -1.3673566543  -0.0000023238   0.0000912816
 C           6.0   1.3673571117   0.0000008920   0.0000907588
 CL         17.0   3.1173707280  -0.0000004882  -0.0001757668
 CL         17.0  -3.1173724744   0.0000009639  -0.0002434687
 H           1.0  -1.2305091543   2.1343721905   0.0014120358
 H           1.0   1.2305107290   2.1343707968  -0.0001264489
 H           1.0   1.2305080926  -2.1343801778   0.0004041127
 H           1.0  -1.2305028304  -2.1343680135   0.0001228150


                     --------------------
                     INTERNAL COORDINATES
                     --------------------

                 - - ATOMS - -         COORDINATE      COORDINATE
 NO.   TYPE    I  J  K  L  M  N        (BOHR,RAD)       (ANG,DEG)
 ----------------------------------------------------------------
   1 STRETCH   1  5                     2.6111904       1.3817825
   2 STRETCH   1  9                     2.0283026       1.0733316
   3 STRETCH   1  2                     2.6167578       1.3847287
   4 STRETCH   2 10                     2.0282995       1.0733300
   5 STRETCH   2  6                     2.6111869       1.3817807
   6 STRETCH   3  6                     2.6111812       1.3817777
   7 STRETCH   3 11                     2.0283142       1.0733377
   8 STRETCH   3  4                     2.6167630       1.3847315
   9 STRETCH   4 12                     2.0282847       1.0733221
  10 STRETCH   4  5                     2.6111880       1.3817813
  11 STRETCH   5  8                     3.3070504       1.7500159
  12 STRETCH   6  7                     3.3070462       1.7500136
  13 BEND      1  5  4                  2.1208659     121.5166665
  14 BEND      1  5  8                  2.0811572     119.2415245
  15 BEND      1  2 10                  2.0959902     120.0913925
  16 BEND      1  2  6                  2.0811599     119.2416764
  17 BEND      2  6  7                  2.0811612     119.2417516
  18 BEND      2  1  5                  2.0811596     119.2416620
  19 BEND      2  1  9                  2.0959864     120.0911737
  20 BEND      2  6  3                  2.1208663     121.5166879
  21 BEND      3  6  7                  2.0811578     119.2415605
  22 BEND      3  4  5                  2.0811565     119.2414832
  23 BEND      3  4 12                  2.0959899     120.0913746
  24 BEND      4  3 11                  2.0959749     120.0905180
  25 BEND      4  3  6                  2.0811624     119.2418215
  26 BEND      4  5  8                  2.0811622     119.2418088
  27 BEND      5  1  9                  2.1060386     120.6671258
  28 BEND      5  4 12                  2.1060389     120.6671422
  29 BEND      6  3 11                  2.1060480     120.6676597
  30 BEND      6  2 10                  2.1060352     120.6669295
  31 TORSION   1  5  4  3              -0.0000127      -0.0007261
  32 TORSION   1  2  6  7               3.1414580     179.9922834
  33 TORSION   1  2  6  3              -0.0001621      -0.0092899
  34 TORSION   1  5  4 12               3.1415717     179.9987970
  35 TORSION   2  6  3  4               0.0003152       0.0180601
  36 TORSION   2  1  5  8              -3.1413336    -179.9851558
  37 TORSION   2  6  3 11              -3.1414536    -179.9920306
  38 TORSION   2  1  5  4               0.0001657       0.0094962
  39 TORSION   3  4  5  8               3.1414866     179.9939259
  40 TORSION   3  6  2 10              -3.1415054    -179.9950035
  41 TORSION   4  3  6  7              -3.1413049    -179.9835132
  42 TORSION   4  5  1  9              -3.1401815    -179.9191447
  43 TORSION   5  4  3 11               3.1415432     179.9971693
  44 TORSION   5  4  3  6              -0.0002245      -0.0128620
  45 TORSION   5  1  2 10               3.1412663     179.9813023
  46 TORSION   5  1  2  6              -0.0000785      -0.0044952
  47 TORSION   6  3  4 12               3.1413764     179.9876121
  48 TORSION   6  2  1  9               3.1402761     179.9245650
  49 TORSION   7  6  2 10               0.0001147       0.0065698
  50 TORSION   7  6  3 11               0.0001116       0.0063961
  51 TORSION   8  5  4 12              -0.0001143      -0.0065510
  52 TORSION   8  5  1  9               0.0015045       0.0862033
  53 TORSION   9  1  2 10              -0.0015645      -0.0896375
  54 TORSION  11  3  4 12              -0.0000411      -0.0023567

          INTERNUCLEAR DISTANCES (ANGS.)


 =====================================================
   GAMESS/COSab RESULTS
 =====================================================

   Dielectric Constant                  = INFTY
   Basic Grid Size                      =                 1082
   Number of Segments                   =                   92
   Number of Segments located on spheres=                  266
   Number of Segments of the cavity     =                  522
   Solvent Radius (rsolv)               = 1.40
   Outlying Charge Error Method         = double cavity

 =====================================================

  Total solvated Energy (a.u.)          = -1148.6101576057
  Total Energy corrected (a.u.)         = -1148.6103568741

  Outlying charge effect (a.u.)         =    -0.0001992684
  Outlying charge effect (kcal/mol)     =    -0.1250429337

  Dielectric Energy (a.u.)              =    -0.0076696358
  Dielectric energy corr. (a.u.)        =    -0.0078689042

  Sum of polarization charges           =     0.0220295557
  Sum of polarization charges(cor.)     =    -0.0220295557

  Total surface area of cavity (A**2)   =  158.57
  Total volume of cavity (A**3)         =  153.93

 =====================================================
 NPS=                   522
NR.  ATOM  (X, Y, Z)(a.u.)                  CHARGE(e)  AREA(A**2) SIGMA(e/A**2)
   1   1  -0.726169   1.471425   3.646406   0.000405   0.092912   0.004356
   2   1  -3.013294   2.980885   3.299406   0.000141   0.139368   0.001009
   3   1  -1.025350   4.867132   2.739425   0.000069   0.278737   0.000247
   4   1  -2.212795   3.654022  -3.401755   0.000390   0.371649   0.001049
   5   1  -2.708289   4.421098  -2.780603  -0.000187   0.371649  -0.000502
   6   1  -0.788551   5.668343  -1.587940  -0.000453   0.092912  -0.004880
   7   1  -1.061146   5.478449   1.996054  -0.000274   0.278737  -0.000981
   8   1  -3.283999   3.926601   2.768824  -0.000207   0.232280  -0.000890
   9   1  -2.603413   3.627016   3.284883   0.000207   0.232280   0.000893
  10   1  -1.578119   4.290142   3.188489   0.000242   0.232280   0.001043
  11   1  -0.979120   5.332322  -2.201872  -0.000325   0.185824  -0.001748
  12   1  -1.262576   4.438659  -3.100591   0.000724   0.418105   0.001731
  13   1  -3.254721   3.395791  -3.040661   0.000216   0.232280   0.000928
  14   1  -2.326159   2.571069   3.628354   0.000767   0.325193   0.002357
  15   1  -1.471476   1.846608   3.751464   0.000911   0.232280   0.003921
  16   1  -0.964369   2.469417   3.759222   0.001146   0.232280   0.004934
  17   1  -0.874665   3.688200   3.480062   0.000773   0.278737   0.002773
  18   1  -1.125522   3.144675  -3.673988   0.001698   0.511017   0.003323
  19   1  -2.431497   2.549681  -3.598203   0.000879   0.418105   0.002102
  20   1  -1.663770   5.002725  -2.595105  -0.000181   0.232280  -0.000780
  21   1  -2.324405   4.534749   2.857046  -0.000169   0.325193  -0.000520
  22   1  -3.611000   4.063073  -2.407433  -0.000446   0.092912  -0.004801
  23   1  -1.086164   1.784896  -3.740189   0.002076   0.464561   0.004469
  24   1  -1.664124   3.300324   3.621553   0.000596   0.278737   0.002138
  25   2   0.726172   1.475359  -3.646748   0.000404   0.092912   0.004351
  26   2   3.013306   2.984432  -3.298119   0.000142   0.139368   0.001016
  27   2   1.025371   4.870085  -2.736105   0.000069   0.278737   0.000248
  28   2   2.212809   3.650344   3.403763   0.000390   0.371649   0.001048
  29   2   2.708308   4.418088   2.783440  -0.000188   0.371649  -0.000506
  30   2   0.788577   5.666628   1.592123  -0.000454   0.092912  -0.004883
  31   2   1.061171   5.480600  -1.992074  -0.000272   0.278737  -0.000977
  32   2   3.284015   3.929574  -2.766518  -0.000206   0.232280  -0.000886
  33   2   2.603428   3.630550  -3.282899   0.000208   0.232280   0.000894
  34   2   1.578137   4.293577  -3.185790   0.000243   0.232280   0.001044
  35   2   0.979144   5.329944   2.205691  -0.000325   0.185824  -0.001747
  36   2   1.262595   4.435311   3.103446   0.000724   0.418105   0.001731
  37   2   3.254735   3.392498   3.042392   0.000214   0.232280   0.000923
  38   2   2.326169   2.574974  -3.627510   0.000767   0.325193   0.002358
  39   2   1.471481   1.850652  -3.751401   0.000912   0.232280   0.003928
  40   2   0.964377   2.473471  -3.758487   0.001146   0.232280   0.004936
  41   2   0.874680   3.691954  -3.478013   0.000772   0.278737   0.002771
  42   2   1.125534   3.140710   3.675447   0.001698   0.511017   0.003322
  43   2   2.431506   2.545791   3.599020   0.000878   0.418105   0.002100
  44   2   1.663793   4.999920   2.598568  -0.000182   0.232280  -0.000783
  45   2   2.324425   4.537821  -2.854083  -0.000168   0.325193  -0.000517
  46   2   3.611017   4.060460   2.409883  -0.000447   0.092912  -0.004808
  47   2   1.086168   1.780860   3.740181   0.002076   0.464561   0.004468
  48   2   1.664137   3.304226  -3.619922   0.000596   0.278737   0.002137
  49   3   0.725948  -1.476063   3.647657   0.000404   0.092912   0.004352
  50   3   3.013086  -2.985096   3.298885   0.000141   0.139368   0.001014
  51   3   1.025165  -4.870617   2.736383   0.000068   0.278737   0.000244
  52   3   2.213009  -3.649715  -3.403176   0.000400   0.371649   0.001076
  53   3   2.708459  -4.417583  -2.782968  -0.000181   0.371649  -0.000487
  54   3   0.788636  -5.666329  -1.592012  -0.000454   0.092912  -0.004889
  55   3   1.061005  -5.480990   1.992237  -0.000272   0.278737  -0.000977
  56   3   3.283818  -3.930139   2.767120  -0.000205   0.232280  -0.000884
  57   3   2.603201  -3.631206   3.283515   0.000208   0.232280   0.000893
  58   3   1.577909  -4.294202   3.186214   0.000242   0.232280   0.001043
  59   3   0.979247  -5.329529  -2.205504  -0.000323   0.185824  -0.001736
  60   3   1.262766  -4.434728  -3.103070   0.000724   0.418105   0.001731
  61   3   3.255913  -3.507597  -2.996182   0.000132   0.185824   0.000709
  62   3   2.325933  -2.575693   3.628310   0.000768   0.325193   0.002362
  63   3   1.471247  -1.851384   3.752286   0.000912   0.232280   0.003926
  64   3   0.964134  -2.474199   3.759220   0.001146   0.232280   0.004936
  65   3   0.874441  -3.692626   3.478507   0.000772   0.278737   0.002769
  66   3   1.125756  -3.140016  -3.674831   0.001696   0.511017   0.003318
  67   3   2.431731  -2.545127  -3.598207   0.000894   0.418105   0.002138
  68   3   1.663924  -4.999438  -2.598274  -0.000182   0.232280  -0.000786
  69   3   2.324215  -4.538392   2.854508  -0.000168   0.325193  -0.000517
  70   3   3.611148  -4.060038  -2.409285  -0.000444   0.092912  -0.004780
  71   3   1.086411  -1.780153  -3.739307   0.002073   0.464561   0.004463
  72   3   1.663893  -3.304935   3.620541   0.000595   0.278737   0.002135
  73   4  -0.725951  -1.476305  -3.646817   0.000404   0.092912   0.004353
  74   4  -3.013099  -2.985300  -3.297947   0.000142   0.139368   0.001015
  75   4  -1.025191  -4.870798  -2.735322   0.000069   0.278737   0.000246
  76   4  -2.213026  -3.649487   3.404157   0.000400   0.371649   0.001076
  77   4  -2.708482  -4.417392   2.783999  -0.000181   0.371649  -0.000487
  78   4  -0.788668  -5.666229   1.593125  -0.000455   0.092912  -0.004893
  79   4  -1.061035  -5.481122  -1.991137  -0.000272   0.278737  -0.000976
  80   4  -3.283838  -3.930306  -2.766120  -0.000205   0.232280  -0.000885
  81   4  -2.603219  -3.631411  -3.282535   0.000208   0.232280   0.000894
  82   4  -1.577931  -4.294408  -3.185190   0.000242   0.232280   0.001044
  83   4  -0.979276  -5.329388   2.206595  -0.000323   0.185824  -0.001736
  84   4  -1.262789  -4.434526   3.104102   0.000723   0.418105   0.001730
  85   4  -3.255929  -3.507389   2.997155   0.000131   0.185824   0.000707
  86   4  -2.325943  -2.575923  -3.627399   0.000768   0.325193   0.002361
  87   4  -1.471252  -1.851628  -3.751422   0.000911   0.232280   0.003923
  88   4  -0.964144  -2.474446  -3.758315   0.001147   0.232280   0.004936
  89   4  -0.874459  -3.692856  -3.477523   0.000772   0.278737   0.002770
  90   4  -1.125770  -3.139778   3.675779   0.001696   0.511017   0.003318
  91   4  -2.431741  -2.544885   3.599117   0.000894   0.418105   0.002139
  92   4  -1.663951  -4.999267   2.599344  -0.000182   0.232280  -0.000785
  93   4  -2.324239  -4.538571  -2.853468  -0.000168   0.325193  -0.000516
  94   4  -3.611169  -4.059866   2.410294  -0.000444   0.092912  -0.004778
  95   4  -1.086416  -1.779911   3.740167   0.002074   0.464561   0.004464
  96   4  -1.663908  -3.305169  -3.619582   0.000595   0.278737   0.002136
  97   5  -3.108400  -0.899459   3.633376   0.000114   0.139368   0.000821
  98   5  -3.092804   0.655111   3.687469   0.000388   0.232280   0.001669
  99   5  -3.018277  -0.185578   3.749996   0.000480   0.185824   0.002585
 100   5  -2.309616  -0.387794   3.749657   0.000519   0.139368   0.003723
 101   5  -1.882856   0.046465  -3.713394   0.001466   0.371649   0.003944
 102   5  -3.123419   0.780298  -3.658289   0.000350   0.232280   0.001508
 103   5  -3.040823  -0.517887  -3.715642   0.000987   0.418105   0.002361
 104   5  -1.986649   0.242737   3.724231   0.000916   0.232280   0.003945
 105   6   3.107348  -0.899750  -3.633121   0.000114   0.139368   0.000821
 106   6   3.091735   0.654815  -3.687334   0.000388   0.232280   0.001670
 107   6   3.017190  -0.185879  -3.749771   0.000480   0.185824   0.002585
 108   6   2.308530  -0.388096  -3.749209   0.000519   0.139368   0.003721
 109   6   1.883951   0.046762   3.713932   0.001466   0.371649   0.003946
 110   6   3.124497   0.780591   3.658405   0.000350   0.232280   0.001507
 111   6   3.041919  -0.517590   3.715887   0.000987   0.418105   0.002361
 112   6   1.985570   0.242437  -3.723739   0.000916   0.232280   0.003944
 113   7   9.763260  -0.111861   0.017833  -0.002860   0.536887  -0.005328
 114   7   7.625896  -2.264049  -2.621708   0.002758   0.488079   0.005652
 115   7   7.628163  -3.223226   1.264762   0.002672   0.488079   0.005475
 116   7   7.700111   0.110138   3.423451   0.002666   0.488079   0.005463
 117   7   7.758889   3.264855   0.926471   0.002587   0.488079   0.005301
 118   7   7.571116   1.843525  -2.964440   0.002497   0.439271   0.005685
 119   7   9.480292  -0.863927  -1.174168  -0.001857   0.585695  -0.003171
 120   7   8.747485  -1.730577  -1.963220   0.000646   0.488079   0.001325
 121   7   9.463129  -1.436217   0.429151  -0.001835   0.585695  -0.003134
 122   7   8.712496  -2.531444   0.798595   0.000687   0.488079   0.001409
 123   7   9.490090  -0.022159   1.432602  -0.001898   0.585695  -0.003240
 124   7   8.764211   0.315588   2.578878   0.000731   0.536887   0.001362
 125   7   9.539990   1.225526   0.435764  -0.001992   0.536887  -0.003709
 126   7   8.873124   2.393926   0.618762   0.000323   0.488079   0.000662
 127   7   9.513964   0.842193  -1.082961  -0.002399   0.683311  -0.003511
 128   7   8.764302   1.446330  -2.158927   0.000732   0.585695   0.001250
 129   7   7.893360  -2.968002  -1.479828   0.002326   0.488079   0.004765
 130   7   7.890661  -3.315458  -0.128711   0.002704   0.536887   0.005037
 131   7   8.016223  -2.408057   2.165779   0.002422   0.536887   0.004511
 132   7   7.934168  -1.139607   3.087398   0.002919   0.585695   0.004983
 133   7   7.852860   1.517140   2.975682   0.003041   0.585695   0.005192
 134   7   7.925482   2.587647   2.042268   0.002815   0.585695   0.004806
 135   7   7.887048   3.299437  -0.370136   0.002635   0.536887   0.004908
 136   7   7.866742   2.756232  -1.873004   0.002940   0.585695   0.005020
 137   7   7.879983   0.658472  -3.258811   0.003313   0.634503   0.005221
 138   7   7.991580  -0.979411  -3.104469   0.002963   0.634503   0.004670
 139   7   6.772467  -3.113006  -2.130977   0.002874   0.439271   0.006544
 140   7   5.957045  -3.003402  -2.446286   0.001292   0.244040   0.005296
 141   7   6.756743  -3.686210   0.818067   0.002533   0.390463   0.006486
 142   7   6.597878  -3.113268   2.194048   0.002980   0.439271   0.006784
 143   7   5.931507  -2.533448   2.930100   0.002135   0.390463   0.005468
 144   7   5.487986  -1.361804   3.603900   0.002547   0.536887   0.004744
 145   7   6.505743  -0.571507   3.781577   0.003957   0.585695   0.006755
 146   7   6.631226   1.021587   3.662419   0.003952   0.585695   0.006748
 147   7   5.560133   1.627537   3.499526   0.002117   0.439271   0.004820
 148   7   5.779120   2.786112   2.688979   0.001415   0.292848   0.004831
 149   7   6.697206   3.377245   1.717671   0.002913   0.439271   0.006632
 150   7   6.819365   3.757268   0.168054   0.002273   0.341655   0.006653
 151   7   6.224984   3.068424  -2.341392   0.002291   0.390463   0.005867
 152   7   6.636683   2.496632  -2.867059   0.002612   0.390463   0.006689
 153   7   6.476610   1.342455  -3.586729   0.003199   0.488079   0.006554
 154   7   5.386417   0.589929  -3.795699   0.002288   0.488079   0.004687
 155   7   5.429581  -1.064192  -3.696553   0.002491   0.536887   0.004639
 156   7   6.728195  -1.658648  -3.399657   0.003271   0.488079   0.006702
 157   7   8.941264  -2.287436  -0.686521   0.000208   0.585695   0.000355
 158   7   8.980090  -1.282319   1.954270   0.000074   0.683311   0.000108
 159   7   8.959782   1.556623   1.779199   0.000071   0.585695   0.000121
 160   7   8.881212   2.330409  -0.797237   0.000370   0.634503   0.000584
 161   7   8.940240  -0.138936  -2.385730   0.000171   0.585695   0.000292
 162   7   6.873424  -3.642017  -0.882372   0.002654   0.390463   0.006798
 163   7   6.930483  -2.026495   3.133383   0.003200   0.488079   0.006556
 164   7   6.700367   2.467442   2.874376   0.003207   0.488079   0.006570
 165   7   6.866225   3.507138  -1.325553   0.002945   0.439271   0.006704
 166   7   6.657600  -0.242820  -3.789891   0.004356   0.634503   0.006864
 167   7   5.305840   0.260212   3.820305   0.002080   0.488079   0.004261
 168   7   5.466938   1.846604  -3.379329   0.001481   0.341655   0.004334
 169   7   5.775371  -2.278580  -3.131175   0.001776   0.341655   0.005198
 170   8  -9.763264  -0.111843  -0.019920  -0.002860   0.536887  -0.005328
 171   8  -7.626801  -2.263755   2.620574   0.002759   0.488079   0.005652
 172   8  -7.627753  -3.223346  -1.265793   0.002672   0.488079   0.005475
 173   8  -7.698959   0.109789  -3.424861   0.002666   0.488079   0.005462
 174   8  -7.758575   3.264771  -0.928237   0.002587   0.488079   0.005300
 175   8  -7.572126   1.843855   2.962888   0.002497   0.439271   0.005685
 176   8  -9.480702  -0.863782   1.172256  -0.001857   0.585695  -0.003170
 177   8  -8.748165  -1.730350   1.961649   0.000647   0.488079   0.001325
 178   8  -9.462997  -1.436243  -0.430996  -0.001835   0.585695  -0.003134
 179   8  -8.712241  -2.531511  -0.800068   0.000687   0.488079   0.001408
 180   8  -9.489614  -0.022292  -1.434606  -0.001898   0.585695  -0.003241
 181   8  -8.763345   0.315331  -2.580671   0.000731   0.536887   0.001361
 182   8  -9.539848   1.225499  -0.437917  -0.001992   0.536887  -0.003710
 183   8  -8.872917   2.393879  -0.620814   0.000323   0.488079   0.000662
 184   8  -9.514338   0.842329   1.080856  -0.002398   0.683311  -0.003510
 185   8  -8.765040   1.446578   2.157012   0.000732   0.585695   0.001250
 186   8  -7.893880  -2.967829   1.478679   0.002326   0.488079   0.004765
 187   8  -7.890723  -3.315429   0.127600   0.002704   0.536887   0.005037
 188   8  -8.015505  -2.408272  -2.167029   0.002421   0.536887   0.004510
 189   8  -7.933133  -1.139921  -3.088755   0.002918   0.585695   0.004983
 190   8  -7.851856   1.516839  -2.977294   0.003041   0.585695   0.005192
 191   8  -7.924791   2.587446  -2.044019   0.002815   0.585695   0.004806
 192   8  -7.887174   3.299492   0.368322   0.002635   0.536887   0.004908
 193   8  -7.867379   2.756447   1.871255   0.002941   0.585695   0.005021
 194   8  -7.881096   0.658834   3.257281   0.003313   0.634503   0.005221
 195   8  -7.992646  -0.979065   3.103075   0.002964   0.634503   0.004671
 196   8  -6.773208  -3.112767   2.130224   0.002874   0.439271   0.006544
 197   8  -5.957893  -3.003131   2.445798   0.001292   0.244040   0.005296
 198   8  -6.756486  -3.686285  -0.818754   0.002533   0.390463   0.006486
 199   8  -6.597153  -3.113490  -2.194742   0.002980   0.439271   0.006784
 200   8  -5.930530  -2.533750  -2.930629   0.002135   0.390463   0.005468
 201   8  -5.486777  -1.362179  -3.604404   0.002547   0.536887   0.004744
 202   8  -6.504471  -0.571898  -3.782509   0.003957   0.585695   0.006756
 203   8  -6.629991   1.021209  -3.663564   0.003952   0.585695   0.006748
 204   8  -5.558951   1.627173  -3.500372   0.002118   0.439271   0.004821
 205   8  -5.778210   2.785835  -2.690023   0.001415   0.292848   0.004832
 206   8  -6.696623   3.377074  -1.719089   0.002914   0.439271   0.006633
 207   8  -6.819307   3.757263  -0.169554   0.002274   0.341655   0.006655
 208   8  -6.225780   3.068684   2.340167   0.002290   0.390463   0.005866
 209   8  -6.637658   2.496949   2.865754   0.002612   0.390463   0.006688
 210   8  -6.477832   1.342849   3.585602   0.003199   0.488079   0.006554
 211   8  -5.387712   0.590341   3.795022   0.002288   0.488079   0.004687
 212   8  -5.430848  -1.063789   3.696037   0.002491   0.536887   0.004639
 213   8  -6.729363  -1.658273   3.398764   0.003271   0.488079   0.006702
 214   8  -8.941513  -2.287344   0.684944   0.000208   0.585695   0.000355
 215   8  -8.979440  -1.282509  -1.955967   0.000073   0.683311   0.000107
 216   8  -8.959183   1.556452  -1.781191   0.000070   0.585695   0.000120
 217   8  -8.881485   2.330512   0.795189   0.000371   0.634503   0.000584
 218   8  -8.941059  -0.138664   2.383925   0.000172   0.585695   0.000293
 219   8  -6.873743  -3.641910   0.881641   0.002655   0.390463   0.006798
 220   8  -6.929435  -2.026816  -3.134306   0.003200   0.488079   0.006556
 221   8  -6.699395   2.467149  -2.875699   0.003207   0.488079   0.006570
 222   8  -6.866674   3.507292   1.324063   0.002944   0.439271   0.006702
 223   8  -6.658896  -0.242405   3.788871   0.004356   0.634503   0.006864
 224   8  -5.304553   0.259814  -3.820920   0.002080   0.488079   0.004261
 225   8  -5.468089   1.846973   3.378491   0.001480   0.341655   0.004333
 226   8  -5.776450  -2.278237   3.130671   0.001776   0.341655   0.005198
 227   9  -3.275543   6.279512  -0.292489  -0.005199   0.471065  -0.011036
 228   9  -3.653373   5.283435   1.648504  -0.003540   0.412182  -0.008588
 229   9  -3.084437   5.621039  -1.711454  -0.003110   0.392554  -0.007922
 230   9  -1.683684   6.360572  -0.452978  -0.002895   0.294415  -0.009832
 231   9  -2.334049   5.959328   1.527719  -0.002627   0.353299  -0.007437
 232   9  -4.209705   5.584004   0.285168  -0.004507   0.412182  -0.010934
 233   9  -3.980728   5.412315  -1.177715  -0.005003   0.490692  -0.010195
 234   9  -2.315032   6.179313  -1.193158  -0.003365   0.392554  -0.008572
 235   9  -2.050591   6.420223   0.515154  -0.004616   0.471065  -0.009799
 236   9  -3.310783   6.062390   0.975873  -0.004022   0.392554  -0.010245
 237  10   3.275567   6.279172   0.297331  -0.005199   0.471065  -0.011036
 238  10   3.653391   5.285188  -1.644735  -0.003539   0.412182  -0.008585
 239  10   3.084458   5.619170   1.715585  -0.003111   0.392554  -0.007925
 240  10   1.683709   6.360067   0.457908  -0.002895   0.294415  -0.009833
 241  10   2.334071   5.960957  -1.523221  -0.002627   0.353299  -0.007434
 242  10   4.209726   5.584282  -0.281075  -0.004507   0.412182  -0.010934
 243  10   3.980748   5.411017   1.181621  -0.005003   0.490692  -0.010196
 244  10   2.315056   6.178007   1.197892  -0.003366   0.392554  -0.008574
 245  10   2.050616   6.420761  -0.510159  -0.004616   0.471065  -0.009799
 246  10   3.310806   6.063418  -0.971264  -0.004021   0.392554  -0.010244
 247  11   3.275540  -6.279154  -0.297180  -0.005199   0.471065  -0.011037
 248  11   3.653252  -5.285547   1.645101  -0.003539   0.412182  -0.008586
 249  11   3.084528  -5.618879  -1.715319  -0.003112   0.392554  -0.007927
 250  11   1.683690  -6.360000  -0.457873  -0.002897   0.294415  -0.009839
 251  11   2.333932  -5.961277   1.523373  -0.002627   0.353299  -0.007436
 252  11   4.209670  -5.584387   0.281419  -0.004508   0.412182  -0.010936
 253  11   3.980787  -5.410839  -1.181258  -0.005004   0.490692  -0.010198
 254  11   2.315087  -6.177806  -1.197782  -0.003366   0.392554  -0.008576
 255  11   2.050535  -6.420884   0.510206  -0.004617   0.471065  -0.009800
 256  11   3.310700  -6.063645   0.971459  -0.004022   0.392554  -0.010245
 257  12  -3.275556  -6.279089   0.298332  -0.005199   0.471065  -0.011037
 258  12  -3.653262  -5.285605  -1.644013  -0.003538   0.412182  -0.008585
 259  12  -3.084540  -5.618722   1.716429  -0.003111   0.392554  -0.007925
 260  12  -1.683707  -6.359935   0.459031  -0.002894   0.294415  -0.009830
 261  12  -2.333946  -5.961337  -1.522241  -0.002626   0.353299  -0.007432
 262  12  -4.209681  -5.584353  -0.280312  -0.004507   0.412182  -0.010935
 263  12  -3.980797  -5.410711   1.182355  -0.005004   0.490692  -0.010198
 264  12  -2.315102  -6.177688   1.198928  -0.003365   0.392554  -0.008573
 265  12  -2.050553  -6.420879  -0.509044  -0.004614   0.471065  -0.009795
 266  12  -3.310715  -6.063661  -0.970320  -0.004021   0.392554  -0.010244
 267   1  -0.442580   0.804187  -3.385288   0.000185   0.048130   0.003844
 268   2   0.007435   0.814956  -3.349641   0.000129   0.048130   0.002682
 269   5  -0.671320   0.417613  -3.349728   0.000117   0.048130   0.002438
 270   1  -0.007429   0.814673   3.350044   0.000129   0.048130   0.002676
 271   2   0.442585   0.803900   3.385691   0.000184   0.048130   0.003831
 272   6   0.671326   0.417330   3.350098   0.000117   0.048130   0.002437
 273   2   0.323365   1.507482  -3.555216   0.000857   0.207655   0.004125
 274   2   0.323377   3.584060  -3.243408   0.000740   0.426328   0.001736
 275   2   0.323436   5.436951  -1.499661  -0.003077   0.426328  -0.007217
 276   1  -0.323591   2.314405  -3.496112   0.001580   0.426328   0.003706
 277   1  -0.323558   4.674745  -2.546032  -0.000878   0.426328  -0.002060
 278   1  -0.323499   5.829205  -0.792001  -0.001628   0.207655  -0.007841
 279   2   0.323512   5.828421   0.796351  -0.001627   0.207535  -0.007840
 280   2   0.323569   4.673048   2.548472  -0.000878   0.426057  -0.002060
 281   2   0.323599   2.313361   3.496880   0.001578   0.426057   0.003703
 282   1  -0.323423   5.435744   1.503264  -0.003074   0.426057  -0.007215
 283   1  -0.323367   3.582480   3.244819   0.000739   0.426057   0.001733
 284   1  -0.323359   1.506864   3.555680   0.000855   0.207535   0.004121
 285   1  -0.340843   0.621428   3.322115   0.000170   0.101724   0.001673
 286   5  -0.565595   0.228182   3.304293   0.000077   0.101724   0.000761
 287   6   0.340462   0.230893   3.265214  -0.000036   0.101724  -0.000355
 288   1  -3.364954   1.908508   3.287961  -0.000102   0.061122  -0.001670
 289   5  -3.595373   1.523034   3.328058  -0.000190   0.061122  -0.003107
 290   8  -4.161952   1.512581   3.291741  -0.000221   0.061122  -0.003617
 291   1  -3.363712   1.908194  -3.288089  -0.000109   0.061122  -0.001784
 292   5  -3.594115   1.522716  -3.328236  -0.000196   0.061122  -0.003213
 293   8  -4.160708   1.512266  -3.292133  -0.000211   0.061122  -0.003447
 294   5  -1.437618   0.484382   3.555644   0.000745   0.210487   0.003540
 295   5  -2.867809   1.285065   3.529771   0.000235   0.210487   0.001115
 296   1  -1.836627   1.447629   3.490379   0.001048   0.432908   0.002420
 297   5  -2.866781   1.284899  -3.529647   0.000245   0.210355   0.001164
 298   5  -1.437439   0.484694  -3.555276   0.000592   0.210355   0.002814
 299   1  -1.836034   1.447702  -3.490132   0.000977   0.432607   0.002259
 300   1  -4.112820   3.924404   2.018776  -0.000545   0.072728  -0.007500
 301   8  -4.881570   3.481158   1.968088  -0.000282   0.072728  -0.003872
 302   9  -4.132110   4.159783   1.835823  -0.000698   0.072728  -0.009593
 303   1  -4.114397   3.928915  -2.012279  -0.000509   0.072728  -0.007001
 304   8  -4.883108   3.485556  -1.961981  -0.000255   0.072728  -0.003511
 305   9  -4.133544   4.163884  -1.828785  -0.000572   0.072728  -0.007858
 306   8  -4.625010   1.954024   3.257469   0.000150   0.345878   0.000433
 307   8  -5.154686   3.019608   2.524382   0.000445   0.345878   0.001288
 308   1  -3.738841   3.021214   2.836068  -0.001498   0.682804  -0.002194
 309   8  -5.155962   3.023850  -2.520062   0.000435   0.347208   0.001252
 310   8  -4.624477   1.955116  -3.257112   0.000177   0.347208   0.000509
 311   1  -3.739131   3.023680  -2.833133  -0.001569   0.685471  -0.002289
 312   1  -0.338926   5.938147  -0.228850  -0.000225   0.008524  -0.026348
 313   9  -0.628247   5.994268  -0.204708  -0.000211   0.008524  -0.024700
 314  10   0.403242   5.949732  -0.201283  -0.000264   0.008524  -0.030959
 315   9  -3.642001   4.669811   1.975028  -0.000580   0.067848  -0.008555
 316   9  -2.679240   5.227598   2.056015  -0.001402   0.151348  -0.009261
 317   9  -1.641168   5.829959   1.442073  -0.001556   0.151348  -0.010279
 318   9  -1.135169   6.124450   0.492424  -0.000803   0.067848  -0.011836
 319   1  -3.148797   4.579206   2.290182  -0.001213   0.147938  -0.008199
 320   1  -1.851828   5.331053   2.076459  -0.001209   0.147938  -0.008172
 321   1  -0.943464   5.858894   0.985892  -0.001646   0.147938  -0.011124
 322   9  -1.135484   6.125581  -0.482983  -0.000779   0.067854  -0.011478
 323   9  -1.642153   5.833257  -1.433055  -0.001462   0.151365  -0.009660
 324   9  -2.680740   5.232251  -2.047689  -0.001346   0.151365  -0.008894
 325   9  -3.643522   4.674235  -1.967236  -0.000510   0.067854  -0.007517
 326   1  -0.944119   5.861156  -0.977221  -0.001553   0.147949  -0.010498
 327   1  -1.853295   5.335781  -2.068469  -0.001205   0.147949  -0.008144
 328   1  -3.150524   4.584360  -2.282967  -0.001160   0.147949  -0.007842
 329   2   0.340852   0.621703  -3.321727   0.000171   0.101724   0.001676
 330   5  -0.340452   0.231163  -3.264858  -0.000036   0.101724  -0.000356
 331   6   0.565604   0.228456  -3.303938   0.000077   0.101724   0.000758
 332   2   3.363844   1.908157  -3.288094  -0.000101   0.061121  -0.001658
 333   6   3.594249   1.522678  -3.328228  -0.000189   0.061121  -0.003100
 334   7   4.160837   1.512227  -3.292103  -0.000221   0.061121  -0.003612
 335   2   3.364833   1.908542   3.287959  -0.000110   0.061121  -0.001797
 336   6   3.595250   1.523069   3.328069  -0.000197   0.061121  -0.003220
 337   7   4.161826   1.512613   3.291775  -0.000211   0.061121  -0.003452
 338   6   1.437375   0.484536  -3.555272   0.000745   0.210378   0.003540
 339   6   2.866870   1.284828  -3.529664   0.000235   0.210378   0.001119
 340   2   1.836046   1.447589  -3.490145   0.001052   0.432661   0.002430
 341   6   2.867734   1.285132   3.529755   0.000244   0.210463   0.001159
 342   6   1.437696   0.484534   3.555648   0.000592   0.210463   0.002812
 343   2   1.836629   1.447737   3.490366   0.000973   0.432854   0.002247
 344   2   4.113222   3.926349  -2.016111  -0.000545   0.072727  -0.007494
 345   7   4.881960   3.483053  -1.965702  -0.000281   0.072727  -0.003864
 346  10   4.132478   4.161548  -1.832927  -0.000697   0.072727  -0.009588
 347   2   4.114017   3.926965   2.014941  -0.000509   0.072727  -0.007005
 348   7   4.882734   3.483653   1.964365  -0.000256   0.072727  -0.003521
 349  10   4.133200   4.162108   1.831678  -0.000572   0.072727  -0.007863
 350   7   4.624228   1.954318  -3.257589   0.000151   0.346489   0.000436
 351   7   5.154861   3.021396  -2.522833   0.000448   0.346489   0.001292
 352   2   3.738513   3.022168  -2.834922  -0.001500   0.684030  -0.002192
 353   7   5.155799   3.022054   2.521607   0.000432   0.346596   0.001248
 354   7   4.625263   1.954814   3.256992   0.000176   0.346596   0.000507
 355   2   3.739475   3.022721   2.834277  -0.001567   0.684245  -0.002291
 356   2   0.338954   5.937907   0.233220  -0.000225   0.008520  -0.026360
 357   9  -0.403216   5.949525   0.205678  -0.000264   0.008520  -0.030967
 358  10   0.628274   5.994050   0.209149  -0.000211   0.008520  -0.024708
 359  10   3.642359   4.671733  -1.971741  -0.000580   0.067858  -0.008549
 360  10   2.679463   5.229691  -2.052300  -0.001401   0.151377  -0.009256
 361  10   1.641216   5.831499  -1.437684  -0.001556   0.151377  -0.010277
 362  10   1.135174   6.124995  -0.487549  -0.000803   0.067858  -0.011834
 363   2   3.149140   4.581483  -2.287056  -0.001212   0.147956  -0.008194
 364   2   1.851969   5.333226  -2.072655  -0.001209   0.147956  -0.008170
 365   2   0.943479   5.859970  -0.981358  -0.001646   0.147956  -0.011125
 366  10   1.135491   6.125071   0.487539  -0.000779   0.067847  -0.011479
 367  10   1.642043   5.831788   1.437263  -0.001462   0.151346  -0.009662
 368  10   2.680467   5.230205   2.051361  -0.001347   0.151346  -0.008898
 369  10   3.643175   4.672313   1.970521  -0.000510   0.067847  -0.007522
 370   2   0.944075   5.860149   0.981455  -0.001553   0.147936  -0.010500
 371   2   1.853073   5.333693   2.072158  -0.001205   0.147936  -0.008148
 372   2   3.150159   4.582114   2.286078  -0.001161   0.147936  -0.007847
 373   3   0.007216  -0.814683   3.350226   0.000129   0.048131   0.002681
 374   4  -0.442803  -0.803911   3.385844   0.000184   0.048131   0.003830
 375   5  -0.671538  -0.417337   3.350235   0.000122   0.048131   0.002539
 376   3   0.442796  -0.804725  -3.385306   0.000184   0.048131   0.003829
 377   4  -0.007223  -0.815489  -3.349686   0.000129   0.048131   0.002681
 378   6   0.671535  -0.418142  -3.349792   0.000122   0.048131   0.002537
 379   4  -0.323561  -5.829243   0.792517  -0.001628   0.207672  -0.007839
 380   4  -0.323731  -4.674739   2.546693  -0.000882   0.426366  -0.002068
 381   4  -0.323823  -2.314221   3.496771   0.001579   0.426366   0.003704
 382   3   0.323332  -5.436979   1.500280  -0.003080   0.426366  -0.007223
 383   3   0.323163  -3.583972   3.244143   0.000739   0.426366   0.001733
 384   3   0.323133  -1.507236   3.555879   0.000856   0.207672   0.004122
 385   4  -0.323141  -1.508053  -3.555173   0.000856   0.207658   0.004123
 386   4  -0.323171  -3.584597  -3.243030   0.000739   0.426334   0.001733
 387   4  -0.323340  -5.437212  -1.498964  -0.003073   0.426334  -0.007207
 388   3   0.323815  -2.314972  -3.495899   0.001579   0.426334   0.003704
 389   3   0.323723  -4.675175  -2.545429  -0.000881   0.426334  -0.002068
 390   3   0.323554  -5.829349  -0.791191  -0.001652   0.207658  -0.007954
 391   3   0.340867  -0.621037   3.322187   0.000169   0.101725   0.001662
 392   5  -0.340437  -0.230504   3.265243  -0.000034   0.101725  -0.000337
 393   6   0.565620  -0.227789   3.304317   0.000066   0.101725   0.000653
 394   3   3.364820  -1.908026   3.288260  -0.000104   0.061122  -0.001701
 395   6   3.595237  -1.522542   3.328310  -0.000213   0.061122  -0.003489
 396   7   4.161814  -1.512098   3.292014  -0.000218   0.061122  -0.003567
 397   3   3.363832  -1.908658  -3.287804  -0.000106   0.061122  -0.001733
 398   6   3.594237  -1.523182  -3.327997  -0.000184   0.061122  -0.003010
 399   7   4.160825  -1.512731  -3.291874  -0.000209   0.061122  -0.003412
 400   6   2.866932  -1.285404  -3.529467   0.000239   0.210347   0.001134
 401   6   1.437647  -0.485240  -3.555283   0.000760   0.210347   0.003615
 402   3   1.836210  -1.448225  -3.489981   0.000958   0.432589   0.002214
 403   6   1.437608  -0.483937   3.555695   0.000684   0.210473   0.003252
 404   6   2.867702  -1.284563   3.529957   0.000143   0.210473   0.000679
 405   3   1.836570  -1.447168   3.490573   0.001086   0.432876   0.002509
 406   3   4.113839  -3.926327   2.016069  -0.000545   0.072727  -0.007498
 407   7   4.882561  -3.483033   1.965413  -0.000281   0.072727  -0.003863
 408  11   4.133034  -4.161533   1.832886  -0.000698   0.072727  -0.009594
 409   3   4.113394  -3.927038  -2.014962  -0.000510   0.072727  -0.007015
 410   7   4.882127  -3.483726  -1.964633  -0.000264   0.072727  -0.003626
 411  11   4.132629  -4.162179  -1.831700  -0.000572   0.072727  -0.007868
 412   7   4.625202  -1.954208   3.257371   0.000159   0.346502   0.000460
 413   7   5.155630  -3.021351   2.522461   0.000384   0.346502   0.001109
 414   3   3.739367  -3.022088   2.834991  -0.001505   0.684056  -0.002201
 415   7   5.155025  -3.022144  -2.521969   0.000413   0.346594   0.001192
 416   7   4.624270  -1.954931  -3.257219   0.000128   0.346594   0.000369
 417   3   3.738608  -3.022821  -2.834206  -0.001526   0.684240  -0.002230
 418  11   1.135256  -6.125113  -0.486423  -0.000792   0.067851  -0.011672
 419  11   1.641488  -5.831876  -1.436398  -0.001463   0.151357  -0.009664
 420  11   2.679758  -5.230304  -2.050908  -0.001347   0.151357  -0.008901
 421  11   3.642547  -4.672393  -1.970386  -0.000511   0.067851  -0.007526
 422   3   0.943669  -5.860210  -0.980303  -0.001561   0.147943  -0.010554
 423   3   1.852326  -5.333798  -2.071411  -0.001206   0.147943  -0.008151
 424   3   3.149412  -4.582207  -2.285793  -0.001161   0.147943  -0.007850
 425  11   3.642926  -4.671730   1.971873  -0.000580   0.067867  -0.008549
 426  11   2.679933  -5.229741   2.052702  -0.001401   0.151401  -0.009256
 427  11   1.641435  -5.831583   1.438216  -0.001556   0.151401  -0.010280
 428  11   1.135186  -6.125044   0.488028  -0.000802   0.067867  -0.011815
 429   3   3.149751  -4.581497   2.287327  -0.001213   0.147971  -0.008195
 430   3   1.852375  -5.333304   2.073213  -0.001209   0.147971  -0.008171
 431   3   0.943589  -5.860036   0.981928  -0.001647   0.147971  -0.011129
 432   4  -0.340863  -0.621853  -3.321698   0.000169   0.101725   0.001663
 433   5  -0.565612  -0.228600  -3.303925   0.000066   0.101725   0.000650
 434   6   0.340445  -0.231306  -3.264849  -0.000034   0.101725  -0.000337
 435   4  -3.363711  -1.908196  -3.288085  -0.000104   0.061123  -0.001698
 436   5  -3.594112  -1.522714  -3.328234  -0.000213   0.061123  -0.003487
 437   8  -4.160704  -1.512266  -3.292131  -0.000218   0.061123  -0.003565
 438   4  -3.364954  -1.908473   3.287978  -0.000106   0.061123  -0.001735
 439   5  -3.595369  -1.522994   3.328073  -0.000184   0.061123  -0.003013
 440   8  -4.161948  -1.512543   3.291756  -0.000209   0.061123  -0.003414
 441   5  -2.867880  -1.285070   3.529781   0.000239   0.210454   0.001133
 442   5  -1.437901  -0.484522   3.555736   0.000761   0.210454   0.003617
 443   4  -1.836806  -1.447706   3.490449   0.000959   0.432833   0.002215
 444   5  -1.437352  -0.484667  -3.555245   0.000684   0.210364   0.003251
 445   5  -2.866755  -1.284889  -3.529644   0.000143   0.210364   0.000680
 446   4  -1.835982  -1.447689  -3.490107   0.001085   0.432628   0.002508
 447   4  -4.113339  -3.926772  -2.015521  -0.000545   0.072725  -0.007497
 448   8  -4.882074  -3.483465  -1.965161  -0.000281   0.072725  -0.003862
 449  12  -4.132579  -4.161928  -1.832296  -0.000698   0.072725  -0.009592
 450   4  -4.113938  -3.926615   2.015455  -0.000510   0.072725  -0.007019
 451   8  -4.882658  -3.483312   1.964831  -0.000264   0.072725  -0.003628
 452  12  -4.133123  -4.161786   1.832242  -0.000572   0.072725  -0.007869
 453   8  -4.624157  -1.954477  -3.257551   0.000160   0.346601   0.000460
 454   8  -5.154950  -3.021807  -2.522449   0.000385   0.346601   0.001110
 455   4  -3.738516  -3.022435  -2.834640  -0.001505   0.684254  -0.002200
 456   8  -5.155748  -3.021708   2.521936   0.000413   0.346509   0.001191
 457   8  -4.625340  -1.954654   3.257032   0.000128   0.346509   0.000369
 458   4  -3.739492  -3.022484   2.834528  -0.001526   0.684069  -0.002230
 459   4  -0.338845  -5.937946   0.232415  -0.000221   0.008516  -0.026009
 460  11   0.403311  -5.949562   0.204507  -0.000266   0.008516  -0.031247
 461  12  -0.628170  -5.994082   0.208502  -0.000209   0.008516  -0.024537
 462   4  -0.338792  -5.937955  -0.231413  -0.000250   0.008516  -0.029411
 463  11   0.403358  -5.949569  -0.203335  -0.000242   0.008516  -0.028444
 464  12  -0.628123  -5.994090  -0.207564  -0.000214   0.008516  -0.025099
 465  12  -1.135261  -6.125111   0.487209  -0.000779   0.067865  -0.011484
 466  12  -1.641531  -5.831786   1.437423  -0.001462   0.151396  -0.009660
 467  12  -2.680039  -5.230027   2.051960  -0.001347   0.151396  -0.008900
 468  12  -3.643022  -4.672000   1.971175  -0.000511   0.067865  -0.007524
 469   4  -0.943684  -5.860189   0.981149  -0.001553   0.147965  -0.010497
 470   4  -1.852493  -5.333609   2.072480  -0.001206   0.147965  -0.008151
 471   4  -3.149865  -4.581826   2.286655  -0.001162   0.147965  -0.007850
 472  12  -3.642445  -4.672148  -1.971041  -0.000580   0.067862  -0.008548
 473  12  -2.679475  -5.230160  -2.051513  -0.001401   0.151389  -0.009255
 474  12  -1.641164  -5.831863  -1.436690  -0.001555   0.151389  -0.010273
 475  12  -1.135146  -6.125132  -0.486372  -0.000792   0.067862  -0.011666
 476   4  -3.149213  -4.581988  -2.286387  -0.001212   0.147960  -0.008194
 477   4  -1.851944  -5.333732  -2.071814  -0.001209   0.147960  -0.008169
 478   4  -0.943442  -5.860237  -0.980265  -0.001634   0.147960  -0.011044
 479   6   0.645823  -0.005848  -3.447950   0.000093   0.017209   0.005396
 480   5  -0.645830   0.005699  -3.447947   0.000087   0.017209   0.005053
 481   6   0.645839   0.005867   3.448288   0.000086   0.016876   0.005093
 482   5  -0.645813  -0.005456   3.448291   0.000092   0.016876   0.005437
 483   8  -4.529561  -0.823411   3.549537  -0.000024   0.266618  -0.000092
 484   8  -4.529564   0.823452   3.549529  -0.000064   0.266618  -0.000242
 485   5  -3.717530   0.000022   3.474089  -0.001525   0.538015  -0.002835
 486   8  -4.528223   0.823246  -3.549993  -0.000056   0.266555  -0.000210
 487   8  -4.528220  -0.823245  -3.549993  -0.000085   0.266555  -0.000318
 488   5  -3.716217   0.000002  -3.474267  -0.001558   0.537878  -0.002897
 489   7   4.528351  -0.823650  -3.549817  -0.000024   0.266598  -0.000091
 490   7   4.528359   0.823108  -3.549941  -0.000064   0.266598  -0.000240
 491   6   3.716353  -0.000262  -3.474167  -0.001525   0.537974  -0.002834
 492   7   4.529426   0.823580   3.549583  -0.000056   0.266572  -0.000211
 493   7   4.529419  -0.823024   3.549714  -0.000085   0.266572  -0.000319
 494   6   3.717397   0.000275   3.474191  -0.001559   0.537916  -0.002899
 495  10   4.314222   4.509142   1.569114  -0.001484   0.229190  -0.006476
 496  10   4.671930   4.825392   0.390807  -0.004188   0.462042  -0.009065
 497  10   4.476011   4.652226  -1.130884  -0.004062   0.462042  -0.008791
 498   7   5.692042   3.789311   1.318719   0.001458   0.658862   0.002213
 499   7   5.920109   3.990967  -0.458252   0.001738   0.658862   0.002637
 500   7   5.515612   3.633409  -1.822580   0.000738   0.333978   0.002209
 501  11   4.313728  -4.509208  -1.569185  -0.001485   0.229189  -0.006481
 502  11   4.671793  -4.825427  -0.390986  -0.004189   0.462041  -0.009067
 503  11   4.476345  -4.652227   1.130752  -0.004066   0.462041  -0.008799
 504   7   5.691630  -3.789368  -1.319232   0.001448   0.658861   0.002198
 505   7   5.920239  -3.990981   0.457664   0.001756   0.658861   0.002664
 506   7   5.516168  -3.633393   1.822101   0.000771   0.333978   0.002308
 507   9  -4.314515   4.510667  -1.565851  -0.001484   0.229191  -0.006474
 508   9  -4.671995   4.825781  -0.387167  -0.004188   0.462045  -0.009065
 509   9  -4.475780   4.651144   1.134321  -0.004063   0.462045  -0.008793
 510   8  -5.692293   3.790594  -1.315884   0.001461   0.658867   0.002217
 511   8  -5.920015   3.990534   0.461329   0.001737   0.658867   0.002636
 512   8  -5.515253   3.631655   1.825235   0.000736   0.333981   0.002204
 513  12  -4.314147  -4.508862   1.569756  -0.001486   0.229184  -0.006483
 514  12  -4.671892  -4.825325   0.391549  -0.004189   0.462030  -0.009067
 515  12  -4.476058  -4.652458  -1.130153  -0.004065   0.462030  -0.008797
 516   8  -5.691979  -3.789083   1.319294   0.001448   0.658846   0.002198
 517   8  -5.920120  -3.991072  -0.457590   0.001756   0.658846   0.002665
 518   8  -5.515711  -3.633789  -1.821980   0.000771   0.333970   0.002308
 519  10   0.737652   6.196830  -0.039505  -0.000650   0.139959  -0.004642
 520   9  -0.737625   6.196792   0.044162  -0.000650   0.139959  -0.004643
 521  12  -0.737674  -6.196733  -0.041066  -0.000545   0.140485  -0.003879
 522  11   0.737636  -6.196744   0.042156  -0.000726   0.140485  -0.005171
 =====================================================


   1 warning(s) detected.
     A line exceeding 80 characters begins with "http://cactus.nci.ni".
 There may be a problem in your input file.

              2650333  WORDS OF DYNAMIC MEMORY USED
 EXECUTION OF GAMESS TERMINATED NORMALLY Fri Nov 25 08:15:24 2016
 DDI: 263640 bytes (0.3 MB / 0 MWords) used by master data server.

 ----------------------------------------
 CPU timing information for all processes
 ========================================
 0: 508.656 + 0.176 = 508.832
 ----------------------------------------
 ddikick.x: exited gracefully.
