----- GAMESS execution script -----

          ******************************************************
          *         GAMESS VERSION =  5 DEC 2014 (R1)          *
          *             FROM IOWA STATE UNIVERSITY             *
          * M.W.SCHMIDT, K.K.BALDRIDGE, J.A.BOATZ, S.T.ELBERT, *
          *   M.S.GORDON, J.H.JENSEN, S.KOSEKI, N.MATSUNAGA,   *
          *          K.A.NGUYEN, S.J.SU, T.L.WINDUS,           *
          *       TOGETHER WITH M.DUPUIS, J.A.MONTGOMERY       *
          *         J.COMPUT.CHEM.  14, 1347-1363(1993)        *
          **************** 64 BIT LINUX VERSION ****************

 EXECUTION OF GAMESS BEGUN Fri Nov 25 08:15:27 2016

            ECHO OF THE FIRST FEW INPUT CARDS -
 INPUT CARD>! SELECT RESTRICTED HARTREE-FOCK AS DEFAULT                                     
 INPUT CARD>$contrl scftyp=rhf $end                                                         
 INPUT CARD>                                                                                
 INPUT CARD>! THEORY: HF OR DFT                                                             
 INPUT CARD> $contrl mplevl=0 $end                                                          
 INPUT CARD>                                                                                
 INPUT CARD> $system timlim=10000 mwords=20 $end                                            
 INPUT CARD> $SCF DIRSCF=.TRUE. $end                                                        
 INPUT CARD>                                                                                
 INPUT CARD>                                                                                
 INPUT CARD>! BASIS SETS                                                                    
 INPUT CARD>! 6-311G(d,p)                                                                   
 INPUT CARD> $BASIS GBASIS=N311 NGAUSS=6 NDFUNC=1 NPFUNC=1 $END                             
 INPUT CARD>                                                                                
 INPUT CARD>! One of the following                                                          
 INPUT CARD> $guess guess=HUCKEL $end                                                       
 INPUT CARD>                                                                                
 INPUT CARD> $statpt projct=.FALSE. $end                                                    
 INPUT CARD> $STATPT IFREEZ(1)=1,2,3 $END                                                   
 INPUT CARD>                                                                                
 INPUT CARD>! Optimize the geometry with COSMO effects                                      
 INPUT CARD> $statpt opttol=0.0005 nstep=50 $end                                            
 INPUT CARD> $contrl nzvar=1 $end                                                           
 INPUT CARD> $zmat dlc=.t. auto=.t. $end                                                    
 INPUT CARD> $contrl runtyp=OPTIMIZE maxit=200 $end                                         
 INPUT CARD>                                                                                
 INPUT CARD>! Run COSMO on perfect conductor                                                
 INPUT CARD> $COSGMS PRFCND=.TRUE. $end                                                     
 INPUT CARD>                                                                                
 INPUT CARD>! Specifying RSOLV                                                              
 INPUT CARD> $COSGMS COSRAD = 1.4 $end                                                      
 INPUT CARD>                                                                                
 INPUT CARD>! available memory                                                              
 INPUT CARD> $SYSTEM MWORDS=40 $END                                                         
 INPUT CARD>                                                                                
 INPUT CARD> $DATA                                                                          
 INPUT CARD>1-Ethyl-4-methylbenzene, ID: C622968                                            
 INPUT CARD>C1                                                                              
 INPUT CARD>C      6.0      0.9759000000    2.2595000000    0.9596000000                    
 INPUT CARD>C      6.0      2.0463000000    3.3305000000    0.9336000000                    
 INPUT CARD>C      6.0      3.4426000000    2.8011000000    1.0084000000                    
 INPUT CARD>C      6.0      4.4653000000    3.6397000000    1.4620000000                    
 INPUT CARD>C      6.0      3.7524000000    1.4970000000    0.6242000000                    
 INPUT CARD>C      6.0      5.7721000000    3.1759000000    1.5203000000                    
 INPUT CARD>C      6.0      5.0592000000    1.0297000000    0.6951000000                    
 INPUT CARD>C      6.0      6.0801000000    1.8674000000    1.1424000000                    
 INPUT CARD>C      6.0      7.4840000000    1.3876000000    1.2059000000                    
 INPUT CARD>H      1.0      0.8680000000    1.8202000000    1.9598000000                    
 INPUT CARD>H      1.0      0.0000000000    2.6663000000    0.6691000000                    
 INPUT CARD>H      1.0      1.2167000000    1.4324000000    0.2713000000                    
   40000000 WORDS OF MEMORY AVAILABLE

     BASIS OPTIONS
     -------------
     GBASIS=N311         IGAUSS=       6      POLAR=POPN311 
     NDFUNC=       1     NFFUNC=       0     DIFFSP=       F
     NPFUNC=       1      DIFFS=       F     BASNAM=        


     RUN TITLE
     ---------
 1-Ethyl-4-methylbenzene, ID: C622968                                            

 THE POINT GROUP OF THE MOLECULE IS C1      
 THE ORDER OF THE PRINCIPAL AXIS IS     0

 ATOM      ATOMIC                      COORDINATES (BOHR)
           CHARGE         X                   Y                   Z
 C           6.0     1.8441835914        4.2698358693        1.8133810578
 C           6.0     3.8669462887        6.2937324021        1.7642481821
 C           6.0     6.5055706853        5.2933114642        1.9055996860
 C           6.0     8.4381934530        6.8780356775        2.7627793940
 C           6.0     7.0910077963        2.8289198036        1.1795669615
 C           6.0    10.9076873737        6.0015807644        2.8729504191
 C           6.0     9.5605017171        1.9458508496        1.3135485341
 C           6.0    11.4897229779        3.5288743095        2.1588229684
 C           6.0    14.1427092921        2.6221837806        2.2788205686
 H           1.0     1.6402821573        3.4396792429        3.7034849907
 H           1.0     0.0000000000        5.0385764011        1.2644156584
 H           1.0     2.2992296093        2.7068435048        0.5126826605
 H           1.0     3.7049967715        7.4141509402        0.0000000000
 H           1.0     3.5438031448        7.6507446339        3.3272405466
 H           1.0     8.0029895580        8.8155717327        3.3484054776
 H           1.0     5.5629753627        1.5930390076        0.4973758800
 H           1.0    12.4164446023        7.2539021765        3.5392678024
 H           1.0     9.9904143793        0.0000000000        0.7509771075
 H           1.0    15.2699308438        3.4438366400        0.7417174502
 H           1.0    15.0414629719        3.1696373992        4.0678241612
 H           1.0    14.2742342209        0.5582250568        2.1166820788

          INTERNUCLEAR DISTANCES (ANGS.)




     $CONTRL OPTIONS
     ---------------
 SCFTYP=RHF          RUNTYP=OPTIMIZE     EXETYP=RUN     
 MPLEVL=       0     CITYP =NONE         CCTYP =NONE         VBTYP =NONE    
 DFTTYP=NONE         TDDFT =NONE    
 MULT  =       1     ICHARG=       0     NZVAR =       1     COORD =UNIQUE  
 PP    =NONE         RELWFN=NONE         LOCAL =NONE         NUMGRD=       F
 ISPHER=      -1     NOSYM =       0     MAXIT =     200     UNITS =ANGS    
 PLTORB=       F     MOLPLT=       F     AIMPAC=       F     FRIEND=        
 NPRINT=       7     IREST =       0     GEOM  =INPUT   
 NORMF =       0     NORMP =       0     ITOL  =      20     ICUT  =       9
 INTTYP=BEST         GRDTYP=BEST         QMTTOL= 1.0E-06

     $SYSTEM OPTIONS
     ---------------
  REPLICATED MEMORY=    40000000 WORDS (ON EVERY NODE).
 DISTRIBUTED MEMDDI=           0 MILLION WORDS IN AGGREGATE,
 MEMDDI DISTRIBUTED OVER   1 PROCESSORS IS           0 WORDS/PROCESSOR.
 TOTAL MEMORY REQUESTED ON EACH PROCESSOR=    40000000 WORDS.
 TIMLIM=       10000.00 MINUTES, OR       6.9 DAYS.
 PARALL= F  BALTYP=  DLB     KDIAG=    0  COREFL= F
 MXSEQ2=     300 MXSEQ3=     150  mem10=         0

     $COSGMS OPTIONS
     ---------------
     EPSI  =   INFTY     NSPA  =      92     COSRAD=    1.40
     DISEX =   10.00     OUTCHG=DBLCAV       COSBUG=       F
     COSWRT=       F     DCOSMO=       F

     SYMMETRY COORDINATES WILL NOT BE USED FOR 
     THE COSMO CALCULATION, EVEN IF SPECIFIED:
         -- SWITCHING TO C1 POINT GROUP --


     DEFINITION OF CAVITY
     ---------------------------
     ATOM         COORDINATES           RADIUS 
     1    1.8442    4.2698    1.8134    2.0000
     2    3.8669    6.2937    1.7642    2.0000
     3    6.5056    5.2933    1.9056    2.0000
     4    8.4382    6.8780    2.7628    2.0000
     5    7.0910    2.8289    1.1796    2.0000
     6   10.9077    6.0016    2.8730    2.0000
     7    9.5605    1.9459    1.3135    2.0000
     8   11.4897    3.5289    2.1588    2.0000
     9   14.1427    2.6222    2.2788    2.0000
    10    1.6403    3.4397    3.7035    1.3000
    11    0.0000    5.0386    1.2644    1.3000
    12    2.2992    2.7068    0.5127    1.3000
    13    3.7050    7.4142    0.0000    1.3000
    14    3.5438    7.6507    3.3272    1.3000
    15    8.0030    8.8156    3.3484    1.3000
    16    5.5630    1.5930    0.4974    1.3000
    17   12.4164    7.2539    3.5393    1.3000
    18    9.9904    0.0000    0.7510    1.3000
    19   15.2699    3.4438    0.7417    1.3000
    20   15.0415    3.1696    4.0678    1.3000
    21   14.2742    0.5582    2.1167    1.3000

          ----------------
          PROPERTIES INPUT
          ----------------

     MOMENTS            FIELD           POTENTIAL          DENSITY
 IEMOM =       1   IEFLD =       0   IEPOT =       0   IEDEN =       0
 WHERE =COMASS     WHERE =NUCLEI     WHERE =NUCLEI     WHERE =NUCLEI  
 OUTPUT=BOTH       OUTPUT=BOTH       OUTPUT=BOTH       OUTPUT=BOTH    
 IEMINT=       0   IEFINT=       0                     IEDINT=       0
                                                       MORB  =       0
          EXTRAPOLATION IN EFFECT
          SOSCF IN EFFECT
 ORBITAL PRINTING OPTION: NPREO=     1   243     2     1

     -------------------------------
     INTEGRAL TRANSFORMATION OPTIONS
     -------------------------------
     NWORD  =            0
     CUTOFF = 1.0E-09     MPTRAN =       0
     DIRTRF =       T     AOINTS =DUP     

          ----------------------
          INTEGRAL INPUT OPTIONS
          ----------------------
 NOPK  =       1 NORDER=       0 SCHWRZ=       T


 -----------------------------------------------
  STATISTICS ON AUTOMATIC COORDINATE GENERATION 
 -----------------------------------------------
  NUMBER OF USER SPECIFIED BONDS                             0
  NUMBER OF BONDS                                           21
  NUMBER OF ANGLES                                          36
  NUMBER OF TORSIONS                                        45
  NUMBER OF EXTRA COORD.                                     0
  NUMBER OF EXTRA COORD. FOR CONSTRAINTS                     0
  NUMBER OF CONSTRAINED COORD.                               0

  TOTAL NUMBER OF PRIMITIVES                               102
 -----------------------------------------------

   --- ENCODED Z MATRIX ---
 COORD  TYPE   I   J   K   L   M   N
    1      1    1  10
    2      1    1  11
    3      1    1   2
    4      1    1  12
    5      1    2  13
    6      1    2  14
    7      1    2   3
    8      1    3   4
    9      1    3   5
   10      1    4  15
   11      1    4   6
   12      1    5   7
   13      1    5  16
   14      1    6   8
   15      1    6  17
   16      1    7  18
   17      1    7   8
   18      1    8   9
   19      1    9  21
   20      1    9  20
   21      1    9  19
   22      2    1   2   3
   23      2    1   2  14
   24      2    1   2  13
   25      2    2   1  10
   26      2    2   3   4
   27      2    2   1  11
   28      2    2   3   5
   29      2    2   1  12
   30      2    3   5  16
   31      2    3   2  13
   32      2    3   2  14
   33      2    3   5   7
   34      2    3   4   6
   35      2    3   4  15
   36      2    4   3   5
   37      2    4   6  17
   38      2    4   6   8
   39      2    5   7   8
   40      2    5   7  18
   41      2    6   8   9
   42      2    6   8   7
   43      2    6   4  15
   44      2    7   5  16
   45      2    7   8   9
   46      2    8   9  21
   47      2    8   7  18
   48      2    8   6  17
   49      2    8   9  19
   50      2    8   9  20
   51      2   10   1  12
   52      2   10   1  11
   53      2   11   1  12
   54      2   13   2  14
   55      2   19   9  20
   56      2   19   9  21
   57      2   20   9  21
   58      3    1   2   3   5
   59      3    1   2   3   4
   60      3    2   3   5  16
   61      3    2   3   5   7
   62      3    2   3   4   6
   63      3    2   3   4  15
   64      3    3   2   1  12
   65      3    3   2   1  10
   66      3    3   4   6  17
   67      3    3   4   6   8
   68      3    3   5   7   8
   69      3    3   5   7  18
   70      3    3   2   1  11
   71      3    4   6   8   9
   72      3    4   6   8   7
   73      3    4   3   5   7
   74      3    4   3   2  14
   75      3    4   3   2  13
   76      3    4   3   5  16
   77      3    5   7   8   9
   78      3    5   7   8   6
   79      3    5   3   2  14
   80      3    5   3   2  13
   81      3    5   3   4  15
   82      3    5   3   4   6
   83      3    6   8   7  18
   84      3    6   8   9  19
   85      3    6   8   9  20
   86      3    6   8   9  21
   87      3    7   8   9  19
   88      3    7   8   9  20
   89      3    7   8   9  21
   90      3    7   8   6  17
   91      3    8   7   5  16
   92      3    8   6   4  15
   93      3    9   8   7  18
   94      3    9   8   6  17
   95      3   10   1   2  14
   96      3   10   1   2  13
   97      3   11   1   2  14
   98      3   11   1   2  13
   99      3   12   1   2  13
  100      3   12   1   2  14
  101      3   15   4   6  17
  102      3   16   5   7  18

          INDEP./SYM. INTERNAL COORDINATES
          --------------------------------
 CRD  1=   0.1345 (  7)  0.1312 (  9)  0.1689 ( 12)  0.5138 ( 22) -0.1465 ( 23)
          -0.1233 ( 24) -0.4133 ( 26)  0.4759 ( 28) -0.1611 ( 31) -0.1843 ( 32)
           0.1082 ( 34) -0.1602 ( 41)  0.1875 ( 45)
 CRD  2=  -0.1455 (  3) -0.2170 (  7) -0.1895 (  8) -0.2147 ( 11) -0.1439 ( 14)
           0.1130 ( 17) -0.1065 ( 18) -0.3241 ( 22)  0.1549 ( 24) -0.1075 ( 25)
          -0.1863 ( 26)  0.1172 ( 31)  0.1104 ( 36) -0.1261 ( 39) -0.4188 ( 41)
           0.3551 ( 45)  0.1048 ( 46)  0.1094 ( 47) -0.1720 ( 50)  0.1431 ( 59)
           0.1282 ( 61) -0.1477 ( 62) -0.1032 ( 77)
 CRD  3=  -0.1051 ( 14)  0.1062 ( 23)  0.1102 ( 25)  0.1409 ( 26) -0.1722 ( 28)
          -0.3211 ( 41)  0.2960 ( 45)  0.1477 ( 46)  0.1004 ( 47) -0.1815 ( 49)
          -0.1683 ( 58) -0.2629 ( 59) -0.1596 ( 60) -0.2197 ( 61)  0.2604 ( 62)
           0.1199 ( 63) -0.1322 ( 66)  0.1402 ( 70) -0.1777 ( 71) -0.1162 ( 72)
          -0.1258 ( 73) -0.1030 ( 74) -0.1102 ( 75)  0.2236 ( 77)  0.1575 ( 78)
           0.1667 ( 82) -0.1142 ( 88)  0.1204 ( 93)
 CRD  4=   0.2090 (  3)  0.3574 (  7)  0.2101 (  8)  0.1799 ( 11)  0.1821 ( 12)
           0.1439 ( 17)  0.2681 ( 18)  0.3393 ( 26) -0.1418 ( 28) -0.1319 ( 30)
           0.1362 ( 33) -0.1973 ( 36)  0.1239 ( 38) -0.1798 ( 41) -0.1564 ( 42)
          -0.1096 ( 43)  0.3364 ( 45)  0.1452 ( 46) -0.1429 ( 48)  0.1051 ( 49)
 CRD  5=  -0.1084 (  8)  0.1117 ( 12)  0.1062 ( 14)  0.2163 ( 18) -0.1736 ( 22)
           0.2521 ( 23) -0.1701 ( 24)  0.1728 ( 25) -0.1310 ( 26)  0.1676 ( 28)
          -0.2417 ( 29)  0.2259 ( 31)  0.1102 ( 41) -0.1179 ( 42)  0.1167 ( 49)
          -0.3483 ( 58) -0.3054 ( 59)  0.1255 ( 61) -0.1093 ( 64) -0.1126 ( 65)
          -0.1063 ( 69)  0.1142 ( 71) -0.1671 ( 74) -0.1386 ( 75) -0.2100 ( 79)
          -0.1814 ( 80)
 CRD  6=  -0.1973 (  3) -0.1901 (  8)  0.1568 ( 12)  0.1912 ( 14)  0.1240 ( 17)
           0.3650 ( 18) -0.2528 ( 22)  0.1663 ( 24) -0.1907 ( 25) -0.1007 ( 26)
           0.1399 ( 28)  0.1889 ( 32) -0.1433 ( 35) -0.1343 ( 37)  0.1552 ( 41)
          -0.1952 ( 42)  0.1111 ( 46)  0.1978 ( 50) -0.1133 ( 57)  0.1745 ( 58)
           0.1488 ( 59) -0.1326 ( 61) -0.1620 ( 71) -0.1137 ( 72) -0.1065 ( 73)
           0.1155 ( 77)  0.1176 ( 80)
 CRD  7=   0.3843 (  7)  0.1466 (  8)  0.3820 (  9) -0.2003 ( 14) -0.2600 ( 17)
          -0.2582 ( 18) -0.2139 ( 22)  0.1647 ( 27)  0.1889 ( 28) -0.1416 ( 29)
           0.1690 ( 30)  0.1420 ( 31)  0.1271 ( 32) -0.2055 ( 36)  0.1774 ( 40)
           0.1296 ( 42) -0.1086 ( 43) -0.1903 ( 44) -0.1610 ( 47) -0.1281 ( 48)
          -0.1431 ( 49)
 CRD  8=   0.2443 (  3) -0.1265 (  9)  0.1466 ( 23) -0.1309 ( 25)  0.1487 ( 27)
           0.1827 ( 29)  0.1724 ( 31) -0.2321 ( 32) -0.4123 ( 49)  0.3708 ( 50)
          -0.1453 ( 53)  0.1125 ( 56) -0.1159 ( 57)  0.1183 ( 61) -0.1079 ( 62)
          -0.1858 ( 64) -0.2078 ( 65) -0.2270 ( 70) -0.1329 ( 71)  0.1413 ( 77)
          -0.1061 ( 80)  0.1268 ( 86) -0.1032 ( 88)  0.1152 ( 93) -0.1113 ( 94)
 CRD  9=   0.5531 (  3) -0.1116 ( 11)  0.1621 ( 23)  0.2354 ( 24)  0.1804 ( 25)
           0.4089 ( 27) -0.1214 ( 29) -0.1933 ( 31)  0.1082 ( 49) -0.2704 ( 52)
          -0.1541 ( 53)  0.1100 ( 64)  0.1093 ( 70)  0.1028 ( 74) -0.1222 ( 75)
           0.1509 ( 79)
 CRD 10=   0.1117 (  3) -0.1134 (  8)  0.1906 ( 10)  0.1416 ( 11) -0.1588 ( 12)
          -0.2049 ( 13)  0.2782 ( 14) -0.2325 ( 17)  0.1429 ( 19)  0.2346 ( 33)
          -0.2261 ( 34)  0.1165 ( 38) -0.1415 ( 39)  0.2373 ( 43) -0.2186 ( 44)
           0.4529 ( 46)  0.1085 ( 47) -0.2677 ( 49) -0.2013 ( 50)  0.1813 ( 55)
 CRD 11=  -0.2690 (  8) -0.2597 (  9)  0.1647 ( 11)  0.2444 ( 12) -0.2428 ( 14)
          -0.1039 ( 15) -0.2721 ( 17) -0.3210 ( 30) -0.2503 ( 35)  0.2131 ( 37)
           0.3020 ( 40)  0.2314 ( 43)  0.2913 ( 44) -0.3003 ( 47) -0.2524 ( 48)
 CRD 12=  -0.3505 ( 11)  0.2980 ( 12)  0.1230 ( 14) -0.1181 ( 15)  0.1436 ( 16)
          -0.1379 ( 27) -0.2288 ( 30)  0.2937 ( 35) -0.3786 ( 37)  0.1415 ( 38)
          -0.1497 ( 39)  0.3095 ( 40) -0.2768 ( 43)  0.2135 ( 44) -0.1599 ( 47)
           0.2371 ( 48) -0.1098 ( 49)
 CRD 13=  -0.1517 (  1) -0.1093 ( 20) -0.4967 ( 25)  0.1913 ( 27)  0.3117 ( 29)
          -0.1091 ( 32)  0.3103 ( 49) -0.3404 ( 50)  0.1334 ( 52) -0.2208 ( 53)
          -0.1409 ( 56)  0.1275 ( 57)  0.1124 ( 62) -0.1029 ( 65) -0.1400 ( 70)
          -0.1009 ( 76)  0.1083 ( 78)  0.1324 ( 82) -0.1016 ( 86)
 CRD 14=  -0.2479 (  8) -0.2467 (  9) -0.2391 ( 10) -0.2779 ( 11) -0.2793 ( 12)
          -0.2425 ( 13) -0.2453 ( 14) -0.2413 ( 15) -0.2419 ( 16) -0.2511 ( 17)
           0.1139 ( 26)  0.1151 ( 28)  0.1161 ( 33)  0.1121 ( 34) -0.2290 ( 36)
          -0.1854 ( 37)  0.1159 ( 38)  0.1142 ( 39) -0.1841 ( 40)  0.1156 ( 41)
          -0.2293 ( 42) -0.1836 ( 43) -0.1844 ( 44)  0.1137 ( 45)
 CRD 15=   0.1205 (  8) -0.1199 (  9) -0.1542 ( 10)  0.1576 ( 13)  0.2232 ( 15)
          -0.2265 ( 16)  0.1351 ( 19) -0.1010 ( 20) -0.1910 ( 29) -0.2077 ( 33)
           0.2070 ( 34) -0.2385 ( 38)  0.2428 ( 39) -0.1174 ( 43)  0.1175 ( 44)
           0.4336 ( 46) -0.2115 ( 47)  0.2054 ( 48) -0.1144 ( 49) -0.3243 ( 50)
           0.1772 ( 55) -0.1300 ( 56)
 CRD 16=  -0.1072 (  2)  0.1225 (  3) -0.2357 (  7)  0.1461 (  8)  0.1736 (  9)
           0.1718 ( 10)  0.2163 ( 13) -0.1605 ( 14) -0.1748 ( 15) -0.2156 ( 16)
          -0.1627 ( 17)  0.2410 ( 18) -0.1101 ( 22)  0.1275 ( 25) -0.2503 ( 27)
           0.2437 ( 29)  0.2515 ( 30) -0.1896 ( 33) -0.1344 ( 34)  0.1815 ( 35)
           0.1403 ( 38)  0.1894 ( 39)  0.1062 ( 46) -0.2373 ( 47) -0.2034 ( 48)
          -0.1808 ( 51) -0.1056 ( 56)
 CRD 17=  -0.2035 ( 23)  0.2014 ( 24) -0.1823 ( 25)  0.1101 ( 29) -0.2193 ( 31)
           0.2168 ( 32) -0.1905 ( 49)  0.1021 ( 61)  0.1348 ( 64)  0.1265 ( 65)
          -0.1880 ( 67) -0.1744 ( 68)  0.1093 ( 70)  0.1616 ( 71)  0.1764 ( 72)
           0.1629 ( 73) -0.1532 ( 74) -0.1536 ( 75)  0.1197 ( 76) -0.1962 ( 84)
          -0.2043 ( 85) -0.1934 ( 86) -0.2112 ( 87) -0.2193 ( 88) -0.2084 ( 89)
          -0.1306 ( 91) -0.1293 ( 92)
 CRD 18=   0.1501 (  2) -0.1685 (  3) -0.1057 (  4) -0.1496 (  5) -0.1603 (  6)
          -0.1852 (  7)  0.1194 (  8)  0.2001 ( 10) -0.1648 ( 15)  0.1347 ( 18)
           0.2226 ( 22) -0.1995 ( 25)  0.4011 ( 27) -0.3765 ( 29) -0.1064 ( 31)
          -0.1450 ( 32) -0.1862 ( 34)  0.2047 ( 35)  0.1419 ( 38) -0.1465 ( 48)
           0.1217 ( 50)  0.2759 ( 51)  0.1281 ( 54)
 CRD 19=   0.1056 (  1)  0.1328 (  5) -0.1536 (  6)  0.2238 ( 25) -0.1921 ( 29)
           0.1105 ( 31) -0.1184 ( 32)  0.1199 ( 49)  0.1257 ( 53)  0.1246 ( 58)
           0.1880 ( 59) -0.1161 ( 68)  0.1597 ( 74)  0.1705 ( 75)  0.1295 ( 77)
           0.1332 ( 78)  0.1072 ( 80)  0.1456 ( 81) -0.2606 ( 84) -0.2630 ( 85)
          -0.2463 ( 86) -0.2570 ( 87) -0.2594 ( 88) -0.2427 ( 89) -0.1484 ( 90)
          -0.1494 ( 91) -0.1279 ( 92) -0.1448 ( 94)
 CRD 20=  -0.1200 (  1) -0.1999 (  5)  0.2516 (  6)  0.3274 ( 23) -0.2907 ( 24)
          -0.1137 ( 25)  0.1042 ( 29)  0.1443 ( 31) -0.1508 ( 32) -0.1091 ( 59)
          -0.1306 ( 61)  0.1425 ( 68)  0.1737 ( 69)  0.1232 ( 70)  0.1895 ( 74)
           0.1705 ( 75) -0.1618 ( 77) -0.1374 ( 78)  0.2585 ( 79)  0.2394 ( 80)
          -0.1686 ( 83) -0.1149 ( 84) -0.1034 ( 85) -0.1439 ( 86) -0.1193 ( 89)
          -0.1931 ( 93)
 CRD 21=  -0.4523 ( 19) -0.4506 ( 20) -0.4371 ( 21)  0.1046 ( 42)  0.2240 ( 46)
           0.2272 ( 49)  0.2185 ( 50) -0.2343 ( 55) -0.2443 ( 56) -0.2363 ( 57)
 CRD 22=  -0.1098 ( 23) -0.1725 ( 62) -0.1564 ( 63)  0.2819 ( 66)  0.2757 ( 67)
           0.2055 ( 68)  0.2102 ( 69) -0.1737 ( 71) -0.1553 ( 72) -0.1323 ( 74)
          -0.1211 ( 75) -0.1513 ( 79) -0.1402 ( 80) -0.1379 ( 81) -0.1540 ( 82)
          -0.1553 ( 84) -0.1600 ( 85) -0.1313 ( 86) -0.1739 ( 87) -0.1787 ( 88)
          -0.1500 ( 89) -0.1615 ( 90)  0.1939 ( 91)  0.2596 ( 92) -0.1799 ( 94)
           0.2658 (101)  0.1987 (102)
 CRD 23=   0.4942 (  1)  0.4517 (  2)  0.1537 (  3)  0.4795 (  4)  0.1384 (  5)
          -0.1664 ( 25) -0.2025 ( 27) -0.1742 ( 29)  0.1781 ( 51)  0.1976 ( 52)
           0.2052 ( 53)
 CRD 24=  -0.1500 (  2) -0.1616 (  4)  0.4016 (  5) -0.2973 (  6) -0.1454 ( 21)
          -0.1318 ( 57) -0.2127 ( 60) -0.1834 ( 61)  0.1496 ( 62)  0.1684 ( 63)
          -0.1018 ( 65)  0.1545 ( 68)  0.1297 ( 69) -0.1106 ( 70)  0.1643 ( 71)
          -0.1571 ( 73) -0.1864 ( 76) -0.1968 ( 77) -0.1165 ( 78)  0.1430 ( 81)
           0.1242 ( 82) -0.1100 ( 86)  0.1843 ( 91) -0.1083 ( 92) -0.1719 ( 93)
           0.1438 ( 94)  0.1594 (102)
 CRD 25=   0.5659 ( 19) -0.3904 ( 20) -0.1906 ( 21) -0.4068 ( 55)  0.2736 ( 56)
           0.1312 ( 57)  0.2494 ( 84) -0.2005 ( 85)  0.2484 ( 87) -0.2016 ( 88)
 CRD 26=   0.1151 ( 19)  0.4418 ( 20) -0.5648 ( 21) -0.3036 ( 56)  0.3830 ( 57)
          -0.1587 ( 85)  0.2737 ( 86) -0.1837 ( 88)  0.2488 ( 89)
 CRD 27=   0.1688 (  2) -0.1187 (  4) -0.5192 (  5) -0.5411 (  6) -0.1107 (  7)
          -0.1125 ( 10) -0.1431 ( 13)  0.1441 ( 15)  0.1409 ( 16)  0.1295 ( 23)
           0.1273 ( 24) -0.1112 ( 43) -0.1041 ( 44) -0.1311 ( 51) -0.2137 ( 54)
           0.1215 ( 74) -0.1286 ( 75)  0.1297 ( 79) -0.1203 ( 80) -0.1166 ( 95)
           0.1113 ( 99)
 CRD 28=  -0.6315 (  1)  0.2741 (  2)  0.3669 (  4) -0.1394 ( 51) -0.1960 ( 52)
           0.3320 ( 53)  0.1566 ( 64) -0.2026 ( 70) -0.1889 ( 97) -0.1991 ( 98)
           0.1601 ( 99)  0.1703 (100)
 CRD 29=  -0.5682 (  2)  0.5030 (  4) -0.1301 (  5) -0.1199 (  6)  0.2722 ( 51)
          -0.2512 ( 52) -0.1082 ( 64)  0.1900 ( 65)  0.1744 ( 95)  0.2061 ( 96)
          -0.1053 ( 97) -0.1238 (100)
 CRD 30=   0.2487 (  5)  0.2793 (  6) -0.2098 (  7) -0.2322 ( 10) -0.3081 ( 13)
           0.2670 ( 15)  0.2332 ( 16)  0.2728 ( 18)  0.1799 ( 19)  0.1683 ( 20)
           0.1858 ( 21)  0.1270 ( 35)  0.2080 ( 37) -0.1065 ( 38)  0.1954 ( 40)
           0.1232 ( 42) -0.1858 ( 43) -0.1372 ( 44) -0.1014 ( 48)  0.1364 ( 54)
          -0.1231 ( 96)  0.1064 (100)
 CRD 31=  -0.2937 (  5)  0.2254 (  6)  0.1218 ( 20)  0.1140 ( 32) -0.1380 ( 60)
           0.1618 ( 63)  0.1957 ( 66) -0.2022 ( 69)  0.1107 ( 75) -0.2742 ( 76)
           0.2942 ( 81)  0.2624 ( 83) -0.2582 ( 90)  0.2144 ( 91) -0.2346 ( 92)
           0.1169 ( 93) -0.1140 ( 94) -0.1329 ( 95) -0.1023 ( 96) -0.1264 ( 97)
          -0.1191 ( 99) -0.1497 (100)
 CRD 32=  -0.2591 (  6)  0.2415 (  7) -0.1283 (  8)  0.1029 (  9) -0.2660 ( 10)
          -0.3234 ( 11) -0.2214 ( 12)  0.1533 ( 13) -0.2100 ( 15)  0.2200 ( 18)
           0.1705 ( 19)  0.1134 ( 20)  0.1314 ( 21) -0.1259 ( 24) -0.1793 ( 28)
           0.1028 ( 30)  0.1434 ( 31) -0.1131 ( 33) -0.1495 ( 35)  0.1653 ( 36)
          -0.1028 ( 39)  0.1617 ( 42)  0.2043 ( 43) -0.1089 ( 45)  0.1907 ( 96)
           0.1614 ( 98)  0.1568 ( 99)
 CRD 33=   0.1540 (  5) -0.1267 (  6) -0.2644 (  7) -0.2266 ( 10)  0.1330 ( 11)
           0.2607 ( 12)  0.2529 ( 13) -0.1337 ( 15)  0.3244 ( 16) -0.1245 ( 18)
          -0.1117 ( 20) -0.1311 ( 21)  0.1540 ( 26)  0.1424 ( 30) -0.1353 ( 32)
          -0.1132 ( 36)  0.1339 ( 41) -0.1107 ( 42) -0.1778 ( 44)  0.1042 ( 54)
           0.1109 ( 66) -0.1186 ( 69)  0.1242 ( 83) -0.1175 ( 90)  0.1978 ( 95)
           0.2022 ( 97)  0.2009 (100)
 CRD 34=   0.1288 (  5) -0.1221 (  6)  0.2035 ( 10) -0.2039 ( 13)  0.1078 ( 14)
           0.2929 ( 15) -0.3098 ( 16) -0.1091 ( 17) -0.1142 ( 19)  0.1259 ( 20)
          -0.1340 ( 37)  0.1370 ( 40) -0.1496 ( 41)  0.1424 ( 45) -0.1579 ( 47)
           0.1607 ( 48)  0.1070 ( 50)  0.1631 ( 64)  0.1648 ( 65)  0.1272 ( 66)
          -0.1370 ( 69)  0.1728 ( 70)  0.1395 ( 83) -0.1309 ( 90)  0.1976 ( 95)
           0.2031 ( 96)  0.2056 ( 97)  0.2111 ( 98)  0.2014 ( 99)  0.1959 (100)
 CRD 35=   0.1432 (  7)  0.1569 (  8) -0.1102 (  9)  0.1302 ( 10) -0.1325 ( 13)
          -0.1345 ( 14) -0.1446 ( 15)  0.1396 ( 17)  0.1652 ( 19) -0.2025 ( 26)
           0.1767 ( 28) -0.2689 ( 30)  0.2043 ( 35)  0.2379 ( 37) -0.2289 ( 40)
           0.1618 ( 41) -0.1964 ( 43)  0.2937 ( 44) -0.2007 ( 45)  0.1216 ( 46)
           0.2346 ( 47) -0.2117 ( 48)  0.1133 ( 64)  0.1159 ( 70)  0.1151 ( 96)
           0.1312 ( 98)  0.1286 ( 99)
 CRD 36=   0.2363 (  8) -0.2212 (  9)  0.3435 ( 10) -0.3497 ( 13) -0.2278 ( 14)
          -0.3578 ( 15)  0.3318 ( 16)  0.2289 ( 17)  0.2092 ( 30) -0.2297 ( 35)
          -0.1233 ( 37) -0.1015 ( 38)  0.1239 ( 40)  0.1322 ( 43) -0.1115 ( 44)
          -0.2188 ( 47)  0.2248 ( 48)
 CRD 37=  -0.2685 (  8) -0.2371 (  9)  0.4335 ( 10)  0.3288 ( 13) -0.3026 ( 14)
           0.3741 ( 15)  0.3566 ( 16) -0.2382 ( 17)
 CRD 38=   0.2028 (  1)  0.2639 (  2) -0.1167 (  3)  0.1761 (  4) -0.1687 (  7)
          -0.1192 (  8) -0.2645 ( 13)  0.2261 ( 17) -0.1324 ( 20) -0.1800 ( 23)
          -0.1685 ( 24)  0.1975 ( 25)  0.2158 ( 27)  0.1855 ( 29)  0.1542 ( 31)
           0.1678 ( 32)  0.1117 ( 35) -0.1196 ( 43) -0.1193 ( 48) -0.1711 ( 51)
          -0.2442 ( 52) -0.2249 ( 53)  0.1131 ( 55) -0.1292 ( 74)  0.1399 ( 75)
          -0.1476 ( 79)  0.1215 ( 80)
 CRD 39=  -0.1105 (  1)  0.1448 (  3) -0.1127 (  4)  0.1869 (  7) -0.1503 (  8)
          -0.2281 (  9) -0.1380 ( 11) -0.1426 ( 12)  0.1388 ( 14)  0.1542 ( 15)
           0.1919 ( 16)  0.2727 ( 18) -0.1951 ( 19) -0.1509 ( 20) -0.1939 ( 21)
           0.1255 ( 30)  0.1288 ( 35)  0.1522 ( 36)  0.1088 ( 37)  0.1154 ( 40)
          -0.1701 ( 42) -0.1807 ( 46) -0.1900 ( 47) -0.1751 ( 48) -0.1770 ( 49)
          -0.1726 ( 50)  0.1220 ( 51)  0.1786 ( 55)  0.2085 ( 56)  0.1789 ( 57)
 CRD 40=   0.2056 (  5) -0.2006 (  6) -0.1103 (  8)  0.1319 (  9) -0.1264 ( 14)
           0.1111 ( 17)  0.1175 ( 19)  0.1152 ( 20) -0.2085 ( 21) -0.1578 ( 57)
          -0.1062 ( 59) -0.1051 ( 61)  0.1902 ( 66) -0.1487 ( 69)  0.2035 ( 76)
          -0.1066 ( 77)  0.1364 ( 79)  0.1339 ( 80) -0.1429 ( 81)  0.1527 ( 83)
          -0.1590 ( 86)  0.1719 ( 88) -0.1872 ( 90) -0.2039 ( 91)  0.1473 ( 92)
          -0.1248 ( 95) -0.1191 ( 96) -0.1381 ( 99) -0.1438 (100)  0.2917 (101)
          -0.3202 (102)
 CRD 41=  -0.1027 (  1) -0.1013 (  2)  0.2276 (  3) -0.1028 (  4) -0.3177 (  8)
           0.3218 (  9)  0.1546 ( 10) -0.1523 ( 13) -0.3436 ( 14)  0.2016 ( 15)
          -0.2011 ( 16)  0.3389 ( 17)  0.1452 ( 19) -0.1839 ( 20) -0.1023 ( 25)
           0.1413 ( 26) -0.1091 ( 27) -0.1390 ( 28)  0.1013 ( 41) -0.1033 ( 45)
           0.1098 ( 51)  0.1092 ( 52)  0.1106 ( 53)  0.1002 ( 55) -0.1241 ( 56)
          -0.1168 ( 87) -0.1056 (101)  0.1056 (102)
 CRD 42=  -0.1496 (  8)  0.1513 (  9) -0.1769 ( 10)  0.5055 ( 11) -0.5032 ( 12)
           0.1761 ( 13) -0.1465 ( 14) -0.1789 ( 15)  0.1821 ( 16)  0.1428 ( 17)
          -0.2017 ( 30)  0.2055 ( 35) -0.1242 ( 37)  0.1213 ( 40) -0.1281 ( 43)
           0.1282 ( 44) -0.2035 ( 47)  0.2032 ( 48)
 CRD 43=   0.1049 (  1) -0.2273 (  3)  0.1492 (  4)  0.1856 (  8)  0.2108 (  9)
          -0.2010 ( 11) -0.1971 ( 12) -0.1839 ( 14)  0.1566 ( 15) -0.1021 ( 17)
           0.3988 ( 18) -0.1495 ( 20) -0.1074 ( 21)  0.1053 ( 26) -0.1838 ( 30)
          -0.1142 ( 31) -0.1155 ( 32) -0.2006 ( 35) -0.1724 ( 36)  0.1784 ( 43)
           0.1435 ( 44) -0.1258 ( 46) -0.1242 ( 49) -0.1176 ( 50) -0.1624 ( 51)
           0.1453 ( 55)  0.1091 ( 56)  0.1383 ( 57) -0.1620 ( 96)  0.1112 ( 97)
           0.1451 (100)
 CRD 44=  -0.1046 (  3) -0.1584 (  8) -0.1556 (  9)  0.3005 ( 10)  0.3147 ( 13)
           0.1580 ( 14) -0.2428 ( 15) -0.2753 ( 16)  0.2048 ( 17)  0.2539 ( 33)
           0.2373 ( 34) -0.1438 ( 36)  0.2329 ( 37) -0.2125 ( 38) -0.2367 ( 39)
           0.2584 ( 40)  0.1018 ( 42) -0.2075 ( 43) -0.2282 ( 44)
 CRD 45=   0.2315 (  1) -0.1669 (  4) -0.2203 (  5)  0.2244 (  6) -0.1012 ( 14)
           0.1094 ( 17)  0.1498 ( 19)  0.1113 ( 20) -0.2562 ( 21) -0.1055 ( 32)
          -0.1349 ( 52)  0.1682 ( 53)  0.1007 ( 55) -0.1815 ( 57) -0.1414 ( 63)
          -0.1601 ( 66) -0.2060 ( 70)  0.1012 ( 78) -0.1264 ( 81)  0.1089 ( 82)
           0.1222 ( 83) -0.2057 ( 86)  0.1457 ( 88) -0.1338 ( 89)  0.2208 ( 92)
           0.1247 ( 94)  0.1324 ( 95)  0.1304 ( 96)  0.1882 ( 99)  0.1902 (100)
 CRD 46=  -0.2918 (  3)  0.1555 (  4)  0.2606 (  7)  0.1157 (  8) -0.2499 (  9)
          -0.1876 ( 10)  0.1884 ( 15)  0.2358 ( 17) -0.2437 ( 18)  0.1851 ( 19)
          -0.1336 ( 20) -0.1063 ( 31) -0.2039 ( 34)  0.1165 ( 36) -0.1198 ( 37)
           0.2061 ( 38)  0.1429 ( 40) -0.1389 ( 42)  0.1305 ( 43) -0.1316 ( 44)
          -0.1069 ( 47)  0.1132 ( 50) -0.1319 ( 51) -0.1850 ( 56)  0.1091 ( 86)
          -0.1141 ( 87) -0.1082 ( 96)
 CRD 47=  -0.1759 (  2)  0.1329 (  4) -0.1064 (  6)  0.2335 (  7) -0.2152 (  8)
           0.1385 (  9)  0.1055 ( 10) -0.1246 ( 13)  0.1887 ( 14)  0.1410 ( 16)
          -0.2211 ( 18)  0.1311 ( 20) -0.1006 ( 32) -0.1440 ( 33)  0.1271 ( 37)
           0.1615 ( 39) -0.1404 ( 42)  0.1042 ( 44) -0.1185 ( 48) -0.1493 ( 51)
           0.1331 ( 54) -0.1365 ( 55) -0.1284 ( 60) -0.1325 ( 63) -0.1148 ( 65)
          -0.1298 ( 66) -0.1317 ( 69) -0.1271 ( 76) -0.1346 ( 81)  0.1328 ( 83)
          -0.1147 ( 85) -0.1136 ( 88)  0.1292 ( 90)  0.1280 ( 91)  0.1347 ( 92)
           0.1302 ( 93)  0.1315 ( 94) -0.2158 ( 96)  0.1659 (100)
 CRD 48=  -0.1051 (  1)  0.1358 (  2)  0.1527 (  5) -0.1067 (  7)  0.1132 ( 18)
          -0.1541 ( 20) -0.1019 ( 54)  0.1022 ( 57) -0.2246 ( 60) -0.1870 ( 63)
          -0.1562 ( 66) -0.2657 ( 69)  0.1406 ( 74) -0.1895 ( 76)  0.1758 ( 79)
          -0.2208 ( 81)  0.2138 ( 83) -0.1351 ( 84) -0.1109 ( 85) -0.1498 ( 87)
          -0.1256 ( 88)  0.2106 ( 90)  0.2487 ( 91)  0.1688 ( 92)  0.2291 ( 93)
           0.1954 ( 94) -0.1838 (100)
 CRD 49=  -0.1519 (  2)  0.1155 (  4)  0.2429 (  7) -0.1669 (  8) -0.1633 (  9)
           0.3193 ( 11)  0.3171 ( 12) -0.1004 ( 13) -0.1694 ( 14) -0.1028 ( 15)
          -0.1765 ( 17)  0.2742 ( 18) -0.1107 ( 26) -0.1008 ( 28)  0.1830 ( 30)
          -0.1072 ( 33) -0.1039 ( 34)  0.1852 ( 35)  0.2115 ( 36) -0.1136 ( 38)
          -0.1090 ( 39) -0.1133 ( 41)  0.2223 ( 42) -0.1090 ( 45)  0.1917 ( 47)
           0.1923 ( 48) -0.1195 ( 51) -0.1414 ( 96)  0.1114 (100)
 CRD 50=  -0.1643 (  1) -0.1436 (  2)  0.3169 (  3)  0.1688 (  4) -0.1749 (  6)
           0.1685 (  8) -0.1065 (  9)  0.2094 ( 19) -0.1688 ( 21) -0.1479 ( 23)
          -0.1094 ( 24) -0.1369 ( 26)  0.1772 ( 28) -0.1216 ( 29)  0.1559 ( 32)
           0.1084 ( 45) -0.1143 ( 46)  0.2165 ( 52)  0.1732 ( 54)  0.1390 ( 55)
          -0.1240 ( 57)  0.1794 ( 70)  0.2144 ( 75) -0.1462 ( 79)  0.1562 ( 80)
          -0.1066 ( 84)  0.1531 ( 85) -0.1209 ( 87)  0.1388 ( 88) -0.1059 ( 95)
          -0.1683 ( 96)  0.1485 ( 97)
 CRD 51=  -0.1006 (  1)  0.1259 (  8) -0.1159 (  9) -0.2357 ( 14)  0.1169 ( 15)
          -0.1162 ( 16)  0.2376 ( 17) -0.2928 ( 19)  0.2933 ( 20)  0.1236 ( 38)
          -0.1224 ( 39)  0.2217 ( 41) -0.2210 ( 45)  0.2017 ( 46) -0.1867 ( 50)
          -0.2063 ( 55)  0.2024 ( 56)  0.2625 ( 84) -0.1283 ( 85) -0.1203 ( 86)
           0.2451 ( 87) -0.1457 ( 88) -0.1376 ( 89)
 CRD 52=   0.1625 (  1) -0.1909 (  2)  0.2517 (  3) -0.1029 (  7)  0.1194 (  8)
          -0.1048 ( 19) -0.1289 ( 20)  0.2384 ( 21) -0.1523 ( 24) -0.1181 ( 25)
           0.1159 ( 28)  0.1300 ( 31) -0.1301 ( 49)  0.1835 ( 53)  0.1091 ( 54)
           0.1628 ( 57) -0.1399 ( 61)  0.1393 ( 62)  0.1310 ( 64) -0.1096 ( 70)
           0.1691 ( 71)  0.1058 ( 72) -0.1901 ( 74) -0.1657 ( 77) -0.1014 ( 78)
           0.1646 ( 80) -0.1717 ( 85)  0.1289 ( 86) -0.1073 ( 88)  0.1934 ( 89)
           0.1456 ( 99)  0.1430 (100)  0.1775 (101) -0.1671 (102)
 CRD 53=   0.2312 (  2) -0.1584 (  4) -0.1807 (  5) -0.1599 (  6)  0.2604 (  7)
          -0.2298 ( 22) -0.2117 ( 27)  0.1260 ( 29)  0.1836 ( 51) -0.1060 ( 52)
           0.2490 ( 54) -0.1674 ( 64)  0.1962 ( 65) -0.1142 ( 74)  0.1059 ( 75)
          -0.1180 ( 79)  0.1022 ( 80)  0.4001 ( 95)  0.1664 ( 97) -0.2224 ( 98)
          -0.3523 ( 99)
 CRD 54=   0.2047 (  1) -0.1835 (  4)  0.1653 (  5) -0.2140 (  6)  0.1594 ( 23)
          -0.1572 ( 24) -0.1711 ( 25)  0.1484 ( 29) -0.1330 ( 52)  0.1557 ( 53)
          -0.1601 ( 58) -0.2138 ( 59)  0.1140 ( 61) -0.1078 ( 62)  0.2510 ( 64)
           0.2164 ( 65) -0.1182 ( 71)  0.1681 ( 73)  0.1268 ( 77)  0.1348 ( 80)
          -0.1597 ( 82)  0.1174 ( 85) -0.1378 ( 89) -0.2747 ( 97) -0.3180 ( 98)
          -0.1218 (101)  0.1434 (102)
 CRD 55=   0.1851 ( 60) -0.1424 ( 61) -0.1450 ( 62)  0.1950 ( 63)  0.2920 ( 67)
           0.2849 ( 68) -0.1478 ( 71) -0.1467 ( 72) -0.1395 ( 73)  0.1880 ( 76)
          -0.1398 ( 77) -0.1409 ( 78)  0.1921 ( 81) -0.1479 ( 82)  0.1923 ( 83)
           0.1921 ( 90)  0.1934 ( 93)  0.1910 ( 94) -0.3877 (101) -0.3806 (102)
 CRD 56=  -0.1111 (  5)  0.1032 ( 31)  0.2342 ( 58) -0.2238 ( 60) -0.1226 ( 61)
           0.1176 ( 62)  0.2154 ( 63) -0.1511 ( 64) -0.1251 ( 65)  0.1399 ( 66)
          -0.1429 ( 69)  0.2351 ( 72)  0.1490 ( 73) -0.2048 ( 74) -0.1571 ( 75)
          -0.2331 ( 78)  0.1145 ( 80) -0.1473 ( 82)  0.1819 ( 84)  0.2169 ( 85)
          -0.1410 ( 87) -0.1059 ( 88) -0.2444 ( 89)  0.1449 ( 91) -0.1427 ( 92)
           0.2726 ( 93) -0.2669 ( 94)
 CRD 57=   0.2048 ( 58) -0.2469 ( 60)  0.2396 ( 63)  0.2689 ( 67) -0.2733 ( 68)
          -0.2527 ( 72)  0.2844 ( 73) -0.1853 ( 74) -0.1527 ( 75)  0.2534 ( 78)
           0.1005 ( 79)  0.1331 ( 80) -0.2812 ( 82) -0.1268 ( 84) -0.1441 ( 85)
           0.1075 ( 87)  0.1587 ( 89) -0.2050 ( 93)  0.2001 ( 94) -0.1957 (101)
           0.2016 (102)

 THE DETERMINANT OF THE G MATRIX IS 10**(   -23)


                     --------------------
                     INTERNAL COORDINATES
                     --------------------

                 - - ATOMS - -         COORDINATE      COORDINATE
 NO.   TYPE    I  J  K  L  M  N        (BOHR,RAD)       (ANG,DEG)
 ----------------------------------------------------------------
   1 STRETCH   1 10                     2.0744225       1.0977372
   2 STRETCH   1 11                     2.0720372       1.0964749
   3 STRETCH   1  2                     2.8618421       1.5144217
   4 STRETCH   1 12                     2.0837054       1.1026495
   5 STRETCH   2 13                     2.0962197       1.1092718
   6 STRETCH   2 14                     2.0949580       1.1086041
   7 STRETCH   2  3                     2.8254488       1.4951632
   8 STRETCH   3  4                     2.6421844       1.3981839
   9 STRETCH   3  5                     2.6349737       1.3943681
  10 STRETCH   4 15                     2.0703638       1.0955894
  11 STRETCH   4  6                     2.6227297       1.3878889
  12 STRETCH   5  7                     2.6260545       1.3896483
  13 STRETCH   5 16                     2.0803051       1.1008501
  14 STRETCH   6  8                     2.6387536       1.3963684
  15 STRETCH   6 17                     2.0709023       1.0958744
  16 STRETCH   7 18                     2.0706634       1.0957480
  17 STRETCH   7  8                     2.6348334       1.3942939
  18 STRETCH   8  9                     2.8062116       1.4849833
  19 STRETCH   9 21                     2.0744911       1.0977735
  20 STRETCH   9 20                     2.0755716       1.0983453
  21 STRETCH   9 19                     2.0756753       1.0984001
  22 BEND      1  2  3                  1.9919440     114.1299835
  23 BEND      1  2 14                  1.9137374     109.6490734
  24 BEND      1  2 13                  1.9154155     109.7452219
  25 BEND      2  1 10                  1.9477925     111.6002878
  26 BEND      2  3  4                  2.0793880     119.1401556
  27 BEND      2  1 11                  1.9413751     111.2325995
  28 BEND      2  3  5                  2.1233435     121.6586192
  29 BEND      2  1 12                  1.9448608     111.4323177
  30 BEND      3  5 16                  2.0746307     118.8675822
  31 BEND      3  2 13                  1.8791663     107.6682999
  32 BEND      3  2 14                  1.9135448     109.6380402
  33 BEND      3  5  7                  2.1052585     120.6224273
  34 BEND      3  4  6                  2.0966009     120.1263842
  35 BEND      3  4 15                  2.0935975     119.9543013
  36 BEND      4  3  5                  2.0803949     119.1978449
  37 BEND      4  6 17                  2.0914137     119.8291757
  38 BEND      4  6  8                  2.1053592     120.6281947
  39 BEND      5  7  8                  2.0977234     120.1906961
  40 BEND      5  7 18                  2.0913771     119.8270828
  41 BEND      6  8  9                  2.0940783     119.9818460
  42 BEND      6  8  7                  2.0809566     119.2300287
  43 BEND      6  4 15                  2.0929869     119.9193136
  44 BEND      7  5 16                  2.1032961     120.5099897
  45 BEND      7  8  9                  2.1080936     120.7848671
  46 BEND      8  9 21                  1.9584940     112.2134376
  47 BEND      8  7 18                  2.0940844     119.9821953
  48 BEND      8  6 17                  2.0863856     119.5410894
  49 BEND      8  9 19                  1.9324750     110.7226642
  50 BEND      8  9 20                  1.9401445     111.1620897
  51 BEND     10  1 12                  1.8650692     106.8605939
  52 BEND     10  1 11                  1.8779924     107.6010405
  53 BEND     11  1 12                  1.8831296     107.8953800
  54 BEND     13  2 14                  1.8439645     105.6513814
  55 BEND     19  9 20                  1.8741529     107.3810512
  56 BEND     19  9 21                  1.8770926     107.5494823
  57 BEND     20  9 21                  1.8779375     107.5978904
  58 TORSION   1  2  3  5               0.4042000      23.1589515
  59 TORSION   1  2  3  4              -2.7491632    -157.5154479
  60 TORSION   2  3  5 16              -0.0065453      -0.3750180
  61 TORSION   2  3  5  7               3.1348631     179.6144274
  62 TORSION   2  3  4  6              -3.1244019    -179.0150417
  63 TORSION   2  3  4 15               0.0169954       0.9737619
  64 TORSION   3  2  1 12              -0.8068281     -46.2278428
  65 TORSION   3  2  1 10               1.2766860      73.1487181
  66 TORSION   3  4  6 17               3.1374203     179.7609420
  67 TORSION   3  4  6  8              -0.0120880      -0.6925907
  68 TORSION   3  5  7  8              -0.0095226      -0.5456025
  69 TORSION   3  5  7 18               3.1330882     179.5127296
  70 TORSION   3  2  1 11              -2.9089340    -166.6696405
  71 TORSION   4  6  8  9               3.1378219     179.7839504
  72 TORSION   4  6  8  7               0.0075985       0.4353619
  73 TORSION   4  3  5  7               0.0050476       0.2892059
  74 TORSION   4  3  2 14              -0.5947432     -34.0762731
  75 TORSION   4  3  2 13               1.4032130      80.3981805
  76 TORSION   4  3  5 16              -3.1363608    -179.7002394
  77 TORSION   5  7  8  9              -3.1269459    -179.1608048
  78 TORSION   5  7  8  6               0.0031836       0.1824084
  79 TORSION   5  3  2 14               2.5586200     146.5981263
  80 TORSION   5  3  2 13              -1.7266092     -98.9274201
  81 TORSION   5  3  4 15              -3.1360745    -179.6838335
  82 TORSION   5  3  4  6               0.0057136       0.3273629
  83 TORSION   6  8  7 18              -3.1394287    -179.8760146
  84 TORSION   6  8  9 19              -1.2860650     -73.6860970
  85 TORSION   6  8  9 20               0.7956026      45.5846706
  86 TORSION   6  8  9 21               2.8995760     166.1334689
  87 TORSION   7  8  9 19               1.8439788     105.6522007
  88 TORSION   7  8  9 20              -2.3575389    -135.0770317
  89 TORSION   7  8  9 21              -0.2535655     -14.5282334
  90 TORSION   7  8  6 17               3.1412982     179.9831273
  91 TORSION   8  7  5 16               3.1318828     179.4436689
  92 TORSION   8  6  4 15               3.1297000     179.3186018
  93 TORSION   9  8  7 18               0.0136270       0.7807721
  94 TORSION   9  8  6 17              -0.0116638      -0.6682842
  95 TORSION  10  1  2 14              -0.8776300     -50.2844923
  96 TORSION  10  1  2 13              -2.8957117    -165.9120587
  97 TORSION  11  1  2 14               1.2199354      69.8971492
  98 TORSION  11  1  2 13              -0.7981464     -45.7304173
  99 TORSION  12  1  2 13               1.3039596      74.7113803
 100 TORSION  12  1  2 14              -2.9611440    -169.6610532
 101 TORSION  15  4  6 17              -0.0039770      -0.2278655
 102 TORSION  16  5  7 18              -0.0086917      -0.4979990

     ------------------------------------------
     THE POINT GROUP IS C1 , NAXIS= 1, ORDER= 1
     ------------------------------------------

     DIMENSIONS OF THE SYMMETRY SUBSPACES ARE
 A   =  243

 ..... DONE SETTING UP THE RUN .....
 STEP CPU TIME =     0.02 TOTAL CPU TIME =        0.0 (    0.0 MIN)
 TOTAL WALL CLOCK TIME=        0.0 SECONDS, CPU UTILIZATION IS 100.00%


          -----------------------------
          STATIONARY POINT LOCATION RUN
          -----------------------------

 OBTAINING INITIAL HESSIAN, HESS=GUESS   
 DIAGONAL GUESS HESSIAN IN INTERNAL COORDS IS
     1  0.3412     2  0.3420     3  0.3785     4  0.3380     5  0.3336
     6  0.3341     7  0.3929     8  0.4744     9  0.4779    10  0.3426
    11  0.4840    12  0.4823    13  0.3391    14  0.4761    15  0.3424
    16  0.3425    17  0.4780    18  0.4007    19  0.3412    20  0.3408
    21  0.3408    22  0.2521    23  0.2239    24  0.2239    25  0.2245
    26  0.2606    27  0.2246    28  0.2609    29  0.2243    30  0.2317
    31  0.2250    32  0.2250    33  0.2691    34  0.2689    35  0.2318
    36  0.2684    37  0.2324    38  0.2691    39  0.2691    40  0.2323
    41  0.2615    42  0.2686    43  0.2324    44  0.2320    45  0.2617
    46  0.2263    47  0.2320    48  0.2319    49  0.2263    50  0.2263
    51  0.2024    52  0.2027    53  0.2024    54  0.2015    55  0.2026
    56  0.2026    57  0.2026    58  0.2500    59  0.2500    60  0.2500
    61  0.2500    62  0.2500    63  0.2500    64  0.2500    65  0.2500
    66  0.2500    67  0.2500    68  0.2500    69  0.2500    70  0.2500
    71  0.2500    72  0.2500    73  0.2500    74  0.2500    75  0.2500
    76  0.2500    77  0.2500    78  0.2500    79  0.2500    80  0.2500
    81  0.2500    82  0.2500    83  0.2500    84  0.2500    85  0.2500
    86  0.2500    87  0.2500    88  0.2500    89  0.2500    90  0.2500
    91  0.2500    92  0.2500    93  0.2500    94  0.2500    95  0.2500
    96  0.2500    97  0.2500    98  0.2500    99  0.2500   100  0.2500
   101  0.2500   102  0.2500
 TRANSFORMING HESSIAN TO SYMMETRY COORDINATES

          PARAMETERS CONTROLLING GEOMETRY SEARCH ARE
          METHOD =QA                  UPHESS =BFGS    
          NNEG   =         0          NFRZ   =         3
          NSTEP  =        50          IFOLOW =         1
          HESS   =GUESS               RESTAR =         F
          IHREP  =         0          HSSEND =         F
          NPRT   =         0          NPUN   =         0
          OPTTOL = 5.000E-04          RMIN   = 1.500E-03
          RMAX   = 1.000E-01          RLIM   = 7.000E-02
          DXMAX  = 3.000E-01          PURIFY =         F
          MOVIE  =         F          TRUPD  =         T
          TRMAX  = 5.000E-01          TRMIN  = 5.000E-02
          ITBMAT =         5          STPT   =         F
          STSTEP = 1.000E-02          PROJCT=          F
          FROZEN COORD(S)=   1   2   3


      ***** EQUILIBRIUM GEOMETRY LOCATED *****
            (SUBJECT TO   3 CONSTRAINT(S))
 COORDINATES OF ALL ATOMS ARE (ANGS)
   ATOM   CHARGE       X              Y              Z
 ------------------------------------------------------------
 C           6.0   0.9575633863   2.2401970959   0.9036486483
 C           6.0   2.0130918376   3.3411137814   0.9696188758
 C           6.0   3.4365445925   2.8176656167   1.0154522719
 C           6.0   4.4819959299   3.6407678244   1.4337829773
 C           6.0   3.7499895012   1.5145884691   0.6619596225
 C           6.0   5.7788499832   3.1700892782   1.4930559139
 C           6.0   5.0537314142   1.0400156627   0.7245673307
 C           6.0   6.0898495826   1.8576846275   1.1416726882
 C           6.0   7.5173259663   1.3731113083   1.2089270412
 H           1.0   1.0583294196   1.5524716638   1.7381344451
 H           1.0  -0.0410989593   2.6609959842   0.9213384959
 H           1.0   1.0539828475   1.6678303310  -0.0137483484
 H           1.0   1.9009127297   3.9970233795   0.1080172944
 H           1.0   1.8418832299   3.9636621573   1.8436535559
 H           1.0   4.2792043808   4.6581460937   1.7243454645
 H           1.0   2.9777564629   0.8417223468   0.3427365156
 H           1.0   6.5653280904   3.8247443149   1.8279821550
 H           1.0   5.2448559923   0.0163827072   0.4506164601
 H           1.0   8.0965467228   1.7757657678   0.3822353315
 H           1.0   7.9887086936   1.7007437400   2.1298240562
 H           1.0   7.5714811657   0.2917442414   1.1622505774


                     --------------------
                     INTERNAL COORDINATES
                     --------------------

                 - - ATOMS - -         COORDINATE      COORDINATE
 NO.   TYPE    I  J  K  L  M  N        (BOHR,RAD)       (ANG,DEG)
 ----------------------------------------------------------------
   1 STRETCH   1 10                     2.0523213       1.0860417
   2 STRETCH   1 11                     2.0481623       1.0838409
   3 STRETCH   1  2                     2.8848572       1.5266008
   4 STRETCH   1 12                     2.0514781       1.0855955
   5 STRETCH   2 13                     2.0572502       1.0886500
   6 STRETCH   2 14                     2.0534771       1.0866533
   7 STRETCH   2  3                     2.8673542       1.5173386
   8 STRETCH   3  4                     2.6357893       1.3947997
   9 STRETCH   3  5                     2.6193094       1.3860789
  10 STRETCH   4 15                     2.0358318       1.0773159
  11 STRETCH   4  6                     2.6095207       1.3808990
  12 STRETCH   5  7                     2.6245308       1.3888420
  13 STRETCH   5 16                     2.0273828       1.0728449
  14 STRETCH   6  8                     2.6338448       1.3937707
  15 STRETCH   6 17                     2.0346800       1.0767064
  16 STRETCH   7 18                     2.0347726       1.0767554
  17 STRETCH   7  8                     2.6158206       1.3842327
  18 STRETCH   8  9                     2.8515604       1.5089809
  19 STRETCH   9 21                     2.0479488       1.0837279
  20 STRETCH   9 20                     2.0506758       1.0851710
  21 STRETCH   9 19                     2.0536779       1.0867596
  22 BEND      1  2  3                  1.9835842     113.6510019
  23 BEND      1  2 14                  1.9166221     109.8143563
  24 BEND      1  2 13                  1.9060900     109.2109114
  25 BEND      2  1 10                  1.9383228     111.0577154
  26 BEND      2  3  4                  2.1043983     120.5731406
  27 BEND      2  1 11                  1.9352008     110.8788371
  28 BEND      2  3  5                  2.1279372     121.9218214
  29 BEND      2  1 12                  1.9340617     110.8135754
  30 BEND      3  5 16                  2.0975530     120.1809367
  31 BEND      3  2 13                  1.9054303     109.1731119
  32 BEND      3  2 14                  1.8977401     108.7324975
  33 BEND      3  5  7                  2.1200218     121.4683036
  34 BEND      3  4  6                  2.1125594     121.0407401
  35 BEND      3  4 15                  2.0910393     119.8077295
  36 BEND      4  3  5                  2.0507918     117.5017153
  37 BEND      4  6 17                  2.0852982     119.4787832
  38 BEND      4  6  8                  2.1172780     121.3110936
  39 BEND      5  7  8                  2.1110904     120.9565679
  40 BEND      5  7 18                  2.0714521     118.6854626
  41 BEND      6  8  9                  2.0969676     120.1473947
  42 BEND      6  8  7                  2.0546172     117.7208933
  43 BEND      6  4 15                  2.0795511     119.1495041
  44 BEND      7  5 16                  2.0655306     118.3461872
  45 BEND      7  8  9                  2.1315505     122.1288456
  46 BEND      8  9 21                  1.9452662     111.4555416
  47 BEND      8  7 18                  2.1005975     120.3553706
  48 BEND      8  6 17                  2.0805418     119.2062664
  49 BEND      8  9 19                  1.9297641     110.5673361
  50 BEND      8  9 20                  1.9302811     110.5969585
  51 BEND     10  1 12                  1.8830620     107.8915073
  52 BEND     10  1 11                  1.8952640     108.5906298
  53 BEND     11  1 12                  1.8758334     107.4773358
  54 BEND     13  2 14                  1.8495683     105.9724551
  55 BEND     19  9 20                  1.8777517     107.5872456
  56 BEND     19  9 21                  1.8863103     108.0776200
  57 BEND     20  9 21                  1.8924160     108.4274487
  58 TORSION   1  2  3  5               0.2911630      16.6824128
  59 TORSION   1  2  3  4              -2.8385647    -162.6377751
  60 TORSION   2  3  5 16               0.0015044       0.0861956
  61 TORSION   2  3  5  7              -3.1262855    -179.1229661
  62 TORSION   2  3  4  6               3.1292056     179.2902763
  63 TORSION   2  3  4 15              -0.0032715      -0.1874425
  64 TORSION   3  2  1 12              -1.1080515     -63.4866752
  65 TORSION   3  2  1 10               0.9846616      56.4169544
  66 TORSION   3  4  6 17              -3.1322167    -179.4627995
  67 TORSION   3  4  6  8              -0.0031938      -0.1829887
  68 TORSION   3  5  7  8              -0.0023914      -0.1370159
  69 TORSION   3  5  7 18               3.1290004     179.2785172
  70 TORSION   3  2  1 11               3.0935380     177.2466733
  71 TORSION   4  6  8  9               3.1356454     179.6592488
  72 TORSION   4  6  8  7               0.0045737       0.2620532
  73 TORSION   4  3  5  7               0.0037902       0.2171622
  74 TORSION   4  3  2 14              -0.6981985     -40.0038270
  75 TORSION   4  3  2 13               1.3121614      75.1813124
  76 TORSION   4  3  5 16               3.1315801     179.4263239
  77 TORSION   5  7  8  9              -3.1326693    -179.4887274
  78 TORSION   5  7  8  6              -0.0018197      -0.1042611
  79 TORSION   5  3  2 14               2.4315292     139.3163609
  80 TORSION   5  3  2 13              -1.8412962    -105.4984997
  81 TORSION   5  3  4 15              -3.1335105    -179.5369294
  82 TORSION   5  3  4  6              -0.0010334      -0.0592106
  83 TORSION   6  8  7 18              -3.1330417    -179.5100672
  84 TORSION   6  8  9 19              -1.3025133     -74.6285169
  85 TORSION   6  8  9 20               0.7755400      44.4351702
  86 TORSION   6  8  9 21               2.8821416     165.1345489
  87 TORSION   7  8  9 19               1.8280817     104.7413653
  88 TORSION   7  8  9 20              -2.3770503    -136.1949476
  89 TORSION   7  8  9 21              -0.2704487     -15.4955689
  90 TORSION   7  8  6 17               3.1336302     179.5437872
  91 TORSION   8  7  5 16              -3.1304268    -179.3602439
  92 TORSION   8  6  4 15               3.1293424     179.2981110
  93 TORSION   9  8  7 18               0.0192940       1.1054665
  94 TORSION   9  8  6 17              -0.0184833      -1.0590172
  95 TORSION  10  1  2 14              -1.1452743     -65.6193845
  96 TORSION  10  1  2 13               3.1167557     178.5769495
  97 TORSION  11  1  2 14               0.9636021      55.2103345
  98 TORSION  11  1  2 13              -1.0575531     -60.5933315
  99 TORSION  12  1  2 13               1.0240426      58.6733200
 100 TORSION  12  1  2 14               3.0451979     174.4769860
 101 TORSION  15  4  6 17               0.0003194       0.0183001
 102 TORSION  16  5  7 18               0.0009650       0.0552892

          INTERNUCLEAR DISTANCES (ANGS.)


 =====================================================
   GAMESS/COSab RESULTS
 =====================================================

   Dielectric Constant                  = INFTY
   Basic Grid Size                      =                 1082
   Number of Segments                   =                   92
   Number of Segments located on spheres=                  299
   Number of Segments of the cavity     =                  779
   Solvent Radius (rsolv)               = 1.40
   Outlying Charge Error Method         = double cavity

 =====================================================

  Total solvated Energy (a.u.)          =  -347.8927349365
  Total Energy corrected (a.u.)         =  -347.8927502376

  Outlying charge effect (a.u.)         =    -0.0000153011
  Outlying charge effect (kcal/mol)     =    -0.0096015666

  Dielectric Energy (a.u.)              =    -0.0065520108
  Dielectric energy corr. (a.u.)        =    -0.0065673119

  Sum of polarization charges           =     0.0280791258
  Sum of polarization charges(cor.)     =    -0.0280791258

  Total surface area of cavity (A**2)   =  175.12
  Total volume of cavity (A**3)         =  171.95

 =====================================================
 NPS=                   779
NR.  ATOM  (X, Y, Z)(a.u.)                  CHARGE(e)  AREA(A**2) SIGMA(e/A**2)
   1   1  -1.083319   3.343640  -0.555996   0.002014   0.418105   0.004817
   2   1   0.776482   5.272181   5.191586   0.000696   0.278737   0.002496
   3   1  -1.328826   2.842456   3.288883   0.001433   0.371649   0.003856
   4   1   0.731306   0.696922   0.923211   0.001061   0.325193   0.003264
   5   1   1.690354   5.260870  -1.927503   0.000503   0.278737   0.001806
   6   1  -0.032976   6.523235  -0.668458   0.000539   0.232280   0.002320
   7   1   0.440034   5.821498  -1.436643   0.000825   0.325193   0.002537
   8   1  -0.255914   4.785637  -1.408953   0.001137   0.278737   0.004078
   9   1   1.376277   0.488148   1.972183   0.001453   0.371649   0.003909
  10   1  -0.671597   2.495352   3.967634   0.001053   0.278737   0.003778
  11   1   0.612527   4.332675   5.291151   0.000711   0.232280   0.003062
  12   1  -0.959009   4.522704  -0.848858   0.000885   0.232280   0.003809
  13   1  -0.356866   3.943220  -1.375666   0.001140   0.278737   0.004089
  14   1   1.691071   4.765242   5.447601   0.000487   0.232280   0.002097
  15   1  -0.190248   4.937896   4.836334   0.001070   0.278737   0.003839
  16   1  -1.028279   3.525262   4.101310   0.001571   0.325193   0.004830
  17   1  -0.845571   1.755996   2.755188   0.001292   0.464561   0.002781
  18   1  -0.028203   0.930807   1.695285   0.001195   0.464561   0.002573
  19   1   1.656909   0.512948   1.059911   0.000617   0.185824   0.003323
  20   1   0.068990   5.878318   4.631479   0.000871   0.325193   0.002680
  21   1  -1.562444   2.552086   2.003159   0.001031   0.418105   0.002467
  22   1  -1.444860   2.689123   0.563742   0.001245   0.418105   0.002977
  23   1  -0.730893   2.179295  -0.192706   0.001432   0.464561   0.003082
  24   1  -0.086580   1.221938   0.434701   0.000701   0.278737   0.002517
  25   1  -0.370960   5.723210  -0.996063   0.000654   0.232280   0.002816
  26   1   0.755229   5.027335  -1.833869   0.000695   0.232280   0.002994
  27   1   0.005087   1.055623   2.672134   0.000688   0.278737   0.002467
  28   1  -0.268933   3.891219   4.845657   0.001252   0.278737   0.004490
  29   1   0.006727   6.583495   4.055183   0.000254   0.139368   0.001821
  30   1  -0.855275   4.507077   4.373742   0.000864   0.232280   0.003721
  31   1  -0.952284   1.691393   1.266014   0.000957   0.464561   0.002060
  32   2   0.968056   8.790517   1.506190   0.000355   0.232280   0.001528
  33   2   3.926422  10.073896   2.194030   0.000968   0.278737   0.003473
  34   2   3.877261   5.329044   5.480489   0.000162   0.139368   0.001165
  35   2   3.279202   5.785026   5.537584   0.000026   0.046456   0.000549
  36   2   3.813844  10.067842   1.395066   0.000963   0.278737   0.003456
  37   2   1.236455   8.876781   0.773063   0.000371   0.278737   0.001333
  38   2   4.401411   5.897375  -1.876356   0.000112   0.185824   0.000601
  39   2   1.599604   9.371329   2.106972   0.001012   0.325193   0.003113
  40   2   2.842716   9.959408   2.095393   0.001170   0.278737   0.004199
  41   2   1.037317   8.755366   2.649201   0.000420   0.278737   0.001508
  42   2   4.083141   5.803325   5.566728   0.000056   0.046456   0.001199
  43   2   2.162689   9.706608   1.552245   0.000971   0.278737   0.003485
  44   2   3.794480   5.811533  -1.913610   0.000027   0.046456   0.000592
  45   3   5.745113   5.259704   5.622852   0.000533   0.092912   0.005737
  46   3   5.672946   4.450273   5.502988   0.001183   0.232280   0.005092
  47   3   6.062247   3.786354   5.344062   0.000787   0.139368   0.005647
  48   3   7.629360   6.242447  -1.567193   0.002366   0.325193   0.007274
  49   3   6.841193   6.927827  -1.485990   0.001151   0.232280   0.004954
  50   3   6.406712   5.916472  -1.812866   0.001652   0.371649   0.004446
  51   3   6.579743   4.231290   5.535778   0.001667   0.232280   0.007178
  52   4   9.202592   6.982454  -0.996837   0.001243   0.139368   0.008921
  53   4  10.063632   9.720514   0.792297   0.001015   0.278737   0.003641
  54   4   7.884119   7.520106   6.388006   0.001408   0.325193   0.004331
  55   4   8.128556   8.518535   6.098159   0.000637   0.232280   0.002744
  56   4   7.331072   9.945686   0.814840   0.000184   0.139368   0.001321
  57   4   9.634678  10.169725   1.258525   0.000525   0.232280   0.002262
  58   4   9.939888   9.399408   5.112749  -0.000144   0.092912  -0.001545
  59   4  10.277386  10.115297   1.967938   0.000321   0.185824   0.001726
  60   4   9.111692   9.695427   0.271061   0.001371   0.325193   0.004214
  61   4   7.890516   9.603995   0.154294   0.001127   0.325193   0.003466
  62   4   7.026227   7.565614   6.134456   0.001077   0.278737   0.003863
  63   4   8.907214   7.991166   6.295314   0.001499   0.325193   0.004609
  64   4   9.598343   8.650090   5.852312   0.000325   0.092912   0.003498
  65   4   9.610503   8.909284  -0.267971   0.002365   0.325193   0.007273
  66   4   9.405501   7.776148  -0.840972   0.001436   0.232280   0.006183
  67   4   8.571649   7.845158  -0.943264   0.001539   0.185824   0.008282
  68   4   7.955620   8.725497  -0.548490   0.001328   0.232280   0.005717
  69   4   7.247683   6.319721   6.241729   0.003214   0.511017   0.006289
  70   4   8.565031   6.677253   6.482271   0.002311   0.371649   0.006218
  71   4   7.080943   8.503449   5.827176   0.000338   0.185824   0.001817
  72   4   8.484025  10.131376   0.782561   0.000701   0.232280   0.003020
  73   4  10.433663  10.109016   2.741928  -0.000088   0.092912  -0.000946
  74   4   9.164077   8.918973   5.815100   0.000330   0.185824   0.001777
  75   4   8.093058   5.260849   6.103660   0.003817   0.464561   0.008215
  76   4   8.770215   8.758027  -0.556600   0.001760   0.325193   0.005413
  77   5   7.221713   2.495421   5.010108   0.000942   0.092912   0.010143
  78   5   6.273646  -0.121387   3.423943   0.000939   0.232280   0.004045
  79   5   6.412111   2.637168  -2.461070   0.001640   0.371649   0.004413
  80   5   5.860474   1.782628  -2.157276   0.000768   0.325193   0.002362
  81   5   5.992002  -0.558700   2.427406   0.000557   0.278737   0.001997
  82   5   6.810189  -0.101467  -1.078198  -0.000151   0.092912  -0.001624
  83   5   5.579428   0.205646   3.477139   0.001198   0.325193   0.003685
  84   5   5.732412   3.370282  -2.240874   0.001167   0.278737   0.004186
  85   5   6.969205   1.602654  -2.310556   0.001431   0.325193   0.004402
  86   5   7.183120   0.807971  -1.920068   0.000513   0.139368   0.003677
  87   5   6.544284   0.615126   4.241095   0.002039   0.278737   0.007315
  88   5   7.015155   1.696957   4.845568   0.001324   0.232280   0.005701
  89   5   6.317523   2.168373   4.885708   0.001671   0.185824   0.008990
  90   5   6.723871   3.945464  -2.351750   0.003273   0.511017   0.006406
  91   5   7.583958   2.803092  -2.495174   0.002339   0.418105   0.005595
  92   5   6.555465   0.734924  -1.827573   0.000248   0.185824   0.001332
  93   5   8.034515   4.246284  -2.135763   0.003935   0.464561   0.008470
  94   5   6.108211   1.311501   4.555881   0.001940   0.278737   0.006959
  95   6  10.839056   6.415258  -0.933180   0.001504   0.185824   0.008092
  96   6  11.841892   9.223264   1.093711   0.001267   0.278737   0.004545
  97   6  11.450505   5.966593   6.563479   0.001477   0.325193   0.004541
  98   6  12.431637   6.562564   6.238098   0.000941   0.325193   0.002894
  99   6  11.198833   8.716763   5.424304   0.000118   0.092912   0.001268
 100   6  11.944619   9.534535   1.999332   0.000366   0.278737   0.001312
 101   6  13.776705   7.689138   1.021164   0.000287   0.139368   0.002062
 102   6  13.150176   7.698297   0.292352   0.001222   0.325193   0.003757
 103   6  12.259248   8.659180   0.504006   0.000988   0.232280   0.004254
 104   6  11.184869   8.168478   5.898989   0.000358   0.185824   0.001925
 105   6  11.048954   7.005065   6.459947   0.001901   0.418105   0.004548
 106   6  12.246067   5.469667   6.322261   0.000934   0.232280   0.004021
 107   6  12.666912   7.004797  -0.373155   0.002006   0.325193   0.006168
 108   6  11.678483   6.831811  -0.784374   0.001464   0.232280   0.006304
 109   6  11.225271   7.405892  -0.669718   0.002134   0.232280   0.009189
 110   6  11.461368   8.441616  -0.004177   0.001357   0.278737   0.004869
 111   6  10.323792   5.756279   6.546151   0.002970   0.418105   0.007103
 112   6  11.240952   4.903105   6.426854   0.002004   0.325193   0.006163
 113   6  11.672019   7.528619   6.191014   0.000610   0.232280   0.002625
 114   6  12.984962   8.530997   0.932420   0.001073   0.325193   0.003300
 115   6  10.018531   4.546891   6.195844   0.003147   0.418105   0.007527
 116   6  12.111307   7.875735  -0.230166   0.001446   0.278737   0.005186
 117   7   8.736865   1.863135   5.058722   0.000893   0.092912   0.009616
 118   7  10.413021  -0.210299   4.336782   0.000662   0.139368   0.004753
 119   7   8.015632  -1.003645   3.134054   0.001224   0.278737   0.004389
 120   7  10.437267   1.376705  -2.257177   0.001657   0.371649   0.004459
 121   7  10.562584   0.387757  -1.912617   0.001139   0.325193   0.003504
 122   7   8.169610  -0.406023  -1.229802   0.000039   0.092912   0.000425
 123   7   7.955041  -1.349263   2.237132   0.000265   0.278737   0.000951
 124   7  10.427815  -0.998290   3.544299   0.000672   0.232280   0.002894
 125   7   9.817824  -0.630720   4.102931   0.000997   0.232280   0.004292
 126   7   8.656264  -0.819335   3.763139   0.000993   0.232280   0.004275
 127   7   8.550321  -0.003563  -1.698016   0.000375   0.185824   0.002021
 128   7   9.246016   0.940597  -2.255912   0.001788   0.418105   0.004277
 129   7  11.439788   1.125065  -1.794240   0.000791   0.232280   0.003403
 130   7   9.861516   0.310371   4.752782   0.002172   0.325193   0.006678
 131   7   9.289696   1.229423   5.067182   0.001420   0.232280   0.006114
 132   7   8.608485   0.858760   4.858210   0.002135   0.232280   0.009191
 133   7   8.159291  -0.111626   4.204004   0.001337   0.278737   0.004797
 134   7   9.635748   2.301082  -2.394306   0.003458   0.511017   0.006768
 135   7  11.038869   2.332988  -2.085167   0.002702   0.418105   0.006461
 136   7   9.356040   0.151191  -1.940671   0.000541   0.232280   0.002330
 137   7   9.318384  -1.214155   3.399347   0.001093   0.325193   0.003361
 138   7  11.545422   0.321310  -1.387653   0.000182   0.139368   0.001309
 139   7  10.063146   3.541136  -2.027527   0.003491   0.464561   0.007515
 140   7   9.002699  -0.094338   4.490493   0.001488   0.278737   0.005340
 141   8  12.310974   3.583958  -1.535009   0.000502   0.139368   0.003604
 142   8  12.538904   4.978830  -1.169075   0.000688   0.139368   0.004934
 143   8  12.439960   4.292262  -1.420925   0.000840   0.185824   0.004523
 144   8  11.711555   4.328274  -1.526852   0.001099   0.139368   0.007888
 145   8  10.290323   2.695754   5.641329   0.002700   0.371649   0.007265
 146   8  11.584062   2.819610   5.872448   0.001770   0.325193   0.005443
 147   8  11.144323   1.660100   5.432801   0.001963   0.371649   0.005283
 148   8  11.574946   4.992054  -1.318866   0.001710   0.232280   0.007363
 149   9  12.903919   0.744714   5.312212   0.000350   0.232280   0.001507
 150   9  16.301106   0.500613   4.631409   0.001636   0.418105   0.003913
 151   9  13.928674   1.386415  -1.285794   0.000304   0.232280   0.001310
 152   9  17.783452   3.599051   2.973996   0.001242   0.418105   0.002971
 153   9  16.963089   0.366063   0.975477   0.000842   0.371649   0.002266
 154   9  12.947677   0.017114   4.745665   0.000282   0.232280   0.001215
 155   9  13.193570   1.871058   5.853302   0.000433   0.232280   0.001862
 156   9  13.724072   0.707939   5.523677   0.000549   0.232280   0.002364
 157   9  14.591812   0.365897   5.312261   0.001409   0.371649   0.003791
 158   9  16.990287   1.130441   0.190296   0.001042   0.371649   0.002805
 159   9  17.687721   4.036481   1.999438   0.000763   0.278737   0.002736
 160   9  16.054715   5.838578   1.698586   0.000311   0.139368   0.002230
 161   9  14.527291   1.701461  -1.373703   0.000473   0.232280   0.002036
 162   9  15.380388   0.778774   5.383949   0.000732   0.232280   0.003150
 163   9  15.345547  -0.061497   4.719492   0.000855   0.278737   0.003069
 164   9  16.421833   5.617921   2.768041   0.000896   0.278737   0.003215
 165   9  17.191588   4.859907   2.772387   0.001694   0.418105   0.004053
 166   9  17.982715   2.645651   2.159147   0.000852   0.464561   0.001834
 167   9  17.653383   1.243084   1.529251   0.000688   0.464561   0.001482
 168   9  16.089216   0.405008  -0.152941   0.001390   0.371649   0.003741
 169   9  14.933940   0.463747  -0.750662   0.000965   0.278737   0.003463
 170   9  14.126055   0.399132  -0.790666   0.000615   0.278737   0.002207
 171   9  17.802435   2.225276   3.385038   0.000553   0.371649   0.001489
 172   9  17.265310   1.218426   4.024802   0.000795   0.418105   0.001901
 173   9  16.884902   0.240295   3.534458   0.000904   0.464561   0.001946
 174   9  17.173918   0.258518   2.159734   0.000404   0.325193   0.001242
 175   9  13.897330   1.470384   5.879653   0.000476   0.232280   0.002047
 176   9  13.771107  -0.136663   4.860280   0.000564   0.232280   0.002428
 177   9  17.795374   2.155914   1.186470   0.000355   0.278737   0.001272
 178   9  16.730299   5.391849   1.989286   0.000420   0.139368   0.003017
 179   9  13.902251   2.384650  -1.476844   0.000115   0.139368   0.000825
 180   9  15.562083   1.049732  -0.886762   0.001080   0.325193   0.003322
 181   9  17.710190   1.261932   2.760074   0.000406   0.418105   0.000972
 182  10   1.918137   1.343701   5.155462  -0.002570   0.471065  -0.005455
 183  10   1.473671   0.555440   3.603626  -0.000826   0.353299  -0.002337
 184  10   0.402386   1.970868   4.883250  -0.000783   0.372926  -0.002099
 185  10   1.759413   3.285541   5.703984  -0.000778   0.353299  -0.002203
 186  10   2.962402   1.631264   5.131844  -0.002058   0.392554  -0.005243
 187  10   2.416587   0.615285   3.981919  -0.002172   0.451437  -0.004811
 188  10   0.859899   1.044765   4.364919  -0.001676   0.471065  -0.003558
 189  10   1.128056   2.383723   5.514466  -0.001723   0.471065  -0.003658
 190  10   2.679573   2.735829   5.637046  -0.002104   0.471065  -0.004466
 191  11  -2.344445   5.966467   1.871986  -0.003442   0.569203  -0.006047
 192  11  -1.805256   5.268623   0.011080  -0.000839   0.372926  -0.002249
 193  11  -1.126277   6.957325   0.638663  -0.001029   0.353299  -0.002913
 194  11  -1.170303   6.857759   2.963879  -0.001135   0.353299  -0.003213
 195  11  -1.903302   4.979304   3.384173  -0.000855   0.372926  -0.002293
 196  11  -2.322507   4.038402   1.616877  -0.001082   0.412182  -0.002625
 197  11  -1.798118   6.252517   0.485276  -0.002078   0.490692  -0.004235
 198  11  -1.426688   7.079737   1.829739  -0.002021   0.490692  -0.004119
 199  11  -1.753220   6.065270   3.208338  -0.001814   0.471065  -0.003851
 200  11  -2.377004   4.640947   2.514345  -0.001904   0.471065  -0.004041
 201  11  -2.358443   4.847545   0.846424  -0.002057   0.490692  -0.004193
 202  12   1.605969   1.990681  -2.156282  -0.001758   0.333671  -0.005267
 203  12   2.532265   3.676844  -2.364181  -0.001476   0.353299  -0.004178
 204  12   1.309981   3.658281  -2.331131  -0.000562   0.274788  -0.002044
 205  12   0.429257   1.986859  -1.521568  -0.000882   0.333671  -0.002642
 206  12   1.608467   0.803516  -0.637530  -0.000920   0.294415  -0.003124
 207  12   1.892171   2.959166  -2.473035  -0.001158   0.255160  -0.004538
 208  12   0.662813   2.842689  -2.068903  -0.001095   0.392554  -0.002791
 209  12   0.945826   1.251557  -1.179423  -0.001324   0.392554  -0.003374
 210  12   2.119344   1.284513  -1.617276  -0.001928   0.314043  -0.006139
 211  12   2.625479   2.353443  -2.261187  -0.001911   0.294415  -0.006492
 212  13   3.236325   8.927763  -1.800690  -0.002716   0.471065  -0.005765
 213  13   2.465345   7.610888  -1.978075  -0.001072   0.274788  -0.003902
 214  13   4.231889   7.299540  -2.154177  -0.000940   0.294415  -0.003191
 215  13   4.677674   9.158387  -1.306021  -0.001855   0.372926  -0.004974
 216  13   3.288879   9.977101  -0.056996  -0.000784   0.333671  -0.002348
 217  13   1.680688   8.852693  -0.628167  -0.000999   0.333671  -0.002994
 218  13   3.308378   7.564353  -2.236053  -0.001766   0.431809  -0.004089
 219  13   4.486673   8.313192  -1.954029  -0.001957   0.412182  -0.004748
 220  13   3.609337   9.642129  -1.088758  -0.001685   0.333671  -0.005049
 221  13   2.423762   9.596752  -0.498767  -0.001610   0.451437  -0.003565
 222  13   2.040038   8.461549  -1.469474  -0.001686   0.431809  -0.003905
 223  13   4.405122   9.812607  -0.315233  -0.001088   0.314043  -0.003466
 224  14   2.793214   8.962578   5.326479  -0.002952   0.510320  -0.005785
 225  14   3.020020   7.006582   5.848113  -0.001081   0.353299  -0.003060
 226  14   1.523972   8.382506   4.671583  -0.001455   0.372926  -0.003901
 227  14   2.731625   9.797590   3.871474  -0.001004   0.372926  -0.002693
 228  14   3.742206   7.713615   5.916450  -0.002427   0.490692  -0.004945
 229  14   2.173223   7.806894   5.539596  -0.001771   0.451437  -0.003924
 230  14   1.942457   9.237649   4.268590  -0.001471   0.412182  -0.003568
 231  14   3.620723   9.808934   4.283425  -0.001996   0.431809  -0.004623
 232  14   3.912413   8.929675   5.427370  -0.002590   0.412182  -0.006285
 233  15   7.902290  11.176189   3.864654  -0.004070   0.490692  -0.008295
 234  15   8.146213  10.954960   2.075749  -0.001482   0.353299  -0.004195
 235  15   9.500183  10.755756   3.729655  -0.002487   0.353299  -0.007040
 236  15   8.415653  10.052669   5.347603  -0.001861   0.412182  -0.004514
 237  15   6.833087  10.767810   4.034476  -0.004091   0.451437  -0.009063
 238  15   7.156661  10.970443   2.572217  -0.004024   0.529948  -0.007593
 239  15   8.870611  11.100115   2.881912  -0.002888   0.471065  -0.006130
 240  15   8.911441  10.676973   4.615538  -0.003308   0.471065  -0.007022
 241  15   7.290746  10.151831   5.151029  -0.003454   0.510320  -0.006769
 242  16   4.336832  -0.376046  -0.061119  -0.003732   0.372926  -0.010007
 243  16   4.605578  -0.408641   1.644878  -0.001329   0.235532  -0.005642
 244  16   5.473451  -0.850975   0.423892  -0.001870   0.274788  -0.006806
 245  16   5.462542   0.119044  -1.312550  -0.001115   0.235532  -0.004736
 246  16   4.754007  -0.681859   0.977120  -0.002340   0.353299  -0.006624
 247  16   5.415485  -0.537059  -0.561986  -0.002549   0.372926  -0.006836
 248  16   4.779723   0.411713  -1.334031  -0.002661   0.333671  -0.007974
 249  17  13.988041   8.928522   4.255391  -0.003721   0.451437  -0.008243
 250  17  14.395447   8.242167   2.429345  -0.002051   0.333671  -0.006148
 251  17  13.390327   7.736162   5.647334  -0.002014   0.392554  -0.005131
 252  17  12.425205   9.421866   4.559131  -0.002311   0.333671  -0.006926
 253  17  13.108920   9.458110   2.701226  -0.001268   0.314043  -0.004036
 254  17  14.692114   8.086060   3.728358  -0.003684   0.431809  -0.008532
 255  17  14.263606   7.836459   4.943116  -0.003392   0.412182  -0.008230
 256  17  13.003853   8.770489   5.270518  -0.003157   0.510320  -0.006186
 257  17  13.018208   9.591846   3.722695  -0.003087   0.451437  -0.006839
 258  17  14.002715   8.972589   2.788715  -0.002623   0.412182  -0.006364
 259  18  10.042996  -2.136892  -0.296567  -0.003604   0.451437  -0.007983
 260  18  10.392526  -2.099117   1.976837  -0.002854   0.451437  -0.006321
 261  18  10.348254  -1.134037  -1.266707  -0.001631   0.372926  -0.004375
 262  18   8.703598  -1.701237  -0.403818  -0.002167   0.314043  -0.006899
 263  18   9.027185  -2.112177   1.664124  -0.001737   0.392554  -0.004424
 264  18  10.959114  -2.169909   0.545918  -0.003632   0.412182  -0.008811
 265  18  11.201837  -1.416557  -0.656567  -0.003472   0.451437  -0.007692
 266  18   9.356666  -1.428449  -1.045178  -0.001641   0.314043  -0.005224
 267  18   8.749548  -2.109211   0.527554  -0.003029   0.431809  -0.007014
 268  18   9.902488  -2.421970   0.986117  -0.002827   0.372926  -0.007580
 269  19  16.554660   4.032303  -1.278634  -0.003465   0.529948  -0.006539
 270  19  15.061469   4.626587  -1.366448  -0.002108   0.412182  -0.005113
 271  19  15.612270   2.615101  -1.599163  -0.000998   0.333671  -0.002990
 272  19  17.283820   2.699208  -0.569820  -0.001613   0.431809  -0.003737
 273  19  17.365649   4.675684   0.558223  -0.001191   0.392554  -0.003034
 274  19  16.319040   5.544598   0.268520  -0.001594   0.392554  -0.004062
 275  19  15.172044   3.576162  -1.721055  -0.001961   0.451437  -0.004343
 276  19  16.526962   2.638521  -1.281669  -0.001814   0.431809  -0.004200
 277  19  17.641451   3.597902   0.018558  -0.002082   0.490692  -0.004243
 278  19  16.919113   4.805052  -0.423900  -0.002346   0.412182  -0.005692
 279  19  15.759792   5.214130  -0.817223  -0.002332   0.412182  -0.005658
 280  20  16.365010   3.714933   6.068048  -0.003290   0.510320  -0.006447
 281  20  15.755473   2.000305   6.056514  -0.000949   0.333671  -0.002844
 282  20  14.421902   3.212999   6.387010  -0.001505   0.353299  -0.004260
 283  20  16.816620   4.887703   4.548883  -0.001467   0.412182  -0.003560
 284  20  17.340170   2.893212   4.972422  -0.001372   0.412182  -0.003330
 285  20  15.312662   2.732978   6.424174  -0.001851   0.412182  -0.004492
 286  20  15.213651   4.194492   6.274212  -0.002946   0.451437  -0.006526
 287  20  16.063502   4.929652   5.493217  -0.002848   0.451437  -0.006309
 288  20  17.230586   3.974534   4.974587  -0.002066   0.451437  -0.004576
 289  20  16.679081   2.404375   5.720379  -0.001844   0.431809  -0.004270
 290  21  14.902802  -1.814175   2.489202  -0.002583   0.412182  -0.006266
 291  21  13.770272  -1.235330   3.794384  -0.001472   0.372926  -0.003946
 292  21  15.851492  -1.182876   2.999687  -0.001544   0.392554  -0.003933
 293  21  15.608779  -0.999564   0.804236  -0.000976   0.314043  -0.003107
 294  21  14.474474  -1.132043   0.414843  -0.001718   0.392554  -0.004375
 295  21  13.796137  -1.756905   2.863522  -0.002654   0.392554  -0.006761
 296  21  14.975337  -1.242781   3.736131  -0.001442   0.412182  -0.003498
 297  21  16.021684  -1.179225   1.874290  -0.001841   0.431809  -0.004263
 298  21  14.953486  -1.632445   1.274559  -0.001816   0.314043  -0.005784
 299  21  14.016415  -1.811634   1.590934  -0.002427   0.333671  -0.007274
 300   1   2.751193   4.449355   5.368773  -0.000021   0.025736  -0.000799
 301   2   3.092559   4.810878   5.347048  -0.000008   0.025736  -0.000316
 302  10   2.727059   4.149481   5.402346  -0.000061   0.025736  -0.002372
 303   1   0.079797   7.312909   0.343019  -0.000018   0.025811  -0.000714
 304   2   0.450100   7.642996   0.383322  -0.000004   0.025811  -0.000166
 305  11  -0.180743   7.236186   0.474303  -0.000052   0.025811  -0.002020
 306   1   0.063501   7.146425   3.381922  -0.000005   0.025811  -0.000191
 307   2   0.434021   7.478723   3.381880   0.000020   0.025811   0.000756
 308  11  -0.195575   7.084655   3.240265  -0.000033   0.025811  -0.001270
 309   1   2.706256   4.929562  -1.904760  -0.000037   0.026034  -0.001408
 310   2   3.048205   5.285388  -1.840192  -0.000009   0.026034  -0.000357
 311  12   2.684304   4.636562  -1.976723  -0.000055   0.026034  -0.002110
 312   1   2.684150   5.572485  -1.834385   0.000020   0.028304   0.000718
 313   2   3.027815   5.931987  -1.855039  -0.000026   0.028304  -0.000921
 314  13   3.032023   6.232795  -1.899190  -0.000053   0.028304  -0.001886
 315   1   0.631065   7.439724  -0.145612  -0.000003   0.028304  -0.000098
 316   2   0.947815   7.823705  -0.144127  -0.000039   0.028304  -0.001391
 317  13   1.138188   7.955200  -0.341408  -0.000082   0.028304  -0.002881
 318   1   0.501703   7.339540   3.644046   0.000023   0.027417   0.000825
 319   2   0.816825   7.722623   3.685206  -0.000028   0.027417  -0.001038
 320  14   0.993629   7.848566   3.896704  -0.000061   0.027417  -0.002208
[...]
 520  15   7.777373  10.487692   1.605273  -0.000924   0.176585  -0.005232
 521   4   9.916194  10.296306   2.550916  -0.000932   0.163563  -0.005698
 522   4   8.659666  10.363674   1.438061  -0.000521   0.163563  -0.003185
 523   4   7.316137  10.155562   1.229072  -0.000213   0.094043  -0.002267
 524  15   7.054052   9.247950   5.441359  -0.000323   0.068674  -0.004707
 525  15   8.152933   9.428662   5.575544  -0.000661   0.153176  -0.004316
 526  15   9.335786   9.817303   5.040279  -0.000966   0.153176  -0.006307
 527   4   7.493052   8.920709   5.676341  -0.000418   0.149791  -0.002793
 528   4   8.972637   9.253412   5.544036  -0.000562   0.149791  -0.003754
 529   4   9.919078   9.641245   4.846600  -0.000361   0.083900  -0.004301
 530   5   8.224583   2.975327   4.958788   0.001001   0.101852   0.009829
 531   6   8.904641   3.532937   5.197522   0.000889   0.101852   0.008733
 532   7   8.650358   2.818157   4.998570   0.000991   0.101852   0.009732
 533   5   9.220070   4.887120  -1.279617   0.000936   0.101852   0.009191
 534   6   9.888533   5.422462  -0.968222   0.000865   0.101852   0.008492
 535   7   9.651549   4.740903  -1.275578   0.001022   0.101852   0.010030
 536   6  10.002259   5.815281  -1.023544   0.000059   0.005915   0.009905
 537   5   9.041183   5.036126  -1.415681   0.000057   0.005915   0.009672
 538   5   6.646104  -0.877297   0.896399  -0.000077   0.011077  -0.006948
 539   7   7.082593  -0.992759   0.919950  -0.000092   0.011077  -0.008292
 540  16   6.371988  -0.839823   0.790996  -0.000132   0.011077  -0.011920
 541   5   6.875768  -0.440985  -0.578825  -0.000075   0.011077  -0.006808
 542   7   7.309385  -0.561902  -0.536829  -0.000094   0.011077  -0.008478
 543  16   6.580978  -0.442785  -0.551438  -0.000120   0.011077  -0.010837
 544   7   7.750830  -0.395199  -0.968098  -0.000385   0.192505  -0.002001
 545   7   8.362792   1.150256  -1.996698   0.001471   0.392431   0.003750
 546   7   9.176163   3.386364  -1.984051   0.003648   0.392431   0.009297
 547   5   7.368359   0.391335  -1.435936  -0.000262   0.392431  -0.000666
 548   5   8.169486   2.487887  -2.226237   0.002759   0.392431   0.007032
 549   5   8.803664   4.286570  -1.797864   0.001788   0.192505   0.009288
 550   7   8.342858   2.011878   4.950025   0.001920   0.190220   0.010096
 551   7   7.776796   0.349997   4.140179   0.002808   0.387431   0.007248
 552   7   7.415347  -0.901748   2.178358  -0.000191   0.387431  -0.000494
 553   5   7.507759   1.578132   4.657694   0.003669   0.387431   0.009470
 554   5   6.924534  -0.210881   3.241524   0.001551   0.387431   0.004003
 555   5   6.760809  -0.898071   1.441777  -0.000366   0.190220  -0.001923
 556   5   4.555887   0.311136   2.681061  -0.000050   0.090765  -0.000551
 557  10   3.601086   0.634009   2.986151   0.000042   0.090765   0.000461
 558  16   4.394003   0.245263   2.437381  -0.000375   0.090765  -0.004134
 559  10   3.275806   0.721370   3.679864  -0.000434   0.278327  -0.001559
 560  10   3.682450   1.720630   4.661769  -0.001712   0.562509  -0.003043
 561   5   4.912684   0.762305   3.722749   0.002564   0.782841   0.003276
 562   5   5.336507   2.020406   4.738511   0.002082   0.397444   0.005238
 563   5   4.847924   1.907068  -1.765655  -0.000303   0.073023  -0.004153
 564  12   3.854929   2.066687  -1.735627  -0.000520   0.073023  -0.007116
 565  16   4.656299   1.698707  -1.670743  -0.000461   0.073023  -0.006319
 566  12   3.526234   3.489094  -2.072505  -0.000736   0.232105  -0.003169
 567  12   3.462883   2.502223  -2.043550  -0.001019   0.232105  -0.004390
 568   5   4.962858   2.901993  -2.037938   0.000598   0.650752   0.000920
 569  16   5.904043  -0.822772   0.983941  -0.000445   0.071748  -0.006201
 570  16   5.208441  -0.435031   1.849345  -0.000892   0.162200  -0.005500
 571   5   5.990586  -0.681849   1.569579  -0.000829   0.154461  -0.005368
 572   5   5.183732  -0.173453   2.449789  -0.000195   0.087656  -0.002220
 573  16   5.179779   1.306073  -1.751224  -0.000331   0.065762  -0.005033
 574  16   5.799300   0.461779  -1.470262  -0.000803   0.145771  -0.005508
 575  16   6.193506  -0.303418  -0.810979  -0.000389   0.065762  -0.005915
 576   5   5.750143   1.200397  -1.816185  -0.000446   0.144267  -0.003094
 577   5   6.454405   0.082243  -1.162973  -0.000709   0.144267  -0.004916
 578   6  10.343349   5.487793  -0.982149   0.000549   0.049396   0.011108
 579   7  10.104392   4.785999  -1.235620   0.000603   0.049396   0.012202
 580   8  10.439972   5.069599  -1.131882   0.000581   0.049396   0.011769
 581   6   9.319404   3.544012   5.371775   0.000601   0.049396   0.012169
 582   7   9.080369   2.842070   5.118788   0.000598   0.049396   0.012110
 583   8   9.405269   3.105394   5.288801   0.000558   0.049396   0.011299
 584   7   8.861932   2.719829   5.149954   0.000138   0.017056   0.008093
 585   6   9.190983   3.725934   5.507907   0.000243   0.017056   0.014254
 586   7   9.896968   4.725811  -1.386840   0.000160   0.019914   0.008017
 587   6  10.252342   5.722631  -1.027989   0.000226   0.019914   0.011351
 588   6  13.081609   5.906291  -0.454570   0.000522   0.082054   0.006363
 589   8  13.199799   5.496509  -0.614107   0.000345   0.082054   0.004209
 590  19  13.911916   5.265563  -0.635535   0.000012   0.082054   0.000144
 591   6  12.355436   4.116028   5.930073   0.000482   0.093245   0.005173
 592   8  12.460710   3.679074   5.850905   0.000214   0.093245   0.002297
 593  20  13.205847   3.619592   5.905015  -0.000085   0.093245  -0.000910
 594   8  11.059938   5.335914  -1.125041   0.001587   0.184830   0.008587
 595   8  12.446617   5.592905  -0.857616   0.001243   0.184830   0.006723
 596   6  11.602789   6.066238  -0.789345   0.003056   0.375586   0.008136
 597   8  11.588262   3.573266   5.926198   0.001267   0.208244   0.006086
 598   8  10.034413   3.286939   5.620392   0.001702   0.208244   0.008174
 599   6  10.672798   4.057697   5.889615   0.003396   0.427237   0.007949
 600   6  14.364220   7.115218   1.608706  -0.000198   0.066827  -0.002959
 601   9  14.884487   6.471592   1.546357  -0.000120   0.066827  -0.001797
 602  17  14.422770   7.268609   1.859818  -0.000267   0.066827  -0.003989
 603   6  14.580728   6.600265   1.248860  -0.000061   0.050736  -0.001194
 604   9  15.212748   6.078385   1.124188  -0.000095   0.050736  -0.001868
 605  19  15.337631   5.951834   0.878220  -0.000116   0.050736  -0.002293
 606   9  15.225985   6.246193   1.246131   0.000066   0.029434   0.002256
 607   6  14.414669   7.095725   1.399828   0.000074   0.029434   0.002512
 608   6  11.053423   9.386252   4.508276  -0.000153   0.020176  -0.007581
 609  15  10.380039   9.677880   4.422296  -0.000144   0.020176  -0.007160
 610  17  11.349517   9.364107   4.489039  -0.000197   0.020176  -0.009773
 611   6  11.221032   9.716746   3.468740  -0.000147   0.020176  -0.007311
 612  15  10.527585   9.968814   3.507195  -0.000162   0.020176  -0.008040
 613  17  11.499977   9.660788   3.555862  -0.000156   0.020176  -0.007713
 614  15   9.941633   9.973658   4.516291  -0.000088   0.011798  -0.007496
 615   6  10.922850   9.475204   4.593682  -0.000007   0.016656  -0.000427
 616  15  10.109418  10.302691   3.487307  -0.000104   0.012113  -0.008575
 617   6  11.112785   9.851627   3.403419  -0.000010   0.017101  -0.000613
 618   6  13.556928   6.093427   5.613826  -0.000139   0.084579  -0.001638
 619  17  13.697588   6.337573   5.507605  -0.000400   0.084579  -0.004735
 620  20  14.270445   5.419272   5.557163  -0.000281   0.084579  -0.003325
 621  17  14.136521   7.940121   1.873955  -0.000277   0.076845  -0.003601
 622  17  13.314439   8.869310   1.988153  -0.000879   0.176295  -0.004988
 623  17  12.355786   9.546363   2.915848  -0.001191   0.176295  -0.006756
 624   6  13.649369   8.157703   1.538710  -0.000527   0.163264  -0.003230
 625   6  12.503064   9.264142   2.067778  -0.000630   0.163264  -0.003856
 626   6  11.718011   9.668274   3.121278  -0.000486   0.093883  -0.005177
 627  17  11.843619   9.186368   4.822107  -0.000458   0.069933  -0.006555
 628  17  12.205077   8.381335   5.546841  -0.000792   0.156688  -0.005055
 629  17  13.016949   7.290554   5.772458  -0.000815   0.156688  -0.005199
 630   6  11.560542   8.800994   5.186179  -0.000820   0.151876  -0.005396
 631   6  12.242579   7.612866   5.906933  -0.000485   0.151876  -0.003194
 632   6  13.058398   6.653171   5.867069  -0.000219   0.085438  -0.002569
 633  19  14.570970   5.458377  -0.577228  -0.000571   0.313315  -0.001821
 634  19  15.285941   5.906176   0.352452  -0.000561   0.313315  -0.001792
 635   6  13.790584   6.650126   0.296508   0.001655   0.880320   0.001880
 636  20  14.434597   4.770261   5.950840  -0.001042   0.261184  -0.003989
 637  20  13.782564   3.865887   6.126814  -0.000656   0.261184  -0.002512
 638   6  12.942774   5.155299   6.021890   0.001160   0.727734   0.001593
 639   7  11.118065   0.551458   4.634739   0.000377   0.050683   0.007434
 640   8  11.457681   0.795318   4.804813   0.000222   0.050683   0.004377
 641   9  11.931919   0.663487   4.791709   0.000097   0.050683   0.001907
 642   7  12.069789   2.497583  -1.544379   0.000400   0.050683   0.007892
 643   8  12.420642   2.764420  -1.447261   0.000238   0.050683   0.004697
 644   9  12.882637   2.607556  -1.380880   0.000094   0.050683   0.001863
 645   8  11.886139   3.273349  -1.583910   0.001321   0.209556   0.006305
 646   8  10.840345   4.511414  -1.413146   0.001908   0.209556   0.009104
 647   7  10.870519   3.496294  -1.644375   0.003637   0.430665   0.008446
 648   8   9.765601   2.439691   5.317768   0.001819   0.215556   0.008439
 649   8  10.853936   1.195673   5.053004   0.001226   0.215556   0.005686
 650   7   9.832826   1.452850   4.939070   0.003955   0.444401   0.008899
 651   7  12.007549   0.069432  -0.855398  -0.000126   0.065527  -0.001921
 652   9  12.796608   0.224666  -0.629104  -0.000122   0.065527  -0.001866
 653  18  11.906808  -0.197319  -0.762497  -0.000278   0.065527  -0.004242
 654   7  11.694342  -0.456506   3.724528   0.000026   0.070143   0.000374
 655   9  12.501691  -0.405010   3.934239  -0.000095   0.070143  -0.001348
 656  21  12.638262  -0.611648   3.758573  -0.000213   0.070143  -0.003038
 657   9  12.238704   0.149958   4.574651   0.000373   0.344501   0.001084
 658   7  11.134714  -0.188715   4.187072   0.001038   0.344501   0.003014
 659   9  13.255247   0.716810  -0.985600   0.000163   0.328900   0.000496
 660   9  13.159779   2.058159  -1.422498   0.000410   0.328900   0.001248
 661   7  12.038325   1.242627  -1.393301   0.001146   0.659879   0.001737
 662   7   7.624130  -0.735908  -0.473072  -0.000174   0.025583  -0.006794
 663  16   6.915586  -0.536996  -0.436133  -0.000152   0.025583  -0.005930
 664  18   7.853575  -0.916735  -0.415609  -0.000236   0.025583  -0.009217
 665   7   7.416747  -1.131340   0.859788  -0.000160   0.025583  -0.006235
 666  16   6.732872  -0.885390   0.738179  -0.000179   0.025583  -0.006980
 667  18   7.667290  -1.271936   0.781647  -0.000169   0.025583  -0.006592
 668   7   7.477468  -0.724147  -0.567057   0.000003   0.007055   0.000496
 669  16   6.203882  -0.870035   0.715069  -0.000066   0.005874  -0.011281
 670   7   7.247836  -1.159502   0.907500   0.000004   0.008295   0.000425
 671   7  11.245761  -1.154600   2.839633  -0.000206   0.083174  -0.002471
 672  18  11.223963  -1.326502   2.593277  -0.000396   0.083174  -0.004762
 673  21  12.202340  -1.144563   2.848238  -0.000334   0.083174  -0.004019
 674  18  10.521474  -1.588143   2.590972  -0.000302   0.071196  -0.004239
 675  18   9.390971  -1.741590   2.375630  -0.000794   0.160177  -0.004955
 676  18   8.349486  -1.686050   1.441508  -0.001033   0.160177  -0.006446
 677   7  10.012735  -1.413009   2.870311  -0.000422   0.154016  -0.002740
 678   7   8.569498  -1.517941   2.255510  -0.000534   0.154016  -0.003470
 679   7   7.809644  -1.385996   1.232382  -0.000434   0.086981  -0.004990
 680  18   8.403150  -1.099343  -0.713296  -0.000506   0.076038  -0.006656
 681  18   9.402469  -0.744045  -1.343697  -0.000954   0.173938  -0.005482
 682  18  10.861369  -0.491217  -1.270588  -0.000849   0.173938  -0.004881
 683   7   8.545840  -0.625068  -1.097234  -0.000904   0.161978  -0.005579
 684   7  10.075084  -0.204977  -1.600034  -0.000558   0.161978  -0.003447
 685   7  11.380006  -0.057269  -1.241565  -0.000201   0.092898  -0.002167
 686  21  12.709717  -0.983044   3.492250  -0.000600   0.214780  -0.002794
 687   7  11.295705  -0.988165   3.353942   0.000385   0.303738   0.001267
 688   8  13.165189   3.524094  -1.357106   0.000063   0.026302   0.002409
 689   9  13.631820   3.369729  -1.377221  -0.000008   0.026302  -0.000302
 690  19  13.911501   3.482359  -1.408127  -0.000057   0.026302  -0.002156
 691   8  12.724846   3.225313   5.836609   0.000036   0.026145   0.001366
 692   9  13.186335   3.067471   5.900562  -0.000024   0.026145  -0.000918
 693  20  13.459218   3.174703   5.974292  -0.000091   0.026145  -0.003465
 694   9  13.358030   2.924516  -1.427344   0.000138   0.115748   0.001194
 695   8  12.735891   3.284113  -1.454560   0.000302   0.115748   0.002612
 696   9  12.876476   2.511854   5.821026   0.000163   0.224566   0.000725
 697   9  12.418733   1.084425   5.252019   0.000185   0.224566   0.000822
 698   8  11.988196   2.040842   5.458138   0.000569   0.458858   0.001240
 699  19  14.110330   3.860582  -1.415318  -0.000447   0.178219  -0.002508
 700  19  14.284306   4.786611  -1.055507  -0.000554   0.178219  -0.003106
 701   8  13.114433   4.496746  -1.157442   0.000918   0.490421   0.001872
 702  20  13.614898   3.311205   6.074028  -0.000069   0.030198  -0.002301
 703   8  12.509342   3.366697   5.935932   0.000135   0.042605   0.003162
 704   9  15.728799   5.823212   3.697597  -0.000101   0.084013  -0.001202
 705  17  15.103901   6.555161   3.835065  -0.000415   0.084013  -0.004936
 706  20  15.767504   5.710746   3.978550  -0.000299   0.084013  -0.003556
 707  17  14.961204   7.228481   3.447332  -0.001585   0.274156  -0.005781
 708  17  14.679326   7.408245   2.301943  -0.001183   0.274156  -0.004316
 709   9  15.592060   6.187687   2.507244  -0.000058   0.761588  -0.000076
 710   9  13.373409  -0.274933  -0.148562  -0.000231   0.088013  -0.002622
 711  18  12.428494  -0.578407  -0.194249  -0.000406   0.088013  -0.004616
 712  21  13.427208  -0.511153   0.036555  -0.000352   0.088013  -0.004000
 713  18  11.916513  -0.546342  -0.693514  -0.000388   0.138096  -0.002811
 714   9  13.305293  -0.099009  -0.523967   0.000210   0.196019   0.001071
 715  19  15.990071   5.710476   0.799621  -0.000221   0.071340  -0.003096
 716  19  16.897504   5.095846   1.136057  -0.000437   0.159435  -0.002740
 717  19  17.608841   3.911214   1.057477  -0.000559   0.159435  -0.003505
 718  19  17.581692   2.674750   0.436230  -0.000580   0.159435  -0.003638
 719  19  16.827998   1.930307  -0.454432  -0.000469   0.159435  -0.002940
 720  19  15.679268   2.005325  -1.222755  -0.000455   0.159435  -0.002855
 721  19  14.640765   2.866807  -1.530795  -0.000605   0.159435  -0.003796
 722   9  16.226318   5.583805   1.344310  -0.000326   0.155413  -0.002096
 723   9  17.326477   4.514541   1.594349  -0.000168   0.155413  -0.001079
 724   9  17.733729   3.073423   1.177788  -0.000353   0.155413  -0.002272
 725   9  17.268944   1.894321   0.277849  -0.000379   0.155413  -0.002438
 726   9  16.136558   1.495857  -0.709634  -0.000196   0.155413  -0.001263
 727   9  14.834643   2.053293  -1.350322  -0.000338   0.155413  -0.002174
 728   9  14.006422   3.002511  -1.468296  -0.000113   0.087157  -0.001295
 729  20  13.899516   2.901371   6.145085  -0.000199   0.071206  -0.002797
 730  20  14.651624   2.038800   6.066982  -0.000485   0.159243  -0.003047
 731  20  15.874481   1.584663   5.602612  -0.000482   0.159243  -0.003026
 732  20  16.981172   2.007312   4.885770  -0.000562   0.159243  -0.003526
 733  20  17.483372   3.120252   4.232762  -0.000584   0.159243  -0.003670
 734  20  17.159485   4.432400   3.931727  -0.000439   0.159243  -0.002759
 735  20  16.403837   5.291593   4.012843  -0.000261   0.071206  -0.003669
 736   9  13.847545   2.318657   5.985216  -0.000424   0.155007  -0.002735
 737   9  15.051505   1.375235   5.704591  -0.000196   0.155007  -0.001266
 738   9  16.438385   1.356489   5.001364  -0.000277   0.155007  -0.001784
 739   9  17.396227   2.270691   4.185833  -0.000384   0.155007  -0.002480
 740   9  17.502384   3.714451   3.617850  -0.000329   0.155007  -0.002125
 741   9  16.710015   5.050712   3.548037  -0.000342   0.155007  -0.002203
 742  21  14.172511  -0.551978   0.007101  -0.000252   0.070242  -0.003588
 743  21  15.275048  -0.508228   0.272794  -0.000446   0.156765  -0.002842
 744  21  16.242394  -0.501700   1.243893  -0.000608   0.156765  -0.003875
 745  21  16.399051  -0.552597   2.604666  -0.000639   0.156765  -0.004078
 746  21  15.677284  -0.638912   3.766749  -0.000520   0.156765  -0.003316
 747  21  14.389167  -0.723325   4.227687  -0.000472   0.156765  -0.003008
 748  21  13.279675  -0.768764   3.993043  -0.000265   0.070242  -0.003769
 749   9  14.621622  -0.188302  -0.163361  -0.000251   0.153190  -0.001636
 750   9  16.005451  -0.148069   0.510169  -0.000227   0.153190  -0.001483
 751   9  16.673841  -0.174454   1.896819  -0.000414   0.153190  -0.002704
 752   9  16.337797  -0.256047   3.397039  -0.000375   0.153190  -0.002445
 753   9  15.142617  -0.357570   4.362171  -0.000222   0.153190  -0.001448
 754   9  13.605066  -0.435128   4.374916  -0.000373   0.153190  -0.002432
 755  16   4.095228   0.023384   2.175052  -0.000228   0.239415  -0.000954
 756  10   2.858125   0.433055   2.902424   0.000267   0.239415   0.001114
 757  16   3.590728   0.095272  -0.024173  -0.001276   0.210362  -0.006065
 758  16   3.962140   0.543986  -0.988688  -0.002905   0.420998  -0.006899
 759  16   4.421813   1.326037  -1.657027  -0.000729   0.210362  -0.003465
 760  12   2.581833   0.733721  -0.617834  -0.001660   0.420998  -0.003943
 761  12   3.100162   1.501322  -1.636208  -0.002128   0.420998  -0.005055
 762  15   5.961374  10.365231   3.704351  -0.000782   0.274231  -0.002851
 763  15   6.182793   9.769117   4.757678  -0.001895   0.548512  -0.003455
 764  14   4.573807   9.748664   4.198245  -0.001105   0.548512  -0.002014
 765  14   4.818544   9.059779   5.187899  -0.000387   0.274231  -0.001411
 766  17  11.602814   9.683955   4.000725  -0.000848   0.333508  -0.002542
 767  15  10.203437  10.123937   4.124905  -0.000856   0.333508  -0.002566
 768  18   7.778766  -1.344168   0.244630  -0.001466   0.423892  -0.003458
 769  16   6.458868  -0.779237  -0.058890  -0.001467   0.423892  -0.003460
 770  20  15.821577   5.767293   4.432377  -0.000119   0.257220  -0.000462
 771  20  15.198715   5.480518   5.351598  -0.001292   0.514314  -0.002512
 772  17  14.746237   6.951693   4.619920  -0.001910   0.514314  -0.003714
 773  17  14.063076   6.615763   5.477594  -0.000385   0.257220  -0.001495
 774  21  12.717278  -1.513389   2.759950  -0.000559   0.236789  -0.002360
 775  21  13.056784  -1.692842   1.719397  -0.001774   0.473544  -0.003747
 776  21  13.372168  -1.200278   0.497676  -0.001356   0.473544  -0.002864
 777  18  11.454238  -1.774545   1.941924  -0.001714   0.473544  -0.003619
 778  18  11.843739  -1.716291   0.645936  -0.002088   0.473544  -0.004410
 779  18  12.049308  -1.110900  -0.260409  -0.000658   0.236789  -0.002781
 =====================================================

              5147421  WORDS OF DYNAMIC MEMORY USED
 EXECUTION OF GAMESS TERMINATED NORMALLY Fri Nov 25 09:03:04 2016
 DDI: 263640 bytes (0.3 MB / 0 MWords) used by master data server.

 ----------------------------------------
 CPU timing information for all processes
 ========================================
 0: 2853.516 + 0.988 = 2854.504
 ----------------------------------------
 ddikick.x: exited gracefully.
