----- GAMESS execution script -----

          ******************************************************
          *         GAMESS VERSION =  5 DEC 2014 (R1)          *
          *             FROM IOWA STATE UNIVERSITY             *
          * M.W.SCHMIDT, K.K.BALDRIDGE, J.A.BOATZ, S.T.ELBERT, *
          *   M.S.GORDON, J.H.JENSEN, S.KOSEKI, N.MATSUNAGA,   *
          *          K.A.NGUYEN, S.J.SU, T.L.WINDUS,           *
          *       TOGETHER WITH M.DUPUIS, J.A.MONTGOMERY       *
          *         J.COMPUT.CHEM.  14, 1347-1363(1993)        *
          **************** 64 BIT LINUX VERSION ****************

 EXECUTION OF GAMESS BEGUN Fri Nov 25 08:53:50 2016

            ECHO OF THE FIRST FEW INPUT CARDS -
 INPUT CARD>! SELECT RESTRICTED HARTREE-FOCK AS DEFAULT                                     
 INPUT CARD>$contrl scftyp=rhf $end                                                         
 INPUT CARD>                                                                                
 INPUT CARD>! THEORY: HF OR DFT                                                             
 INPUT CARD> $contrl mplevl=0 $end                                                          
 INPUT CARD>                                                                                
 INPUT CARD> $system timlim=10000 mwords=20 $end                                            
 INPUT CARD> $SCF DIRSCF=.TRUE. $end                                                        
 INPUT CARD>                                                                                
 INPUT CARD>                                                                                
 INPUT CARD>! BASIS SETS                                                                    
 INPUT CARD>! 6-311G(d,p)                                                                   
 INPUT CARD> $BASIS GBASIS=N311 NGAUSS=6 NDFUNC=1 NPFUNC=1 $END                             
 INPUT CARD>                                                                                
 INPUT CARD>! One of the following                                                          
 INPUT CARD> $guess guess=HUCKEL $end                                                       
 INPUT CARD>                                                                                
 INPUT CARD> $statpt projct=.FALSE. $end                                                    
 INPUT CARD> $STATPT IFREEZ(1)=1,2,3 $END                                                   
 INPUT CARD>                                                                                
 INPUT CARD>! Optimize the geometry with COSMO effects                                      
 INPUT CARD> $statpt opttol=0.0005 nstep=50 $end                                            
 INPUT CARD> $contrl nzvar=1 $end                                                           
 INPUT CARD> $zmat dlc=.t. auto=.t. $end                                                    
 INPUT CARD> $contrl runtyp=OPTIMIZE maxit=200 $end                                         
 INPUT CARD>                                                                                
 INPUT CARD>! Run COSMO on perfect conductor                                                
 INPUT CARD> $COSGMS PRFCND=.TRUE. $end                                                     
 INPUT CARD>                                                                                
 INPUT CARD>! Specifying RSOLV                                                              
 INPUT CARD> $COSGMS COSRAD = 1.4 $end                                                      
 INPUT CARD>                                                                                
 INPUT CARD>! available memory                                                              
 INPUT CARD> $SYSTEM MWORDS=40 $END                                                         
 INPUT CARD>                                                                                
 INPUT CARD> $DATA                                                                          
 INPUT CARD>http://cactus.nci.nih.gov/chemical/structure/PARACETAMOL/file?format=sdf&get3d=T
 INPUT CARD>C1                                                                              
 INPUT CARD>C      6.0     -0.0072800000    0.4995500000    0.2306400000                    
 INPUT CARD>C      6.0      0.2865100000   -0.8559600000    0.2955300000                    
 INPUT CARD>C      6.0     -0.7334500000   -1.7859500000    0.2553200000                    
 INPUT CARD>C      6.0     -2.0514500000   -1.3661800000    0.1494600000                    
 INPUT CARD>O      8.0     -3.0552300000   -2.2824200000    0.1098500000                    
 INPUT CARD>C      6.0     -2.3456800000   -0.0120900000    0.0845500000                    
 INPUT CARD>C      6.0     -1.3270400000    0.9191400000    0.1304700000                    
 INPUT CARD>H      1.0      1.3126500000   -1.1828100000    0.3772600000                    
 INPUT CARD>H      1.0     -0.5050700000   -2.8402800000    0.3058400000                    
 INPUT CARD>H      1.0     -3.4070300000   -2.5182500000    0.9792100000                    
 INPUT CARD>H      1.0     -3.3719400000    0.3140100000    0.0017800000                    
 INPUT CARD>H      1.0     -1.5562700000    1.9733200000    0.0799600000                    
   40000000 WORDS OF MEMORY AVAILABLE

     BASIS OPTIONS
     -------------
     GBASIS=N311         IGAUSS=       6      POLAR=POPN311 
     NDFUNC=       1     NFFUNC=       0     DIFFSP=       F
     NPFUNC=       1      DIFFS=       F     BASNAM=        


     RUN TITLE
     ---------
 http://cactus.nci.nih.gov/chemical/structure/PARACETAMOL/file?format=sdf&get3d=T

 THE POINT GROUP OF THE MOLECULE IS C1      
 THE ORDER OF THE PRINCIPAL AXIS IS     0

 ATOM      ATOMIC                      COORDINATES (BOHR)
           CHARGE         X                   Y                   Z
 C           6.0    -0.0137572052        0.9440126172        0.4358464018
 C           6.0     0.5414253927       -1.6175298565        0.5584707212
 C           6.0    -1.3860195257       -3.3749561278        0.4824848392
 C           6.0    -3.8766783775       -2.5817058499        0.2824384461
 O           8.0    -5.7735475295       -4.3131483889        0.2075863998
 C           6.0    -4.4326924549       -0.0228467872        0.1597763323
 C           6.0    -2.5077419747        1.7369227444        0.2465525496
 H           1.0     2.4805488178       -2.2351867955        0.7129180261
 H           1.0    -0.9544439046       -5.3673509284        0.5779537961
 H           1.0    -6.4383531319       -4.7588024686        1.8504385844
 H           1.0    -6.3720426470        0.5933928574        0.0033637123
 H           1.0    -2.9409238629        3.7290340861        0.1511024900
 N           7.0     2.0797568330        2.8537130086        0.5078449619
 C           6.0     4.7738446874        1.9963443279        0.7123511083
 H           1.0     1.6793994853        4.6984446205        0.4194813748
 O           8.0     6.4846325214        4.2561920476        0.7475756007
 C           6.0     5.6254119093       -0.7033371154        0.8589560505
 H           1.0     5.0114588331       -1.7173640804       -0.8486381466
 H           1.0     4.7908333241       -1.6031112472        2.5367303714
 H           1.0     7.6985169069       -0.7695909085        0.9963013352

          INTERNUCLEAR DISTANCES (ANGS.)




     $CONTRL OPTIONS
     ---------------
 SCFTYP=RHF          RUNTYP=OPTIMIZE     EXETYP=RUN     
 MPLEVL=       0     CITYP =NONE         CCTYP =NONE         VBTYP =NONE    
 DFTTYP=NONE         TDDFT =NONE    
 MULT  =       1     ICHARG=       0     NZVAR =       1     COORD =UNIQUE  
 PP    =NONE         RELWFN=NONE         LOCAL =NONE         NUMGRD=       F
 ISPHER=      -1     NOSYM =       0     MAXIT =     200     UNITS =ANGS    
 PLTORB=       F     MOLPLT=       F     AIMPAC=       F     FRIEND=        
 NPRINT=       7     IREST =       0     GEOM  =INPUT   
 NORMF =       0     NORMP =       0     ITOL  =      20     ICUT  =       9
 INTTYP=BEST         GRDTYP=BEST         QMTTOL= 1.0E-06

     $SYSTEM OPTIONS
     ---------------
  REPLICATED MEMORY=    40000000 WORDS (ON EVERY NODE).
 DISTRIBUTED MEMDDI=           0 MILLION WORDS IN AGGREGATE,
 MEMDDI DISTRIBUTED OVER   1 PROCESSORS IS           0 WORDS/PROCESSOR.
 TOTAL MEMORY REQUESTED ON EACH PROCESSOR=    40000000 WORDS.
 TIMLIM=       10000.00 MINUTES, OR       6.9 DAYS.
 PARALL= F  BALTYP=  DLB     KDIAG=    0  COREFL= F
 MXSEQ2=     300 MXSEQ3=     150  mem10=         0

     $COSGMS OPTIONS
     ---------------
     EPSI  =   INFTY     NSPA  =      92     COSRAD=    1.40
     DISEX =   10.00     OUTCHG=DBLCAV       COSBUG=       F
     COSWRT=       F     DCOSMO=       F

     SYMMETRY COORDINATES WILL NOT BE USED FOR 
     THE COSMO CALCULATION, EVEN IF SPECIFIED:
         -- SWITCHING TO C1 POINT GROUP --


     DEFINITION OF CAVITY
     ---------------------------
     ATOM         COORDINATES           RADIUS 
     1   -0.0138    0.9440    0.4358    2.0000
     2    0.5414   -1.6175    0.5585    2.0000
     3   -1.3860   -3.3750    0.4825    2.0000
     4   -3.8767   -2.5817    0.2824    2.0000
     5   -5.7735   -4.3131    0.2076    1.7200
     6   -4.4327   -0.0228    0.1598    2.0000
     7   -2.5077    1.7369    0.2466    2.0000
     8    2.4805   -2.2352    0.7129    1.3000
     9   -0.9544   -5.3674    0.5780    1.3000
    10   -6.4384   -4.7588    1.8504    1.3000
    11   -6.3720    0.5934    0.0034    1.3000
    12   -2.9409    3.7290    0.1511    1.3000
    13    2.0798    2.8537    0.5078    1.8300
    14    4.7738    1.9963    0.7124    2.0000
    15    1.6794    4.6984    0.4195    1.3000
    16    6.4846    4.2562    0.7476    1.7200
    17    5.6254   -0.7033    0.8590    2.0000
    18    5.0115   -1.7174   -0.8486    1.3000
    19    4.7908   -1.6031    2.5367    1.3000
    20    7.6985   -0.7696    0.9963    1.3000

          ----------------
          PROPERTIES INPUT
          ----------------

     MOMENTS            FIELD           POTENTIAL          DENSITY
 IEMOM =       1   IEFLD =       0   IEPOT =       0   IEDEN =       0
 WHERE =COMASS     WHERE =NUCLEI     WHERE =NUCLEI     WHERE =NUCLEI  
 OUTPUT=BOTH       OUTPUT=BOTH       OUTPUT=BOTH       OUTPUT=BOTH    
 IEMINT=       0   IEFINT=       0                     IEDINT=       0
                                                       MORB  =       0
          EXTRAPOLATION IN EFFECT
          SOSCF IN EFFECT
 ORBITAL PRINTING OPTION: NPREO=     1   263     2     1

     -------------------------------
     INTEGRAL TRANSFORMATION OPTIONS
     -------------------------------
     NWORD  =            0
     CUTOFF = 1.0E-09     MPTRAN =       0
     DIRTRF =       T     AOINTS =DUP     

          ----------------------
          INTEGRAL INPUT OPTIONS
          ----------------------
 NOPK  =       1 NORDER=       0 SCHWRZ=       T


 -----------------------------------------------
  STATISTICS ON AUTOMATIC COORDINATE GENERATION 
 -----------------------------------------------
  NUMBER OF USER SPECIFIED BONDS                             0
  NUMBER OF BONDS                                           20
  NUMBER OF ANGLES                                          31
  NUMBER OF TORSIONS                                        40
  NUMBER OF EXTRA COORD.                                     0
  NUMBER OF EXTRA COORD. FOR CONSTRAINTS                     0
  NUMBER OF CONSTRAINED COORD.                               0

  TOTAL NUMBER OF PRIMITIVES                                91
 -----------------------------------------------

   --- ENCODED Z MATRIX ---
 COORD  TYPE   I   J   K   L   M   N
    1      1    1   7
    2      1    1   2
    3      1    1  13
    4      1    2   8
    5      1    2   3
    6      1    3   4
    7      1    3   9
    8      1    4   6
    9      1    4   5
   10      1    5  10
   11      1    6   7
   12      1    6  11
   13      1    7  12
   14      1   13  15
   15      1   13  14
   16      1   14  17
   17      1   14  16
   18      1   17  20
   19      1   17  19
   20      1   17  18
   21      2    1  13  15
   22      2    1   2   8
   23      2    1   7  12
   24      2    1   7   6
   25      2    1   2   3
   26      2    1  13  14
   27      2    2   3   9
   28      2    2   1  13
   29      2    2   1   7
   30      2    2   3   4
   31      2    3   4   6
   32      2    3   4   5
   33      2    3   2   8
   34      2    4   3   9
   35      2    4   6  11
   36      2    4   6   7
   37      2    4   5  10
   38      2    5   4   6
   39      2    6   7  12
   40      2    7   1  13
   41      2    7   6  11
   42      2   13  14  16
   43      2   13  14  17
   44      2   14  17  18
   45      2   14  17  19
   46      2   14  17  20
   47      2   14  13  15
   48      2   16  14  17
   49      2   18  17  19
   50      2   18  17  20
   51      2   19  17  20
   52      3    1  13  14  16
   53      3    1   2   3   9
   54      3    1   2   3   4
   55      3    1  13  14  17
   56      3    1   7   6  11
   57      3    1   7   6   4
   58      3    2   3   4   6
   59      3    2   1   7   6
   60      3    2   1   7  12
   61      3    2   1  13  15
   62      3    2   3   4   5
   63      3    2   1  13  14
   64      3    3   2   1  13
   65      3    3   2   1   7
   66      3    3   4   5  10
   67      3    3   4   6  11
   68      3    3   4   6   7
   69      3    4   3   2   8
   70      3    4   6   7  12
   71      3    5   4   6   7
   72      3    5   4   6  11
   73      3    5   4   3   9
   74      3    6   4   5  10
   75      3    6   7   1  13
   76      3    6   4   3   9
   77      3    7   1  13  14
   78      3    7   1   2   8
   79      3    7   1  13  15
   80      3    8   2   3   9
   81      3    8   2   1  13
   82      3   11   6   7  12
   83      3   12   7   1  13
   84      3   13  14  17  18
   85      3   13  14  17  19
   86      3   13  14  17  20
   87      3   15  13  14  17
   88      3   15  13  14  16
   89      3   16  14  17  20
   90      3   16  14  17  19
   91      3   16  14  17  18

          INDEP./SYM. INTERNAL COORDINATES
          --------------------------------
 CRD  1=   0.1117 (  3)  0.1109 (  5) -0.2865 ( 21)  0.5573 ( 26)  0.3910 ( 28)
          -0.3395 ( 40) -0.1994 ( 42)  0.3473 ( 43) -0.2708 ( 47) -0.1479 ( 48)
 CRD  2=   0.1577 (  1) -0.1269 (  2)  0.1052 ( 11)  0.1953 ( 15)  0.1333 ( 16)
          -0.2500 ( 28) -0.1156 ( 32)  0.1204 ( 38)  0.2707 ( 40) -0.1120 ( 42)
           0.2826 ( 43)  0.1767 ( 44) -0.1706 ( 48) -0.1222 ( 52) -0.2050 ( 55)
          -0.2573 ( 61) -0.3137 ( 63) -0.2887 ( 77) -0.2323 ( 79) -0.2614 ( 87)
          -0.1786 ( 88) -0.1028 ( 90)
 CRD  3=   0.1748 (  1) -0.1432 (  2)  0.1092 ( 11)  0.2188 ( 15)  0.1513 ( 16)
          -0.2937 ( 28)  0.3175 ( 40) -0.1175 ( 42)  0.3059 ( 43)  0.1774 ( 45)
          -0.1885 ( 48)  0.1144 ( 52)  0.1905 ( 55)  0.2366 ( 61)  0.2880 ( 63)
           0.2649 ( 77)  0.2135 ( 79)  0.2419 ( 87)  0.1658 ( 88)
 CRD  4=  -0.1028 (  9) -0.2307 ( 37)  0.3593 ( 52)  0.2766 ( 55) -0.1331 ( 56)
           0.1288 ( 58)  0.1552 ( 59)  0.1346 ( 61)  0.2051 ( 62) -0.1340 ( 63)
          -0.3074 ( 64) -0.1353 ( 65) -0.1088 ( 68) -0.1087 ( 69)  0.1102 ( 70)
          -0.1852 ( 71)  0.1011 ( 73)  0.3273 ( 75) -0.3062 ( 77) -0.2053 ( 81)
           0.1837 ( 83)  0.1339 ( 84)  0.1268 ( 85)  0.1112 ( 86)
 CRD  5=   0.2020 (  1)  0.1580 (  2)  0.4917 (  3)  0.1676 (  5)  0.1642 (  9)
           0.2263 ( 11)  0.1492 ( 15) -0.1736 ( 16)  0.1158 ( 25) -0.2623 ( 29)
          -0.1136 ( 31) -0.1042 ( 33) -0.1027 ( 34)  0.1353 ( 37)  0.1290 ( 38)
           0.1670 ( 40)  0.3167 ( 42) -0.2471 ( 43) -0.1284 ( 44) -0.1074 ( 45)
          -0.1313 ( 47)  0.1003 ( 52)
 CRD  6=   0.1449 (  5)  0.2431 (  6) -0.2488 (  8) -0.1020 ( 22)  0.1013 ( 23)
          -0.1124 ( 28)  0.5453 ( 32)  0.1446 ( 34) -0.1722 ( 35)  0.1147 ( 36)
          -0.5304 ( 38) -0.1104 ( 39)  0.1506 ( 40)  0.1820 ( 66)  0.1831 ( 74)
 CRD  7=   0.1875 (  1)  0.1425 (  2)  0.1257 (  3) -0.1030 (  5) -0.2374 (  6)
          -0.2389 (  8) -0.3950 (  9)  0.1253 ( 22)  0.1397 ( 23)  0.1235 ( 27)
           0.2236 ( 31) -0.1143 ( 32) -0.4897 ( 37) -0.1093 ( 38) -0.1004 ( 39)
           0.1395 ( 41)  0.1264 ( 42) -0.1743 ( 52) -0.1229 ( 55)  0.1006 ( 62)
          -0.1153 ( 71)  0.1359 ( 77)
 CRD  8=  -0.3806 ( 16) -0.1133 ( 17) -0.1105 ( 26)  0.3906 ( 42)  0.1302 ( 43)
          -0.5097 ( 46)  0.1064 ( 47) -0.5208 ( 48)  0.1609 ( 50)  0.1616 ( 51)
 CRD  9=  -0.2781 (  2) -0.1070 (  3)  0.1949 (  6)  0.1124 (  8)  0.1005 ( 12)
           0.3414 ( 15) -0.3351 ( 21) -0.1062 ( 22) -0.1143 ( 23)  0.1214 ( 26)
          -0.1363 ( 27)  0.1436 ( 33)  0.1052 ( 34)  0.1641 ( 35) -0.1320 ( 36)
           0.2874 ( 42) -0.1630 ( 43) -0.2069 ( 44)  0.2772 ( 46)  0.2137 ( 47)
          -0.1244 ( 48) -0.1211 ( 52) -0.1101 ( 84)
 CRD 10=  -0.1072 (  8) -0.1341 (  9) -0.1630 ( 10) -0.1303 ( 11)  0.2296 ( 15)
          -0.1996 ( 21)  0.1028 ( 22) -0.1010 ( 25)  0.1131 ( 31)  0.1727 ( 42)
           0.1792 ( 44) -0.2537 ( 45)  0.1412 ( 46)  0.1818 ( 47) -0.1017 ( 48)
          -0.1201 ( 50)  0.2600 ( 52)  0.1540 ( 55) -0.1249 ( 58) -0.1199 ( 59)
          -0.1696 ( 62)  0.1012 ( 64)  0.1325 ( 65)  0.1377 ( 68)  0.1824 ( 71)
           0.1286 ( 72) -0.1190 ( 73) -0.1119 ( 77)  0.1753 ( 84)  0.1943 ( 85)
           0.2244 ( 86)  0.1510 ( 88)  0.1020 ( 89)
 CRD 11=  -0.1176 (  1)  0.2223 (  2)  0.2218 (  5) -0.1132 ( 12)  0.3059 ( 14)
           0.2933 ( 15)  0.4086 ( 16) -0.2659 ( 26)  0.2000 ( 27)  0.1773 ( 28)
          -0.1462 ( 34)  0.1318 ( 36) -0.1133 ( 40) -0.1324 ( 41)  0.1028 ( 44)
           0.2656 ( 45)  0.2793 ( 47) -0.1395 ( 48) -0.1554 ( 49) -0.1419 ( 51)
 CRD 12=   0.2165 (  1)  0.1801 (  2) -0.1436 (  5)  0.1138 (  6) -0.1433 ( 11)
           0.1080 ( 19) -0.1114 ( 20)  0.2131 ( 22)  0.2096 ( 23) -0.1231 ( 27)
          -0.1464 ( 33)  0.1159 ( 34)  0.1236 ( 35)  0.1201 ( 37) -0.1725 ( 39)
          -0.4720 ( 44)  0.4502 ( 45)  0.1588 ( 50) -0.1485 ( 51) -0.1146 ( 63)
           0.1010 ( 71) -0.1208 ( 77) -0.1062 ( 79)
 CRD 13=   0.1703 (  1)  0.2475 (  2)  0.2547 (  6)  0.1569 (  7)  0.3136 (  8)
          -0.1539 ( 11)  0.1396 ( 22)  0.2135 ( 23) -0.1550 ( 27) -0.1744 ( 33)
           0.2367 ( 34)  0.2588 ( 35) -0.1875 ( 39) -0.2799 ( 41)  0.3163 ( 44)
          -0.2841 ( 45) -0.1068 ( 50)
 CRD 14=   0.1120 (  2) -0.3303 (  5)  0.3360 ( 11)  0.1318 ( 13)  0.1048 ( 14)
           0.1230 ( 16)  0.2540 ( 22) -0.1930 ( 23) -0.1149 ( 24)  0.1049 ( 25)
          -0.2799 ( 27)  0.1271 ( 28) -0.3589 ( 33)  0.2466 ( 34) -0.2442 ( 35)
           0.3079 ( 39) -0.1197 ( 40)  0.2578 ( 41)
 CRD 15=  -0.2252 (  1) -0.3149 (  4) -0.1735 (  6)  0.2094 (  7)  0.1389 (  8)
          -0.2324 ( 12)  0.1543 ( 13) -0.2249 ( 22)  0.1318 ( 23) -0.2607 ( 24)
           0.3314 ( 25)  0.1315 ( 26)  0.1287 ( 27) -0.3161 ( 30) -0.1064 ( 33)
           0.1874 ( 34)  0.2673 ( 36)  0.1289 ( 39) -0.1940 ( 41) -0.1637 ( 44)
           0.1338 ( 46)
 CRD 16=  -0.1927 (  1) -0.2187 (  2) -0.1859 (  4) -0.2910 (  5) -0.1976 (  6)
          -0.2681 (  7) -0.2450 (  8) -0.2853 ( 11) -0.2004 ( 12) -0.2599 ( 13)
           0.1342 ( 22)  0.1539 ( 24) -0.2301 ( 27)  0.1166 ( 28) -0.2261 ( 29)
           0.1625 ( 30) -0.2255 ( 31)  0.1136 ( 32) -0.1964 ( 33)  0.1064 ( 35)
           0.1119 ( 38) -0.2270 ( 39)  0.1095 ( 40) -0.1795 ( 41)
 CRD 17=  -0.1532 (  1)  0.2660 (  3) -0.1340 (  4)  0.1757 (  6)  0.1608 (  7)
           0.1295 (  8) -0.2058 (  9) -0.1417 ( 10)  0.2175 ( 12) -0.2407 ( 13)
           0.1327 ( 14)  0.1677 ( 21) -0.1345 ( 22) -0.2487 ( 23)  0.2205 ( 24)
           0.1186 ( 25) -0.1003 ( 30)  0.1772 ( 34)  0.2112 ( 35) -0.1779 ( 36)
          -0.3216 ( 37)  0.1511 ( 45) -0.1058 ( 47)  0.1091 ( 64)  0.1036 ( 65)
 CRD 18=   0.2652 ( 14) -0.1527 ( 16) -0.4512 ( 17)  0.1762 ( 18)  0.1986 ( 21)
          -0.2271 ( 26) -0.1344 ( 42)  0.3376 ( 43) -0.2694 ( 44) -0.2665 ( 45)
           0.3449 ( 46) -0.2032 ( 48)  0.2642 ( 49)
 CRD 19=  -0.1542 (  4) -0.1138 (  5)  0.1446 (  7) -0.1879 (  9) -0.1589 ( 10)
          -0.1173 ( 11)  0.1490 ( 12) -0.1731 ( 13)  0.1067 ( 27) -0.1494 ( 30)
           0.2057 ( 31) -0.1059 ( 32) -0.1551 ( 36)  0.4056 ( 37)  0.1004 ( 41)
           0.1268 ( 54)  0.1028 ( 59)  0.1162 ( 60) -0.1864 ( 62) -0.2136 ( 64)
          -0.1547 ( 65)  0.1091 ( 69)  0.1353 ( 71)  0.1248 ( 72) -0.1571 ( 73)
           0.1617 ( 75) -0.1370 ( 78) -0.1959 ( 81)  0.1751 ( 83) -0.1362 ( 84)
          -0.1365 ( 85) -0.1300 ( 86) -0.1194 ( 89) -0.1259 ( 90) -0.1257 ( 91)
 CRD 20=  -0.2567 ( 53) -0.3273 ( 54) -0.2668 ( 56) -0.3390 ( 57)  0.1710 ( 58)
           0.1825 ( 59)  0.1315 ( 60)  0.1579 ( 62)  0.1462 ( 64)  0.1513 ( 65)
           0.1632 ( 68) -0.2788 ( 69) -0.2879 ( 70)  0.1762 ( 71)  0.1039 ( 72)
           0.1876 ( 75)  0.1004 ( 76)  0.1028 ( 78) -0.2082 ( 80) -0.2157 ( 82)
           0.1366 ( 83)
 CRD 21=  -0.1218 ( 16) -0.4682 ( 18) -0.4887 ( 19) -0.4889 ( 20)  0.1768 ( 44)
           0.1779 ( 45)  0.2415 ( 46) -0.1659 ( 49) -0.2148 ( 50) -0.2155 ( 51)
 CRD 22=  -0.1573 (  4) -0.1131 (  5)  0.1350 (  7)  0.3334 ( 10) -0.1145 ( 11)
           0.1316 ( 12) -0.1629 ( 13)  0.1270 ( 27) -0.1152 ( 30)  0.1699 ( 31)
          -0.1143 ( 36)  0.3365 ( 37)  0.1288 ( 41) -0.1313 ( 53)  0.1138 ( 56)
           0.1643 ( 58)  0.1248 ( 62)  0.1135 ( 64) -0.2035 ( 67) -0.1508 ( 68)
          -0.1114 ( 71) -0.1640 ( 72)  0.1679 ( 73) -0.1006 ( 75)  0.2074 ( 76)
           0.1013 ( 77)  0.1771 ( 84)  0.1769 ( 85)  0.1947 ( 86)  0.1993 ( 89)
           0.1815 ( 90)  0.1817 ( 91)
 CRD 23=   0.5748 ( 18) -0.3110 ( 19) -0.3163 ( 20) -0.4082 ( 49)  0.2042 ( 50)
           0.2084 ( 51) -0.2262 ( 84)  0.2258 ( 85)  0.2258 ( 90) -0.2262 ( 91)
 CRD 24=   0.5157 ( 19) -0.5124 ( 20) -0.3561 ( 50)  0.3538 ( 51)  0.1307 ( 84)
           0.1282 ( 85) -0.2669 ( 86) -0.2491 ( 89)  0.1459 ( 90)  0.1485 ( 91)
 CRD 25=   0.1009 (  3)  0.1778 (  4) -0.1291 (  7) -0.2337 ( 10) -0.1649 ( 12)
           0.1085 ( 13)  0.1170 ( 39) -0.1168 ( 47) -0.1644 ( 52) -0.1481 ( 55)
           0.1189 ( 59)  0.2070 ( 60)  0.1412 ( 61) -0.1662 ( 70)  0.1057 ( 71)
           0.1212 ( 77) -0.1289 ( 78)  0.1814 ( 79) -0.1054 ( 82)  0.1668 ( 83)
           0.1923 ( 84)  0.2012 ( 85)  0.2244 ( 86) -0.2083 ( 87) -0.2246 ( 88)
           0.2431 ( 89)  0.2200 ( 90)  0.2110 ( 91)
 CRD 26=  -0.1340 (  1)  0.2441 (  3)  0.2385 (  4) -0.1835 (  5) -0.1687 (  7)
           0.1302 ( 10) -0.2280 ( 11) -0.2411 ( 12)  0.2329 ( 17)  0.1069 ( 18)
           0.2642 ( 21) -0.1412 ( 23) -0.1084 ( 24) -0.1516 ( 25) -0.1461 ( 28)
           0.2058 ( 29)  0.1374 ( 33)  0.1181 ( 37)  0.2498 ( 39)  0.1190 ( 42)
          -0.3263 ( 47) -0.1001 ( 48)  0.1042 ( 87)  0.1121 ( 88) -0.1007 ( 89)
 CRD 27=  -0.1702 (  4) -0.2446 (  6) -0.3905 (  7)  0.2418 (  8)  0.3237 ( 12)
           0.2335 ( 13)  0.1518 ( 27)  0.1584 ( 32) -0.2153 ( 34)  0.2458 ( 35)
          -0.1533 ( 38) -0.1964 ( 41) -0.1117 ( 53)  0.3471 ( 66)  0.2958 ( 74)
           0.1281 ( 76)
 CRD 28=  -0.1713 ( 10) -0.1073 ( 27) -0.1279 ( 37)  0.1526 ( 52) -0.2224 ( 53)
           0.1379 ( 55)  0.2486 ( 56)  0.2395 ( 60) -0.1763 ( 61) -0.1058 ( 62)
          -0.1527 ( 63)  0.1060 ( 64) -0.3167 ( 67)  0.2148 ( 69) -0.1631 ( 70)
          -0.1217 ( 72)  0.1032 ( 73) -0.1891 ( 74) -0.1136 ( 75)  0.2983 ( 76)
          -0.2830 ( 78) -0.1222 ( 81)  0.1614 ( 87)  0.1761 ( 88)
 CRD 29=  -0.1701 (  1)  0.1519 (  2) -0.2155 (  3)  0.1465 (  4)  0.1220 (  5)
           0.1382 (  7) -0.2679 ( 13) -0.5279 ( 14) -0.1029 ( 15)  0.1461 ( 16)
           0.1928 ( 18)  0.2383 ( 22) -0.1235 ( 23)  0.1225 ( 27) -0.2578 ( 33)
          -0.1226 ( 34)  0.1433 ( 40)  0.1446 ( 42)  0.1329 ( 46) -0.1089 ( 47)
          -0.1970 ( 48)  0.1313 ( 66)  0.1077 ( 74)
 CRD 30=  -0.2759 (  4) -0.1229 (  7)  0.1347 ( 12)  0.2677 ( 13) -0.1578 ( 14)
          -0.3234 ( 15)  0.1695 ( 16)  0.2588 ( 18)  0.1171 ( 19)  0.1163 ( 20)
           0.2140 ( 21) -0.1600 ( 22)  0.1689 ( 23)  0.1792 ( 28)  0.1600 ( 33)
          -0.1700 ( 39) -0.1792 ( 40)  0.2372 ( 42)  0.1965 ( 46) -0.1313 ( 47)
          -0.2526 ( 48) -0.1530 ( 50) -0.1535 ( 51) -0.1451 ( 66) -0.1462 ( 74)
 CRD 31=  -0.2370 (  4) -0.1738 (  5)  0.1300 (  6)  0.1359 (  8)  0.5406 (  9)
          -0.1640 ( 11) -0.2249 ( 13)  0.1513 ( 14)  0.1959 ( 17)  0.1139 ( 23)
           0.1671 ( 27)  0.1366 ( 29) -0.1406 ( 34) -0.1815 ( 35) -0.3458 ( 37)
           0.1954 ( 41)  0.1302 ( 69) -0.1286 ( 70) -0.1015 ( 78)
 CRD 32=   0.2157 (  1) -0.1941 (  2) -0.3627 (  4)  0.2283 (  6)  0.3015 (  7)
          -0.1968 (  8) -0.3338 ( 12)  0.3142 ( 13)  0.2419 ( 22) -0.2464 ( 23)
          -0.1026 ( 25)  0.1688 ( 27) -0.1394 ( 33) -0.2601 ( 34)  0.2381 ( 35)
          -0.1003 ( 36)  0.1561 ( 39) -0.1377 ( 41)
 CRD 33=  -0.1979 (  1) -0.2704 (  3) -0.1494 (  8)  0.1116 ( 11)  0.3078 ( 12)
           0.2350 ( 13)  0.1318 ( 14)  0.5386 ( 17) -0.1429 ( 19) -0.1554 ( 20)
           0.1627 ( 21)  0.1098 ( 22)  0.1183 ( 32) -0.1112 ( 33) -0.1308 ( 44)
          -0.1287 ( 45) -0.1164 ( 47)  0.1531 ( 49) -0.2016 ( 66) -0.2059 ( 74)
 CRD 34=   0.2265 (  2)  0.1135 (  3) -0.1057 (  4) -0.3681 (  7)  0.1289 ( 12)
          -0.1991 ( 14)  0.1121 ( 15) -0.2174 ( 17) -0.1038 ( 21) -0.1257 ( 23)
           0.1553 ( 27)  0.1836 ( 32) -0.2209 ( 38)  0.1490 ( 39) -0.1348 ( 41)
          -0.4292 ( 66) -0.4315 ( 74)
 CRD 35=   0.1749 (  4) -0.1294 (  6) -0.1337 (  8) -0.1120 (  9)  0.7185 ( 10)
           0.1334 ( 12)  0.1714 ( 13) -0.1227 ( 37) -0.1299 ( 58)  0.1210 ( 60)
           0.1082 ( 67)  0.1323 ( 68)  0.1897 ( 69) -0.1804 ( 70) -0.1125 ( 76)
          -0.1325 ( 78)  0.1723 ( 80) -0.1559 ( 82)
 CRD 36=  -0.2157 (  1) -0.2421 (  2)  0.1490 (  3)  0.2964 (  4) -0.1372 (  5)
          -0.1615 (  6)  0.3098 (  7) -0.1212 (  8)  0.2892 (  9) -0.2133 ( 10)
          -0.1415 ( 11)  0.3309 ( 12)  0.2119 ( 13)  0.1246 ( 14) -0.3155 ( 17)
           0.1606 ( 19)  0.1127 ( 26) -0.1256 ( 43)  0.1024 ( 45) -0.1429 ( 49)
 CRD 37=  -0.1969 ( 10) -0.2693 ( 19)  0.2949 ( 20) -0.2047 ( 50)  0.2004 ( 51)
          -0.2250 ( 52)  0.1016 ( 53) -0.1591 ( 56) -0.2794 ( 61)  0.1013 ( 62)
          -0.2262 ( 79)  0.1197 ( 80) -0.2252 ( 86)  0.2991 ( 87)  0.1043 ( 89)
           0.3456 ( 90)  0.3381 ( 91)
 CRD 38=   0.1524 (  1) -0.1390 (  2) -0.2026 (  3)  0.1095 (  5)  0.1765 (  8)
          -0.1721 (  9)  0.1167 ( 11) -0.1029 ( 12) -0.2611 ( 13)  0.5141 ( 14)
          -0.2305 ( 15) -0.2495 ( 16)  0.1448 ( 18)  0.1143 ( 19)  0.1282 ( 20)
           0.1856 ( 26)  0.1296 ( 32) -0.1307 ( 33)  0.1121 ( 42)  0.1287 ( 44)
           0.1290 ( 45)  0.1552 ( 46) -0.1278 ( 49) -0.1476 ( 50) -0.1376 ( 51)
          -0.1082 ( 66) -0.1066 ( 74)
 CRD 39=  -0.2654 (  1) -0.1922 (  3) -0.2337 (  4)  0.1255 (  5)  0.2529 (  6)
          -0.2501 (  9)  0.1631 ( 11)  0.4271 ( 15) -0.2365 ( 17) -0.1275 ( 18)
           0.1238 ( 19)  0.1107 ( 20)  0.1985 ( 21)  0.1342 ( 22)  0.1460 ( 23)
          -0.1100 ( 25)  0.1294 ( 29)  0.1453 ( 38) -0.1497 ( 39) -0.1214 ( 43)
          -0.2712 ( 47) -0.1539 ( 49)
 CRD 40=   0.2212 (  1) -0.3655 (  2)  0.3497 (  5) -0.2374 (  6)  0.3706 (  8)
          -0.1152 (  9) -0.2711 ( 11)  0.2919 ( 16) -0.1664 ( 17) -0.1330 ( 18)
           0.1513 ( 21)  0.1745 ( 22)  0.1116 ( 32) -0.1402 ( 33) -0.1506 ( 35)
          -0.1222 ( 40)  0.1404 ( 41) -0.1120 ( 47)  0.1009 ( 50)  0.1156 ( 51)
 CRD 41=   0.1955 (  4) -0.3628 (  5)  0.1604 (  7) -0.1016 (  9)  0.4064 ( 11)
          -0.1916 ( 12) -0.2026 ( 13)  0.3408 ( 16) -0.1541 ( 17) -0.1121 ( 18)
          -0.1054 ( 22)  0.2335 ( 23) -0.1079 ( 24)  0.1406 ( 27)  0.1544 ( 32)
          -0.2229 ( 34)  0.1274 ( 35) -0.1032 ( 38) -0.1257 ( 39) -0.1448 ( 40)
           0.1002 ( 50)  0.1118 ( 51)
 CRD 42=  -0.2043 ( 10)  0.1872 ( 19) -0.1924 ( 20)  0.1889 ( 37)  0.1406 ( 50)
          -0.1309 ( 51)  0.1195 ( 52)  0.1945 ( 53) -0.1994 ( 56)  0.1524 ( 60)
          -0.1740 ( 61)  0.2447 ( 62)  0.1503 ( 64) -0.1056 ( 66)  0.1484 ( 67)
           0.1088 ( 69) -0.1024 ( 70) -0.2438 ( 71) -0.1494 ( 75) -0.1444 ( 76)
           0.1651 ( 77) -0.1598 ( 78)  0.2975 ( 80) -0.2941 ( 82)  0.2128 ( 86)
           0.1058 ( 87)  0.2514 ( 88) -0.1398 ( 90) -0.1416 ( 91)
 CRD 43=  -0.2530 (  1) -0.2001 (  2)  0.1398 (  3)  0.2460 (  4)  0.2792 (  6)
          -0.2786 (  7)  0.1981 (  8) -0.2044 ( 12)  0.2893 ( 13)  0.2073 ( 24)
           0.1916 ( 25)  0.2674 ( 27) -0.2094 ( 30) -0.2609 ( 33) -0.1673 ( 36)
          -0.2366 ( 39)  0.2604 ( 41)
 CRD 44=  -0.1030 (  1)  0.1765 (  3) -0.1116 (  4)  0.2481 (  6) -0.1649 (  8)
          -0.1510 (  9) -0.1031 ( 11)  0.2517 ( 12)  0.1905 ( 14) -0.3534 ( 15)
           0.3296 ( 16) -0.1111 ( 20) -0.2161 ( 21)  0.1307 ( 22) -0.1013 ( 24)
           0.1689 ( 26) -0.2045 ( 28)  0.1146 ( 29) -0.1277 ( 31) -0.1304 ( 35)
           0.2067 ( 36)  0.1986 ( 38)  0.1009 ( 39)  0.1245 ( 42)  0.1191 ( 49)
 CRD 45=  -0.3753 (  3) -0.1965 (  7) -0.1884 (  8)  0.2849 (  9)  0.2173 ( 14)
           0.2690 ( 16) -0.1584 ( 17) -0.1607 ( 18) -0.1191 ( 23)  0.1149 ( 24)
           0.1380 ( 25)  0.1616 ( 26) -0.1741 ( 29) -0.1978 ( 30)  0.2374 ( 31)
          -0.1607 ( 32)  0.1810 ( 34)  0.1536 ( 35) -0.1184 ( 36)  0.1328 ( 40)
           0.1663 ( 42) -0.1067 ( 43) -0.2053 ( 47)  0.1027 ( 50)
 CRD 46=   0.2639 ( 53)  0.2411 ( 56)  0.2660 ( 60) -0.1143 ( 63)  0.1780 ( 66)
          -0.2392 ( 67) -0.2374 ( 69) -0.2675 ( 70) -0.2632 ( 72) -0.2413 ( 73)
           0.2020 ( 74) -0.2653 ( 76)  0.2390 ( 78)  0.2575 ( 81)  0.2476 ( 83)
 CRD 47=   0.1483 (  1)  0.2005 (  2) -0.2481 (  3) -0.3346 (  5)  0.1437 (  6)
           0.1187 (  7)  0.1903 (  8) -0.2169 (  9) -0.3366 ( 11)  0.1231 ( 13)
          -0.1541 ( 18) -0.1993 ( 22) -0.2031 ( 23)  0.1318 ( 24) -0.2296 ( 29)
           0.1255 ( 30) -0.2196 ( 31)  0.1213 ( 32)  0.1012 ( 33) -0.1950 ( 34)
          -0.1937 ( 35)  0.1319 ( 40) -0.1044 ( 49)
 CRD 48=  -0.3292 (  1)  0.3052 (  2) -0.1991 (  4) -0.2917 (  6)  0.1711 (  7)
           0.2683 (  8) -0.1854 ( 12)  0.1841 ( 13)  0.1109 ( 14) -0.1216 ( 15)
          -0.1425 ( 21)  0.1921 ( 24) -0.2081 ( 25)  0.1361 ( 26) -0.1860 ( 27)
          -0.1820 ( 28)  0.1832 ( 30)  0.1342 ( 32)  0.1752 ( 33) -0.1983 ( 36)
          -0.1495 ( 38) -0.1869 ( 39)  0.1661 ( 40)  0.1740 ( 41)
 CRD 49=   0.1931 (  3) -0.2018 ( 15)  0.1818 ( 17) -0.3931 ( 18)  0.2008 ( 19)
           0.2033 ( 20)  0.2453 ( 43) -0.1140 ( 44) -0.1129 ( 45)  0.2402 ( 46)
           0.1382 ( 47) -0.2091 ( 48) -0.2896 ( 49)  0.1373 ( 50)  0.1391 ( 51)
          -0.2465 ( 84)  0.2471 ( 85)  0.2469 ( 90) -0.2468 ( 91)
 CRD 50=   0.2463 ( 19) -0.2454 ( 20) -0.1013 ( 37)  0.1318 ( 44) -0.1322 ( 45)
           0.1757 ( 50) -0.1753 ( 51) -0.1448 ( 52)  0.1277 ( 59) -0.2436 ( 61)
          -0.1358 ( 62)  0.1184 ( 63) -0.1455 ( 64) -0.1117 ( 65)  0.1123 ( 66)
          -0.1033 ( 67) -0.1436 ( 69)  0.1517 ( 71) -0.1534 ( 73)  0.1615 ( 75)
          -0.2774 ( 79) -0.1260 ( 80)  0.1749 ( 82) -0.1095 ( 84) -0.1085 ( 85)
           0.1868 ( 86)  0.3340 ( 87)  0.2172 ( 88)  0.3218 ( 89)
 CRD 51=  -0.1394 ( 19)  0.1394 ( 20) -0.1274 ( 44)  0.1273 ( 45)  0.1167 ( 53)
          -0.2648 ( 55) -0.1328 ( 56)  0.1274 ( 58)  0.1818 ( 59) -0.1616 ( 61)
          -0.1189 ( 62) -0.2095 ( 65)  0.1122 ( 66) -0.1552 ( 68) -0.1472 ( 69)
           0.1420 ( 70)  0.2244 ( 72) -0.1806 ( 73) -0.1340 ( 74)  0.1966 ( 77)
           0.1791 ( 81) -0.1462 ( 83)  0.2732 ( 84)  0.2732 ( 85)  0.2491 ( 88)
          -0.3212 ( 89) -0.1219 ( 90) -0.1219 ( 91)
 CRD 52=   0.2855 ( 54)  0.2858 ( 57) -0.1532 ( 58) -0.1534 ( 59)  0.1963 ( 60)
          -0.1380 ( 62) -0.1461 ( 64) -0.1329 ( 65) -0.1008 ( 66)  0.1933 ( 67)
          -0.1333 ( 68) -0.1484 ( 71)  0.1781 ( 72)  0.2038 ( 73) -0.1402 ( 75)
           0.1886 ( 76)  0.2000 ( 78) -0.3893 ( 80)  0.1868 ( 81) -0.3905 ( 82)
           0.2096 ( 83)
 CRD 53=  -0.1197 ( 53)  0.1236 ( 54) -0.2899 ( 55)  0.1198 ( 56) -0.1198 ( 57)
          -0.2796 ( 58)  0.2480 ( 63) -0.1514 ( 64) -0.1589 ( 66)  0.2777 ( 68)
           0.1160 ( 69) -0.1174 ( 70) -0.2791 ( 72)  0.2809 ( 73)  0.1581 ( 74)
           0.1495 ( 75) -0.2584 ( 79) -0.1274 ( 80) -0.1437 ( 81)  0.1223 ( 82)
           0.1470 ( 83)  0.1820 ( 84)  0.1820 ( 85)  0.2468 ( 88) -0.1493 ( 89)
 CRD 54=   0.2709 ( 54)  0.1684 ( 55) -0.2727 ( 57) -0.2302 ( 58)  0.3133 ( 59)
          -0.2543 ( 63) -0.3124 ( 65)  0.2312 ( 68) -0.1711 ( 72)  0.1706 ( 73)
           0.2668 ( 79) -0.2114 ( 80)  0.2794 ( 81)  0.2137 ( 82) -0.2812 ( 83)
          -0.1118 ( 88)

 THE DETERMINANT OF THE G MATRIX IS 10**(   -31)


                     --------------------
                     INTERNAL COORDINATES
                     --------------------

                 - - ATOMS - -         COORDINATE      COORDINATE
 NO.   TYPE    I  J  K  L  M  N        (BOHR,RAD)       (ANG,DEG)
 ----------------------------------------------------------------
   1 STRETCH   1  7                     2.6238328       1.3884726
   2 STRETCH   1  2                     2.6238834       1.3884994
   3 STRETCH   1 13                     2.8345970       1.5000043
   4 STRETCH   2  8                     2.0409688       1.0800343
   5 STRETCH   2  3                     2.6094760       1.3808753
   6 STRETCH   3  4                     2.6215732       1.3872769
   7 STRETCH   3  9                     2.0408353       1.0799636
   8 STRETCH   4  6                     2.6214418       1.3872074
   9 STRETCH   4  5                     2.5693596       1.3596466
  10 STRETCH   5 10                     1.8274401       0.9670397
  11 STRETCH   6  7                     2.6095504       1.3809147
  12 STRETCH   6 11                     2.0409055       1.0800008
  13 STRETCH   7 12                     2.0408981       1.0799968
  14 STRETCH  13 15                     1.8897431       1.0000090
  15 STRETCH  13 14                     2.8346099       1.5000111
  16 STRETCH  14 17                     2.8345969       1.5000042
  17 STRETCH  14 16                     2.8345983       1.5000049
  18 STRETCH  17 20                     2.0787058       1.1000038
  19 STRETCH  17 19                     2.0787115       1.1000068
  20 STRETCH  17 18                     2.0787176       1.1000101
  21 BEND      1 13 15                  2.0944035     120.0004798
  22 BEND      1  2  8                  2.0944013     120.0003573
  23 BEND      1  7 12                  2.0945018     120.0061127
  24 BEND      1  7  6                  2.0941206     119.9842737
  25 BEND      1  2  3                  2.0941995     119.9887925
  26 BEND      1 13 14                  2.0943993     120.0002403
  27 BEND      2  3  9                  2.0943168     119.9955159
  28 BEND      2  1 13                  2.0946810     120.0163793
  29 BEND      2  1  7                  2.0938226     119.9671998
  30 BEND      2  3  4                  2.0946084     120.0122194
  31 BEND      3  4  6                  2.0949067     120.0293118
  32 BEND      3  4  5                  2.0940657     119.9811279
  33 BEND      3  2  8                  2.0945845     120.0108493
  34 BEND      4  3  9                  2.0942600     119.9922589
  35 BEND      4  6 11                  2.0942451     119.9914027
  36 BEND      4  6  7                  2.0946764     120.0161156
  37 BEND      4  5 10                  1.9896594     113.9990866
  38 BEND      5  4  6                  2.0942128     119.9895552
  39 BEND      6  7 12                  2.0945268     120.0075432
  40 BEND      7  1 13                  2.0946817     120.0164209
  41 BEND      7  6 11                  2.0942571     119.9920912
  42 BEND     13 14 16                  1.9106817     109.4739957
  43 BEND     13 14 17                  2.1862463     125.2626871
  44 BEND     14 17 18                  1.9106831     109.4740760
  45 BEND     14 17 19                  1.9106820     109.4740124
  46 BEND     14 17 20                  1.9106855     109.4742143
  47 BEND     14 13 15                  2.0943825     119.9992798
  48 BEND     16 14 17                  2.1862573     125.2633172
  49 BEND     18 17 19                  1.9105888     109.4686743
  50 BEND     18 17 20                  1.9105814     109.4682480
  51 BEND     19 17 20                  1.9105787     109.4680984
  52 TORSION   1 13 14 16               3.1415865     179.9996452
  53 TORSION   1  2  3  9              -3.1415318    -179.9965127
  54 TORSION   1  2  3  4               0.0005428       0.0311026
  55 TORSION   1 13 14 17              -0.0000059      -0.0003377
  56 TORSION   1  7  6 11              -3.1363879    -179.7017904
  57 TORSION   1  7  6  4               0.0091725       0.5255464
  58 TORSION   2  3  4  6              -0.0005133      -0.0294072
  59 TORSION   2  1  7  6              -0.0091382      -0.5235813
  60 TORSION   2  1  7 12               3.1415886     179.9997681
  61 TORSION   2  1 13 15               3.1415810     179.9993339
  62 TORSION   2  3  4  5               3.1415324     179.9965465
  63 TORSION   2  1 13 14               0.0000043       0.0002487
  64 TORSION   3  2  1 13              -3.1373247    -179.7554622
  65 TORSION   3  2  1  7               0.0042707       0.2446955
  66 TORSION   3  4  5 10               1.5707811      89.9991292
  67 TORSION   3  4  6 11               3.1412016     179.9775958
  68 TORSION   3  4  6  7              -0.0043588      -0.2497394
  69 TORSION   4  3  2  8              -3.1408578    -179.9578939
  70 TORSION   4  6  7 12              -3.1415544    -179.9978106
  71 TORSION   5  4  6  7               3.1367809     179.7243047
  72 TORSION   5  4  6 11              -0.0008440      -0.0483601
  73 TORSION   5  4  3  9               0.0004217       0.0241609
  74 TORSION   6  4  5 10              -1.5703587     -89.9749275
  75 TORSION   6  7  1 13               3.1324572     179.4765764
  76 TORSION   6  4  3  9               3.1415614     179.9982072
  77 TORSION   7  1 13 14              -3.1415911    -179.9999091
  78 TORSION   7  1  2  8              -3.1375139    -179.7663068
  79 TORSION   7  1 13 15              -0.0000144      -0.0008239
  80 TORSION   8  2  3  9               0.0002529       0.0144908
  81 TORSION   8  2  1 13               0.0040760       0.2335355
  82 TORSION  11  6  7 12              -0.0039296      -0.2251473
  83 TORSION  12  7  1 13              -0.0000013      -0.0000742
  84 TORSION  13 14 17 18               1.0472020      60.0002539
  85 TORSION  13 14 17 19              -1.0471990     -60.0000858
  86 TORSION  13 14 17 20              -3.1415892    -179.9998049
  87 TORSION  15 13 14 17              -3.1415826    -179.9994229
  88 TORSION  15 13 14 16               0.0000098       0.0005600
  89 TORSION  16 14 17 20               0.0000037       0.0002149
  90 TORSION  16 14 17 19               2.0943939     119.9999339
  91 TORSION  16 14 17 18              -2.0943903    -119.9997264

     ------------------------------------------
     THE POINT GROUP IS C1 , NAXIS= 1, ORDER= 1
     ------------------------------------------

     DIMENSIONS OF THE SYMMETRY SUBSPACES ARE
 A   =  263

 ..... DONE SETTING UP THE RUN .....
 STEP CPU TIME =     0.01 TOTAL CPU TIME =        0.0 (    0.0 MIN)
 TOTAL WALL CLOCK TIME=        0.0 SECONDS, CPU UTILIZATION IS  50.00%


          -----------------------------
          STATIONARY POINT LOCATION RUN
          -----------------------------

 OBTAINING INITIAL HESSIAN, HESS=GUESS   
 DIAGONAL GUESS HESSIAN IN INTERNAL COORDS IS
     1  0.4835     2  0.4834     3  0.3397     4  0.3531     5  0.4906
     6  0.4846     7  0.3532     8  0.4846     9  0.4129    10  0.3552
    11  0.4906    12  0.3532    13  0.3532    14  0.3601    15  0.3397
    16  0.3892    17  0.3143    18  0.3397    19  0.3397    20  0.3397
    21  0.2166    22  0.2334    23  0.2334    24  0.2702    25  0.2702
    26  0.2371    27  0.2339    28  0.2525    29  0.2696    30  0.2703
    31  0.2698    32  0.2581    33  0.2339    34  0.2335    35  0.2335
    36  0.2703    37  0.2182    38  0.2581    39  0.2339    40  0.2525
    41  0.2339    42  0.2328    43  0.2447    44  0.2253    45  0.2253
    46  0.2253    47  0.2166    48  0.2402    49  0.2024    50  0.2024
    51  0.2024    52  0.2500    53  0.2500    54  0.2500    55  0.2500
    56  0.2500    57  0.2500    58  0.2500    59  0.2500    60  0.2500
    61  0.2500    62  0.2500    63  0.2500    64  0.2500    65  0.2500
    66  0.2500    67  0.2500    68  0.2500    69  0.2500    70  0.2500
    71  0.2500    72  0.2500    73  0.2500    74  0.2500    75  0.2500
    76  0.2500    77  0.2500    78  0.2500    79  0.2500    80  0.2500
    81  0.2500    82  0.2500    83  0.2500    84  0.2500    85  0.2500
    86  0.2500    87  0.2500    88  0.2500    89  0.2500    90  0.2500
    91  0.2500
 TRANSFORMING HESSIAN TO SYMMETRY COORDINATES

          PARAMETERS CONTROLLING GEOMETRY SEARCH ARE
          METHOD =QA                  UPHESS =BFGS    
          NNEG   =         0          NFRZ   =         3
          NSTEP  =        50          IFOLOW =         1
          HESS   =GUESS               RESTAR =         F
          IHREP  =         0          HSSEND =         F
          NPRT   =         0          NPUN   =         0
          OPTTOL = 5.000E-04          RMIN   = 1.500E-03
          RMAX   = 1.000E-01          RLIM   = 7.000E-02
          DXMAX  = 3.000E-01          PURIFY =         F
          MOVIE  =         F          TRUPD  =         T
          TRMAX  = 5.000E-01          TRMIN  = 5.000E-02
          ITBMAT =         5          STPT   =         F
          STSTEP = 1.000E-02          PROJCT=          F
          FROZEN COORD(S)=   1   2   3

