----- GAMESS execution script -----

          ******************************************************
          *         GAMESS VERSION =  5 DEC 2014 (R1)          *
          *             FROM IOWA STATE UNIVERSITY             *
          * M.W.SCHMIDT, K.K.BALDRIDGE, J.A.BOATZ, S.T.ELBERT, *
          *   M.S.GORDON, J.H.JENSEN, S.KOSEKI, N.MATSUNAGA,   *
          *          K.A.NGUYEN, S.J.SU, T.L.WINDUS,           *
          *       TOGETHER WITH M.DUPUIS, J.A.MONTGOMERY       *
          *         J.COMPUT.CHEM.  14, 1347-1363(1993)        *
          **************** 64 BIT LINUX VERSION ****************

 EXECUTION OF GAMESS BEGUN Fri Nov 25 09:05:36 2016

            ECHO OF THE FIRST FEW INPUT CARDS -
 INPUT CARD>! SELECT RESTRICTED HARTREE-FOCK AS DEFAULT                                     
 INPUT CARD>$contrl scftyp=rhf $end                                                         
 INPUT CARD>                                                                                
 INPUT CARD>! THEORY: HF OR DFT                                                             
 INPUT CARD> $contrl mplevl=0 $end                                                          
 INPUT CARD>                                                                                
 INPUT CARD> $system timlim=10000 mwords=20 $end                                            
 INPUT CARD> $SCF DIRSCF=.TRUE. $end                                                        
 INPUT CARD>                                                                                
 INPUT CARD>                                                                                
 INPUT CARD>! BASIS SETS                                                                    
 INPUT CARD>! 6-311G(d,p)                                                                   
 INPUT CARD> $BASIS GBASIS=N311 NGAUSS=6 NDFUNC=1 NPFUNC=1 $END                             
 INPUT CARD>                                                                                
 INPUT CARD>! One of the following                                                          
 INPUT CARD> $guess guess=HUCKEL $end                                                       
 INPUT CARD>                                                                                
 INPUT CARD> $statpt projct=.FALSE. $end                                                    
 INPUT CARD> $STATPT IFREEZ(1)=1,2,3 $END                                                   
 INPUT CARD>                                                                                
 INPUT CARD>! Optimize the geometry with COSMO effects                                      
 INPUT CARD> $statpt opttol=0.0005 nstep=50 $end                                            
 INPUT CARD> $contrl nzvar=1 $end                                                           
 INPUT CARD> $zmat dlc=.t. auto=.t. $end                                                    
 INPUT CARD> $contrl runtyp=OPTIMIZE maxit=200 $end                                         
 INPUT CARD>                                                                                
 INPUT CARD>! Run COSMO on perfect conductor                                                
 INPUT CARD> $COSGMS PRFCND=.TRUE. $end                                                     
 INPUT CARD>                                                                                
 INPUT CARD>! Specifying RSOLV                                                              
 INPUT CARD> $COSGMS COSRAD = 1.4 $end                                                      
 INPUT CARD>                                                                                
 INPUT CARD>! available memory                                                              
 INPUT CARD> $SYSTEM MWORDS=40 $END                                                         
 INPUT CARD>                                                                                
 INPUT CARD> $DATA                                                                          
 INPUT CARD>                                                                                
 INPUT CARD>C1                                                                              
 INPUT CARD>C      6.0      2.3776000000    1.7682000000   -1.5317000000                    
 INPUT CARD>C      6.0      3.2902000000    0.9046000000   -2.4006000000                    
 INPUT CARD>C      6.0      1.6361000000    0.7629000000   -0.6582000000                    
 INPUT CARD>C      6.0      3.7749000000   -0.1492000000   -1.4068000000                    
 INPUT CARD>C      6.0      2.5463000000   -0.4610000000   -0.5576000000                    
 INPUT CARD>H      1.0      2.9663000000    2.4442000000   -0.8990000000                    
 INPUT CARD>H      1.0      1.6909000000    2.3782000000   -2.1265000000                    
 INPUT CARD>H      1.0      2.6858000000    0.4172000000   -3.1781000000                    
 INPUT CARD>C      6.0      4.4086000000    1.7143000000   -3.0592000000                    
 INPUT CARD>H      1.0      1.4050000000    1.1821000000    0.3261000000                    
 INPUT CARD>H      1.0      0.6859000000    0.4803000000   -1.1261000000                    
 INPUT CARD>H      1.0      4.1614000000   -1.0462000000   -1.9000000000                    
   40000000 WORDS OF MEMORY AVAILABLE

     BASIS OPTIONS
     -------------
     GBASIS=N311         IGAUSS=       6      POLAR=POPN311 
     NDFUNC=       1     NFFUNC=       0     DIFFSP=       F
     NPFUNC=       1      DIFFS=       F     BASNAM=        


     RUN TITLE
     ---------
                                                                                 

 THE POINT GROUP OF THE MOLECULE IS C1      
 THE ORDER OF THE PRINCIPAL AXIS IS     0

 ATOM      ATOMIC                      COORDINATES (BOHR)
           CHARGE         X                   Y                   Z
 C           6.0     4.4930125084        3.3414134915       -2.8944932954
 C           6.0     6.2175764448        1.7094461285       -4.5364762061
 C           6.0     3.0917806885        1.4416719560       -1.2438176451
 C           6.0     7.1335266311       -0.2819471174       -2.6584665195
 C           6.0     4.8118092825       -0.8711636803       -1.0537112108
 H           1.0     5.6054941974        4.6188682592       -1.6988636630
 H           1.0     3.1953376726        4.4941463440       -4.0185023129
 H           1.0     5.0754260578        0.7883936821       -6.0057381616
 C           6.0     8.3310459895        3.2395572608       -5.7810497416
 H           1.0     2.6550650127        2.2338450901        0.6162396446
 H           1.0     1.2961630550        0.9076353919       -2.1280204348
 H           1.0     7.8639057253       -1.9770313284       -3.5904793767
 H           1.0     8.6394492707        0.4809352639       -1.4547110653
 H           1.0     5.3392318057       -1.2782106581        0.9046118303
 H           1.0     3.8283958785       -2.5392248097       -1.7897594830
 H           1.0     9.4834008968        4.1683575837       -4.3280394297
 H           1.0     7.4827479936        4.7492593523       -6.9214993752
 C           6.0    10.0348229400        1.6177944181       -7.4646066241
 H           1.0     8.8847357039        0.6619710135       -8.8998535118
 H           1.0    10.9520959344        0.1455089011       -6.3328497301
 C           6.0    12.0615540618        3.2227386995       -8.7596358435
 H           1.0    13.2063500652        4.1846092272       -7.3238220380
 H           1.0    11.1569422315        4.6940793535       -9.9053767098
 C           6.0    13.7704332725        1.6057001718      -10.4352558768
 H           1.0    12.6375425429        0.6559238903      -11.8865654354
 H           1.0    14.6763679110        0.1286903398       -9.3002864486
 C           6.0    15.7992430929        3.1908023303      -11.7102540007
 H           1.0    17.0058331361        4.1173349820      -10.3082662904
 H           1.0    14.9560473572        4.6509936010      -12.9083402769
 H           1.0    16.9984632048        1.9972513964      -12.9000254826

          INTERNUCLEAR DISTANCES (ANGS.)




     $CONTRL OPTIONS
     ---------------
 SCFTYP=RHF          RUNTYP=OPTIMIZE     EXETYP=RUN     
 MPLEVL=       0     CITYP =NONE         CCTYP =NONE         VBTYP =NONE    
 DFTTYP=NONE         TDDFT =NONE    
 MULT  =       1     ICHARG=       0     NZVAR =       1     COORD =UNIQUE  
 PP    =NONE         RELWFN=NONE         LOCAL =NONE         NUMGRD=       F
 ISPHER=      -1     NOSYM =       0     MAXIT =     200     UNITS =ANGS    
 PLTORB=       F     MOLPLT=       F     AIMPAC=       F     FRIEND=        
 NPRINT=       7     IREST =       0     GEOM  =INPUT   
 NORMF =       0     NORMP =       0     ITOL  =      20     ICUT  =       9
 INTTYP=BEST         GRDTYP=BEST         QMTTOL= 1.0E-06

     $SYSTEM OPTIONS
     ---------------
  REPLICATED MEMORY=    40000000 WORDS (ON EVERY NODE).
 DISTRIBUTED MEMDDI=           0 MILLION WORDS IN AGGREGATE,
 MEMDDI DISTRIBUTED OVER   1 PROCESSORS IS           0 WORDS/PROCESSOR.
 TOTAL MEMORY REQUESTED ON EACH PROCESSOR=    40000000 WORDS.
 TIMLIM=       10000.00 MINUTES, OR       6.9 DAYS.
 PARALL= F  BALTYP=  DLB     KDIAG=    0  COREFL= F
 MXSEQ2=     300 MXSEQ3=     150  mem10=         0

     $COSGMS OPTIONS
     ---------------
     EPSI  =   INFTY     NSPA  =      92     COSRAD=    1.40
     DISEX =   10.00     OUTCHG=DBLCAV       COSBUG=       F
     COSWRT=       F     DCOSMO=       F

     SYMMETRY COORDINATES WILL NOT BE USED FOR 
     THE COSMO CALCULATION, EVEN IF SPECIFIED:
         -- SWITCHING TO C1 POINT GROUP --


     DEFINITION OF CAVITY
     ---------------------------
     ATOM         COORDINATES           RADIUS 
     1    4.4930    3.3414   -2.8945    2.0000
     2    6.2176    1.7094   -4.5365    2.0000
     3    3.0918    1.4417   -1.2438    2.0000
     4    7.1335   -0.2819   -2.6585    2.0000
     5    4.8118   -0.8712   -1.0537    2.0000
     6    5.6055    4.6189   -1.6989    1.3000
     7    3.1953    4.4941   -4.0185    1.3000
     8    5.0754    0.7884   -6.0057    1.3000
     9    8.3310    3.2396   -5.7810    2.0000
    10    2.6551    2.2338    0.6162    1.3000
    11    1.2962    0.9076   -2.1280    1.3000
    12    7.8639   -1.9770   -3.5905    1.3000
    13    8.6394    0.4809   -1.4547    1.3000
    14    5.3392   -1.2782    0.9046    1.3000
    15    3.8284   -2.5392   -1.7898    1.3000
    16    9.4834    4.1684   -4.3280    1.3000
    17    7.4827    4.7493   -6.9215    1.3000
    18   10.0348    1.6178   -7.4646    2.0000
    19    8.8847    0.6620   -8.8999    1.3000
    20   10.9521    0.1455   -6.3328    1.3000
    21   12.0616    3.2227   -8.7596    2.0000
    22   13.2064    4.1846   -7.3238    1.3000
    23   11.1569    4.6941   -9.9054    1.3000
    24   13.7704    1.6057  -10.4353    2.0000
    25   12.6375    0.6559  -11.8866    1.3000
    26   14.6764    0.1287   -9.3003    1.3000
    27   15.7992    3.1908  -11.7103    2.0000
    28   17.0058    4.1173  -10.3083    1.3000
    29   14.9560    4.6510  -12.9083    1.3000
    30   16.9985    1.9973  -12.9000    1.3000

          ----------------
          PROPERTIES INPUT
          ----------------

     MOMENTS            FIELD           POTENTIAL          DENSITY
 IEMOM =       1   IEFLD =       0   IEPOT =       0   IEDEN =       0
 WHERE =COMASS     WHERE =NUCLEI     WHERE =NUCLEI     WHERE =NUCLEI  
 OUTPUT=BOTH       OUTPUT=BOTH       OUTPUT=BOTH       OUTPUT=BOTH    
 IEMINT=       0   IEFINT=       0                     IEDINT=       0
                                                       MORB  =       0
          EXTRAPOLATION IN EFFECT
          SOSCF IN EFFECT
 ORBITAL PRINTING OPTION: NPREO=     1   310     2     1

     -------------------------------
     INTEGRAL TRANSFORMATION OPTIONS
     -------------------------------
     NWORD  =            0
     CUTOFF = 1.0E-09     MPTRAN =       0
     DIRTRF =       T     AOINTS =DUP     

          ----------------------
          INTEGRAL INPUT OPTIONS
          ----------------------
 NOPK  =       1 NORDER=       0 SCHWRZ=       T


 -----------------------------------------------
  STATISTICS ON AUTOMATIC COORDINATE GENERATION 
 -----------------------------------------------
  NUMBER OF USER SPECIFIED BONDS                             0
  NUMBER OF BONDS                                           30
  NUMBER OF ANGLES                                          60
  NUMBER OF TORSIONS                                        90
  NUMBER OF EXTRA COORD.                                     0
  NUMBER OF EXTRA COORD. FOR CONSTRAINTS                     0
  NUMBER OF CONSTRAINED COORD.                               0

  TOTAL NUMBER OF PRIMITIVES                               180
 -----------------------------------------------

   --- ENCODED Z MATRIX ---
 COORD  TYPE   I   J   K   L   M   N
    1      1    1   2
    2      1    1   3
    3      1    1   7
    4      1    1   6
    5      1    2   8
    6      1    2   9
    7      1    2   4
    8      1    3  11
    9      1    3   5
   10      1    3  10
   11      1    4  13
   12      1    4  12
   13      1    4   5
   14      1    5  15
   15      1    5  14
   16      1    9  18
   17      1    9  17
   18      1    9  16
   19      1   18  21
   20      1   18  20
   21      1   18  19
   22      1   21  24
   23      1   21  23
   24      1   21  22
   25      1   24  27
   26      1   24  26
   27      1   24  25
   28      1   27  30
   29      1   27  29
   30      1   27  28
   31      2    1   3   5
   32      2    1   3  10
   33      2    1   3  11
   34      2    1   2   9
   35      2    1   2   8
   36      2    1   2   4
   37      2    2   9  16
   38      2    2   4   5
   39      2    2   4  12
   40      2    2   1   6
   41      2    2   9  17
   42      2    2   9  18
   43      2    2   4  13
   44      2    2   1   3
   45      2    2   1   7
   46      2    3   5  14
   47      2    3   5  15
   48      2    3   5   4
   49      2    3   1   6
   50      2    3   1   7
   51      2    4   2   8
   52      2    4   5  15
   53      2    4   2   9
   54      2    4   5  14
   55      2    5   4  12
   56      2    5   4  13
   57      2    5   3  10
   58      2    5   3  11
   59      2    6   1   7
   60      2    8   2   9
   61      2    9  18  19
   62      2    9  18  20
   63      2    9  18  21
   64      2   10   3  11
   65      2   12   4  13
   66      2   14   5  15
   67      2   16   9  17
   68      2   16   9  18
   69      2   17   9  18
   70      2   18  21  22
   71      2   18  21  23
   72      2   18  21  24
   73      2   19  18  20
   74      2   19  18  21
   75      2   20  18  21
   76      2   21  24  25
   77      2   21  24  26
   78      2   21  24  27
   79      2   22  21  23
   80      2   22  21  24
   81      2   23  21  24
   82      2   24  27  28
   83      2   24  27  29
   84      2   24  27  30
   85      2   25  24  26
   86      2   25  24  27
   87      2   26  24  27
   88      2   28  27  29
   89      2   28  27  30
   90      2   29  27  30
   91      3    1   2   4   5
   92      3    1   2   4  12
   93      3    1   2   4  13
   94      3    1   3   5  14
   95      3    1   2   9  16
   96      3    1   3   5  15
   97      3    1   3   5   4
   98      3    1   2   9  17
   99      3    1   2   9  18
  100      3    2   1   3  10
  101      3    2   9  18  19
  102      3    2   9  18  20
  103      3    2   9  18  21
  104      3    2   1   3   5
  105      3    2   1   3  11
  106      3    2   4   5  14
  107      3    2   4   5  15
  108      3    2   4   5   3
  109      3    3   1   2   9
  110      3    3   1   2   4
  111      3    3   1   2   8
  112      3    3   5   4  12
  113      3    3   5   4  13
  114      3    4   2   9  16
  115      3    4   2   9  18
  116      3    4   2   1   6
  117      3    4   2   1   7
  118      3    4   2   9  17
  119      3    4   5   3  10
  120      3    4   5   3  11
  121      3    5   3   1   6
  122      3    5   3   1   7
  123      3    5   4   2   9
  124      3    5   4   2   8
  125      3    6   1   2   9
  126      3    6   1   3  11
  127      3    6   1   2   8
  128      3    6   1   3  10
  129      3    7   1   2   9
  130      3    7   1   3  11
  131      3    7   1   2   8
  132      3    7   1   3  10
  133      3    8   2   9  16
  134      3    8   2   4  13
  135      3    8   2   9  18
  136      3    8   2   9  17
  137      3    8   2   4  12
  138      3    9  18  21  22
  139      3    9  18  21  23
  140      3    9  18  21  24
  141      3    9   2   4  13
  142      3    9   2   4  12
  143      3   10   3   5  15
  144      3   10   3   5  14
  145      3   11   3   5  15
  146      3   11   3   5  14
  147      3   12   4   5  14
  148      3   12   4   5  15
  149      3   13   4   5  14
  150      3   13   4   5  15
  151      3   16   9  18  21
  152      3   16   9  18  20
  153      3   16   9  18  19
  154      3   17   9  18  21
  155      3   17   9  18  20
  156      3   17   9  18  19
  157      3   18  21  24  25
  158      3   18  21  24  26
  159      3   18  21  24  27
  160      3   19  18  21  24
  161      3   19  18  21  23
  162      3   19  18  21  22
  163      3   20  18  21  24
  164      3   20  18  21  23
  165      3   20  18  21  22
  166      3   21  24  27  28
  167      3   21  24  27  29
  168      3   21  24  27  30
  169      3   22  21  24  27
  170      3   22  21  24  26
  171      3   22  21  24  25
  172      3   23  21  24  27
  173      3   23  21  24  26
  174      3   23  21  24  25
  175      3   25  24  27  30
  176      3   25  24  27  29
  177      3   25  24  27  28
  178      3   26  24  27  30
  179      3   26  24  27  29
  180      3   26  24  27  28

          INDEP./SYM. INTERNAL COORDINATES
          --------------------------------
 CRD  1=   0.1427 ( 34)  0.1402 ( 37)  0.1504 ( 41) -0.4938 ( 42) -0.1170 ( 53)
          -0.1330 ( 61) -0.1401 ( 62)  0.4471 ( 63)  0.1459 ( 68)  0.1610 ( 69)
           0.1085 ( 70)  0.1152 ( 71) -0.3648 ( 72) -0.1250 ( 74) -0.1399 ( 75)
           0.1930 ( 78)  0.1035 ( 80)  0.1109 ( 81)  0.1243 (123)
 CRD  2=  -0.1928 (  6) -0.1113 (  7) -0.1096 ( 16) -0.1508 ( 19)  0.1592 ( 41)
          -0.1447 ( 42) -0.2513 ( 53)  0.1071 ( 60) -0.1913 ( 63) -0.1124 ( 70)
           0.1758 ( 74) -0.2167 ( 78)  0.1268 ( 86) -0.1824 ( 99)  0.1672 (101)
           0.1498 (102)  0.3234 (103)  0.2319 (109) -0.1375 (115)  0.1543 (125)
           0.1607 (129) -0.1873 (140)  0.1363 (151)  0.1562 (154)  0.1254 (157)
           0.1880 (159)
 CRD  3=   0.2610 (  6)  0.2021 ( 16)  0.2589 ( 19)  0.1742 ( 22)  0.1252 ( 25)
          -0.1895 ( 37)  0.3457 ( 42)  0.2103 ( 63) -0.1233 ( 68) -0.1513 ( 75)
           0.3326 ( 78)  0.1085 ( 83) -0.1559 ( 87) -0.1296 ( 99)  0.1115 (102)
           0.2217 (103)  0.1005 (109) -0.1501 (140)  0.1266 (151)  0.1058 (158)
           0.1502 (159)
 CRD  4=   0.1399 (  1)  0.1484 (  6)  0.2588 ( 16)  0.1601 ( 19)  0.1629 ( 22)
           0.2503 ( 34) -0.1173 ( 42)  0.1043 ( 51) -0.1380 ( 53) -0.1452 ( 61)
           0.1201 ( 63)  0.1459 ( 68) -0.1539 ( 70)  0.4028 ( 72)  0.1299 ( 77)
          -0.1691 ( 78) -0.2132 ( 81)  0.1444 ( 99)  0.1500 (115)  0.1607 (123)
           0.1521 (135)  0.1250 (139)  0.1713 (140)  0.1181 (141)  0.1277 (142)
 CRD  5=   0.1382 (  1)  0.1557 ( 16)  0.1068 ( 22)  0.1464 ( 37) -0.1072 ( 42)
           0.1021 ( 61) -0.2023 ( 62)  0.1261 ( 63) -0.1331 ( 68)  0.2064 ( 69)
          -0.1695 ( 71)  0.2782 ( 72) -0.1258 ( 74)  0.1499 ( 76) -0.1633 ( 78)
          -0.2141 ( 80) -0.2310 ( 99) -0.1067 (103) -0.1074 (114) -0.2471 (115)
          -0.1121 (118) -0.1698 (135) -0.1659 (138) -0.1495 (139) -0.2355 (140)
          -0.1020 (158) -0.1095 (160) -0.1133 (163)
 CRD  6=  -0.2016 (  6) -0.1894 (  7)  0.1543 ( 22)  0.2135 ( 25) -0.1828 ( 53)
          -0.3015 ( 63) -0.1659 ( 71)  0.1624 ( 72)  0.1630 ( 75) -0.1462 ( 76)
          -0.1422 ( 77)  0.4918 ( 78)  0.1881 ( 82) -0.2027 ( 86) -0.1167 ( 87)
          -0.1289 (159)
 CRD  7=   0.2084 (  1)  0.1102 (  2)  0.1577 (  6) -0.2206 (  7)  0.1037 ( 16)
          -0.1663 ( 22) -0.1566 ( 25)  0.1848 ( 34)  0.2517 ( 42) -0.2013 ( 53)
          -0.1356 ( 68)  0.1873 ( 70) -0.2591 ( 72) -0.1299 ( 78) -0.1858 ( 83)
           0.1326 ( 87)  0.2085 (109)  0.1169 (125)  0.1414 (129)  0.1167 (140)
          -0.1204 (157) -0.1208 (158) -0.2263 (159) -0.1105 (169) -0.1046 (172)
 CRD  8=   0.2472 (  1)  0.1760 (  6)  0.1265 (  7) -0.1166 (  9) -0.1506 ( 19)
          -0.1334 ( 22)  0.2468 ( 34) -0.1643 ( 36)  0.1112 ( 37) -0.1934 ( 60)
           0.1879 ( 61) -0.3161 ( 63) -0.1352 ( 72)  0.1006 ( 78)  0.1092 ( 81)
           0.1216 ( 83) -0.1343 (109)  0.2435 (123) -0.1051 (125) -0.1408 (140)
           0.1698 (141)  0.1546 (142)  0.1554 (159) -0.1019 (168)  0.1003 (172)
 CRD  9=   0.1830 (  1) -0.1798 (  2) -0.2880 (  6) -0.1494 (  7) -0.1716 ( 13)
           0.2545 ( 16)  0.1775 ( 36) -0.1074 ( 37) -0.2319 ( 38) -0.2177 ( 41)
           0.2306 ( 42) -0.1915 ( 44)  0.1061 ( 45)  0.1759 ( 48)  0.1032 ( 49)
          -0.1480 ( 52) -0.1216 ( 53)  0.1418 ( 56)  0.1239 ( 63) -0.1574 ( 82)
           0.1033 ( 98) -0.1339 (110) -0.1093 (114)  0.1009 (123)  0.1091 (159)
 CRD 10=  -0.1529 (  7)  0.1850 ( 37) -0.1115 ( 39) -0.1273 ( 68)  0.1227 ( 69)
          -0.1235 ( 70)  0.1017 ( 71) -0.2139 ( 76)  0.2007 ( 77)  0.1863 ( 80)
          -0.1860 ( 81) -0.1476 ( 82)  0.1631 ( 83)  0.1658 ( 86) -0.1748 ( 87)
          -0.1270 ( 98) -0.1767 ( 99) -0.1032 (101) -0.1007 (102) -0.1743 (115)
          -0.1246 (118)  0.2071 (140)  0.1336 (159)  0.1776 (160)  0.1912 (163)
           0.1775 (166)  0.1739 (167)  0.1281 (168)  0.1139 (169)  0.1211 (172)
 CRD 11=   0.2000 (  1)  0.1193 (  3)  0.1109 (  6)  0.3611 (  7) -0.1754 ( 13)
           0.2977 ( 31) -0.1236 ( 33)  0.1218 ( 40) -0.2931 ( 44)  0.1465 ( 45)
          -0.1118 ( 55) -0.1351 ( 57) -0.1075 ( 58) -0.1252 ( 59)  0.1062 ( 64)
           0.2258 ( 82) -0.2186 ( 83)  0.1345 (103) -0.1273 (115)  0.1338 (168)
 CRD 12=   0.2335 (  1)  0.2215 (  6)  0.1760 (  7)  0.1826 (  9)  0.1840 ( 12)
           0.1327 ( 13) -0.2183 ( 16)  0.1031 ( 19) -0.1313 ( 22)  0.2031 ( 25)
          -0.1196 ( 35)  0.1648 ( 36) -0.2276 ( 38)  0.1179 ( 43) -0.1782 ( 47)
           0.2185 ( 48) -0.1359 ( 54)  0.1277 ( 55)  0.1616 ( 57)  0.1057 ( 60)
          -0.1148 ( 65)  0.1348 ( 83) -0.1398 ( 91)  0.1284 ( 95)  0.1135 (113)
          -0.1358 (121)
 CRD 13=   0.1007 (  1) -0.2193 (  2) -0.1263 (  3) -0.1497 (  9)  0.1400 ( 13)
          -0.1036 ( 15) -0.2125 ( 31)  0.1378 ( 32) -0.1959 ( 38) -0.1151 ( 40)
           0.1068 ( 43)  0.2073 ( 44) -0.1895 ( 46)  0.2436 ( 48) -0.2197 ( 50)
           0.1378 ( 55)  0.1553 ( 58)  0.1002 ( 66)  0.2652 ( 82) -0.2678 ( 83)
           0.1499 (103) -0.1230 (109) -0.1112 (110) -0.1081 (111)  0.1097 (154)
 CRD 14=   0.5813 ( 25) -0.1610 ( 72) -0.1070 ( 78)  0.4743 ( 84)  0.1730 ( 86)
           0.1721 ( 87) -0.2425 ( 89) -0.2201 ( 90)
 CRD 15=  -0.1012 (  7) -0.1444 (  9) -0.1285 ( 13) -0.1039 ( 16)  0.3625 ( 19)
          -0.5091 ( 22) -0.1115 ( 28)  0.1147 ( 70)  0.1208 ( 71) -0.1597 ( 80)
          -0.1679 ( 81)  0.1870 ( 82)  0.1735 ( 83) -0.3063 ( 84) -0.1632 ( 88)
          -0.1131 (161)  0.1134 (165)
 CRD 16=   0.5180 (  9)  0.3651 ( 13)  0.1374 ( 14)  0.1529 ( 15)  0.2299 ( 16)
          -0.1767 ( 22)  0.1075 ( 25) -0.1053 ( 33)  0.1013 ( 46)  0.1119 ( 47)
          -0.1793 ( 48) -0.1237 ( 66)  0.2195 ( 82) -0.1062 ( 84)  0.1037 ( 92)
           0.1055 (142)
 CRD 17=   0.5031 (  2)  0.1271 (  8)  0.2615 (  9)  0.1638 ( 10) -0.2844 ( 13)
          -0.2635 ( 31)  0.1964 ( 32) -0.1120 ( 40)  0.1797 ( 48)  0.1341 ( 49)
          -0.1706 ( 52) -0.1537 ( 54) -0.1422 ( 64)  0.1056 ( 96) -0.1286 (129)
          -0.1127 (144)  0.1114 (145) -0.1079 (147)  0.1102 (150)
 CRD 18=  -0.1451 (  9) -0.1674 ( 13)  0.3241 ( 16) -0.3794 ( 19) -0.1450 ( 22)
          -0.1236 ( 23)  0.1782 ( 25)  0.1240 ( 43) -0.1135 ( 47) -0.1361 ( 54)
          -0.1527 ( 56)  0.1272 ( 62)  0.1412 ( 68) -0.1307 ( 75)  0.1357 ( 82)
           0.2474 ( 83) -0.2163 ( 84) -0.1793 ( 88)
 CRD 19=   0.3628 (  2) -0.1242 (  7) -0.3203 (  9)  0.3418 ( 13)  0.1218 ( 33)
           0.1151 ( 36) -0.1719 ( 47)  0.1129 ( 49)  0.1162 ( 50)  0.1189 ( 54)
           0.1295 ( 56) -0.1908 ( 58)  0.1034 ( 82) -0.1013 ( 83)  0.1274 (105)
           0.1109 (112) -0.1203 (119) -0.1085 (122)  0.1181 (126) -0.1160 (132)
          -0.1619 (143)  0.1631 (146)  0.1192 (147) -0.1237 (150)
 CRD 20=  -0.1497 (  1) -0.1135 (  2) -0.2117 ( 13)  0.1043 ( 23) -0.1047 ( 24)
          -0.1088 ( 29)  0.1103 ( 30) -0.1378 ( 32)  0.1308 ( 33)  0.1116 ( 37)
           0.1373 ( 40) -0.1338 ( 41) -0.1710 ( 45)  0.1162 ( 46) -0.1393 ( 49)
          -0.1006 ( 54)  0.1713 ( 57) -0.1010 ( 58)  0.1028 ( 61) -0.1040 ( 68)
          -0.1032 ( 70)  0.1100 ( 71)  0.2894 ( 82) -0.2849 ( 83) -0.1326 ( 89)
           0.1329 ( 90) -0.1052 ( 92) -0.1188 ( 94)  0.1305 (100)  0.1213 (105)
           0.1094 (108) -0.1050 (138) -0.1076 (139)  0.1040 (157)  0.1053 (158)
           0.1356 (159)
 CRD 21=  -0.1888 (  2) -0.1904 (  7) -0.1195 ( 13)  0.1314 ( 19)  0.1126 ( 37)
          -0.1314 ( 39)  0.1302 ( 46) -0.2066 ( 61)  0.2119 ( 62)  0.1244 ( 71)
           0.2482 ( 74) -0.1726 ( 75)  0.2262 ( 76) -0.2471 ( 77) -0.1991 ( 86)
           0.1872 ( 87) -0.1194 (101)  0.1407 (138)  0.1290 (139)  0.1254 (151)
           0.1149 (154)  0.1134 (157)  0.1066 (158) -0.1789 (166) -0.1684 (167)
          -0.1575 (168) -0.1029 (172)
 CRD 22=  -0.1887 (  6)  0.2761 ( 16)  0.2959 ( 19)  0.1133 ( 20)  0.1757 ( 21)
          -0.1740 ( 22) -0.1115 ( 25) -0.1060 ( 27) -0.1356 ( 37) -0.1175 ( 39)
          -0.1133 ( 42)  0.1445 ( 43) -0.1119 ( 47)  0.1201 ( 52)  0.1126 ( 55)
          -0.1336 ( 56)  0.1308 ( 61) -0.1455 ( 63)  0.2076 ( 68)  0.1103 ( 70)
          -0.1074 ( 73)  0.1571 ( 75) -0.1305 ( 76) -0.1648 ( 82) -0.1752 ( 83)
           0.2282 ( 84)  0.1592 ( 88)  0.1009 (102) -0.1023 (107)
 CRD 23=   0.1996 ( 61) -0.2292 ( 62) -0.2929 ( 70)  0.2845 ( 71) -0.1990 ( 74)
           0.1951 ( 75)  0.1822 ( 76) -0.1672 ( 77)  0.3037 ( 80) -0.2994 ( 81)
          -0.1995 ( 86)  0.2018 ( 87) -0.1338 (138) -0.1290 (139) -0.1180 (151)
          -0.1023 (154)  0.1623 (157)  0.1617 (158)  0.1840 (160)  0.1959 (163)
          -0.1337 (169) -0.1308 (172)
 CRD 24=   0.1961 (  1) -0.1808 (  6) -0.1160 (  7) -0.2646 ( 16) -0.1789 ( 17)
           0.2287 ( 22)  0.1418 ( 23)  0.1348 ( 27) -0.1305 ( 37) -0.2011 ( 39)
           0.1081 ( 43)  0.1046 ( 52)  0.1000 ( 55) -0.1107 ( 56) -0.2192 ( 69)
           0.1359 ( 77) -0.1388 ( 78)  0.2281 ( 82) -0.1799 ( 84) -0.1213 ( 88)
          -0.1214 (106) -0.1294 (107)  0.1538 (135)  0.1167 (142)
 CRD 25=   0.2810 (  1)  0.1110 (  4) -0.3528 (  6)  0.2043 (  7)  0.1498 ( 12)
          -0.1586 ( 18)  0.1300 ( 33) -0.1011 ( 36)  0.1618 ( 40) -0.1845 ( 41)
          -0.1873 ( 49)  0.1200 ( 50)  0.1343 ( 51) -0.1861 ( 60) -0.1323 ( 61)
           0.1412 ( 69)  0.1199 ( 74) -0.1265 ( 96)  0.1146 (106)  0.1020 (107)
           0.1518 (111) -0.1218 (116) -0.1033 (117) -0.1712 (124) -0.1356 (125)
          -0.1172 (129)  0.1274 (154)
 CRD 26=  -0.1677 (  1)  0.1840 ( 16)  0.1387 ( 17)  0.2781 ( 19)  0.1117 ( 20)
           0.1715 ( 21)  0.2939 ( 22)  0.1162 ( 23)  0.2454 ( 24)  0.2032 ( 26)
          -0.1997 ( 63)  0.1076 ( 69) -0.2409 ( 72) -0.1127 ( 73)  0.1056 ( 74)
           0.1223 ( 76)  0.1225 ( 77) -0.2114 ( 78) -0.1407 ( 79)  0.1275 ( 80)
           0.2331 ( 83) -0.1980 ( 84) -0.1178 ( 85) -0.1366 ( 88)
 CRD 27=  -0.1181 (  1) -0.1805 (  3) -0.1213 (  5) -0.1222 ( 12) -0.1293 ( 16)
          -0.2260 ( 18) -0.1055 ( 19) -0.1863 ( 20) -0.1654 ( 23) -0.1637 ( 27)
          -0.1064 ( 30) -0.1294 ( 39)  0.1172 ( 40)  0.1142 ( 42)  0.1001 ( 43)
          -0.1833 ( 45)  0.1275 ( 46)  0.1363 ( 57)  0.1035 ( 63) -0.1915 ( 82)
           0.1310 ( 83) -0.1010 ( 90)  0.1679 (100)  0.1140 (101)  0.1466 (103)
           0.1532 (105) -0.1415 (106) -0.1291 (107) -0.1040 (109)  0.1409 (112)
           0.1212 (113) -0.1075 (121) -0.1430 (122)  0.1093 (123) -0.1492 (159)
          -0.1149 (169)
 CRD 28=  -0.1757 (  1)  0.1686 (  3) -0.2647 (  4) -0.1064 (  6)  0.2498 (  7)
           0.2572 ( 11) -0.1134 ( 17)  0.1228 ( 34) -0.1025 ( 35)  0.1406 ( 37)
          -0.1648 ( 40) -0.2073 ( 41)  0.1081 ( 42)  0.1558 ( 43)  0.1554 ( 51)
           0.1265 ( 52) -0.1156 ( 53) -0.1105 ( 54) -0.1302 ( 57)  0.1031 ( 58)
          -0.2259 ( 68)  0.1207 ( 69)  0.1278 ( 95) -0.1373 (100) -0.1271 (105)
           0.1047 (109)  0.1531 (111)  0.1334 (114)  0.1170 (121)  0.1218 (127)
           0.1149 (141)
 CRD 29=   0.1528 (  4) -0.1885 (  5)  0.2238 (  8) -0.1833 ( 10)  0.2857 ( 14)
          -0.2476 ( 15) -0.1435 ( 20)  0.1393 ( 21)  0.1393 ( 26) -0.1396 ( 27)
          -0.1965 ( 32)  0.1946 ( 33)  0.1137 ( 39) -0.1041 ( 43)  0.1570 ( 45)
           0.1388 ( 49) -0.1216 ( 50)  0.1738 ( 52) -0.1669 ( 54) -0.1858 ( 94)
          -0.1896 ( 96) -0.1154 (112) -0.1135 (113)  0.1999 (119)  0.2046 (120)
 CRD 30=   0.1168 (  1)  0.1384 (  3) -0.1147 (  7) -0.2279 (  8)  0.1882 ( 10)
          -0.2041 ( 11) -0.1896 ( 17)  0.2291 ( 18) -0.2054 ( 20)  0.2172 ( 21)
           0.2287 ( 26) -0.2274 ( 27)  0.1109 ( 37) -0.1178 ( 46)  0.1093 ( 47)
          -0.1224 ( 52)  0.1285 ( 54) -0.1066 ( 56)  0.1176 ( 94)  0.1201 ( 96)
           0.1027 (133)  0.1196 (135)  0.1098 (136) -0.1148 (138) -0.1133 (139)
          -0.1057 (140)  0.1035 (151)  0.1020 (154)  0.1112 (168) -0.1158 (169)
          -0.1159 (172)
 CRD 31=  -0.3716 (  8)  0.3222 ( 10)  0.1513 ( 11)  0.3947 ( 14) -0.3531 ( 15)
          -0.1088 ( 45) -0.1254 ( 46)  0.1385 ( 47)  0.1452 ( 57) -0.1556 ( 58)
           0.1509 ( 97) -0.1036 (104) -0.1218 (108) -0.1740 (112) -0.1481 (113)
           0.1140 (119)  0.1122 (120) -0.1510 (121) -0.1743 (122)
 CRD 32=   0.1407 (  3) -0.3100 (  4) -0.6765 (  5) -0.1385 (  6) -0.1296 ( 11)
           0.1181 ( 12) -0.1260 ( 18) -0.1158 ( 37)  0.1070 ( 39) -0.1108 ( 43)
          -0.1186 ( 55) -0.1649 ( 92) -0.1578 ( 93)  0.1006 (110) -0.1235 (114)
          -0.1149 (118)
 CRD 33=   0.2770 (  5)  0.2046 ( 11)  0.1261 ( 20) -0.1290 ( 21)  0.2967 ( 23)
          -0.2974 ( 24)  0.2656 ( 26) -0.2669 ( 27)  0.1069 ( 50) -0.1068 ( 61)
           0.1136 ( 62)  0.1129 ( 68) -0.1283 ( 69) -0.1181 ( 95) -0.1205 ( 98)
          -0.1225 (116) -0.1212 (117) -0.1238 (133) -0.1262 (136) -0.1067 (155)
          -0.1034 (156) -0.1215 (160) -0.1255 (163)
 CRD 34=  -0.1762 ( 25) -0.4816 ( 28) -0.5070 ( 29) -0.5068 ( 30)  0.1753 ( 82)
           0.1754 ( 83)  0.1907 ( 84) -0.1829 ( 88) -0.1917 ( 89) -0.1919 ( 90)
 CRD 35=  -0.1293 (  4)  0.1011 (  5)  0.1357 ( 11) -0.1781 ( 17)  0.2547 ( 18)
          -0.2960 ( 20)  0.2969 ( 21) -0.2712 ( 23)  0.2702 ( 24) -0.1845 ( 26)
           0.1852 ( 27) -0.1120 ( 49)  0.1048 ( 50)  0.1065 ( 68) -0.1005 ( 69)
          -0.1131 (116) -0.1019 (117) -0.1006 (138) -0.1005 (139)
 CRD 36=  -0.1285 (  1)  0.2575 ( 12) -0.1325 ( 18) -0.1006 ( 46)  0.1505 ( 55)
          -0.1343 ( 56)  0.1170 ( 62) -0.1100 ( 75)  0.1020 ( 80) -0.1093 ( 81)
           0.1388 ( 92)  0.1513 ( 93)  0.1684 (134)  0.1558 (137)  0.1729 (141)
           0.1604 (142)  0.1094 (147)  0.1105 (148)  0.1153 (149)  0.1163 (150)
          -0.1027 (152) -0.1424 (155) -0.1292 (156) -0.1330 (161) -0.1296 (162)
          -0.1482 (164) -0.1448 (165) -0.1235 (170) -0.1226 (171) -0.1273 (173)
          -0.1264 (174)
 CRD 37=  -0.2251 (  3)  0.1687 (  5) -0.1619 (  6)  0.2185 ( 10) -0.1574 ( 12)
           0.2112 ( 15) -0.1363 ( 17)  0.1312 ( 49) -0.2101 ( 50) -0.1622 ( 55)
          -0.1723 ( 92) -0.1346 ( 93)  0.1886 (116)  0.2099 (117)  0.1778 (125)
           0.1845 (127)  0.1991 (129)  0.1309 (130)  0.2059 (131)  0.1237 (132)
          -0.1360 (137) -0.1045 (141) -0.1422 (142)
 CRD 38=   0.2843 (  3)  0.1422 (  4) -0.1412 ( 11) -0.2863 ( 12)  0.3371 ( 17)
           0.1520 ( 20) -0.1523 ( 21) -0.1008 ( 70)  0.1154 ( 86) -0.1142 ( 87)
           0.1214 ( 95)  0.1073 ( 98)  0.1245 (114)  0.1104 (118)  0.1413 (133)
           0.1272 (136) -0.1024 (161) -0.1033 (162) -0.1691 (170) -0.1699 (171)
          -0.1662 (173) -0.1670 (174) -0.1203 (175) -0.1199 (178)
 CRD 39=  -0.1839 ( 26) -0.1843 ( 27)  0.6338 ( 28) -0.2891 ( 29) -0.2902 ( 30)
          -0.3271 ( 88)  0.1577 ( 89)  0.1581 ( 90) -0.1690 (166)  0.1694 (167)
           0.1876 (176) -0.1509 (177)  0.1514 (179) -0.1871 (180)
 CRD 40=   0.5452 ( 29) -0.5449 ( 30) -0.2959 ( 89)  0.2954 ( 90) -0.2229 (168)
          -0.2121 (175)  0.1034 (176)  0.1038 (177) -0.2121 (178)  0.1034 (179)
           0.1038 (180)
 CRD 41=   0.4031 (  8)  0.4442 ( 10) -0.4087 ( 14) -0.4523 ( 15)  0.1587 ( 64)
          -0.1607 ( 66) -0.1627 (145)
 CRD 42=  -0.3222 (  3) -0.3459 (  4)  0.3279 (  8)  0.2287 ( 10) -0.3565 ( 11)
          -0.3196 ( 12)  0.3242 ( 14)  0.2129 ( 15) -0.1325 ( 59) -0.1333 ( 65)
          -0.1303 (128)  0.1239 (149)
 CRD 43=  -0.1794 ( 17) -0.1689 ( 18)  0.3879 ( 20)  0.3869 ( 21) -0.4033 ( 23)
          -0.4047 ( 24)  0.2302 ( 26)  0.2295 ( 27)  0.1299 ( 73) -0.1345 ( 79)
          -0.1266 (162)  0.1262 (164)
 CRD 44=   0.1249 (  3)  0.1742 (  4) -0.1926 ( 11) -0.1351 ( 12) -0.3357 ( 17)
          -0.2866 ( 18)  0.2294 ( 20)  0.2625 ( 21)  0.1837 ( 23)  0.2115 ( 24)
          -0.3378 ( 26) -0.3420 ( 27) -0.1094 ( 67) -0.1253 ( 85) -0.1156 (155)
           0.1163 (173)  0.1038 (177)
 CRD 45=   0.4251 (  3)  0.1844 (  4)  0.1561 (  8) -0.1800 ( 11) -0.4155 ( 12)
          -0.1443 ( 14) -0.1859 ( 20)  0.1357 ( 26)  0.1203 ( 27)  0.1323 ( 59)
          -0.1285 ( 65)  0.1494 (126)  0.1187 (128)  0.1141 (143)  0.1547 (144)
           0.1091 (146)  0.1190 (149)  0.1435 (150)
 CRD 46=   0.1455 (  4) -0.1770 ( 11) -0.3558 ( 17) -0.3104 ( 18) -0.2183 ( 20)
          -0.2301 ( 21)  0.1687 ( 23)  0.1651 ( 24)  0.3091 ( 26)  0.3099 ( 27)
          -0.1369 ( 67)  0.1305 ( 85) -0.1082 (143) -0.1004 (145)
 CRD 47=  -0.1101 ( 11) -0.1272 ( 17)  0.1010 ( 19) -0.3088 ( 20) -0.3086 ( 21)
          -0.3813 ( 23) -0.3766 ( 24) -0.2555 ( 26) -0.2565 ( 27) -0.1480 ( 73)
          -0.1804 ( 79) -0.1209 ( 85)  0.1235 (161) -0.1232 (165)  0.1132 (170)
          -0.1071 (174)
 CRD 48=   0.2576 (  3)  0.3131 (  4)  0.2946 (  8)  0.3655 ( 10)  0.1808 ( 11)
           0.2951 ( 12)  0.3340 ( 14)  0.3182 ( 15)  0.1255 ( 59)  0.1354 ( 64)
           0.1025 ( 65)  0.1318 ( 66) -0.1333 (132) -0.1507 (146) -0.1166 (150)
 CRD 49=   0.1568 (  3) -0.2927 (  4) -0.1048 (  7)  0.1271 (  8)  0.3628 ( 11)
           0.1375 ( 15) -0.2436 ( 17) -0.3667 ( 18) -0.1031 ( 52) -0.1657 ( 67)
           0.1059 ( 98)  0.1130 (118) -0.1118 (131)  0.1349 (136) -0.1178 (142)
           0.1485 (143)  0.1233 (144)  0.1477 (145)  0.1225 (146)  0.1143 (147)
           0.1109 (152)
 CRD 50=  -0.1331 (  4)  0.1036 (  5)  0.2878 ( 17) -0.3091 ( 18) -0.1512 ( 23)
           0.1511 ( 24)  0.1158 ( 98)  0.1062 (114)  0.1226 (118)  0.1051 (133)
           0.1215 (136) -0.1120 (138) -0.1105 (139) -0.1045 (150) -0.1205 (151)
          -0.1669 (152) -0.1702 (153) -0.1364 (154) -0.1828 (155) -0.1860 (156)
          -0.1260 (161) -0.1276 (162) -0.1248 (164) -0.1263 (165)  0.1032 (166)
           0.1034 (167)  0.1074 (170)  0.1072 (171)  0.1081 (173)  0.1078 (174)
           0.1303 (175)  0.1482 (176)  0.1480 (177)  0.1307 (178)  0.1486 (179)
           0.1484 (180)
 CRD 51=   0.1875 (  3) -0.1952 (  4)  0.1131 (  5) -0.1471 (  8)  0.1585 ( 10)
          -0.2328 ( 11)  0.2007 ( 12) -0.1564 ( 14)  0.1646 ( 15)  0.1122 ( 23)
          -0.1118 ( 24)  0.1053 ( 92)  0.1035 (100)  0.1124 (105) -0.1019 (106)
          -0.1088 (107) -0.1085 (112) -0.1106 (113) -0.1060 (117)  0.1256 (121)
           0.1007 (122)  0.2032 (126)  0.1944 (128)  0.1783 (130)  0.1695 (132)
          -0.1753 (147) -0.1821 (148) -0.1773 (149) -0.1842 (150)  0.1046 (162)
 CRD 52=   0.2031 ( 17) -0.2062 ( 18) -0.3505 ( 20)  0.3518 ( 21)  0.3076 ( 23)
          -0.3073 ( 24) -0.1476 ( 26)  0.1476 ( 27) -0.1074 (101) -0.1031 (102)
           0.1057 (138)  0.1071 (139) -0.1523 (152) -0.1565 (153) -0.1448 (155)
          -0.1491 (156)  0.1137 (160)  0.1781 (161)  0.1767 (162)  0.1172 (163)
           0.1816 (164)  0.1803 (165)
 CRD 53=   0.1053 ( 17) -0.1058 ( 18) -0.1581 ( 23)  0.1585 ( 24)  0.3417 ( 26)
          -0.3420 ( 27)  0.1190 (157)  0.1197 (158) -0.1541 (166) -0.1540 (167)
          -0.1700 (168)  0.1389 (170)  0.1382 (171)  0.1010 (172)  0.1406 (173)
           0.1398 (174) -0.2528 (175) -0.2369 (176) -0.2370 (177) -0.2525 (178)
          -0.2365 (179) -0.2366 (180)
 CRD 54=  -0.1011 (  4) -0.2080 (  8)  0.1947 ( 10)  0.2009 ( 14) -0.1895 ( 15)
          -0.1737 ( 94) -0.1703 ( 96) -0.1261 ( 97)  0.1242 (100)  0.1025 (104)
           0.1121 (105)  0.1151 (106)  0.1053 (107)  0.1679 (112)  0.1417 (113)
          -0.1734 (119) -0.1672 (120)  0.1455 (121)  0.1738 (122)  0.1552 (126)
           0.1673 (128)  0.1834 (130)  0.1955 (132) -0.2176 (143) -0.2210 (144)
          -0.2114 (145) -0.2148 (146)  0.1858 (147)  0.1760 (148)  0.1596 (149)
           0.1498 (150)
 CRD 55=  -0.2214 ( 28) -0.1134 ( 29) -0.1140 ( 30) -0.1159 ( 37) -0.1084 ( 41)
          -0.1553 ( 61) -0.1564 ( 62) -0.1738 ( 70) -0.1755 ( 71)  0.1450 ( 74)
           0.1423 ( 75) -0.1509 ( 76) -0.1502 ( 77)  0.1679 ( 80)  0.1697 ( 81)
          -0.1245 ( 82) -0.1246 ( 83) -0.1658 ( 84)  0.1881 ( 86)  0.1876 ( 87)
           0.1744 ( 89)  0.1739 ( 90) -0.1496 (153)  0.1465 (155) -0.1171 (157)
           0.1147 (158) -0.1843 (162)  0.1880 (164) -0.1027 (169) -0.2188 (171)
           0.1014 (172)  0.2172 (173) -0.1097 (177)  0.1101 (179)
 CRD 56=   0.2137 (  3) -0.2858 (  4)  0.3867 (  5) -0.1007 (  6)  0.2672 (  8)
          -0.2436 ( 10) -0.2960 ( 11)  0.2335 ( 12)  0.2707 ( 14) -0.2491 ( 15)
          -0.1316 ( 92)  0.1324 (117)
 CRD 57=  -0.1162 (  5)  0.1348 (  6) -0.1424 ( 19) -0.1537 ( 22) -0.2121 ( 25)
           0.2111 ( 28)  0.1684 ( 29)  0.1644 ( 30) -0.1379 ( 37) -0.1413 ( 41)
           0.1061 ( 60) -0.1238 ( 61) -0.1130 ( 62)  0.1203 ( 68)  0.1423 ( 69)
           0.1428 ( 74)  0.1267 ( 75)  0.1745 ( 82)  0.1757 ( 83)  0.1895 ( 84)
          -0.1648 ( 88) -0.1984 ( 89) -0.2017 ( 90)  0.1022 (118)  0.1274 (124)
          -0.1139 (127) -0.1060 (133)  0.1805 (134)  0.1229 (137) -0.1715 (153)
           0.1318 (155)  0.1062 (164)
 CRD 58=   0.1381 (  6) -0.1047 ( 10)  0.1331 ( 16) -0.2157 ( 25)  0.1094 ( 29)
           0.1161 ( 30) -0.1067 ( 40) -0.1024 ( 43)  0.1358 ( 49)  0.1355 ( 50)
           0.1373 ( 55)  0.1416 ( 56) -0.1775 ( 60)  0.1215 ( 64)  0.1177 ( 66)
           0.1014 ( 80)  0.1044 ( 82)  0.1032 ( 83) -0.1289 ( 88) -0.1120 ( 93)
           0.1609 (111)  0.1046 (116) -0.1620 (124)  0.1009 (126)  0.2527 (127)
          -0.2617 (134) -0.1022 (141)  0.1616 (143) -0.1651 (146) -0.1066 (162)
 CRD 59=  -0.1421 (  2) -0.1627 (  3)  0.1339 ( 12)  0.1192 ( 13)  0.1131 ( 15)
          -0.1250 ( 25)  0.1338 ( 32)  0.1316 ( 33)  0.1211 ( 43)  0.1524 ( 46)
           0.1723 ( 47) -0.1888 ( 57) -0.1908 ( 58)  0.1531 ( 59) -0.1263 ( 65)
          -0.1690 ( 66) -0.1570 (100)  0.1350 (105) -0.1297 (106)  0.1599 (107)
           0.1201 (113)  0.1039 (121)  0.2526 (126) -0.1535 (127)  0.1022 (130)
          -0.1897 (132)  0.1412 (133)  0.1057 (135) -0.1988 (147)  0.2810 (150)
 CRD 60=  -0.1099 (  1) -0.1804 (  6)  0.1190 (  9)  0.1005 ( 10) -0.1272 ( 13)
           0.1140 ( 16)  0.2072 ( 19) -0.3017 ( 25)  0.1403 ( 29)  0.1443 ( 30)
           0.1193 ( 37)  0.1202 ( 41) -0.1324 ( 46) -0.1241 ( 47)  0.1465 ( 52)
           0.1429 ( 54) -0.1464 ( 64) -0.1118 ( 68) -0.1227 ( 69) -0.1056 ( 70)
          -0.1017 ( 71) -0.1005 ( 77) -0.1820 ( 88) -0.1033 ( 96)  0.1049 (106)
          -0.1199 (126) -0.1555 (143)  0.1614 (146)  0.1027 (153) -0.1311 (177)
           0.1366 (179)
 CRD 61=  -0.2719 (  2)  0.1314 (  6)  0.3553 (  9) -0.2815 ( 13)  0.1251 ( 25)
           0.1665 ( 32)  0.1546 ( 33) -0.1001 ( 43) -0.1102 ( 47)  0.1239 ( 52)
           0.1380 ( 54) -0.1295 ( 57) -0.1308 ( 58)  0.1196 ( 94) -0.1280 (119)
           0.1171 (120)  0.1607 (126) -0.1108 (132) -0.2168 (143)  0.2350 (146)
           0.1102 (147) -0.1625 (150)
 CRD 62=   0.1835 (  1) -0.1227 (  2) -0.1252 (  5)  0.1011 (  8) -0.1375 ( 10)
          -0.1650 ( 17)  0.1794 ( 18)  0.1022 ( 20) -0.1039 ( 21) -0.1764 ( 26)
           0.1776 ( 27)  0.1531 ( 29) -0.1566 ( 30) -0.1747 ( 45)  0.1275 ( 50)
           0.1129 ( 54) -0.1191 ( 56)  0.1184 ( 89) -0.1186 ( 90)  0.1062 ( 93)
          -0.1070 (117) -0.1111 (120) -0.1098 (122)  0.1225 (126)  0.1292 (128)
          -0.1028 (131) -0.1329 (145) -0.1090 (148) -0.1075 (152) -0.1102 (153)
          -0.1229 (155) -0.1256 (156)  0.1392 (168)  0.1017 (170)  0.1023 (171)
           0.1010 (173)  0.1016 (174) -0.1330 (176) -0.1308 (177) -0.1356 (179)
          -0.1334 (180)
 CRD 63=  -0.1364 (  1)  0.1213 (  7) -0.1072 ( 20)  0.1068 ( 21)  0.1860 ( 23)
          -0.1839 ( 24) -0.2203 ( 26)  0.2183 ( 27)  0.1615 ( 29) -0.1586 ( 30)
           0.1089 ( 45) -0.1016 ( 49)  0.1051 ( 56)  0.1216 ( 89) -0.1207 ( 90)
           0.1160 (145) -0.1422 (161) -0.1432 (162) -0.1433 (164) -0.1444 (165)
           0.1078 (168)  0.1892 (170)  0.1894 (171)  0.1869 (173)  0.1871 (174)
          -0.1630 (176) -0.1653 (177) -0.1603 (179) -0.1626 (180)
 CRD 64=  -0.1402 (  5)  0.1638 (  7) -0.1171 ( 15) -0.1436 ( 16)  0.1927 ( 18)
           0.1215 ( 20) -0.1610 ( 21)  0.1391 ( 22)  0.1227 ( 32) -0.1491 ( 39)
           0.1002 ( 40) -0.1026 ( 49) -0.1081 ( 52)  0.1482 ( 55) -0.1041 ( 75)
          -0.1018 ( 88)  0.1314 ( 92)  0.1235 ( 96)  0.1103 ( 98)  0.1074 (105)
          -0.1046 (106)  0.1758 (118) -0.1063 (119)  0.1228 (130)  0.1295 (137)
          -0.1057 (144)  0.1371 (145) -0.1637 (149) -0.1073 (150) -0.1518 (152)
          -0.1944 (155) -0.1017 (156)  0.1125 (161)  0.1165 (162) -0.1096 (177)
           0.1310 (179)
 CRD 65=  -0.1792 (  1)  0.1223 (  7)  0.2159 ( 16) -0.1446 ( 17)  0.1112 ( 20)
          -0.2508 ( 22)  0.1901 ( 28) -0.1010 ( 29) -0.1268 ( 30)  0.1065 ( 35)
           0.1026 ( 41) -0.1355 ( 68)  0.1004 ( 76)  0.1260 ( 77) -0.1419 ( 85)
           0.1695 ( 88)  0.1174 ( 95)  0.1246 (114) -0.1150 (127)  0.2290 (133)
          -0.1231 (134) -0.1213 (153) -0.1743 (156)  0.1104 (164)  0.1174 (166)
          -0.1209 (171)  0.1242 (175)  0.2122 (177) -0.2059 (179)
 CRD 66=  -0.1314 (  3)  0.1180 (  6)  0.2053 (  7) -0.1744 ( 17) -0.1366 ( 19)
           0.1234 ( 21)  0.1840 ( 22) -0.1124 ( 28)  0.1173 ( 30) -0.1070 ( 41)
          -0.1444 ( 51)  0.2016 ( 67) -0.1685 ( 73)  0.1091 (121) -0.1698 (127)
           0.1248 (128) -0.1397 (131)  0.2485 (133) -0.1094 (134)  0.1401 (135)
           0.1191 (136) -0.1623 (151) -0.2194 (153)  0.1779 (155)  0.1258 (162)
          -0.1477 (164)  0.1324 (179)
 CRD 67=  -0.2056 ( 16)  0.1397 ( 19)  0.1552 ( 20) -0.1866 ( 23) -0.1086 ( 24)
          -0.2399 ( 25)  0.1285 ( 27)  0.1220 ( 28)  0.1332 ( 61) -0.1828 ( 73)
           0.2407 ( 79) -0.1685 ( 85)  0.1002 ( 86) -0.1221 ( 90) -0.1157 (136)
          -0.1143 (139)  0.1261 (158)  0.1142 (160)  0.2532 (162) -0.1278 (163)
          -0.1908 (164) -0.1329 (169) -0.2327 (171)  0.1067 (172)  0.2213 (173)
          -0.1259 (179)
 CRD 68=  -0.1849 (  5) -0.1171 ( 10)  0.1012 ( 14) -0.1379 ( 15) -0.1141 ( 16)
           0.1004 ( 18)  0.1596 ( 19) -0.1612 ( 20)  0.1284 ( 21) -0.1743 ( 24)
          -0.1080 ( 25)  0.1184 ( 26)  0.1153 ( 28) -0.2039 ( 29)  0.1370 ( 30)
           0.1250 ( 62) -0.1001 ( 85) -0.1869 ( 89) -0.1075 ( 99) -0.1126 (107)
           0.1102 (118) -0.1023 (120)  0.1396 (140)  0.1224 (153) -0.1053 (157)
          -0.1069 (161) -0.1350 (164) -0.1147 (165) -0.1910 (168)  0.1372 (173)
           0.1666 (177) -0.1571 (178)
 CRD 69=  -0.1399 (  1) -0.1244 (  2)  0.1702 (  3)  0.1084 (  6) -0.1584 (  7)
           0.1492 (  8) -0.1469 (  9)  0.1095 ( 14) -0.1602 ( 19)  0.1005 ( 22)
          -0.1195 ( 24) -0.1055 ( 28)  0.1130 ( 30)  0.1299 ( 40) -0.1408 ( 59)
          -0.1367 ( 64) -0.1172 ( 65) -0.1307 ( 66) -0.1209 ( 73)  0.1088 ( 74)
           0.1196 (100)  0.1423 (102) -0.1038 (106) -0.1265 (119) -0.1358 (121)
          -0.1379 (126)  0.1728 (127)  0.1385 (132) -0.1076 (134) -0.1395 (143)
           0.1003 (146) -0.1662 (147)  0.1127 (150)  0.1358 (152) -0.1416 (156)
          -0.1215 (164)
 CRD 70=  -0.1051 (  1)  0.1335 (  4)  0.1377 (  6)  0.1306 ( 10)  0.2341 ( 12)
          -0.1633 ( 13)  0.1177 ( 14) -0.1585 ( 16) -0.1443 ( 25)  0.1193 ( 43)
           0.1214 ( 58) -0.1170 ( 65) -0.1029 ( 66)  0.1198 ( 68) -0.1290 ( 93)
           0.1051 ( 94)  0.1137 ( 98) -0.1271 (105)  0.1728 (113) -0.1176 (117)
           0.1181 (118) -0.1886 (134)  0.1664 (136)  0.1427 (144)  0.1565 (146)
           0.1041 (149)  0.1282 (150) -0.1137 (174)
 CRD 71=   0.1366 (  3) -0.1369 (  4)  0.1362 (  6)  0.1289 ( 11) -0.1220 ( 13)
           0.1377 ( 15) -0.1290 ( 17)  0.1491 ( 23)  0.1370 ( 28) -0.1393 ( 29)
          -0.1164 ( 37) -0.1039 ( 65)  0.1077 ( 67) -0.1167 ( 75) -0.1346 ( 79)
          -0.1162 ( 89)  0.1254 ( 92)  0.1079 (101)  0.1067 (107) -0.1001 (112)
           0.1203 (116) -0.1192 (122) -0.1136 (130) -0.1074 (138)  0.1472 (142)
          -0.1381 (143) -0.1209 (144) -0.1019 (151) -0.2023 (152)  0.1009 (154)
           0.1458 (156) -0.1315 (165)  0.1168 (166)  0.1157 (170) -0.1275 (175)
          -0.1147 (176)  0.1520 (180)
 CRD 72=   0.1017 (  6) -0.2289 ( 16)  0.2683 ( 19) -0.2810 ( 22)  0.2484 ( 25)
          -0.1045 ( 28)  0.1269 ( 61)  0.1257 ( 62) -0.1647 ( 70) -0.1549 ( 71)
          -0.1190 ( 74) -0.1124 ( 75)  0.1161 ( 76)  0.1188 ( 77)  0.1588 ( 80)
           0.1646 ( 81) -0.1255 ( 86) -0.1352 ( 87)  0.1017 (139)  0.1282 (157)
          -0.1207 (158)  0.1191 (160)  0.2233 (161) -0.1264 (163) -0.2167 (165)
          -0.2191 (170)  0.2102 (174)
 CRD 73=   0.1392 (  2) -0.1499 (  4)  0.1288 (  8)  0.2042 ( 11) -0.1011 ( 13)
           0.1135 ( 17)  0.1010 ( 19) -0.1119 ( 23)  0.1336 ( 29)  0.1070 ( 57)
           0.1616 ( 59) -0.1758 ( 65)  0.1080 ( 89)  0.1792 ( 92) -0.1299 ( 95)
           0.1186 (100) -0.1948 (112) -0.1169 (114)  0.1579 (117) -0.1503 (122)
           0.1432 (128)  0.1865 (129)  0.1345 (131)  0.1084 (137)  0.1501 (142)
          -0.1832 (148)  0.1213 (149)  0.1019 (159) -0.1053 (166)  0.1556 (175)
          -0.1152 (180)
 CRD 74=  -0.1186 (  6)  0.1031 ( 15)  0.1438 ( 18)  0.1324 ( 19) -0.1192 ( 21)
          -0.1516 ( 24) -0.1536 ( 28)  0.1723 ( 30) -0.1139 ( 67)  0.1268 ( 79)
          -0.1181 ( 82)  0.1057 ( 84) -0.1171 ( 86) -0.1116 ( 88)  0.1358 ( 90)
          -0.1096 ( 96)  0.1193 ( 98)  0.1155 (123) -0.1488 (130) -0.1239 (132)
           0.1192 (136) -0.1146 (139)  0.1086 (147)  0.1136 (148) -0.1425 (155)
          -0.1063 (159) -0.1369 (161)  0.1197 (163)  0.1262 (165)  0.1609 (167)
           0.1243 (173)  0.1106 (174)  0.2118 (176) -0.2035 (178) -0.1786 (180)
 CRD 75=  -0.1510 (  2)  0.1292 ( 16) -0.1020 ( 18) -0.1424 ( 20) -0.1140 ( 22)
           0.1449 ( 26) -0.1152 ( 28)  0.1115 ( 29) -0.1155 ( 42) -0.1227 ( 59)
          -0.1240 ( 63)  0.1536 ( 67)  0.1569 ( 73)  0.1378 ( 78)  0.1186 ( 84)
          -0.1740 ( 85) -0.1005 ( 88) -0.1069 ( 98)  0.1137 (101)  0.1001 (125)
          -0.1158 (131) -0.1358 (151) -0.1958 (152)  0.2271 (156) -0.1327 (166)
          -0.1357 (174)  0.1746 (175)  0.2072 (176) -0.2115 (180)
 CRD 76=   0.1853 (  1) -0.1636 (  6)  0.2155 (  7) -0.2915 (  9)  0.1179 ( 10)
           0.1056 ( 15) -0.1051 ( 45)  0.1094 ( 50)  0.1030 ( 55)  0.1055 ( 60)
          -0.1615 ( 64) -0.1386 ( 66)  0.1255 (100) -0.1218 (105) -0.1148 (106)
           0.1304 (107) -0.1156 (113)  0.2063 (128) -0.2145 (130) -0.1200 (131)
           0.2243 (148) -0.2226 (149)  0.1212 (178)
 CRD 77=   0.2460 (  2) -0.1491 ( 10) -0.2397 ( 13)  0.1433 ( 14)  0.1575 ( 15)
          -0.1715 ( 31)  0.2087 ( 48)  0.1029 ( 55)  0.1797 ( 64) -0.2352 ( 66)
           0.1941 ( 94) -0.1471 ( 96) -0.1024 (106)  0.1234 (107)  0.1474 (119)
          -0.1655 (120)  0.1086 (130)  0.3144 (144) -0.3396 (145)  0.1488 (148)
          -0.1759 (149)
 CRD 78=  -0.1052 (  2)  0.1722 (  3) -0.1690 (  6)  0.1965 (  9) -0.1579 ( 13)
          -0.1093 ( 27) -0.1192 ( 31) -0.1451 ( 36)  0.1725 ( 44) -0.1683 ( 59)
           0.1179 ( 64) -0.1453 ( 93) -0.1031 ( 99)  0.1442 (105) -0.1694 (111)
           0.1893 (116) -0.1358 (121)  0.1158 (124)  0.1631 (125) -0.2337 (128)
           0.1716 (130) -0.2054 (131)  0.1611 (137) -0.1056 (141)  0.1078 (149)
          -0.1047 (167)  0.1008 (172)  0.1393 (178)
 CRD 79=  -0.1311 (  1)  0.1390 (  6)  0.1820 ( 19)  0.1812 ( 22) -0.1174 ( 23)
          -0.1195 ( 24)  0.1023 ( 25) -0.1081 ( 27) -0.1069 ( 38) -0.1484 ( 63)
           0.1023 ( 65) -0.1805 ( 72)  0.1418 ( 73) -0.1606 ( 78)  0.1825 ( 79)
           0.1593 ( 85)  0.1135 ( 93) -0.1111 (124) -0.1546 (137)  0.1141 (138)
          -0.1064 (139)  0.1236 (141) -0.1026 (149) -0.1414 (152)  0.1390 (156)
           0.1018 (157) -0.1059 (158) -0.2035 (161)  0.1981 (165) -0.1087 (169)
          -0.2196 (170)  0.1198 (172)  0.2168 (174) -0.1529 (176)  0.1536 (180)
 CRD 80=   0.1401 (  1)  0.1016 (  4) -0.1113 (  6)  0.1310 ( 11) -0.1115 ( 13)
           0.1299 ( 16) -0.1339 ( 18) -0.1208 ( 21) -0.1242 ( 26) -0.1372 ( 35)
           0.1268 ( 38)  0.1244 ( 60) -0.1277 ( 65) -0.1258 ( 91) -0.1552 ( 93)
          -0.1260 (102)  0.1408 (110)  0.1161 (115) -0.1205 (123) -0.1320 (131)
          -0.1623 (136)  0.2447 (137) -0.1119 (139) -0.1102 (140) -0.1498 (141)
          -0.1183 (147) -0.1361 (148)  0.1171 (154)  0.1298 (165)  0.1256 (166)
          -0.1394 (169) -0.1493 (175)
 CRD 81=   0.1835 (  1) -0.1889 (  7)  0.1135 ( 16) -0.1573 ( 17) -0.1435 ( 34)
          -0.1250 ( 42) -0.1085 ( 44)  0.1288 ( 51)  0.1029 ( 53)  0.1003 ( 59)
           0.1083 ( 67)  0.1757 ( 95) -0.1056 ( 97)  0.1400 (101) -0.1112 (109)
           0.1267 (113)  0.2103 (114)  0.1185 (121) -0.1265 (125) -0.1392 (130)
           0.1705 (131) -0.1166 (132) -0.2139 (135) -0.1812 (136)  0.1051 (140)
          -0.1379 (141) -0.1018 (151) -0.1158 (152) -0.1048 (166) -0.1137 (167)
           0.1257 (172)  0.1088 (178)
 CRD 82=  -0.1001 (  3)  0.1176 (  4)  0.1629 (  8) -0.1226 ( 10) -0.1075 ( 11)
          -0.1567 ( 14)  0.1249 ( 15)  0.1050 ( 32) -0.1197 ( 33) -0.1277 ( 46)
           0.1231 ( 47) -0.1204 ( 49)  0.1162 ( 52) -0.1018 ( 54)  0.1157 ( 56)
           0.1277 ( 57) -0.1232 ( 58)  0.1082 ( 95)  0.2596 ( 97) -0.2230 (104)
          -0.2147 (108)  0.1505 (111) -0.1021 (113)  0.1009 (114) -0.1026 (121)
           0.1444 (124)  0.1374 (128)  0.1261 (130)  0.1761 (132) -0.1546 (143)
          -0.1854 (144) -0.1154 (145) -0.1462 (146)  0.1630 (147)  0.1219 (148)
           0.1318 (149)
 CRD 83=   0.1382 (  5)  0.1123 ( 11)  0.1361 ( 23) -0.1294 ( 24)  0.1119 ( 26)
          -0.1104 ( 27)  0.1029 ( 76) -0.1036 ( 77)  0.1067 ( 80) -0.1053 ( 81)
          -0.1576 ( 91)  0.1155 ( 98)  0.1223 (103)  0.1350 (108)  0.1274 (110)
          -0.1472 (114) -0.1006 (124) -0.1088 (129) -0.1356 (138) -0.1267 (139)
           0.1400 (141)  0.1614 (142) -0.1087 (147)  0.1310 (151) -0.1875 (157)
          -0.1858 (158)  0.1903 (160)  0.1726 (163) -0.1577 (166) -0.1572 (167)
           0.1744 (169)  0.1691 (172)  0.1127 (175)  0.1113 (178)
 CRD 84=   0.1518 (  5) -0.1021 (  7) -0.1126 ( 17)  0.1461 ( 18) -0.1054 ( 20)
           0.1107 ( 21) -0.1205 ( 37)  0.1100 ( 53) -0.1118 ( 60) -0.1018 ( 61)
           0.1004 ( 62)  0.1107 ( 69) -0.1156 ( 91)  0.1672 ( 95)  0.2086 ( 98)
           0.1998 (101)  0.2060 (102) -0.1013 (104)  0.1263 (110) -0.2312 (115)
          -0.1768 (125) -0.1821 (129) -0.1749 (135)  0.1711 (138)  0.1731 (139)
           0.1173 (141)  0.1407 (142) -0.1704 (151) -0.1913 (154)  0.1236 (157)
           0.1245 (158) -0.1320 (160) -0.1374 (163)

 THE DETERMINANT OF THE G MATRIX IS 10**(   -25)


                     --------------------
                     INTERNAL COORDINATES
                     --------------------

                 - - ATOMS - -         COORDINATE      COORDINATE
 NO.   TYPE    I  J  K  L  M  N        (BOHR,RAD)       (ANG,DEG)
 ----------------------------------------------------------------
   1 STRETCH   1  2                     2.8867882       1.5276226
   2 STRETCH   1  3                     2.8804858       1.5242876
   3 STRETCH   1  7                     2.0678852       1.0942778
   4 STRETCH   1  6                     2.0734118       1.0972023
   5 STRETCH   2  8                     2.0764334       1.0988013
   6 STRETCH   2  9                     2.8908402       1.5297668
   7 STRETCH   2  4                     2.8864394       1.5274380
   8 STRETCH   3 11                     2.0715338       1.0962086
   9 STRETCH   3  5                     2.8885719       1.5285665
  10 STRETCH   3 10                     2.0683501       1.0945238
  11 STRETCH   4 13                     2.0733595       1.0971747
  12 STRETCH   4 12                     2.0677070       1.0941835
  13 STRETCH   4  5                     2.8831905       1.5257188
  14 STRETCH   5 15                     2.0715446       1.0962143
  15 STRETCH   5 14                     2.0685480       1.0946285
  16 STRETCH   9 18                     2.8926345       1.5307164
  17 STRETCH   9 17                     2.0735080       1.0972532
  18 STRETCH   9 16                     2.0740855       1.0975589
  19 STRETCH  18 21                     2.8914678       1.5300990
  20 STRETCH  18 20                     2.0712045       1.0960343
  21 STRETCH  18 19                     2.0727355       1.0968445
  22 STRETCH  21 24                     2.8883878       1.5284691
  23 STRETCH  21 23                     2.0726524       1.0968005
  24 STRETCH  21 22                     2.0729964       1.0969825
  25 STRETCH  24 27                     2.8730190       1.5203363
  26 STRETCH  24 26                     2.0713356       1.0961037
  27 STRETCH  24 25                     2.0716698       1.0962805
  28 STRETCH  27 30                     2.0683928       1.0945464
  29 STRETCH  27 29                     2.0684652       1.0945847
  30 STRETCH  27 28                     2.0687899       1.0947566
  31 BEND      1  3  5                  1.8505488     106.0286366
  32 BEND      1  3 10                  1.9449251     111.4359979
  33 BEND      1  3 11                  1.9252595     110.3092422
  34 BEND      1  2  9                  1.9631976     112.4829391
  35 BEND      1  2  8                  1.9014194     108.9433057
  36 BEND      1  2  4                  1.7818816     102.0942951
  37 BEND      2  9 16                  1.9194283     109.9751396
  38 BEND      2  4  5                  1.8209943     104.3352894
  39 BEND      2  4 12                  1.9653582     112.6067284
  40 BEND      2  1  6                  1.9345271     110.8402391
  41 BEND      2  9 17                  1.8997669     108.8486235
  42 BEND      2  9 18                  1.9653937     112.6087640
  43 BEND      2  4 13                  1.9330444     110.7552844
  44 BEND      2  1  3                  1.8169912     104.1059265
  45 BEND      2  1  7                  1.9615190     112.3867606
  46 BEND      3  5 14                  1.9516253     111.8198923
  47 BEND      3  5 15                  1.9162974     109.7957537
  48 BEND      3  5  4                  1.8537976     106.2147760
  49 BEND      3  1  6                  1.9144133     109.6878030
  50 BEND      3  1  7                  1.9539679     111.9541117
  51 BEND      4  2  8                  1.9059351     109.2020391
  52 BEND      4  5 15                  1.9273756     110.4304864
  53 BEND      4  2  9                  1.9968542     114.4113174
  54 BEND      4  5 14                  1.9410232     111.2124346
  55 BEND      5  4 12                  1.9474277     111.5793896
  56 BEND      5  4 13                  1.9144446     109.6895978
  57 BEND      5  3 10                  1.9532537     111.9131923
  58 BEND      5  3 11                  1.9154012     109.7444061
  59 BEND      6  1  7                  1.8825139     107.8601023
  60 BEND      8  2  9                  1.9095254     109.4077453
  61 BEND      9 18 19                  1.9121180     109.5562939
  62 BEND      9 18 20                  1.9191563     109.9595565
  63 BEND      9 18 21                  1.9415630     111.2433636
  64 BEND     10  3 11                  1.8750354     107.4316124
  65 BEND     12  4 13                  1.8825981     107.8649272
  66 BEND     14  5 15                  1.8744100     107.3957809
  67 BEND     16  9 17                  1.8614365     106.6524576
  68 BEND     16  9 18                  1.9087434     109.3629392
  69 BEND     17  9 18                  1.9061058     109.2118152
  70 BEND     18 21 22                  1.9117873     109.5373455
  71 BEND     18 21 23                  1.9131322     109.6144003
  72 BEND     18 21 24                  1.9431171     111.3324075
  73 BEND     19 18 20                  1.8716166     107.2357328
  74 BEND     19 18 21                  1.9121423     109.5576859
  75 BEND     20 18 21                  1.9059005     109.2000532
  76 BEND     21 24 25                  1.9172170     109.8484451
  77 BEND     21 24 26                  1.9178160     109.8827619
  78 BEND     21 24 27                  1.9458946     111.4915463
  79 BEND     22 21 23                  1.8697477     107.1286510
  80 BEND     22 21 24                  1.9122403     109.5632974
  81 BEND     23 21 24                  1.9123557     109.5699121
  82 BEND     24 27 28                  1.9371419     110.9900575
  83 BEND     24 27 29                  1.9376289     111.0179579
  84 BEND     24 27 30                  1.9244469     110.2626833
  85 BEND     25 24 26                  1.8714244     107.2247173
  86 BEND     25 24 27                  1.9052055     109.1602355
  87 BEND     26 24 27                  1.9046979     109.1311495
  88 BEND     28 27 29                  1.8903235     108.3075608
  89 BEND     28 27 30                  1.8860951     108.0652876
  90 BEND     29 27 30                  1.8865395     108.0907501
  91 TORSION   1  2  4  5               0.6844350      39.2152347
  92 TORSION   1  2  4 12               2.7992939     160.3877274
  93 TORSION   1  2  4 13              -1.3742183     -78.7369083
  94 TORSION   1  3  5 14               2.0937514     119.9631178
  95 TORSION   1  2  9 16               1.0255899      58.7619747
  96 TORSION   1  3  5 15              -2.1106970    -120.9340326
  97 TORSION   1  3  5  4              -0.0266226      -1.5253602
  98 TORSION   1  2  9 17              -1.0077975     -57.7425428
  99 TORSION   1  2  9 18              -3.1240571    -178.9952859
 100 TORSION   2  1  3 10               2.5820719     147.9418215
 101 TORSION   2  9 18 19               0.9858627      56.4857712
 102 TORSION   2  9 18 20              -1.0669252     -61.1303082
 103 TORSION   2  9 18 21               3.1026205     177.7670573
 104 TORSION   2  1  3  5               0.4527370      25.9399175
 105 TORSION   2  1  3 11              -1.6199821     -92.8181395
 106 TORSION   2  4  5 14              -2.5368789    -145.3524565
 107 TORSION   2  4  5 15               1.6670829      95.5168160
 108 TORSION   2  4  5  3              -0.4097327     -23.4759568
 109 TORSION   3  1  2  9              -2.8497568    -163.2790386
 110 TORSION   3  1  2  4              -0.7012403     -40.1781109
 111 TORSION   3  1  2  8               1.3131312      75.2368733
 112 TORSION   3  5  4 12              -2.5364631    -145.3286294
 113 TORSION   3  5  4 13               1.6616369      95.2047787
 114 TORSION   4  2  9 16              -0.9973045     -57.1413382
 115 TORSION   4  2  9 18               1.1362338      65.1014012
 116 TORSION   4  2  1  6               1.3558417      77.6840083
 117 TORSION   4  2  1  7              -2.8193743    -161.5382484
 118 TORSION   4  2  9 17              -3.0306919    -173.6458557
 119 TORSION   4  5  3 10              -2.1506291    -123.2219695
 120 TORSION   4  5  3 11               2.0525940     117.6049760
 121 TORSION   5  3  1  6              -1.6181611     -92.7138037
 122 TORSION   5  3  1  7               2.5758914     147.5877071
 123 TORSION   5  4  2  9               2.8099867     161.0003769
 124 TORSION   5  4  2  8              -1.3266366     -76.0106777
 125 TORSION   6  1  2  9              -0.7926748     -45.4169195
 126 TORSION   6  1  3 11               2.5923051     148.5281394
 127 TORSION   6  1  2  8              -2.9129721    -166.9010075
 128 TORSION   6  1  3 10               0.5111738      29.2881004
 129 TORSION   7  1  2  9               1.3152945      75.3608239
 130 TORSION   7  1  3 11               0.5031723      28.8296502
 131 TORSION   7  1  2  8              -0.8050028     -46.1232641
 132 TORSION   7  1  3 10              -1.5779590     -90.4103889
 133 TORSION   8  2  9 16               3.1412603     179.9809577
 134 TORSION   8  2  4 13               2.8978955     166.0371792
 135 TORSION   8  2  9 18              -1.0083867     -57.7763029
 136 TORSION   8  2  9 17               1.1078729      63.4764402
 137 TORSION   8  2  4 12               0.7882224      45.1618150
 138 TORSION   9 18 21 22               1.0207448      58.4843699
 139 TORSION   9 18 21 23              -1.0260435     -58.7879600
 140 TORSION   9 18 21 24               3.1384175     179.8180743
 141 TORSION   9  2  4 13               0.7513334      43.0482338
 142 TORSION   9  2  4 12              -1.3583397     -77.8271304
 143 TORSION  10  3  5 15               2.0484817     117.3693581
 144 TORSION  10  3  5 14              -0.0302551      -1.7334914
 145 TORSION  11  3  5 15              -0.0314804      -1.8036964
 146 TORSION  11  3  5 14              -2.1102173    -120.9065460
 147 TORSION  12  4  5 14               1.6195760      92.7948708
 148 TORSION  12  4  5 15              -0.4596474     -26.3358567
 149 TORSION  13  4  5 14              -0.4655093     -26.6717210
 150 TORSION  13  4  5 15              -2.5447328    -145.8024485
 151 TORSION  16  9 18 21              -1.0410119     -59.6455861
 152 TORSION  16  9 18 20               1.0726278      61.4570484
 153 TORSION  16  9 18 19               3.1254157     179.0731278
 154 TORSION  17  9 18 21               0.9899783      56.7215773
 155 TORSION  17  9 18 20               3.1036180     177.8242118
 156 TORSION  17  9 18 19              -1.1267795     -64.5597088
 157 TORSION  18 21 24 25               1.0346888      59.2833016
 158 TORSION  18 21 24 26              -1.0201123     -58.4481290
 159 TORSION  18 21 24 27              -3.1341874    -179.5757102
 160 TORSION  19 18 21 24              -1.0280243     -58.9014535
 161 TORSION  19 18 21 23               1.0907001      62.4925122
 162 TORSION  19 18 21 22               3.1374884     179.7648421
 163 TORSION  20 18 21 24               1.0170305      58.2715535
 164 TORSION  20 18 21 23               3.1357549     179.6655193
 165 TORSION  20 18 21 22              -1.1006422     -63.0621508
 166 TORSION  21 24 27 28               1.0529324      60.3285806
 167 TORSION  21 24 27 29              -1.0505349     -60.1912157
 168 TORSION  21 24 27 30              -3.1408286    -179.9562246
 169 TORSION  22 21 24 27              -1.0167790     -58.2571474
 170 TORSION  22 21 24 26               1.0972961      62.8704337
 171 TORSION  22 21 24 25              -3.1310881    -179.3981357
 172 TORSION  23 21 24 27               1.0298209      59.0043898
 173 TORSION  23 21 24 26              -3.1392893    -179.8680290
 174 TORSION  23 21 24 25              -1.0844882     -62.1365984
 175 TORSION  25 24 27 30              -1.0195333     -58.4149553
 176 TORSION  25 24 27 29               1.0707604      61.3500536
 177 TORSION  25 24 27 28              -3.1089576    -178.1301502
 178 TORSION  26 24 27 30               1.0206521      58.4790587
 179 TORSION  26 24 27 29               3.1109459     178.2440676
 180 TORSION  26 24 27 28              -1.0687722     -61.2361362

     ------------------------------------------
     THE POINT GROUP IS C1 , NAXIS= 1, ORDER= 1
     ------------------------------------------

     DIMENSIONS OF THE SYMMETRY SUBSPACES ARE
 A   =  310

 ..... DONE SETTING UP THE RUN .....
 STEP CPU TIME =     0.03 TOTAL CPU TIME =        0.0 (    0.0 MIN)
 TOTAL WALL CLOCK TIME=        0.0 SECONDS, CPU UTILIZATION IS  75.00%


          -----------------------------
          STATIONARY POINT LOCATION RUN
          -----------------------------

 OBTAINING INITIAL HESSIAN, HESS=GUESS   
 DIAGONAL GUESS HESSIAN IN INTERNAL COORDS IS
     1  0.3689     2  0.3713     3  0.3435     4  0.3416     5  0.3405
     6  0.3673     7  0.3690     8  0.3422     9  0.3682    10  0.3433
    11  0.3416    12  0.3436    13  0.3702    14  0.3422    15  0.3433
    16  0.3667    17  0.3415    18  0.3413    19  0.3671    20  0.3423
    21  0.3418    22  0.3683    23  0.3418    24  0.3417    25  0.3741
    26  0.3423    27  0.3422    28  0.3433    29  0.3433    30  0.3432
    31  0.2490    32  0.2241    33  0.2240    34  0.2487    35  0.2237
    36  0.2488    37  0.2236    38  0.2490    39  0.2240    40  0.2238
    41  0.2237    42  0.2485    43  0.2238    44  0.2491    45  0.2240
    46  0.2239    47  0.2238    48  0.2489    49  0.2240    50  0.2242
    51  0.2237    52  0.2240    53  0.2487    54  0.2241    55  0.2241
    56  0.2239    57  0.2239    58  0.2238    59  0.2028    60  0.2236
    61  0.2236    62  0.2237    63  0.2484    64  0.2029    65  0.2028
    66  0.2029    67  0.2027    68  0.2236    69  0.2236    70  0.2237
    71  0.2237    72  0.2486    73  0.2028    74  0.2237    75  0.2237
    76  0.2238    77  0.2238    78  0.2493    79  0.2027    80  0.2238
    81  0.2238    82  0.2244    83  0.2244    84  0.2244    85  0.2028
    86  0.2243    87  0.2243    88  0.2029    89  0.2029    90  0.2029
    91  0.2500    92  0.2500    93  0.2500    94  0.2500    95  0.2500
    96  0.2500    97  0.2500    98  0.2500    99  0.2500   100  0.2500
   101  0.2500   102  0.2500   103  0.2500   104  0.2500   105  0.2500
   106  0.2500   107  0.2500   108  0.2500   109  0.2500   110  0.2500
   111  0.2500   112  0.2500   113  0.2500   114  0.2500   115  0.2500
   116  0.2500   117  0.2500   118  0.2500   119  0.2500   120  0.2500
   121  0.2500   122  0.2500   123  0.2500   124  0.2500   125  0.2500
   126  0.2500   127  0.2500   128  0.2500   129  0.2500   130  0.2500
   131  0.2500   132  0.2500   133  0.2500   134  0.2500   135  0.2500
   136  0.2500   137  0.2500   138  0.2500   139  0.2500   140  0.2500
   141  0.2500   142  0.2500   143  0.2500   144  0.2500   145  0.2500
   146  0.2500   147  0.2500   148  0.2500   149  0.2500   150  0.2500
   151  0.2500   152  0.2500   153  0.2500   154  0.2500   155  0.2500
   156  0.2500   157  0.2500   158  0.2500   159  0.2500   160  0.2500
   161  0.2500   162  0.2500   163  0.2500   164  0.2500   165  0.2500
   166  0.2500   167  0.2500   168  0.2500   169  0.2500   170  0.2500
   171  0.2500   172  0.2500   173  0.2500   174  0.2500   175  0.2500
   176  0.2500   177  0.2500   178  0.2500   179  0.2500   180  0.2500
 TRANSFORMING HESSIAN TO SYMMETRY COORDINATES

          PARAMETERS CONTROLLING GEOMETRY SEARCH ARE
          METHOD =QA                  UPHESS =BFGS    
          NNEG   =         0          NFRZ   =         3
          NSTEP  =        50          IFOLOW =         1
          HESS   =GUESS               RESTAR =         F
          IHREP  =         0          HSSEND =         F
          NPRT   =         0          NPUN   =         0
          OPTTOL = 5.000E-04          RMIN   = 1.500E-03
          RMAX   = 1.000E-01          RLIM   = 7.000E-02
          DXMAX  = 3.000E-01          PURIFY =         F
          MOVIE  =         F          TRUPD  =         T
          TRMAX  = 5.000E-01          TRMIN  = 5.000E-02
          ITBMAT =         5          STPT   =         F
          STSTEP = 1.000E-02          PROJCT=          F
          FROZEN COORD(S)=   1   2   3


      ***** EQUILIBRIUM GEOMETRY LOCATED *****
            (SUBJECT TO   3 CONSTRAINT(S))
 COORDINATES OF ALL ATOMS ARE (ANGS)
   ATOM   CHARGE       X              Y              Z
 ------------------------------------------------------------
 C           6.0   2.3602103237   1.7778545596  -1.5102038453
 C           6.0   3.2996142364   0.9340745530  -2.3770607949
 C           6.0   1.6001054664   0.7477235927  -0.6564204477
 C           6.0   3.7847409676  -0.1326364621  -1.3874828647
 C           6.0   2.5409343441  -0.4838275389  -0.5514245161
 H           1.0   2.9513797570   2.4345621264  -0.8733223675
 H           1.0   1.6977701311   2.4075591792  -2.0973309251
 H           1.0   2.6973711583   0.4416296139  -3.1430662122
 C           6.0   4.4077815309   1.7197542681  -3.0673891764
 H           1.0   1.3360655513   1.1439980854   0.3183660558
 H           1.0   0.6721817340   0.4700726024  -1.1475021567
 H           1.0   4.2162924343  -1.0033044010  -1.8693340624
 H           1.0   4.5572236931   0.3011748217  -0.7534923087
 H           1.0   2.8040104096  -0.7093624394   0.4767621959
 H           1.0   2.0546546421  -1.3672831436  -0.9536878503
 H           1.0   5.0208538907   2.2099968302  -2.3105339662
 H           1.0   3.9668699150   2.5151554287  -3.6678232406
 C           6.0   5.2994900206   0.8593755181  -3.9609289520
 H           1.0   4.6838107654   0.3566354449  -4.7066020697
 H           1.0   5.7657599549   0.0760510002  -3.3672908692
 C           6.0   6.3875238979   1.6714030452  -4.6532507134
 H           1.0   6.9909383030   2.1705648304  -3.8954823795
 H           1.0   5.9257776724   2.4599445006  -5.2465941348
 C           6.0   7.3041622679   0.8430756757  -5.5493558052
 H           1.0   6.7120905284   0.3478907575  -6.3175345222
 H           1.0   7.7690758725   0.0528900802  -4.9615635486
 C           6.0   8.3854331515   1.6999997434  -6.2033308507
 H           1.0   9.0038411610   2.1778431538  -5.4471802717
 H           1.0   7.9384733797   2.4838160387  -6.8101620963
 H           1.0   9.0344128914   1.1093501857  -6.8428957507


                     --------------------
                     INTERNAL COORDINATES
                     --------------------

                 - - ATOMS - -         COORDINATE      COORDINATE
 NO.   TYPE    I  J  K  L  M  N        (BOHR,RAD)       (ANG,DEG)
 ----------------------------------------------------------------
   1 STRETCH   1  2                     2.8943579       1.5316283
   2 STRETCH   1  3                     2.9078918       1.5387902
   3 STRETCH   1  7                     2.0528315       1.0863117
   4 STRETCH   1  6                     2.0582961       1.0892034
   5 STRETCH   2  8                     2.0631473       1.0917706
   6 STRETCH   2  9                     2.8795113       1.5237718
   7 STRETCH   2  4                     2.8984262       1.5337812
   8 STRETCH   3 11                     2.0521535       1.0859529
   9 STRETCH   3  5                     2.9354090       1.5533516
  10 STRETCH   3 10                     2.0501213       1.0848775
  11 STRETCH   4 13                     2.0587312       1.0894337
  12 STRETCH   4 12                     2.0497037       1.0846566
  13 STRETCH   4  5                     2.9088179       1.5392802
  14 STRETCH   5 15                     2.0517043       1.0857152
  15 STRETCH   5 14                     2.0503683       1.0850083
  16 STRETCH   9 18                     2.8868983       1.5276809
  17 STRETCH   9 17                     2.0593567       1.0897647
  18 STRETCH   9 16                     2.0606033       1.0904244
  19 STRETCH  18 21                     2.8799051       1.5239803
  20 STRETCH  18 20                     2.0557328       1.0878470
  21 STRETCH  18 19                     2.0595733       1.0898793
  22 STRETCH  21 24                     2.8841432       1.5262229
  23 STRETCH  21 23                     2.0589027       1.0895245
  24 STRETCH  21 22                     2.0592675       1.0897175
  25 STRETCH  24 27                     2.8852526       1.5268101
  26 STRETCH  24 26                     2.0580128       1.0890536
  27 STRETCH  24 25                     2.0578548       1.0889700
  28 STRETCH  27 30                     2.0519717       1.0858567
  29 STRETCH  27 29                     2.0548415       1.0873754
  30 STRETCH  27 28                     2.0549643       1.0874403
  31 BEND      1  3  5                  1.8432327     105.6094538
  32 BEND      1  3 10                  1.9543631     111.9767585
  33 BEND      1  3 11                  1.9201964     110.0191489
  34 BEND      1  2  9                  2.0024831     114.7338322
  35 BEND      1  2  8                  1.8831004     107.8937036
  36 BEND      1  2  4                  1.7843956     102.2383383
  37 BEND      2  9 16                  1.9031291     109.0412669
  38 BEND      2  4  5                  1.8271226     104.6864133
  39 BEND      2  4 12                  1.9795790     113.4215199
  40 BEND      2  1  6                  1.9073100     109.2808138
  41 BEND      2  9 17                  1.9089129     109.3726510
  42 BEND      2  9 18                  1.9813202     113.5212859
  43 BEND      2  4 13                  1.8994828     108.8323487
  44 BEND      2  1  3                  1.8216085     104.3704784
  45 BEND      2  1  7                  1.9686776     112.7969166
  46 BEND      3  5 14                  1.9559600     112.0682515
  47 BEND      3  5 15                  1.9271047     110.4149654
  48 BEND      3  5  4                  1.8460728     105.7721793
  49 BEND      3  1  6                  1.9254820     110.3219907
  50 BEND      3  1  7                  1.9678622     112.7501963
  51 BEND      4  2  8                  1.8896241     108.2674880
  52 BEND      4  5 15                  1.9244464     110.2626543
  53 BEND      4  2  9                  2.0051988     114.8894277
  54 BEND      4  5 14                  1.9457261     111.4818909
  55 BEND      5  4 12                  1.9602087     112.3116880
  56 BEND      5  4 13                  1.9259408     110.3482802
  57 BEND      5  3 10                  1.9565707     112.1032410
  58 BEND      5  3 11                  1.9234574     110.2059927
  59 BEND      6  1  7                  1.8728752     107.3078472
  60 BEND      8  2  9                  1.8921765     108.4137252
  61 BEND      9 18 19                  1.9073436     109.2827405
  62 BEND      9 18 20                  1.9140385     109.6663306
  63 BEND      9 18 21                  1.9631367     112.4794450
  64 BEND     10  3 11                  1.8668511     106.9626879
  65 BEND     12  4 13                  1.8713490     107.2203969
  66 BEND     14  5 15                  1.8656063     106.8913691
  67 BEND     16  9 17                  1.8564206     106.3650628
  68 BEND     16  9 18                  1.9081633     109.3297053
  69 BEND     17  9 18                  1.9017668     108.9632106
  70 BEND     18 21 22                  1.9002287     108.8750829
  71 BEND     18 21 23                  1.9075911     109.2969189
  72 BEND     18 21 24                  1.9892328     113.9746446
  73 BEND     19 18 20                  1.8580625     106.4591407
  74 BEND     19 18 21                  1.9158882     109.7723086
  75 BEND     20 18 21                  1.9024131     109.0002406
  76 BEND     21 24 25                  1.9117980     109.5379566
  77 BEND     21 24 26                  1.9105823     109.4683027
  78 BEND     21 24 27                  1.9521889     111.8521849
  79 BEND     22 21 23                  1.8565165     106.3705621
  80 BEND     22 21 24                  1.9010912     108.9244996
  81 BEND     23 21 24                  1.9045425     109.1222462
  82 BEND     24 27 28                  1.9299935     110.5804833
  83 BEND     24 27 29                  1.9310459     110.6407799
  84 BEND     24 27 30                  1.9500772     111.7311925
  85 BEND     25 24 26                  1.8576121     106.4333330
  86 BEND     25 24 27                  1.9157026     109.7616718
  87 BEND     26 24 27                  1.9135522     109.6384659
  88 BEND     28 27 29                  1.8807959     107.7616654
  89 BEND     28 27 30                  1.8846194     107.9807393
  90 BEND     29 27 30                  1.8850035     108.0027444
  91 TORSION   1  2  4  5               0.6867217      39.3462563
  92 TORSION   1  2  4 12               2.8294322     162.1145231
  93 TORSION   1  2  4 13              -1.3724489     -78.6355279
  94 TORSION   1  3  5 14               2.0915440     119.8366460
  95 TORSION   1  2  9 16               1.0432934      59.7763111
  96 TORSION   1  3  5 15              -2.1139873    -121.1225498
  97 TORSION   1  3  5  4              -0.0321142      -1.8400053
  98 TORSION   1  2  9 17              -0.9801082     -56.1560607
  99 TORSION   1  2  9 18              -3.1079990    -178.0752268
 100 TORSION   2  1  3 10               2.5922769     148.5265247
 101 TORSION   2  9 18 19               0.9960315      57.0683990
 102 TORSION   2  9 18 20              -1.0345996     -59.2781902
 103 TORSION   2  9 18 21               3.1285302     179.2515782
 104 TORSION   2  1  3  5               0.4581022      26.2473228
 105 TORSION   2  1  3 11              -1.6173176     -92.6654747
 106 TORSION   2  4  5 14              -2.5355234    -145.2747906
 107 TORSION   2  4  5 15               1.6783383      96.1617017
 108 TORSION   2  4  5  3              -0.4052884     -23.2213165
 109 TORSION   3  1  2  9              -2.8890336    -165.5294310
 110 TORSION   3  1  2  4              -0.7067627     -40.4945184
 111 TORSION   3  1  2  8               1.2832879      73.5269822
 112 TORSION   3  5  4 12              -2.5605175    -146.7068462
 113 TORSION   3  5  4 13               1.6357644      93.7223989
 114 TORSION   4  2  9 16              -1.0179449     -58.3239443
 115 TORSION   4  2  9 18               1.1139480      63.8245178
 116 TORSION   4  2  1  6               1.3526930      77.5035982
 117 TORSION   4  2  1  7              -2.8488456    -163.2268319
 118 TORSION   4  2  9 17              -3.0413465    -174.2563161
 119 TORSION   4  5  3 10              -2.1648718    -124.0380164
 120 TORSION   4  5  3 11               2.0411380     116.9485940
 121 TORSION   5  3  1  6              -1.5888594     -91.0349360
 122 TORSION   5  3  1  7               2.6007174     149.0101326
 123 TORSION   5  4  2  9               2.8671985     164.2783741
 124 TORSION   5  4  2  8              -1.2985189     -74.3996526
 125 TORSION   6  1  2  9              -0.8295779     -47.5313144
 126 TORSION   6  1  3 11               2.6189061     150.0522665
 127 TORSION   6  1  2  8              -2.9404417    -168.4749012
 128 TORSION   6  1  3 10               0.5453153      31.2442659
 129 TORSION   7  1  2  9               1.2520688      71.7382554
 130 TORSION   7  1  3 11               0.5252976      30.0973352
 131 TORSION   7  1  2  8              -0.8587950     -49.2053314
 132 TORSION   7  1  3 10              -1.5482932     -88.7106654
 133 TORSION   8  2  9 16              -3.1340202    -179.5661285
 134 TORSION   8  2  4 13               2.9254958     167.6185632
 135 TORSION   8  2  9 18              -1.0021273     -57.4176664
 136 TORSION   8  2  9 17               1.1257635      64.5014997
 137 TORSION   8  2  4 12               0.8441916      48.3686143
 138 TORSION   9 18 21 22               1.0097793      57.8560943
 139 TORSION   9 18 21 23              -1.0113933     -57.9485673
 140 TORSION   9 18 21 24               3.1358241     179.6694846
 141 TORSION   9  2  4 13               0.8080279      46.2965899
[...]
 726  23   8.967508   5.996941 -10.143940  -0.000278   0.510910  -0.000544
 727  23   9.747611   6.705956  -9.200796   0.000179   0.510910   0.000350
 728  17   7.557077   5.406188  -9.464080  -0.000197   0.510910  -0.000386
 729  17   8.143329   6.493306  -8.774683  -0.000210   0.510910  -0.000411
 730  17   8.844540   6.842859  -7.916858   0.000341   0.255475   0.001335
 731  18   8.590610   2.437509 -10.898746   0.000048   0.027686   0.001727
 732  19   8.468818   2.159704 -10.926758   0.000006   0.027686   0.000215
 733  21   8.969557   2.695631 -11.090236   0.000066   0.027686   0.002376
 734  18  10.360347  -1.392422  -9.801120   0.000187   0.067042   0.002791
 735  19  10.093783  -1.333012  -9.939579   0.000021   0.067042   0.000320
 736  24  11.039455  -1.317741 -10.296551   0.000265   0.067042   0.003956
 737  19   9.488399  -1.581018  -9.615921   0.000025   0.076088   0.000329
 738  19   8.598605  -1.698715  -8.801900  -0.000137   0.172265  -0.000798
 739  18   9.466199  -1.725369  -9.006704   0.000263   0.163809   0.001608
 740  18   8.442338  -1.746481  -8.147106   0.000177   0.092958   0.001903
 741  19   7.267753   2.014413 -10.206536  -0.000064   0.072182  -0.000884
 742  19   7.968330   1.990340 -10.768744  -0.000056   0.072182  -0.000771
 743  18   7.744315   2.369738 -10.346018  -0.000147   0.157208  -0.000935
 744  18  13.053425   1.278630  -5.250819   0.000018   0.028465   0.000622
 745  20  13.000771   0.983153  -5.204488  -0.000014   0.028465  -0.000492
 746  21  13.380928   1.550121  -5.507641   0.000040   0.028465   0.001411
 747  18  11.805867  -1.735773  -8.050667   0.000219   0.089805   0.002436
 748  20  11.893765  -1.779636  -7.759946  -0.000069   0.089805  -0.000772
 749  26  12.740189  -1.700659  -8.421402   0.000239   0.089805   0.002660
 750  20  10.801109  -2.124281  -7.121610  -0.000207   0.130546  -0.001586
 751  18  10.848427  -2.007240  -7.620372   0.000217   0.159490   0.001360
 752  20  12.622509   0.752789  -4.755822  -0.000172   0.093420  -0.001840
 753  18  12.474978   1.198622  -4.667695  -0.000053   0.114133  -0.000461
 754  18  13.131344   2.046748  -5.203333   0.000040   0.028750   0.001379
 755  21  13.510203   2.304475  -5.395615   0.000010   0.028750   0.000363
 756  22  13.625580   2.584153  -5.360383  -0.000017   0.028750  -0.000600
 757  18   8.697481   3.255566 -10.757062   0.000063   0.028239   0.002247
 758  21   9.024712   3.527368 -11.013884   0.000043   0.028239   0.001523
 759  23   9.080177   3.822998 -11.061121   0.000001   0.028239   0.000038
 760  21  13.538826   2.012878  -5.444001   0.000128   0.073088   0.001753
 761  18  13.059926   1.560327  -5.159547   0.000141   0.073088   0.001927
 762  21   9.062817   3.133436 -11.164069   0.000206   0.086218   0.002392
 763  18   8.519190   2.840103 -10.794591   0.000214   0.086218   0.002481
 764  22  13.503841   3.009602  -5.120776  -0.000144   0.140804  -0.001020
 765  18  12.853783   2.133188  -4.870480   0.000408   0.198568   0.002056
 766  23   8.974685   4.163655 -10.976322  -0.000089   0.138740  -0.000643
 767  18   8.282274   3.448879 -10.457600   0.000427   0.195631   0.002180
 768  18  12.085753  -1.670588  -8.480941   0.000270   0.067543   0.003996
 769  24  12.746359  -1.761710  -8.998220   0.000160   0.067543   0.002371
 770  26  13.012676  -1.796781  -8.851961   0.000015   0.067543   0.000221
 771  24  12.129080  -1.736151  -9.643405   0.001447   0.538750   0.002686
 772  18  10.951648  -1.664080  -9.190277   0.001594   0.538750   0.002959
 773  19   9.272013   1.530854 -11.424590   0.000034   0.166468   0.000201
 774  21   9.773197   2.037012 -11.676845   0.000198   0.166468   0.001192
 775  25  10.128887   1.527183 -12.105275   0.000054   0.166468   0.000327
 776  21   9.321597   2.511442 -11.475205   0.000427   0.200073   0.002136
 777  19   8.507351   1.832657 -11.095355  -0.000078   0.141919  -0.000550
 778  19  10.394308  -1.187534 -10.347130   0.000258   0.090178   0.002865
 779  24  11.311468  -1.328400 -10.746702   0.000165   0.090178   0.001831
 780  25  11.231854  -1.278946 -11.039453  -0.000072   0.090178  -0.000797
 781  24  11.287430  -1.529034 -10.616573   0.000070   0.008514   0.008218
 782  19   9.913631  -1.415509 -10.049023   0.000029   0.005986   0.004805
 783  25  10.965020  -1.342085 -11.410914   0.000414   0.252709   0.001637
 784  25  10.410829  -0.662925 -12.112364  -0.000124   0.505253  -0.000245
 785  25  10.109930   0.615872 -12.498154  -0.000076   0.505253  -0.000151
 786  19   9.520808  -1.100963 -10.722350   0.000241   0.505253   0.000477
 787  19   8.969996  -0.060540 -11.421506  -0.000154   0.505253  -0.000306
 788  19   8.867230   1.049200 -11.556915   0.000223   0.252709   0.000883
 789  20  13.561033   0.407648  -6.033136   0.000023   0.165322   0.000141
 790  21  14.018874   0.924190  -6.329386   0.000165   0.165322   0.000995
 791  26  14.406483   0.397926  -6.706617  -0.000018   0.165322  -0.000111
 792  21  13.749391   1.432866  -5.735258   0.000421   0.204503   0.002060
 793  20  13.173947   0.536253  -5.389504  -0.000150   0.145018  -0.001035
 794  26  14.694353  -0.179663  -6.707313   0.000158   0.254809   0.000621
 795  26  14.359982  -1.193853  -7.112740  -0.000282   0.509504  -0.000554
 796  26  13.606697  -1.896015  -8.049094   0.000151   0.509504   0.000297
 797  20  13.378162  -0.567142  -5.881928  -0.000193   0.509504  -0.000380
 798  20  12.815794  -1.636405  -6.573048  -0.000180   0.509504  -0.000354
 799  20  12.136399  -1.987172  -7.421659   0.000414   0.254809   0.001624
 800  21  15.042966   2.294709  -6.610334   0.000035   0.028717   0.001223
 801  22  15.052879   2.575032  -6.491626  -0.000004   0.028717  -0.000144
 802  24  15.314741   2.031675  -6.933775   0.000053   0.028717   0.001830
 803  21  14.349462   6.218098  -8.600714   0.000189   0.067929   0.002786
 804  22  14.437451   6.156302  -8.313958   0.000010   0.067929   0.000147
 805  27  14.987498   6.150978  -9.133884   0.000260   0.067929   0.003833
 806  22  14.116280   2.762601  -5.511378  -0.000068   0.069496  -0.000984
 807  22  14.795209   2.758564  -6.049343  -0.000062   0.069496  -0.000887
 808  21  14.336729   2.391330  -5.927792  -0.000151   0.152522  -0.000988
 809  22  13.978602   6.388483  -7.790150   0.000043   0.078557   0.000542
 810  22  12.983811   6.450519  -7.038873  -0.000184   0.179349  -0.001026
 811  21  13.359558   6.516182  -7.866760   0.000275   0.167851   0.001636
 812  21  12.298468   6.468290  -6.990279   0.000257   0.095975   0.002675
 813  21  10.608285   3.510639 -12.269422   0.000024   0.028470   0.000840
 814  23  10.553690   3.807511 -12.229471  -0.000008   0.028470  -0.000268
 815  24  10.931099   3.233595 -12.527672   0.000043   0.028470   0.001496
 816  21  13.096148   6.555362 -10.206416   0.000196   0.067459   0.002907
 817  23  12.834338   6.588181 -10.361612  -0.000017   0.067459  -0.000256
 818  27  13.755087   6.481920 -10.712595   0.000243   0.067459   0.003606
 819  23  10.096076   4.040856 -12.021999  -0.000062   0.072478  -0.000859
 820  23   9.388861   4.048753 -11.461131  -0.000059   0.072478  -0.000811
 821  21   9.777241   3.636274 -11.691967  -0.000136   0.157675  -0.000860
 822  23  10.906273   6.861238  -8.904243   0.000046   0.078653   0.000584
 823  23  11.917620   6.901688  -9.637542  -0.000189   0.179653  -0.001054
 824  21  11.536000   6.833495  -8.811589   0.000204   0.167981   0.001215
 825  21  12.593403   6.787528  -9.695578   0.000226   0.096092   0.002357
 826  21  10.557641   2.714019 -12.345811   0.000044   0.027930   0.001577
 827  24  10.829053   2.450958 -12.669498   0.000014   0.027930   0.000513
 828  25  10.824476   2.172770 -12.792480  -0.000015   0.027930  -0.000543
 829  21  14.929281   1.498028  -6.749533   0.000053   0.028020   0.001888
 830  24  15.252037   1.220692  -7.007516   0.000032   0.028020   0.001151
 831  26  15.309080   0.924938  -7.050359  -0.000007   0.028020  -0.000242
 832  24  15.403631   1.599352  -7.006375   0.000173   0.082054   0.002111
 833  21  14.923805   1.905371  -6.565167   0.000182   0.082054   0.002221
 834  24  10.890015   2.752411 -12.689287   0.000143   0.079137   0.001804
 835  21  10.510920   3.217870 -12.292421   0.000166   0.079137   0.002102
 836  25  10.554919   1.731249 -12.717332  -0.000154   0.149605  -0.001028
 837  21  10.163022   2.616590 -12.142611   0.000462   0.210903   0.002190
 838  26  15.205418   0.591269  -6.967928  -0.000102   0.134581  -0.000759
 839  21  14.550387   1.319472  -6.416647   0.000392   0.189753   0.002068
 840  27  14.625761   6.552681 -10.306940   0.001455   0.508586   0.002860
 841  21  13.906263   6.479767  -9.293237   0.001465   0.508586   0.002881
 842  22  15.735872   3.184954  -7.140671  -0.000067   0.166820  -0.000404
 843  24  16.080580   2.668461  -7.565242   0.000103   0.166820   0.000618
 844  28  16.584681   3.188301  -7.796429  -0.000081   0.166820  -0.000483
 845  24  15.773094   2.196849  -7.182370   0.000360   0.194640   0.001850
 846  22  15.233117   2.894200  -6.490940  -0.000105   0.138026  -0.000764
 847  22  14.989796   5.980762  -8.445035   0.000225   0.087438   0.002570
 848  27  15.581795   6.121683  -9.221779   0.000098   0.087438   0.001119
 849  28  15.846721   6.066340  -9.077926  -0.000096   0.087438  -0.001102
 850  27  15.391179   6.341070  -9.270076   0.000241   0.053163   0.004531
 851  22  14.560154   6.210796  -8.080846   0.000079   0.037469   0.002104
 852  28  16.145033   6.112104  -8.730477   0.000321   0.250624   0.001283
 853  28  16.686732   5.405703  -8.031090  -0.000430   0.501144  -0.000859
 854  28  16.970636   4.104374  -7.668915  -0.000387   0.501144  -0.000773
 855  22  15.153088   5.861240  -7.515856   0.000079   0.501144   0.000158
 856  22  15.687334   4.790514  -6.827848  -0.000282   0.501144  -0.000562
 857  22  15.776655   3.667405  -6.717253   0.000136   0.250624   0.000541
 858  23  11.495084   4.377673 -12.581097  -0.000008   0.167139  -0.000049
 859  24  11.885459   3.853298 -12.955171   0.000111   0.167139   0.000666
 860  29  12.345298   4.387630 -13.240244  -0.000121   0.167139  -0.000726
 861  24  11.239435   3.345971 -12.833989   0.000415   0.205077   0.002022
 862  23  10.778782   4.251703 -12.356400  -0.000141   0.145447  -0.000970
 863  23  13.092591   6.501630 -10.841930   0.000206   0.087833   0.002351
 864  27  14.015829   6.553844 -11.196830   0.000101   0.087833   0.001147
 865  29  13.940517   6.597432 -11.490711  -0.000012   0.087833  -0.000142
 866  27  14.034289   6.708669 -11.001310   0.000142   0.028326   0.005001
 867  23  12.676177   6.725296 -10.460472   0.000027   0.019957   0.001377
 868  29  12.414107   4.966949 -13.519310   0.000062   0.252005   0.000247
 869  29  12.723291   5.977835 -13.105888  -0.000505   0.503902  -0.001003
 870  29  13.446347   6.688617 -12.164288  -0.000018   0.503902  -0.000035
 871  23  11.305455   5.352270 -12.442211  -0.000154   0.503902  -0.000305
 872  23  11.835869   6.422105 -11.743109  -0.000169   0.503902  -0.000336
 873  23  12.493169   6.784156 -10.891476   0.000347   0.252005   0.001378
 874  24  12.415130   2.466521 -13.900599   0.000055   0.027658   0.002000
 875  25  12.300213   2.187338 -13.937717   0.000016   0.027658   0.000568
 876  27  12.791551   2.738913 -14.079290   0.000100   0.027658   0.003625
 877  24  14.438596  -0.042571 -13.842807   0.000040   0.027658   0.001463
 878  25  14.142298  -0.096843 -13.885106   0.000021   0.027658   0.000745
 879  27  14.788581   0.262601 -14.022253   0.000068   0.027658   0.002472
 880  25  13.854847  -0.532282 -13.741219  -0.000048   0.069066  -0.000690
 881  25  13.556065  -1.309994 -13.009600  -0.000170   0.153061  -0.001112
 882  25  12.701057  -1.742712 -12.071650  -0.000035   0.153061  -0.000227
 883  25  11.784198  -1.580233 -11.469702  -0.000053   0.069066  -0.000773
 884  24  14.160298  -0.818811 -13.314207  -0.000040   0.151690  -0.000264
 885  24  13.513089  -1.679310 -12.260666   0.000231   0.151690   0.001520
 886  24  12.340096  -1.740011 -11.317433   0.000167   0.151690   0.001104
 887  25  11.092024   1.996407 -13.241771  -0.000071   0.072023  -0.000982
 888  25  11.801248   2.002588 -13.792402  -0.000058   0.072023  -0.000812
 889  24  11.562212   2.365125 -13.364118  -0.000178   0.156832  -0.001133
 890  24  16.794033  -0.705984 -10.818681   0.000051   0.027818   0.001850
 891  26  16.744520  -0.828631 -10.544709   0.000015   0.027818   0.000532
 892  27  17.119486  -0.393937 -11.029706   0.000104   0.027818   0.003744
 893  24  16.821056   1.237978  -8.226735   0.000035   0.027818   0.001275
 894  26  16.769122   0.941131  -8.185028   0.000014   0.027818   0.000490
 895  27  17.146157   1.524680  -8.471554   0.000063   0.027818   0.002254
 896  26  16.463478   0.701891  -7.797568  -0.000057   0.071077  -0.000802
 897  26  15.763711   0.694767  -7.253661  -0.000071   0.071077  -0.001005
 898  24  16.075318   1.107720  -7.569497  -0.000155   0.155210  -0.001000
 899  26  13.544696  -2.072674  -9.218866   0.000012   0.068871   0.000176
 900  26  14.320871  -2.194709  -9.996840  -0.000063   0.152532  -0.000413
 901  26  15.517107  -1.859040 -10.491760  -0.000197   0.152532  -0.001294
 902  26  16.443137  -1.259360 -10.418041  -0.000068   0.068871  -0.000986
 903  24  13.516057  -2.068797  -9.815513   0.000173   0.151355   0.001146
 904  24  14.726087  -2.018340 -10.704761   0.000211   0.151355   0.001393
 905  24  16.063593  -1.353949 -10.869508  -0.000047   0.151355  -0.000309
 906  24  16.876748   2.034312  -8.147542   0.000033   0.026490   0.001250
 907  27  17.253576   2.306275  -8.325937  -0.000001   0.026490  -0.000053
 908  28  17.377913   2.581060  -8.292928  -0.000034   0.026490  -0.001268
 909  24  12.502324   3.291510 -13.733300   0.000046   0.026405   0.001758
 910  27  12.826857   3.578503 -13.978451   0.000023   0.026405   0.000861
 911  29  12.887151   3.871606 -14.028355  -0.000020   0.026405  -0.000750
 912  24  16.887359  -0.541006 -11.514088   0.000091   0.024766   0.003675
 913  27  17.264581  -0.297821 -11.729279   0.000035   0.024766   0.001426
 914  30  17.400855  -0.251473 -11.995438  -0.000003   0.024766  -0.000124
 915  24  15.134671  -0.039899 -13.755338   0.000055   0.024766   0.002227
 916  27  15.487956   0.210130 -14.001138   0.000027   0.024766   0.001098
 917  30  15.784210   0.210739 -14.062723   0.000000   0.024766   0.000003
 918  27  17.287575   2.007298  -8.383595   0.000138   0.079818   0.001723
 919  24  16.816904   1.529171  -8.122316   0.000167   0.079818   0.002098
 920  27  17.307248  -0.317203 -11.396974   0.000171   0.063137   0.002702
 921  24  16.773994  -0.734757 -11.159797   0.000193   0.063137   0.003064
 922  27  15.242995   0.244311 -14.074209   0.000138   0.058925   0.002342
 923  24  14.687714  -0.118713 -13.801997   0.000150   0.058925   0.002548
 924  27  12.873981   3.185290 -14.137404   0.000221   0.088812   0.002486
 925  24  12.329849   2.871194 -13.782646   0.000206   0.088812   0.002319
 926  28  17.260008   2.996020  -8.056871  -0.000211   0.140065  -0.001505
 927  24  16.599336   2.107402  -7.822048   0.000386   0.197404   0.001954
 928  29  12.785085   4.200613 -13.951306  -0.000170   0.133627  -0.001269
 929  24  12.091254   3.459899 -13.450613   0.000358   0.188338   0.001899
 930  30  17.315499  -0.336260 -12.423801  -0.000191   0.194070  -0.000983
 931  30  16.471192  -0.162233 -13.517327  -0.000915   0.396321  -0.002309
 932  24  16.180761  -0.797345 -12.245974   0.000913   0.532484   0.001714
 933  24  15.221242  -0.461634 -13.460324   0.000720   0.273286   0.002633
 934  27  14.686742   0.670961 -14.403188   0.000759   0.300872   0.002522
 935  27  13.596884   2.028906 -14.511548   0.000987   0.583107   0.001693
 936  25  13.396981   0.576399 -14.204307  -0.000993   0.439256  -0.002260
 937  25  12.430911   1.767161 -14.147107  -0.000124   0.213595  -0.000581
 938  27  17.556588   1.320500  -8.810744   0.000783   0.302351   0.002590
 939  27  17.616801   0.251281 -10.199104   0.001022   0.585792   0.001745
 940  26  16.994314   0.138076  -8.838392  -0.001031   0.441601  -0.002334
 941  26  16.899326  -0.765745 -10.084396  -0.000155   0.214640  -0.000723
 942  28  17.862033   2.754673  -8.430017  -0.000073   0.066787  -0.001098
 943  28  18.675645   2.813836  -9.132822  -0.000201   0.147154  -0.001369
 944  28  19.320192   3.456826 -10.066310  -0.000142   0.147154  -0.000963
 945  28  19.334372   4.553776 -10.771135  -0.000163   0.147154  -0.001106
 946  28  18.712717   5.681636 -10.975474  -0.000220   0.147154  -0.001496
 947  28  17.694975   6.405438 -10.600521  -0.000099   0.147154  -0.000674
 948  28  16.673646   6.446039  -9.790881  -0.000196   0.147154  -0.001335
 949  27  18.058299   2.369647  -8.830237  -0.000117   0.147496  -0.000792
 950  27  19.045876   2.714848  -9.856083   0.000060   0.147496   0.000404
 951  27  19.435216   3.743240 -10.824409   0.000166   0.147496   0.001127
 952  27  19.076168   5.058214 -11.361770   0.000006   0.147496   0.000043
 953  27  18.107202   6.152639 -11.260929   0.000014   0.147496   0.000097
 954  27  16.902008   6.604440 -10.560775   0.000213   0.147496   0.001446
 955  27  16.045259   6.436951  -9.754233   0.000095   0.081595   0.001160
 956  29  14.544607   6.874200 -11.830544  -0.000030   0.066969  -0.000447
 957  29  15.478285   6.998057 -12.358254  -0.000131   0.147639  -0.000885
 958  29  16.270859   6.683006 -13.348948  -0.000175   0.147639  -0.001186
 959  29  16.383077   5.926299 -14.408998  -0.000228   0.147639  -0.001542
 960  29  15.771418   5.021404 -15.127291  -0.000118   0.147639  -0.000796
 961  29  14.673099   4.319262 -15.225255  -0.000149   0.147639  -0.001012
 962  29  13.514074   4.092181 -14.664898  -0.000321   0.147639  -0.002174
 963  27  15.102675   6.874130 -11.639930   0.000035   0.147815   0.000240
 964  27  16.260348   6.834956 -12.543199   0.000074   0.147815   0.000502
 965  27  16.795276   6.201316 -13.755631   0.000030   0.147815   0.000204
 966  27  16.499999   5.218950 -14.807015   0.000096   0.147815   0.000649
 967  27  15.489033   4.268845 -15.289600   0.000164   0.147815   0.001109
 968  27  14.154456   3.719474 -15.016226   0.000020   0.147815   0.000138
 969  27  13.165879   3.669483 -14.352674   0.000004   0.081817   0.000043
 970  30  16.059844   0.459298 -14.456175  -0.000080   0.069899  -0.001149
 971  30  16.278001   1.372561 -15.078205  -0.000234   0.155611  -0.001503
 972  30  17.053366   2.468127 -15.303182  -0.000189   0.155611  -0.001214
 973  30  18.137022   3.132774 -14.817380  -0.000202   0.155611  -0.001300
 974  30  19.069110   3.084452 -13.826952  -0.000289   0.155611  -0.001856
 975  30  19.454089   2.343668 -12.752196  -0.000161   0.155611  -0.001036
 976  30  19.128590   1.224780 -12.049195  -0.000211   0.155611  -0.001358
 977  30  18.230742   0.202599 -12.016273  -0.000338   0.155611  -0.002171
 978  27  15.713536   0.908941 -14.654599  -0.000119   0.152825  -0.000777
 979  27  16.256125   2.190342 -15.287396   0.000105   0.152825   0.000687
 980  27  17.360437   3.235959 -15.132459   0.000178   0.152825   0.001164
 981  27  18.557847   3.602074 -14.255535  -0.000034   0.152825  -0.000219
 982  27  19.340223   3.133322 -13.028757   0.000014   0.152825   0.000089
 983  27  19.375556   2.028624 -11.972718   0.000170   0.152825   0.001112
 984  27  18.648852   0.756767 -11.535559  -0.000005   0.152825  -0.000031
 985  27  17.731802  -0.064598 -11.707575   0.000005   0.085397   0.000058
 =====================================================

              8606580  WORDS OF DYNAMIC MEMORY USED
 EXECUTION OF GAMESS TERMINATED NORMALLY Fri Nov 25 10:07:01 2016
 DDI: 263640 bytes (0.3 MB / 0 MWords) used by master data server.

 ----------------------------------------
 CPU timing information for all processes
 ========================================
 0: 3675.500 + 1.196 = 3676.696
 ----------------------------------------
 ddikick.x: exited gracefully.
