----- GAMESS execution script -----

          ******************************************************
          *         GAMESS VERSION =  5 DEC 2014 (R1)          *
          *             FROM IOWA STATE UNIVERSITY             *
          * M.W.SCHMIDT, K.K.BALDRIDGE, J.A.BOATZ, S.T.ELBERT, *
          *   M.S.GORDON, J.H.JENSEN, S.KOSEKI, N.MATSUNAGA,   *
          *          K.A.NGUYEN, S.J.SU, T.L.WINDUS,           *
          *       TOGETHER WITH M.DUPUIS, J.A.MONTGOMERY       *
          *         J.COMPUT.CHEM.  14, 1347-1363(1993)        *
          **************** 64 BIT LINUX VERSION ****************

 EXECUTION OF GAMESS BEGUN Fri Nov 25 09:00:41 2016

            ECHO OF THE FIRST FEW INPUT CARDS -
 INPUT CARD>! SELECT RESTRICTED HARTREE-FOCK AS DEFAULT                                     
 INPUT CARD>$contrl scftyp=rhf $end                                                         
 INPUT CARD>                                                                                
 INPUT CARD>! THEORY: HF OR DFT                                                             
 INPUT CARD> $contrl mplevl=0 $end                                                          
 INPUT CARD>                                                                                
 INPUT CARD> $system timlim=10000 mwords=20 $end                                            
 INPUT CARD> $SCF DIRSCF=.TRUE. $end                                                        
 INPUT CARD>                                                                                
 INPUT CARD>                                                                                
 INPUT CARD>! BASIS SETS                                                                    
 INPUT CARD>! 6-311G(d,p)                                                                   
 INPUT CARD> $BASIS GBASIS=N311 NGAUSS=6 NDFUNC=1 NPFUNC=1 $END                             
 INPUT CARD>                                                                                
 INPUT CARD>! One of the following                                                          
 INPUT CARD> $guess guess=HUCKEL $end                                                       
 INPUT CARD>                                                                                
 INPUT CARD> $statpt projct=.FALSE. $end                                                    
 INPUT CARD> $STATPT IFREEZ(1)=1,2,3 $END                                                   
 INPUT CARD>                                                                                
 INPUT CARD>! Optimize the geometry with COSMO effects                                      
 INPUT CARD> $statpt opttol=0.0005 nstep=50 $end                                            
 INPUT CARD> $contrl nzvar=1 $end                                                           
 INPUT CARD> $zmat dlc=.t. auto=.t. $end                                                    
 INPUT CARD> $contrl runtyp=OPTIMIZE maxit=200 $end                                         
 INPUT CARD>                                                                                
 INPUT CARD>! Run COSMO on perfect conductor                                                
 INPUT CARD> $COSGMS PRFCND=.TRUE. $end                                                     
 INPUT CARD>                                                                                
 INPUT CARD>! Specifying RSOLV                                                              
 INPUT CARD> $COSGMS COSRAD = 1.4 $end                                                      
 INPUT CARD>                                                                                
 INPUT CARD>! available memory                                                              
 INPUT CARD> $SYSTEM MWORDS=40 $END                                                         
 INPUT CARD>                                                                                
 INPUT CARD> $DATA                                                                          
 INPUT CARD>http://cactus.nci.nih.gov/chemical/structure/PENTACHLOROETHANE/file?format=sdf&g
 INPUT CARD>C1                                                                              
 INPUT CARD>Cl    17.0     -1.6814000000    1.4721000000   -0.2061000000                    
 INPUT CARD>C      6.0     -0.7670000000   -0.0000000000   -0.7035000000                    
 INPUT CARD>C      6.0      0.6059000000    0.0000000000   -0.0283000000                    
 INPUT CARD>Cl    17.0      0.3950000000    0.0000000000    1.7623000000                    
 INPUT CARD>Cl    17.0      1.5203000000   -1.4721000000   -0.5257000000                    
 INPUT CARD>Cl    17.0      1.5203000000    1.4721000000   -0.5257000000                    
 INPUT CARD>Cl    17.0     -1.6814000000   -1.4721000000   -0.2061000000                    
 INPUT CARD>H      1.0     -0.6395000000    0.0000000000   -1.7860000000                    
 INPUT CARD> $END                                                                           
 INPUT CARD>                                                                                
 INPUT CARD>                                                                                
   40000000 WORDS OF MEMORY AVAILABLE

     BASIS OPTIONS
     -------------
     GBASIS=N311         IGAUSS=       6      POLAR=POPN311 
     NDFUNC=       1     NFFUNC=       0     DIFFSP=       F
     NPFUNC=       1      DIFFS=       F     BASNAM=        


     RUN TITLE
     ---------
 http://cactus.nci.nih.gov/chemical/structure/PENTACHLOROETHANE/file?format=sdf&g

 THE POINT GROUP OF THE MOLECULE IS C1      
 THE ORDER OF THE PRINCIPAL AXIS IS     0

 ATOM      ATOMIC                      COORDINATES (BOHR)
           CHARGE         X                   Y                   Z
 CL         17.0    -3.1773852758        2.7818656265       -0.3894725261
 C           6.0    -1.4494198326       -0.0000000000       -1.3294222324
 C           6.0     1.1449849760        0.0000000000       -0.0534792455
 CL         17.0     0.7464417652        0.0000000000        3.3302641082
 CL         17.0     2.8729504191       -2.7818656265       -0.9934289517
 CL         17.0     2.8729504191        2.7818656265       -0.9934289517
 CL         17.0    -3.1773852758       -2.7818656265       -0.3894725261
 H           1.0    -1.2084797691        0.0000000000       -3.3750506141

          INTERNUCLEAR DISTANCES (ANGS.)




     $CONTRL OPTIONS
     ---------------
 SCFTYP=RHF          RUNTYP=OPTIMIZE     EXETYP=RUN     
 MPLEVL=       0     CITYP =NONE         CCTYP =NONE         VBTYP =NONE    
 DFTTYP=NONE         TDDFT =NONE    
 MULT  =       1     ICHARG=       0     NZVAR =       1     COORD =UNIQUE  
 PP    =NONE         RELWFN=NONE         LOCAL =NONE         NUMGRD=       F
 ISPHER=      -1     NOSYM =       0     MAXIT =     200     UNITS =ANGS    
 PLTORB=       F     MOLPLT=       F     AIMPAC=       F     FRIEND=        
 NPRINT=       7     IREST =       0     GEOM  =INPUT   
 NORMF =       0     NORMP =       0     ITOL  =      20     ICUT  =       9
 INTTYP=BEST         GRDTYP=BEST         QMTTOL= 1.0E-06

     $SYSTEM OPTIONS
     ---------------
  REPLICATED MEMORY=    40000000 WORDS (ON EVERY NODE).
 DISTRIBUTED MEMDDI=           0 MILLION WORDS IN AGGREGATE,
 MEMDDI DISTRIBUTED OVER   1 PROCESSORS IS           0 WORDS/PROCESSOR.
 TOTAL MEMORY REQUESTED ON EACH PROCESSOR=    40000000 WORDS.
 TIMLIM=       10000.00 MINUTES, OR       6.9 DAYS.
 PARALL= F  BALTYP=  DLB     KDIAG=    0  COREFL= F
 MXSEQ2=     300 MXSEQ3=     150  mem10=         0

     $COSGMS OPTIONS
     ---------------
     EPSI  =   INFTY     NSPA  =      92     COSRAD=    1.40
     DISEX =   10.00     OUTCHG=DBLCAV       COSBUG=       F
     COSWRT=       F     DCOSMO=       F

     SYMMETRY COORDINATES WILL NOT BE USED FOR 
     THE COSMO CALCULATION, EVEN IF SPECIFIED:
         -- SWITCHING TO C1 POINT GROUP --


     DEFINITION OF CAVITY
     ---------------------------
     ATOM         COORDINATES           RADIUS 
     1   -3.1774    2.7819   -0.3895    2.0500
     2   -1.4494   -0.0000   -1.3294    2.0000
     3    1.1450    0.0000   -0.0535    2.0000
     4    0.7464    0.0000    3.3303    2.0500
     5    2.8730   -2.7819   -0.9934    2.0500
     6    2.8730    2.7819   -0.9934    2.0500
     7   -3.1774   -2.7819   -0.3895    2.0500
     8   -1.2085    0.0000   -3.3751    1.3000

          ----------------
          PROPERTIES INPUT
          ----------------

     MOMENTS            FIELD           POTENTIAL          DENSITY
 IEMOM =       1   IEFLD =       0   IEPOT =       0   IEDEN =       0
 WHERE =COMASS     WHERE =NUCLEI     WHERE =NUCLEI     WHERE =NUCLEI  
 OUTPUT=BOTH       OUTPUT=BOTH       OUTPUT=BOTH       OUTPUT=BOTH    
 IEMINT=       0   IEFINT=       0                     IEDINT=       0
                                                       MORB  =       0
          EXTRAPOLATION IN EFFECT
          SOSCF IN EFFECT
 ORBITAL PRINTING OPTION: NPREO=     1   179     2     1

     -------------------------------
     INTEGRAL TRANSFORMATION OPTIONS
     -------------------------------
     NWORD  =            0
     CUTOFF = 1.0E-09     MPTRAN =       0
     DIRTRF =       T     AOINTS =DUP     

          ----------------------
          INTEGRAL INPUT OPTIONS
          ----------------------
 NOPK  =       1 NORDER=       0 SCHWRZ=       T


 -----------------------------------------------
  STATISTICS ON AUTOMATIC COORDINATE GENERATION 
 -----------------------------------------------
  NUMBER OF USER SPECIFIED BONDS                             0
  NUMBER OF BONDS                                            7
  NUMBER OF ANGLES                                          12
  NUMBER OF TORSIONS                                         9
  NUMBER OF EXTRA COORD.                                     0
  NUMBER OF EXTRA COORD. FOR CONSTRAINTS                     0
  NUMBER OF CONSTRAINED COORD.                               0

  TOTAL NUMBER OF PRIMITIVES                                28
 -----------------------------------------------

   --- ENCODED Z MATRIX ---
 COORD  TYPE   I   J   K   L   M   N
    1      1    1   2
    2      1    2   7
    3      1    2   3
    4      1    2   8
    5      1    3   4
    6      1    3   6
    7      1    3   5
    8      2    1   2   8
    9      2    1   2   7
   10      2    1   2   3
   11      2    2   3   4
   12      2    2   3   6
   13      2    2   3   5
   14      2    3   2   8
   15      2    3   2   7
   16      2    4   3   5
   17      2    4   3   6
   18      2    5   3   6
   19      2    7   2   8
   20      3    1   2   3   5
   21      3    1   2   3   6
   22      3    1   2   3   4
   23      3    4   3   2   8
   24      3    4   3   2   7
   25      3    5   3   2   8
   26      3    5   3   2   7
   27      3    6   3   2   8
   28      3    6   3   2   7

          INDEP./SYM. INTERNAL COORDINATES
          --------------------------------
 CRD  1=  -0.1477 (  8)  0.4689 ( 10)  0.4619 ( 12) -0.4619 ( 13) -0.4689 ( 15)
           0.1438 ( 16) -0.1438 ( 17)  0.1477 ( 19)  0.1412 ( 23)
 CRD  2=  -0.2570 (  3)  0.1096 (  8)  0.2679 (  9) -0.3569 ( 10) -0.6165 ( 11)
           0.1071 ( 12)  0.1071 ( 13)  0.2268 ( 14) -0.3569 ( 15)  0.2168 ( 16)
           0.2168 ( 17)  0.1096 ( 19) -0.1010 ( 20)  0.1010 ( 28)
 CRD  3=   0.4006 (  3) -0.1361 (  8) -0.1743 (  9) -0.1969 ( 11)  0.4524 ( 12)
           0.4524 ( 13)  0.2499 ( 14) -0.1416 ( 16) -0.1416 ( 17) -0.4248 ( 18)
          -0.1361 ( 19)
 CRD  4=  -0.1141 (  1)  0.1141 (  2)  0.2175 (  8) -0.4053 ( 10)  0.4117 ( 12)
          -0.4117 ( 13)  0.4053 ( 15)  0.2883 ( 16) -0.2883 ( 17) -0.2175 ( 19)
          -0.1044 ( 22) -0.1044 ( 24)
 CRD  5=  -0.1411 (  3) -0.1624 (  4) -0.3784 (  9)  0.3277 ( 10) -0.4358 ( 11)
          -0.4441 ( 14)  0.3277 ( 15)  0.2687 ( 16)  0.2687 ( 17) -0.1019 ( 18)
 CRD  6=  -0.2025 (  1) -0.2025 (  2)  0.1911 (  3)  0.1422 (  5)  0.2685 (  6)
           0.2685 (  7) -0.2389 (  8) -0.2084 (  9)  0.1233 ( 10) -0.1716 ( 11)
          -0.2031 ( 12) -0.2031 ( 13)  0.4396 ( 14)  0.1233 ( 15)  0.1094 ( 16)
           0.1094 ( 17)  0.3591 ( 18) -0.2389 ( 19) -0.1477 ( 20)  0.1477 ( 28)
 CRD  7=   0.1476 (  1) -0.1476 (  2)  0.1612 (  8) -0.1341 ( 16)  0.1341 ( 17)
          -0.1612 ( 19) -0.4023 ( 20) -0.4023 ( 21) -0.2514 ( 22) -0.2514 ( 24)
          -0.1951 ( 25) -0.4023 ( 26) -0.1951 ( 27) -0.4023 ( 28)
 CRD  8=  -0.1037 (  3)  0.2904 (  4) -0.3603 (  5)  0.2448 (  8) -0.2879 (  9)
          -0.1524 ( 14) -0.2021 ( 16) -0.2021 ( 17)  0.2140 ( 18)  0.2448 ( 19)
          -0.3605 ( 20) -0.1914 ( 22)  0.1914 ( 24) -0.1691 ( 25)  0.1691 ( 27)
           0.3605 ( 28)
 CRD  9=  -0.1190 (  1)  0.1190 (  2)  0.4319 (  6) -0.4319 (  7) -0.2838 ( 16)
           0.2838 ( 17)  0.3674 ( 22)  0.3428 ( 23)  0.3674 ( 24)
 CRD 10=   0.2064 (  1)  0.2064 (  2) -0.4282 (  4) -0.4484 (  5)  0.1945 (  6)
           0.1945 (  7)  0.1968 (  9) -0.1037 ( 11) -0.1266 ( 14) -0.1086 ( 16)
          -0.1086 ( 17)  0.1977 ( 18)  0.3138 ( 21)  0.1550 ( 22) -0.1550 ( 24)
          -0.1588 ( 25) -0.3138 ( 26)  0.1588 ( 27)
 CRD 11=  -0.4180 (  1) -0.4180 (  2) -0.3474 (  3) -0.3914 (  4) -0.2727 (  5)
          -0.3211 (  6) -0.3211 (  7) -0.1310 (  8)  0.1797 ( 14) -0.1310 ( 19)
 CRD 12=   0.5170 (  1) -0.5170 (  2)  0.2509 (  8) -0.2509 ( 19)  0.3410 ( 23)
           0.3211 ( 25)  0.3211 ( 27)
 CRD 13=   0.3096 (  1)  0.3096 (  2)  0.3390 (  4) -0.3680 (  5) -0.3922 (  6)
          -0.3922 (  7) -0.1707 (  8) -0.1002 (  9)  0.1143 ( 10) -0.1378 ( 11)
          -0.1294 ( 12) -0.1294 ( 13)  0.2130 ( 14)  0.1143 ( 15)  0.1301 ( 16)
           0.1301 ( 17)  0.1363 ( 18) -0.1707 ( 19)
 CRD 14=  -0.2432 (  1) -0.2432 (  2)  0.5093 (  4) -0.4982 (  5)  0.2624 (  6)
           0.2624 (  7)  0.1611 (  9) -0.1729 ( 18)  0.2239 ( 20)  0.1108 ( 22)
          -0.1108 ( 24)  0.1132 ( 25) -0.1132 ( 27) -0.2239 ( 28)
 CRD 15=   0.1941 (  1)  0.1941 (  2) -0.7598 (  3)  0.2105 (  4)  0.2231 (  5)
           0.1470 (  6)  0.1470 (  7) -0.1704 (  8) -0.1134 (  9)  0.1283 ( 10)
           0.1127 ( 12)  0.1127 ( 13)  0.1976 ( 14)  0.1283 ( 15) -0.1120 ( 16)
          -0.1120 ( 17) -0.1704 ( 19)
 CRD 16=   0.2505 (  1) -0.2505 (  2)  0.5088 (  6) -0.5088 (  7) -0.1597 (  8)
          -0.1016 ( 12)  0.1016 ( 13)  0.1761 ( 16) -0.1761 ( 17)  0.1597 ( 19)
           0.1152 ( 20)  0.1152 ( 21) -0.1627 ( 22) -0.3272 ( 23) -0.1627 ( 24)
           0.1152 ( 26)  0.1152 ( 28)
 CRD 17=   0.2010 (  1)  0.2010 (  2) -0.3655 (  4) -0.3662 (  5)  0.1901 (  6)
           0.1901 (  7) -0.1516 (  9) -0.1154 ( 10)  0.2502 ( 11) -0.1204 ( 12)
          -0.1204 ( 13)  0.2899 ( 14) -0.1154 ( 15) -0.1444 ( 18) -0.3257 ( 21)
          -0.1635 ( 22)  0.1635 ( 24)  0.1622 ( 25)  0.3257 ( 26) -0.1622 ( 27)
 CRD 18=   0.3467 (  1) -0.3467 (  2) -0.1941 (  6)  0.1941 (  7) -0.2339 (  8)
          -0.1918 ( 10)  0.1800 ( 12) -0.1800 ( 13)  0.1918 ( 15)  0.2339 ( 19)
           0.2286 ( 22) -0.1754 ( 23)  0.2286 ( 24) -0.3789 ( 25) -0.3789 ( 27)

 THE DETERMINANT OF THE G MATRIX IS 10**(   -23)

 THE DETERMINANT OF THE G MATRIX IS 10**(   -23)
 * * * WARNING * * *
 YOUR B MATRIX HAS A SMALL DETERMINANT.
 THIS SUGGESTS YOU MAY HAVE BADLY CHOSEN COORDINATES.


                     --------------------
                     INTERNAL COORDINATES
                     --------------------

                 - - ATOMS - -         COORDINATE      COORDINATE
 NO.   TYPE    I  J  K  L  M  N        (BOHR,RAD)       (ANG,DEG)
 ----------------------------------------------------------------
   1 STRETCH   1  2                     3.4070730       1.8029455
   2 STRETCH   2  7                     3.4070730       1.8029455
   3 STRETCH   2  3                     2.8911878       1.5299508
   4 STRETCH   2  8                     2.0597688       1.0899828
   5 STRETCH   3  4                     3.4071331       1.8029773
   6 STRETCH   3  6                     3.4070730       1.8029455
   7 STRETCH   3  5                     3.4070730       1.8029455
   8 BEND      1  2  8                  1.9106125     109.4700342
   9 BEND      1  2  7                  1.9106354     109.4713474
  10 BEND      1  2  3                  1.9106573     109.4726006
  11 BEND      2  3  4                  1.9106254     109.4707724
  12 BEND      2  3  6                  1.9106573     109.4726006
  13 BEND      2  3  5                  1.9106573     109.4726006
  14 BEND      3  2  8                  1.9106243     109.4707068
  15 BEND      3  2  7                  1.9106573     109.4726006
  16 BEND      4  3  5                  1.9106120     109.4700014
  17 BEND      4  3  6                  1.9106120     109.4700014
  18 BEND      5  3  6                  1.9106354     109.4713474
  19 BEND      7  2  8                  1.9106125     109.4700342
  20 TORSION   1  2  3  5               3.1415927     180.0000000
  21 TORSION   1  2  3  6              -1.0471653     -59.9981546
  22 TORSION   1  2  3  4               1.0472137      60.0009227
  23 TORSION   4  3  2  8               3.1415927     180.0000000
  24 TORSION   4  3  2  7              -1.0472137     -60.0009227
  25 TORSION   5  3  2  8              -1.0472137     -60.0009227
  26 TORSION   5  3  2  7               1.0471653      59.9981546
  27 TORSION   6  3  2  8               1.0472137      60.0009227
  28 TORSION   6  3  2  7               3.1415927     180.0000000

     ------------------------------------------
     THE POINT GROUP IS C1 , NAXIS= 1, ORDER= 1
     ------------------------------------------

     DIMENSIONS OF THE SYMMETRY SUBSPACES ARE
 A   =  179

 ..... DONE SETTING UP THE RUN .....
 STEP CPU TIME =     0.00 TOTAL CPU TIME =        0.0 (    0.0 MIN)
 TOTAL WALL CLOCK TIME=        0.0 SECONDS, CPU UTILIZATION IS   0.00%


          -----------------------------
          STATIONARY POINT LOCATION RUN
          -----------------------------

 OBTAINING INITIAL HESSIAN, HESS=GUESS   
 DIAGONAL GUESS HESSIAN IN INTERNAL COORDS IS
     1  0.3313     2  0.3313     3  0.3672     4  0.3464     5  0.3312
     6  0.3313     7  0.3313     8  0.2286     9  0.2593    10  0.2538
    11  0.2538    12  0.2538    13  0.2538    14  0.2241    15  0.2538
    16  0.2593    17  0.2593    18  0.2593    19  0.2286    20  0.2500
    21  0.2500    22  0.2500    23  0.2500    24  0.2500    25  0.2500
    26  0.2500    27  0.2500    28  0.2500
 TRANSFORMING HESSIAN TO SYMMETRY COORDINATES

          PARAMETERS CONTROLLING GEOMETRY SEARCH ARE
          METHOD =QA                  UPHESS =BFGS    
          NNEG   =         0          NFRZ   =         3
          NSTEP  =        50          IFOLOW =         1
          HESS   =GUESS               RESTAR =         F
          IHREP  =         0          HSSEND =         F
          NPRT   =         0          NPUN   =         0
          OPTTOL = 5.000E-04          RMIN   = 1.500E-03
          RMAX   = 1.000E-01          RLIM   = 7.000E-02
          DXMAX  = 3.000E-01          PURIFY =         F
          MOVIE  =         F          TRUPD  =         T
          TRMAX  = 5.000E-01          TRMIN  = 5.000E-02
          ITBMAT =         5          STPT   =         F
          STSTEP = 1.000E-02          PROJCT=          F
          FROZEN COORD(S)=   1   2   3


      ***** EQUILIBRIUM GEOMETRY LOCATED *****
            (SUBJECT TO   3 CONSTRAINT(S))
 COORDINATES OF ALL ATOMS ARE (ANGS)
   ATOM   CHARGE       X              Y              Z
 ------------------------------------------------------------
 CL         17.0  -1.6679297102   1.4630380037  -0.2128984399
 C           6.0  -0.7768336376  -0.0000021963  -0.6730611883
 C           6.0   0.6082948007   0.0000087125  -0.0034172543
 CL         17.0   0.3974698896  -0.0000022416   1.7560119089
 CL         17.0   1.5072716239  -1.4370328130  -0.5258936942
 CL         17.0   1.5072742685   1.4370367379  -0.5258875217
 CL         17.0  -1.6679355022  -1.4630404602  -0.2128906115
 H           1.0  -0.6671828991  -0.0000507608  -1.7417931118


                     --------------------
                     INTERNAL COORDINATES
                     --------------------

                 - - ATOMS - -         COORDINATE      COORDINATE
 NO.   TYPE    I  J  K  L  M  N        (BOHR,RAD)       (ANG,DEG)
 ----------------------------------------------------------------
   1 STRETCH   1  2                     3.3519545       1.7737781
   2 STRETCH   2  7                     3.3519608       1.7737814
   3 STRETCH   2  3                     2.9073567       1.5385070
   4 STRETCH   2  8                     2.0302124       1.0743422
   5 STRETCH   3  4                     3.3486233       1.7720153
   6 STRETCH   3  6                     3.3519013       1.7737499
   7 STRETCH   3  5                     3.3519229       1.7737613
   8 BEND      1  2  8                  1.8853388     108.0219548
   9 BEND      1  2  7                  1.9397481     111.1393771
  10 BEND      1  2  3                  1.9170398     109.8382909
  11 BEND      2  3  4                  1.9018615     108.9686344
  12 BEND      2  3  6                  1.9050831     109.1532229
  13 BEND      2  3  5                  1.9050657     109.1522247
  14 BEND      3  2  8                  1.9188774     109.9435777
  15 BEND      3  2  7                  1.9170527     109.8390265
  16 BEND      4  3  5                  1.9313154     110.6562211
  17 BEND      4  3  6                  1.9313250     110.6567728
  18 BEND      5  3  6                  1.8888671     108.2241154
  19 BEND      7  2  8                  1.8852647     108.0177113
  20 TORSION   1  2  3  5              -3.1029699    -177.7870773
  21 TORSION   1  2  3  6              -1.0416541     -59.6823862
  22 TORSION   1  2  3  4               1.0692918      61.2659091
  23 TORSION   4  3  2  8              -3.1415382    -179.9968780
  24 TORSION   4  3  2  7              -1.0692658     -61.2644197
  25 TORSION   5  3  2  8              -1.0306146     -59.0498644
  26 TORSION   5  3  2  7               1.0416578      59.6825939
  27 TORSION   6  3  2  8               1.0307012      59.0548267
  28 TORSION   6  3  2  7               3.1029735     177.7872850

          INTERNUCLEAR DISTANCES (ANGS.)


 =====================================================
   GAMESS/COSab RESULTS
 =====================================================

   Dielectric Constant                  = INFTY
   Basic Grid Size                      =                 1082
   Number of Segments                   =                   92
   Number of Segments located on spheres=                  235
   Number of Segments of the cavity     =                  342
   Solvent Radius (rsolv)               = 1.40
   Outlying Charge Error Method         = double cavity

 =====================================================

  Total solvated Energy (a.u.)          = -2373.8434252393
  Total Energy corrected (a.u.)         = -2373.8435884597

  Outlying charge effect (a.u.)         =    -0.0001632204
  Outlying charge effect (kcal/mol)     =    -0.1024224560

  Dielectric Energy (a.u.)              =    -0.0064075996
  Dielectric energy corr. (a.u.)        =    -0.0065708200

  Sum of polarization charges           =     0.0196932539
  Sum of polarization charges(cor.)     =    -0.0196932539

  Total surface area of cavity (A**2)   =  161.57
  Total volume of cavity (A**3)         =  169.20

 =====================================================
 NPS=                   342
NR.  ATOM  (X, Y, Z)(a.u.)                  CHARGE(e)  AREA(A**2) SIGMA(e/A**2)
   1   1  -5.107139   5.919322   0.708125  -0.003829   0.536887  -0.007132
   2   1  -1.754750   5.195097   2.271366   0.001112   0.390463   0.002848
   3   1  -5.138563   2.883746   2.921299   0.001242   0.341655   0.003635
   4   1  -7.023615   2.632836  -0.405365   0.001674   0.439271   0.003811
   5   1  -5.073519   4.719743  -3.139629   0.001959   0.488079   0.004013
   6   1  -1.765816   6.208657  -1.509353   0.001003   0.292848   0.003426
   7   1  -3.894309   6.077603   1.463459  -0.002872   0.585695  -0.004903
   8   1  -2.796644   5.633544   2.176645  -0.000149   0.488079  -0.000305
   9   1  -5.236807   5.111746   1.867516  -0.002758   0.585695  -0.004709
  10   1  -5.116840   4.014936   2.693394   0.000133   0.488079   0.000272
  11   1  -6.195502   5.013781   0.425813  -0.002915   0.585695  -0.004976
  12   1  -6.838667   3.935075  -0.188724  -0.000155   0.536887  -0.000289
  13   1  -5.430628   5.885900  -0.672946  -0.002940   0.536887  -0.005476
  14   1  -5.319031   5.558246  -1.985786  -0.000423   0.488079  -0.000866
  15   1  -4.085740   6.517662  -0.176663  -0.003681   0.683311  -0.005387
  16   1  -2.814675   6.597097  -0.856927  -0.000188   0.585695  -0.000321
  17   1  -2.987965   4.590066   3.010688   0.001140   0.390463   0.002919
  18   1  -3.970259   3.749274   3.253955   0.001075   0.390463   0.002752
  19   1  -6.031004   2.846258   2.188356   0.001302   0.439271   0.002963
  20   1  -6.778567   2.606969   0.950433   0.002033   0.585695   0.003472
  21   1  -6.790539   3.308241  -1.615785   0.002194   0.585695   0.003746
  22   1  -6.081852   4.119993  -2.543869   0.002034   0.585695   0.003473
  23   1  -4.021213   5.480205  -3.024915   0.001967   0.536887   0.003664
  24   1  -2.795305   6.102405  -2.336282   0.001577   0.488079   0.003231
  25   1  -1.760108   6.370674  -0.142613   0.000807   0.390463   0.002067
  26   1  -1.646143   5.906949   1.290748   0.000996   0.390463   0.002551
  27   1  -4.349447   2.554790   3.275885   0.001410   0.292848   0.004814
  28   1  -5.244478   1.700994   2.679403   0.002495   0.488079   0.005113
  29   1  -6.793244   1.524003   0.054580   0.002230   0.439271   0.005077
  30   1  -6.741319   1.825890  -1.516872   0.003221   0.585695   0.005499
  31   1  -5.960486   1.545044  -2.775455   0.001670   0.439271   0.003802
  32   1  -4.972825   1.981343  -3.730694   0.001018   0.488079   0.002086
  33   1  -5.222398   3.345463  -3.624640   0.002974   0.536887   0.005538
  34   1  -3.860350   4.367403  -3.857323   0.002578   0.488079   0.005282
  35   1  -3.013676   3.691609  -4.161210   0.001039   0.341655   0.003040
  36   1  -2.087648   4.326050  -3.784194   0.001701   0.439271   0.003873
  37   1  -1.921944   5.729299  -2.571639   0.001309   0.244040   0.005362
  38   1  -4.073089   5.052659   2.585020  -0.000748   0.488079  -0.001532
  39   1  -6.318521   3.995403   1.459261  -0.000998   0.683311  -0.001461
  40   1  -6.316719   4.827400  -1.260746  -0.000874   0.585695  -0.001492
  41   1  -4.097874   6.252800  -1.797311  -0.000634   0.634503  -0.001000
  42   1  -2.670769   6.424671   0.772726  -0.000895   0.536887  -0.001667
  43   1  -6.205150   1.589294   1.672171   0.002313   0.439271   0.005265
  44   1  -6.134272   2.687086  -2.873556   0.002684   0.488079   0.005498
  45   1  -2.681413   5.204078  -3.374806   0.002335   0.439271   0.005315
  46   1  -4.048780   3.057771  -4.159612   0.001834   0.439271   0.004176
  47   2  -3.848562  -0.303697  -4.191660  -0.001634   0.139368  -0.011725
  48   2  -3.851708   0.257679  -4.193514  -0.000480   0.046456  -0.010323
  49   4   0.401434  -0.018759   7.176471  -0.004412   0.536887  -0.008218
  50   4   2.792664   2.577539   5.366730   0.001454   0.439271   0.003309
  51   4   3.705359  -1.111437   5.564379   0.001342   0.439271   0.003055
  52   4   0.338181  -3.364911   5.193036   0.001018   0.390463   0.002608
  53   4  -2.511470  -0.825692   5.237057   0.000504   0.341655   0.001476
  54   4  -1.008813   3.006454   5.012889   0.000841   0.341655   0.002461
  55   4   1.181722   1.173336   6.985166  -0.003412   0.585695  -0.005825
  56   4   2.129338   1.962560   6.360792  -0.000488   0.488079  -0.001000
  57   4   1.752127  -0.429941   7.035984  -0.003342   0.585695  -0.005707
  58   4   2.928916  -0.799196   6.420939  -0.000340   0.488079  -0.000696
  59   4   0.344991  -1.433492   6.894364  -0.003573   0.585695  -0.006100
  60   4   0.096107  -2.579679   6.133290  -0.000683   0.536887  -0.001271
  61   4  -0.899853  -0.436745   6.795604  -0.003562   0.536887  -0.006634
  62   4  -1.858589  -0.663303   6.103523  -0.001181   0.439271  -0.002689
  63   4  -0.516277   1.082009   6.815591  -0.004404   0.683311  -0.006445
  64   4  -1.027020   2.158049   5.999530  -0.000791   0.585695  -0.001351
  65   4   3.459638   1.479383   5.659893   0.001350   0.488079   0.002767
  66   4   3.810702   0.198144   5.686295   0.001534   0.488079   0.003142
  67   4   2.832094  -2.166914   5.764073   0.001067   0.488079   0.002186
  68   4   1.616750  -3.013042   5.594274   0.001049   0.488079   0.002149
  69   4  -0.926055  -2.940216   5.202456   0.001291   0.488079   0.002644
  70   4  -1.961166  -1.862779   5.363160   0.000299   0.390463   0.000765
  71   4  -2.716676   0.329110   5.013565   0.000757   0.439271   0.001724
  72   4  -2.097897   1.715236   5.305492   0.000628   0.439271   0.001430
  73   4   0.060550   3.053841   5.599745   0.000543   0.439271   0.001237
  74   4   1.379147   3.072837   5.592288   0.000994   0.536887   0.001851
  75   4   3.736921   2.130714   4.564309   0.001891   0.439271   0.004305
  76   4   4.580967   0.141626   3.883594   0.001074   0.341655   0.003144
  77   4   4.368216  -0.807216   4.446343   0.002569   0.536887   0.004785
  78   4   3.729620  -2.016820   4.756536   0.002094   0.439271   0.004767
  79   4   1.507518  -3.606385   4.513899   0.002051   0.488079   0.004202
  80   4   0.268176  -3.749557   4.163986   0.001344   0.341655   0.003934
  81   4  -0.027282   3.598841   4.522485   0.001218   0.292848   0.004158
  82   4   2.247115   3.310396   4.663974   0.002151   0.488079   0.004407
  83   4   2.659295   0.685869   6.619265  -0.001134   0.585695  -0.001937
  84   4   1.656924  -1.954996   6.537845  -0.001607   0.683311  -0.002351
  85   4  -1.044683  -1.847664   6.211264  -0.001287   0.488079  -0.002637
  86   4  -1.877390   0.699530   6.076850  -0.001362   0.536887  -0.002538
  87   4   0.554999   2.278408   6.445337  -0.001329   0.488079  -0.002723
  88   4   4.289065   0.940757   4.585343   0.002267   0.488079   0.004646
  89   4   2.816859  -2.976747   4.689168   0.001607   0.390463   0.004117
  90   4   0.841184   3.756315   4.261448   0.001779   0.439271   0.004050
  91   5   4.904784  -5.811660  -2.085915  -0.004559   0.536887  -0.008491
  92   5   4.558308  -4.853058   1.747483   0.001265   0.439271   0.002879
  93   5   6.702210  -2.765399  -0.603259   0.001172   0.439271   0.002668
  94   5   4.906606  -2.502765  -4.268789   0.001132   0.439271   0.002576
  95   5   1.632744  -4.728448  -4.072453   0.001034   0.439271   0.002355
  96   5   1.483739  -6.229341  -0.100018   0.000874   0.341655   0.002559
  97   5   4.900796  -5.984001  -0.658742  -0.003571   0.585695  -0.006096
  98   5   4.908234  -5.552420   0.654412  -0.000659   0.488079  -0.001350
  99   5   5.935230  -4.984345  -1.569279  -0.003588   0.585695  -0.006125
 100   5   6.543660  -3.878089  -1.016585  -0.000560   0.488079  -0.001148
 101   5   5.224698  -4.887855  -3.148214  -0.003780   0.585695  -0.006454
 102   5   5.022191  -3.805213  -4.009492  -0.000927   0.536887  -0.001727
 103   5   3.908439  -5.792078  -3.095882  -0.003709   0.536887  -0.006909
 104   5   2.730861  -5.486449  -3.698591  -0.001075   0.488079  -0.002202
 105   5   3.626224  -6.444370  -1.699811  -0.004444   0.683311  -0.006503
 106   5   2.375200  -6.560522  -0.988387  -0.000712   0.585695  -0.001215
 107   5   5.617229  -4.263705   1.229701   0.001120   0.488079   0.002294
 108   5   6.360907  -3.493258   0.443018   0.001305   0.488079   0.002674
 109   5   6.594071  -2.704720  -1.982072   0.000872   0.488079   0.001786
 110   5   5.943480  -2.516885  -3.314990   0.001109   0.536887   0.002066
 111   5   3.774735  -3.200877  -4.723896   0.001351   0.585695   0.002306
 112   5   2.608284  -4.106154  -4.601577   0.001038   0.536887   0.001933
 113   5   1.268887  -5.494805  -3.182106   0.000928   0.439271   0.002113
 114   5   1.365447  -6.200158  -1.810025   0.000466   0.439271   0.001061
 115   5   2.576176  -6.304297   0.439561   0.000522   0.439271   0.001188
 116   5   3.502457  -5.812821   1.239292   0.000883   0.536887   0.001644
 117   5   4.918699  -3.649836   2.144383   0.001703   0.439271   0.003876
 118   5   5.856017  -1.784986   1.263460   0.000939   0.341655   0.002750
 119   5   6.394105  -1.810830   0.277537   0.002376   0.536887   0.004425
 120   5   6.576223  -1.667895  -1.105781   0.001908   0.439271   0.004344
 121   5   5.233599  -1.545848  -3.813296   0.001560   0.390463   0.003996
 122   5   3.932689  -1.752162  -4.585919   0.001744   0.439271   0.003970
 123   5   2.839481  -1.699291  -4.732036   0.001023   0.341655   0.002995
 124   5   1.327048  -3.621921  -4.439321   0.001191   0.390463   0.003051
 125   5   1.668576  -5.787074   1.051093   0.001165   0.292848   0.003979
 126   5   3.478128  -4.893157   2.147695   0.001981   0.488079   0.004058
 127   5   5.915684  -4.896000  -0.074805  -0.001396   0.585695  -0.002384
 128   5   6.140074  -3.851825  -2.691080  -0.001914   0.683311  -0.002801
 129   5   3.858528  -4.724154  -4.148561  -0.001767   0.585695  -0.003017
 130   5   2.360899  -6.189633  -2.637212  -0.001375   0.536887  -0.002561
 131   5   3.720990  -6.371621  -0.056091  -0.001385   0.488079  -0.002838
 132   5   5.768118  -2.846631   1.548856   0.002033   0.488079   0.004166
 133   5   6.186131  -1.497329  -2.537270   0.001553   0.390463   0.003978
 134   5   2.429167  -2.797831  -4.844109   0.001818   0.439271   0.004138
 135   5   2.071973  -5.340465   1.747501   0.001714   0.439271   0.003902
 136   6   4.890817   5.830953  -2.056965  -0.004561   0.536887  -0.008495
 137   6   6.482667   2.202045  -2.232886   0.001303   0.439271   0.002967
 138   6   5.872417   3.908575   1.113152   0.001133   0.439271   0.002580
 139   6   2.415225   6.046444   0.936321   0.001005   0.390463   0.002575
 140   6   1.415051   5.823048  -2.809527   0.000405   0.390463   0.001037
 141   6   3.373833   3.071789  -4.815363   0.001293   0.439271   0.002945
 142   6   5.776821   4.777212  -2.470687  -0.003679   0.585695  -0.006282
 143   6   6.373469   3.533914  -2.376282  -0.000710   0.488079  -0.001456
 144   6   5.614262   5.426563  -0.905324  -0.003565   0.585695  -0.006087
 145   6   5.946995   4.700107   0.217624  -0.000568   0.488079  -0.001163
 146   6   4.154509   6.362227  -0.934540  -0.003651   0.585695  -0.006234
 147   6   3.096274   6.458459  -0.025805  -0.000690   0.536887  -0.001286
 148   6   3.582423   6.241264  -2.421476  -0.003619   0.536887  -0.006741
 149   6   2.403733   6.184487  -2.660106  -0.001181   0.439271  -0.002689
 150   6   4.434085   5.331495  -3.370758  -0.004636   0.683311  -0.006784
 151   6   3.986422   4.340917  -4.321037  -0.001049   0.585695  -0.001791
 152   6   6.721712   2.742173  -1.054808   0.001168   0.488079   0.002394
 153   6   6.508829   3.289507   0.137090   0.001315   0.488079   0.002695
 154   6   4.976284   4.933463   1.364256   0.000859   0.488079   0.001759
 155   6   3.694915   5.694377   1.333793   0.000927   0.488079   0.001899
 156   6   1.680241   6.310355  -0.144834   0.001248   0.488079   0.002557
 157   6   1.441997   6.269114  -1.627970   0.000414   0.390463   0.001060
 158   6   1.399508   5.011935  -3.756971   0.001045   0.488079   0.002141
 159   6   2.406959   4.129289  -4.573470   0.001326   0.585695   0.002264
 160   6   4.611730   2.960233  -4.434437   0.001012   0.536887   0.001884
 161   6   5.796617   2.652368  -3.505981   0.000863   0.536887   0.001607
 162   6   6.509449   1.458405  -1.145948   0.001766   0.439271   0.004020
 163   6   5.961727   1.639380   1.044829   0.000934   0.341655   0.002735
 164   6   5.791427   2.641120   1.524166   0.002339   0.536887   0.004356
 165   6   5.070479   3.742277   2.008784   0.001865   0.439271   0.004246
 166   6   2.752180   5.207665   1.970630   0.001921   0.488079   0.003937
 167   6   1.608869   5.477235   1.423751   0.001311   0.341655   0.003836
 168   6   2.246538   2.804488  -4.819669   0.001448   0.390463   0.003708
 169   6   3.640601   1.750709  -4.661039   0.001733   0.439271   0.003945
 170   6   5.968402   1.538448  -2.965325   0.001684   0.439271   0.003833
 171   6   6.427753   4.190598  -1.133937  -0.001401   0.585695  -0.002392
 172   6   4.680519   5.862590   0.327965  -0.001804   0.683311  -0.002639
 173   6   2.604644   6.570788  -1.286363  -0.001283   0.488079  -0.002628
 174   6   2.850334   5.384501  -3.801712  -0.001481   0.634503  -0.002333
 175   6   5.392093   3.920764  -3.655436  -0.001577   0.585695  -0.002692
 176   6   6.470455   1.879098   0.096147   0.002066   0.488079   0.004232
 177   6   4.022843   4.526982   2.222864   0.001462   0.390463   0.003744
 178   6   1.214620   3.798554  -4.335285   0.001376   0.390463   0.003525
 179   6   4.811773   1.592063  -4.138629   0.002083   0.488079   0.004268
 180   6   2.640657   1.712288  -4.729782   0.000565   0.244040   0.002316
 181   7  -5.074824  -5.937982   0.711486  -0.003820   0.536887  -0.007115
 182   7  -6.148249  -2.349809   2.017886   0.001802   0.439271   0.004103
 183   7  -3.026812  -4.306982   3.149209   0.000550   0.244040   0.002253
 184   7  -1.660598  -6.268971   0.307464   0.000817   0.341655   0.002391
 185   7  -3.473264  -5.642824  -2.975413   0.001939   0.488079   0.003973
 186   7  -6.656820  -3.170635  -2.001826   0.001917   0.439271   0.004364
 187   7  -5.919155  -4.909680   1.255765  -0.002842   0.585695  -0.004853
 188   7  -6.183429  -3.680045   1.829217  -0.000054   0.488079  -0.000111
 189   7  -4.494952  -5.539663   1.943667  -0.002781   0.585695  -0.004749
 190   7  -3.737790  -4.810382   2.834911   0.000111   0.488079   0.000228
 191   7  -3.780912  -6.425832   0.696921  -0.002814   0.536887  -0.005242
 192   7  -2.606188  -6.539447   0.276850  -0.000572   0.439271  -0.001303
 193   7  -4.676985  -6.320634  -0.595580  -0.002968   0.536887  -0.005528
 194   7  -4.249609  -6.175133  -1.876024  -0.000429   0.488079  -0.000879
 195   7  -5.952956  -5.440672  -0.368182  -0.003607   0.683311  -0.005279
 196   7  -6.538752  -4.449069  -1.238953  -0.000180   0.585695  -0.000308
 197   7  -5.304890  -2.930551   2.814011   0.001509   0.439271   0.003434
 198   7  -4.246182  -3.510096   3.238364   0.001660   0.390463   0.004252
 199   7  -2.356905  -5.168208   2.530052   0.001000   0.390463   0.002560
 200   7  -1.689975  -5.867599   1.398365   0.000758   0.439271   0.001725
 201   7  -1.864759  -6.364542  -1.028491   0.001081   0.390463   0.002767
 202   7  -2.763993  -6.236663  -2.076450   0.001015   0.390463   0.002600
 203   7  -4.658421  -5.112708  -3.090248   0.001942   0.536887   0.003617
 204   7  -5.914625  -4.202452  -2.706214   0.002162   0.585695   0.003691
 205   7  -6.996802  -3.027188  -0.796707   0.002044   0.585695   0.003489
 206   7  -6.849818  -2.796121   0.751857   0.001530   0.536887   0.002850
 207   7  -5.258791  -1.596432   2.631434   0.002379   0.439271   0.005415
 208   7  -2.237881  -5.026500  -3.411694   0.002529   0.488079   0.005182
 209   7  -3.654211  -4.486358  -3.836140   0.002567   0.488079   0.005260
 210   7  -3.574285  -3.329837  -4.211468   0.001439   0.439271   0.003276
 211   7  -4.809843  -2.294384  -3.871818   0.001502   0.536887   0.002798
 212   7  -5.976519  -2.820771  -3.052969   0.002692   0.488079   0.005515
 213   7  -6.587951  -1.759102  -1.882129   0.002731   0.536887   0.005088
 214   7  -6.497717  -1.630866   1.187489   0.002396   0.488079   0.004909
 215   7  -5.147879  -4.325666   2.528080  -0.000627   0.585695  -0.001070
 216   7  -3.047728  -5.942019   1.811633  -0.001127   0.585695  -0.001924
 217   7  -3.244867  -6.599289  -0.945548  -0.000863   0.585695  -0.001474
 218   7  -5.471990  -5.460244  -1.938243  -0.000602   0.634503  -0.000948
 219   7  -6.734006  -4.055948   0.311142  -0.000757   0.585695  -0.001293
 220   7  -4.592457  -2.181730   3.146267   0.000949   0.244040   0.003890
 221   7  -1.442307  -5.184966   2.093116   0.000689   0.195232   0.003527
 222   7  -2.031822  -5.829352  -2.490605   0.001670   0.341655   0.004889
 223   7  -4.930469  -3.717540  -3.709334   0.003306   0.585695   0.005644
 224   7  -6.882043  -1.718949  -0.402729   0.002774   0.488079   0.005683
 225   7  -2.406584  -3.949733  -4.014464   0.001347   0.390463   0.003451
 226   7  -5.743382  -1.584959  -3.029073   0.001694   0.488079   0.003471
 227   8  -1.283484   0.013893  -5.748001  -0.006358   0.431809  -0.014724
 228   8  -2.122740   1.107204  -5.307946  -0.004217   0.314043  -0.013428
 229   8  -2.747995  -0.497356  -5.182558  -0.003668   0.294415  -0.012460
 230   8  -1.088365  -1.541118  -5.196921  -0.004257   0.294415  -0.014460
 231   8  -2.632851   0.376035  -5.294277  -0.005099   0.353299  -0.014433
 232   8  -1.882902  -0.987759  -5.453126  -0.005705   0.412182  -0.013842
 233   8  -0.377439  -0.771773  -5.450040  -0.004800   0.314043  -0.015284
 234   8  -0.109576   0.347298  -5.433719  -0.005957   0.392554  -0.015175
 235   8  -1.050913   1.305124  -5.362115  -0.007107   0.471065  -0.015087
 236   1  -4.892028   0.479172  -3.220305  -0.001121   0.086955  -0.012895
 237   2  -4.625807  -0.000017  -3.399074  -0.001405   0.086955  -0.016157
 238   7  -4.892030  -0.479204  -3.220302  -0.001073   0.086955  -0.012344
 239   1  -3.859834   1.388405  -4.097421  -0.000621   0.032856  -0.018890
 240   2  -3.589643   0.913953  -4.277922  -0.000812   0.032856  -0.024702
 241   8  -3.364502   0.854698  -4.462748  -0.000706   0.032856  -0.021496
 242   2  -4.235320   0.514406  -3.828761  -0.002861   0.250363  -0.011427
 243   1  -4.495306   1.336450  -3.772873  -0.001342   0.253607  -0.005290
 244   1  -0.346870   4.488520   2.078318   0.000471   0.275406   0.001710
 245   4   0.340958   4.019048   2.740977  -0.000219   0.275406  -0.000794
 246   6   0.707847   4.495211   1.986991  -0.000218   0.275406  -0.000791
 247   1  -4.067846   0.483902   2.855598   0.000117   0.277306   0.000422
 248   4  -3.368621   0.000006   3.495758   0.000457   0.277306   0.001649
 249   7  -4.067848  -0.483892   2.855601   0.000130   0.277306   0.000467
 250   4  -0.182590   3.943117   3.520288   0.001182   0.399594   0.002957
 251   4  -1.564081   3.057776   4.311601   0.003168   0.799028   0.003965
 252   4  -2.863850   1.259764   4.339013   0.002615   0.799028   0.003273
 253   1  -1.686063   4.328663   2.929625   0.003115   0.799028   0.003899
 254   1  -3.280820   2.918238   3.554483   0.003727   0.799028   0.004664
 255   1  -4.128969   1.332136   3.265611   0.001546   0.399594   0.003869
 256   1  -1.087094   3.116469  -3.864088  -0.002425   0.236638  -0.010248
 257   6  -0.033375   3.093115  -3.931761  -0.001886   0.236638  -0.007970
 258   8  -0.785432   2.440243  -4.224468  -0.004505   0.236638  -0.019037
 259   6   0.294097   3.926059  -3.912530   0.000513   0.358526   0.001431
 260   6   0.405147   5.226117  -2.893926   0.002225   0.716564   0.003105
 261   6   0.595102   6.002531  -1.031366   0.002729   0.716564   0.003809
 262   6   0.784617   5.529967   0.930469   0.002450   0.716564   0.003419
 263   1  -1.157990   4.457781  -3.409020   0.001206   0.716564   0.001683
 264   1  -0.996187   5.774828  -1.876950   0.003230   0.716564   0.004508
 265   1  -0.796683   5.934575   0.133699   0.002969   0.716564   0.004144
 266   1  -0.654786   5.242542   1.630692   0.001349   0.358526   0.003762
 267   7  -4.978997  -0.682939   2.513314   0.001070   0.381178   0.002808
 268   7  -6.146933  -0.682942   1.029519   0.002482   0.763460   0.003251
 269   7  -6.359421  -0.682950  -1.258004   0.001189   0.763460   0.001558
 270   7  -5.484767  -0.682958  -2.931534  -0.000855   0.381178  -0.002243
 271   1  -5.466465   0.682949   1.977407   0.002041   0.763460   0.002673
 272   1  -6.457365   0.682944  -0.095280   0.002110   0.763460   0.002764
 273   1  -5.865187   0.682934  -2.315018  -0.000831   0.763460  -0.001089
 274   8  -3.039367   1.054704  -4.709332  -0.003190   0.202856  -0.015726
 275   8  -1.905085   1.844258  -4.722457  -0.007674   0.413065  -0.018579
 276   1  -3.291008   2.269535  -4.287271  -0.003320   0.571605  -0.005808
 277   1  -1.941550   3.097886  -4.196680  -0.001376   0.292824  -0.004699
 278   2  -3.589731  -0.913948  -4.277873  -0.000618   0.032861  -0.018815
 279   7  -3.859925  -1.388399  -4.097372  -0.000536   0.032861  -0.016314
 280   8  -3.364584  -0.854735  -4.462706  -0.000864   0.032861  -0.026283
 281   7  -4.662062  -1.191539  -3.634928  -0.001309   0.253584  -0.005162
 282   2  -4.067373  -0.660443  -3.967711  -0.002760   0.250340  -0.011024
 283   8  -3.199706  -0.145208  -4.707495  -0.002012   0.118013  -0.017051
 284   2  -3.495688   0.118837  -4.410106  -0.002571   0.144179  -0.017832
 285   4   4.694611  -0.000000   2.320631  -0.002351   0.235574  -0.009978
 286   5   5.063056  -0.473723   1.569037  -0.002365   0.235574  -0.010038
 287   6   5.063058   0.473727   1.569037  -0.002368   0.235574  -0.010054
 288   4   0.340969  -4.019054   2.740979  -0.000179   0.275405  -0.000649
 289   5   0.707854  -4.495213   1.986994  -0.000249   0.275405  -0.000906
 290   7  -0.346862  -4.488529   2.078324   0.000460   0.275405   0.001669
 291   5   5.214510  -1.344896   1.945345  -0.000614   0.404461  -0.001517
 292   5   4.353722  -3.030107   2.587958   0.000855   0.810879   0.001055
 293   5   2.362215  -4.405012   2.485231   0.001144   0.810879   0.001411
 294   4   4.413734  -1.333513   3.287950  -0.000429   0.810879  -0.000530
 295   4   2.937490  -3.198768   3.744618   0.001612   0.810879   0.001988
 296   4   1.142546  -3.994991   3.373067   0.000653   0.404461   0.001614
 297   6   1.660488   4.665659   2.308094   0.000581   0.404463   0.001437
 298   6   3.455437   3.869438   2.679651   0.001395   0.810884   0.001720
 299   6   4.931688   2.004182   2.222979  -0.000659   0.810884  -0.000813
 300   4   1.844253   3.734343   3.550212   0.001305   0.810884   0.001610
 301   4   3.835767   2.359439   3.652942   0.001093   0.810884   0.001347
 302   4   4.696560   0.674227   3.010324  -0.000511   0.404463  -0.001263
 303   7  -1.153175  -4.630657   2.595039   0.001493   0.399597   0.003737
 304   7  -2.534673  -3.745310   3.386362   0.003687   0.799034   0.004615
 305   7  -3.834447  -1.947285   3.413770   0.003436   0.799034   0.004301
 306   4  -0.715460  -3.641142   3.854894   0.002852   0.799034   0.003570
 307   4  -2.310226  -2.230708   4.479757   0.003044   0.799034   0.003810
 308   4  -3.158377  -0.644595   4.190875   0.001349   0.399597   0.003376
 309   5   2.092258  -0.474608  -4.309381  -0.002998   0.264068  -0.011352
 310   6   2.092261   0.474604  -4.309375  -0.002971   0.264068  -0.011252
 311   8   1.191164  -0.000027  -4.519721  -0.005455   0.264068  -0.020658
 312   6   5.713846   0.670113   0.943195  -0.000514   0.363222  -0.001415
 313   6   6.189753   0.670111  -0.829409   0.000895   0.727404   0.001231
 314   6   5.546200   0.670113  -2.972078   0.001657   0.727404   0.002278
 315   6   3.696140   0.670119  -4.230041  -0.000168   0.727404  -0.000230
 316   5   5.942461  -0.670110   0.278392  -0.000461   0.727404  -0.000633
 317   5   6.052390  -0.670110  -1.956134   0.001626   0.727404   0.002235
 318   5   4.729438  -0.670106  -3.760293   0.001175   0.727404   0.001615
 319   5   3.027731  -0.670101  -4.447902  -0.000357   0.363222  -0.000982
 320   5  -0.033391  -3.093268  -3.931732  -0.001846   0.236629  -0.007800
 321   7  -1.087109  -3.116630  -3.864052  -0.002438   0.236629  -0.010305
 322   8  -0.785443  -2.440436  -4.224443  -0.004519   0.236629  -0.019097
 323   7  -1.197396  -3.938409  -3.765448   0.000088   0.358519   0.000247
 324   7  -1.086331  -5.238404  -2.746820   0.002741   0.716549   0.003826
 325   7  -0.896366  -6.014757  -0.884277   0.003216   0.716549   0.004488
 326   7  -0.706852  -5.542180   1.077516   0.002600   0.716549   0.003629
 327   5   0.333484  -4.445674  -3.555973   0.001474   0.716549   0.002057
 328   5   0.495302  -5.762648  -2.023891   0.002492   0.716549   0.003478
 329   5   0.694810  -5.922355  -0.013278   0.002773   0.716549   0.003870
 330   5   0.836704  -5.230325   1.483681   0.001017   0.358519   0.002836
 331   8   0.643190  -0.496353  -4.955889  -0.004017   0.246042  -0.016326
 332   8  -0.134699  -1.588703  -4.855710  -0.008037   0.496533  -0.016186
 333   5   1.612227  -1.736756  -4.680904  -0.002105   0.707278  -0.002976
 334   5   0.676037  -2.952072  -4.442950  -0.000324   0.358930  -0.000904
 335   8  -0.458514   1.977441  -4.736276  -0.003688   0.246035  -0.014989
 336   8   0.355546   0.929420  -4.953440  -0.008361   0.496516  -0.016838
 337   6   1.039789   2.506312  -4.566794  -0.001590   0.707260  -0.002248
 338   6   1.942153   1.249708  -4.695350  -0.000900   0.358920  -0.002507
 339   8  -1.437101  -2.095726  -4.656547  -0.003579   0.202863  -0.017642
 340   8  -2.617240  -1.381818  -4.745877  -0.007525   0.413082  -0.018216
 341   7  -2.463718  -2.807090  -4.259995  -0.003292   0.571625  -0.005759
 342   7  -3.771314  -1.909387  -4.256880  -0.001277   0.292835  -0.004361
 =====================================================


   1 warning(s) detected.
     A line exceeding 80 characters begins with "http://cactus.nci.ni".
 There may be a problem in your input file.

              1731502  WORDS OF DYNAMIC MEMORY USED
 EXECUTION OF GAMESS TERMINATED NORMALLY Fri Nov 25 09:05:33 2016
 DDI: 263640 bytes (0.3 MB / 0 MWords) used by master data server.

 ----------------------------------------
 CPU timing information for all processes
 ========================================
 0: 290.568 + 0.124 = 290.692
 ----------------------------------------
 ddikick.x: exited gracefully.
