----- GAMESS execution script -----

          ******************************************************
          *         GAMESS VERSION =  5 DEC 2014 (R1)          *
          *             FROM IOWA STATE UNIVERSITY             *
          * M.W.SCHMIDT, K.K.BALDRIDGE, J.A.BOATZ, S.T.ELBERT, *
          *   M.S.GORDON, J.H.JENSEN, S.KOSEKI, N.MATSUNAGA,   *
          *          K.A.NGUYEN, S.J.SU, T.L.WINDUS,           *
          *       TOGETHER WITH M.DUPUIS, J.A.MONTGOMERY       *
          *         J.COMPUT.CHEM.  14, 1347-1363(1993)        *
          **************** 64 BIT LINUX VERSION ****************

 EXECUTION OF GAMESS BEGUN Fri Nov 25 09:07:56 2016

            ECHO OF THE FIRST FEW INPUT CARDS -
 INPUT CARD>! SELECT RESTRICTED HARTREE-FOCK AS DEFAULT                                     
 INPUT CARD>$contrl scftyp=rhf $end                                                         
 INPUT CARD>                                                                                
 INPUT CARD>! THEORY: HF OR DFT                                                             
 INPUT CARD> $contrl mplevl=0 $end                                                          
 INPUT CARD>                                                                                
 INPUT CARD> $system timlim=10000 mwords=20 $end                                            
 INPUT CARD> $SCF DIRSCF=.TRUE. $end                                                        
 INPUT CARD>                                                                                
 INPUT CARD>                                                                                
 INPUT CARD>! BASIS SETS                                                                    
 INPUT CARD>! 6-311G(d,p)                                                                   
 INPUT CARD> $BASIS GBASIS=N311 NGAUSS=6 NDFUNC=1 NPFUNC=1 $END                             
 INPUT CARD>                                                                                
 INPUT CARD>! One of the following                                                          
 INPUT CARD> $guess guess=HUCKEL $end                                                       
 INPUT CARD>                                                                                
 INPUT CARD> $statpt projct=.FALSE. $end                                                    
 INPUT CARD> $STATPT IFREEZ(1)=1,2,3 $END                                                   
 INPUT CARD>                                                                                
 INPUT CARD>! Optimize the geometry with COSMO effects                                      
 INPUT CARD> $statpt opttol=0.0005 nstep=50 $end                                            
 INPUT CARD> $contrl nzvar=1 $end                                                           
 INPUT CARD> $zmat dlc=.t. auto=.t. $end                                                    
 INPUT CARD> $contrl runtyp=OPTIMIZE maxit=200 $end                                         
 INPUT CARD>                                                                                
 INPUT CARD>! Run COSMO on perfect conductor                                                
 INPUT CARD> $COSGMS PRFCND=.TRUE. $end                                                     
 INPUT CARD>                                                                                
 INPUT CARD>! Specifying RSOLV                                                              
 INPUT CARD> $COSGMS COSRAD = 1.4 $end                                                      
 INPUT CARD>                                                                                
 INPUT CARD>! available memory                                                              
 INPUT CARD> $SYSTEM MWORDS=40 $END                                                         
 INPUT CARD>                                                                                
 INPUT CARD> $DATA                                                                          
 INPUT CARD>9639 perfluorohexane (http://www.chemspider.com/)                               
 INPUT CARD>C1                                                                              
 INPUT CARD>F      9.0      1.2676000000    0.6375000000    1.0925000000                    
 INPUT CARD>F      9.0      1.2676000000    0.6375000000   -1.0925000000                    
 INPUT CARD>F      9.0     -1.2676000000   -0.6375000000   -1.0925000000                    
 INPUT CARD>F      9.0     -1.2676000000   -0.6375000000    1.0925000000                    
 INPUT CARD>F      9.0      0.9851000000   -2.1999000000   -1.0927000000                    
 INPUT CARD>F      9.0      0.9851000000   -2.1999000000    1.0927000000                    
 INPUT CARD>F      9.0     -0.9851000000    2.1999000000    1.0927000000                    
 INPUT CARD>F      9.0     -0.9851000000    2.1999000000   -1.0927000000                    
 INPUT CARD>F      9.0      3.4409000000   -2.8514000000   -0.0000000000                    
 INPUT CARD>F      9.0      3.5423000000   -0.9606000000    1.1060000000                    
 INPUT CARD>F      9.0      3.5423000000   -0.9606000000   -1.1060000000                    
 INPUT CARD>F      9.0     -3.4409000000    2.8514000000    0.0000000000                    
   40000000 WORDS OF MEMORY AVAILABLE

     BASIS OPTIONS
     -------------
     GBASIS=N311         IGAUSS=       6      POLAR=POPN311 
     NDFUNC=       1     NFFUNC=       0     DIFFSP=       F
     NPFUNC=       1      DIFFS=       F     BASNAM=        


     RUN TITLE
     ---------
 9639 perfluorohexane (http://www.chemspider.com/)                               

 THE POINT GROUP OF THE MOLECULE IS C1      
 THE ORDER OF THE PRINCIPAL AXIS IS     0

 ATOM      ATOMIC                      COORDINATES (BOHR)
           CHARGE         X                   Y                   Z
 F           9.0     2.3954166620        1.2047003172        2.0645256416
 F           9.0     2.3954166620        1.2047003172       -2.0645256416
 F           9.0    -2.3954166620       -1.2047003172       -2.0645256416
 F           9.0    -2.3954166620       -1.2047003172        2.0645256416
 F           9.0     1.8615690705       -4.1572082004       -2.0649035868
 F           9.0     1.8615690705       -4.1572082004        2.0649035868
 F           9.0    -1.8615690705        4.1572082004        2.0649035868
 F           9.0    -1.8615690705        4.1572082004       -2.0649035868
 F           9.0     6.5023581512       -5.3883646814       -0.0000000000
 F           9.0     6.6939763663       -1.8152707838        2.0900369424
 F           9.0     6.6939763663       -1.8152707838       -2.0900369424
 F           9.0    -6.5023581512        5.3883646814        0.0000000000
 F           9.0    -6.6939763663        1.8152707838       -2.0900369424
 F           9.0    -6.6939763663        1.8152707838        2.0900369424
 C           6.0     1.4821120922       -0.0922186282        0.0000000000
 C           6.0    -1.4821120922        0.0922186282       -0.0000000000
 C           6.0     2.6919146695       -2.8030305576       -0.0000000000
 C           6.0    -2.6919146695        2.8030305576        0.0000000000
 C           6.0     5.6366746762       -2.9375790479        0.0000000000
 C           6.0    -5.6366746762        2.9375790479       -0.0000000000

          INTERNUCLEAR DISTANCES (ANGS.)




     $CONTRL OPTIONS
     ---------------
 SCFTYP=RHF          RUNTYP=OPTIMIZE     EXETYP=RUN     
 MPLEVL=       0     CITYP =NONE         CCTYP =NONE         VBTYP =NONE    
 DFTTYP=NONE         TDDFT =NONE    
 MULT  =       1     ICHARG=       0     NZVAR =       1     COORD =UNIQUE  
 PP    =NONE         RELWFN=NONE         LOCAL =NONE         NUMGRD=       F
 ISPHER=      -1     NOSYM =       0     MAXIT =     200     UNITS =ANGS    
 PLTORB=       F     MOLPLT=       F     AIMPAC=       F     FRIEND=        
 NPRINT=       7     IREST =       0     GEOM  =INPUT   
 NORMF =       0     NORMP =       0     ITOL  =      20     ICUT  =       9
 INTTYP=BEST         GRDTYP=BEST         QMTTOL= 1.0E-06

     $SYSTEM OPTIONS
     ---------------
  REPLICATED MEMORY=    40000000 WORDS (ON EVERY NODE).
 DISTRIBUTED MEMDDI=           0 MILLION WORDS IN AGGREGATE,
 MEMDDI DISTRIBUTED OVER   1 PROCESSORS IS           0 WORDS/PROCESSOR.
 TOTAL MEMORY REQUESTED ON EACH PROCESSOR=    40000000 WORDS.
 TIMLIM=       10000.00 MINUTES, OR       6.9 DAYS.
 PARALL= F  BALTYP=  DLB     KDIAG=    0  COREFL= F
 MXSEQ2=     300 MXSEQ3=     150  mem10=         0

     $COSGMS OPTIONS
     ---------------
     EPSI  =   INFTY     NSPA  =      92     COSRAD=    1.40
     DISEX =   10.00     OUTCHG=DBLCAV       COSBUG=       F
     COSWRT=       F     DCOSMO=       F

     SYMMETRY COORDINATES WILL NOT BE USED FOR 
     THE COSMO CALCULATION, EVEN IF SPECIFIED:
         -- SWITCHING TO C1 POINT GROUP --


     DEFINITION OF CAVITY
     ---------------------------
     ATOM         COORDINATES           RADIUS 
     1    2.3954    1.2047    2.0645    1.7200
     2    2.3954    1.2047   -2.0645    1.7200
     3   -2.3954   -1.2047   -2.0645    1.7200
     4   -2.3954   -1.2047    2.0645    1.7200
     5    1.8616   -4.1572   -2.0649    1.7200
     6    1.8616   -4.1572    2.0649    1.7200
     7   -1.8616    4.1572    2.0649    1.7200
     8   -1.8616    4.1572   -2.0649    1.7200
     9    6.5024   -5.3884   -0.0000    1.7200
    10    6.6940   -1.8153    2.0900    1.7200
    11    6.6940   -1.8153   -2.0900    1.7200
    12   -6.5024    5.3884    0.0000    1.7200
    13   -6.6940    1.8153   -2.0900    1.7200
    14   -6.6940    1.8153    2.0900    1.7200
    15    1.4821   -0.0922    0.0000    2.0000
    16   -1.4821    0.0922   -0.0000    2.0000
    17    2.6919   -2.8030   -0.0000    2.0000
    18   -2.6919    2.8030    0.0000    2.0000
    19    5.6367   -2.9376    0.0000    2.0000
    20   -5.6367    2.9376   -0.0000    2.0000

          ----------------
          PROPERTIES INPUT
          ----------------

     MOMENTS            FIELD           POTENTIAL          DENSITY
 IEMOM =       1   IEFLD =       0   IEPOT =       0   IEDEN =       0
 WHERE =COMASS     WHERE =NUCLEI     WHERE =NUCLEI     WHERE =NUCLEI  
 OUTPUT=BOTH       OUTPUT=BOTH       OUTPUT=BOTH       OUTPUT=BOTH    
 IEMINT=       0   IEFINT=       0                     IEDINT=       0
                                                       MORB  =       0
          EXTRAPOLATION IN EFFECT
          SOSCF IN EFFECT
 ORBITAL PRINTING OPTION: NPREO=     1   380     2     1

     -------------------------------
     INTEGRAL TRANSFORMATION OPTIONS
     -------------------------------
     NWORD  =            0
     CUTOFF = 1.0E-09     MPTRAN =       0
     DIRTRF =       T     AOINTS =DUP     

          ----------------------
          INTEGRAL INPUT OPTIONS
          ----------------------
 NOPK  =       1 NORDER=       0 SCHWRZ=       T


 -----------------------------------------------
  STATISTICS ON AUTOMATIC COORDINATE GENERATION 
 -----------------------------------------------
  NUMBER OF USER SPECIFIED BONDS                             0
  NUMBER OF BONDS                                           19
  NUMBER OF ANGLES                                          36
  NUMBER OF TORSIONS                                        45
  NUMBER OF EXTRA COORD.                                     0
  NUMBER OF EXTRA COORD. FOR CONSTRAINTS                     0
  NUMBER OF CONSTRAINED COORD.                               0

  TOTAL NUMBER OF PRIMITIVES                               100
 -----------------------------------------------

   --- ENCODED Z MATRIX ---
 COORD  TYPE   I   J   K   L   M   N
    1      1    1  15
    2      1    2  15
    3      1    3  16
    4      1    4  16
    5      1    5  17
    6      1    6  17
    7      1    7  18
    8      1    8  18
    9      1    9  19
   10      1   10  19
   11      1   11  19
   12      1   12  20
   13      1   13  20
   14      1   14  20
   15      1   15  16
   16      1   15  17
   17      1   16  18
   18      1   17  19
   19      1   18  20
   20      2    1  15  17
   21      2    1  15   2
   22      2    1  15  16
   23      2    2  15  16
   24      2    2  15  17
   25      2    3  16  18
   26      2    3  16   4
   27      2    3  16  15
   28      2    4  16  18
   29      2    4  16  15
   30      2    5  17  19
   31      2    5  17  15
   32      2    5  17   6
   33      2    6  17  19
   34      2    6  17  15
   35      2    7  18  20
   36      2    7  18  16
   37      2    7  18   8
   38      2    8  18  20
   39      2    8  18  16
   40      2    9  19  17
   41      2    9  19  11
   42      2    9  19  10
   43      2   10  19  17
   44      2   10  19  11
   45      2   11  19  17
   46      2   12  20  18
   47      2   12  20  14
   48      2   12  20  13
   49      2   13  20  18
   50      2   13  20  14
   51      2   14  20  18
   52      2   15  17  19
   53      2   15  16  18
   54      2   16  18  20
   55      2   16  15  17
   56      3    1  15  17  19
   57      3    1  15  16  18
   58      3    1  15  16   4
   59      3    1  15  17   6
   60      3    1  15  16   3
   61      3    1  15  17   5
   62      3    2  15  16   3
   63      3    2  15  17  19
   64      3    2  15  17   6
   65      3    2  15  17   5
   66      3    2  15  16  18
   67      3    2  15  16   4
   68      3    3  16  18  20
   69      3    3  16  18   8
   70      3    3  16  18   7
   71      3    3  16  15  17
   72      3    4  16  15  17
   73      3    4  16  18  20
   74      3    4  16  18   8
   75      3    4  16  18   7
   76      3    5  17  15  16
   77      3    5  17  19  11
   78      3    5  17  19  10
   79      3    5  17  19   9
   80      3    6  17  19   9
   81      3    6  17  15  16
   82      3    6  17  19  11
   83      3    6  17  19  10
   84      3    7  18  16  15
   85      3    7  18  20  14
   86      3    7  18  20  13
   87      3    7  18  20  12
   88      3    8  18  16  15
   89      3    8  18  20  14
   90      3    8  18  20  13
   91      3    8  18  20  12
   92      3    9  19  17  15
   93      3   10  19  17  15
   94      3   11  19  17  15
   95      3   12  20  18  16
   96      3   13  20  18  16
   97      3   14  20  18  16
   98      3   15  16  18  20
   99      3   16  15  17  19
  100      3   17  15  16  18

          INDEP./SYM. INTERNAL COORDINATES
          --------------------------------
 CRD  1=  -0.1459 ( 20) -0.1507 ( 22) -0.1507 ( 23) -0.1459 ( 24)  0.1459 ( 25)
           0.1507 ( 27)  0.1459 ( 28)  0.1507 ( 29)  0.1103 ( 31)  0.1103 ( 34)
          -0.1103 ( 36) -0.1103 ( 39) -0.3236 ( 52) -0.4772 ( 53)  0.3236 ( 54)
           0.4772 ( 55)
 CRD  2=   0.2901 ( 15)  0.2181 ( 16)  0.2181 ( 17)  0.1862 ( 18)  0.1862 ( 19)
          -0.1715 ( 30) -0.1206 ( 31) -0.1715 ( 33) -0.1206 ( 34) -0.1715 ( 35)
          -0.1206 ( 36) -0.1715 ( 38) -0.1206 ( 39)  0.1180 ( 43)  0.1180 ( 45)
           0.1180 ( 49)  0.1180 ( 51)  0.4643 ( 52)  0.4643 ( 54)
 CRD  3=  -0.1565 ( 22)  0.1565 ( 23)  0.1565 ( 27) -0.1565 ( 29)  0.1063 ( 30)
          -0.1063 ( 33) -0.1063 ( 35)  0.1063 ( 38) -0.1893 ( 43)  0.1893 ( 45)
           0.1893 ( 49) -0.1893 ( 51)  0.1481 ( 56)  0.1481 ( 63)  0.1481 ( 68)
           0.1481 ( 73)  0.2164 ( 76)  0.2164 ( 81)  0.2164 ( 84)  0.2164 ( 88)
          -0.1252 ( 92) -0.1252 ( 95)  0.3648 ( 98)  0.3648 ( 99) -0.2218 (100)
 CRD  4=  -0.2879 ( 15) -0.2650 ( 16) -0.2650 ( 17) -0.1271 ( 18) -0.1271 ( 19)
           0.1787 ( 20)  0.1787 ( 24)  0.1787 ( 25)  0.1787 ( 28) -0.1103 ( 31)
          -0.1103 ( 34) -0.1103 ( 36) -0.1103 ( 39) -0.1374 ( 40) -0.1374 ( 46)
           0.1898 ( 52) -0.4172 ( 53)  0.1898 ( 54) -0.4172 ( 55)
 CRD  5=  -0.2029 ( 20)  0.1176 ( 22) -0.1176 ( 23)  0.2029 ( 24)  0.2029 ( 25)
          -0.1176 ( 27) -0.2029 ( 28)  0.1176 ( 29)  0.1774 ( 31) -0.1774 ( 34)
          -0.1774 ( 36)  0.1774 ( 39) -0.2247 ( 57) -0.2247 ( 66) -0.2247 ( 71)
          -0.2247 ( 72) -0.1714 ( 92) -0.1758 ( 93) -0.1758 ( 94) -0.1714 ( 95)
          -0.1758 ( 96) -0.1758 ( 97) -0.3995 (100)
 CRD  6=  -0.1572 ( 16)  0.1572 ( 17) -0.1867 ( 18)  0.1867 ( 19)  0.1732 ( 22)
           0.1732 ( 23) -0.1732 ( 27) -0.1732 ( 29)  0.1456 ( 30)  0.1456 ( 33)
          -0.1456 ( 35) -0.1456 ( 38) -0.1327 ( 43)  0.1019 ( 44) -0.1327 ( 45)
           0.1327 ( 49) -0.1019 ( 50)  0.1327 ( 51) -0.3728 ( 52)  0.2785 ( 53)
           0.3728 ( 54) -0.2785 ( 55)  0.1014 ( 60) -0.1014 ( 67)
 CRD  7=   0.1513 ( 30) -0.1513 ( 33)  0.1513 ( 35) -0.1513 ( 38) -0.1236 ( 41)
           0.1236 ( 42) -0.3732 ( 43)  0.3732 ( 45) -0.1236 ( 47)  0.1236 ( 48)
          -0.3732 ( 49)  0.3732 ( 51)  0.1732 ( 56)  0.1732 ( 63) -0.1732 ( 68)
          -0.1732 ( 73) -0.1969 ( 98)  0.1969 ( 99)
 CRD  8=  -0.1017 ( 16)  0.1017 ( 17) -0.3596 ( 18)  0.3596 ( 19) -0.1127 ( 30)
          -0.1127 ( 33)  0.1127 ( 35)  0.1127 ( 38) -0.4259 ( 40)  0.2064 ( 41)
           0.2064 ( 42)  0.4259 ( 46) -0.2064 ( 47) -0.2064 ( 48)
 CRD  9=  -0.3564 ( 18) -0.3564 ( 19) -0.1451 ( 30)  0.1143 ( 31) -0.1451 ( 33)
           0.1143 ( 34) -0.1451 ( 35)  0.1143 ( 36) -0.1451 ( 38)  0.1143 ( 39)
          -0.3753 ( 40)  0.1925 ( 41)  0.1925 ( 42) -0.3753 ( 46)  0.1925 ( 47)
           0.1925 ( 48)  0.1211 ( 53)  0.1211 ( 55)
 CRD 10=  -0.1705 ( 20)  0.1705 ( 24) -0.1705 ( 25)  0.1705 ( 28) -0.1805 ( 30)
           0.2627 ( 31)  0.1805 ( 33) -0.2627 ( 34) -0.1805 ( 35)  0.2627 ( 36)
           0.1805 ( 38) -0.2627 ( 39) -0.1100 ( 43)  0.1100 ( 45) -0.1100 ( 49)
           0.1100 ( 51)  0.1524 ( 57)  0.1524 ( 66) -0.1524 ( 71) -0.1524 ( 72)
          -0.2125 ( 92) -0.2095 ( 93) -0.2095 ( 94)  0.2125 ( 95)  0.2095 ( 96)
           0.2095 ( 97)
 CRD 11=  -0.2968 ( 15)  0.3446 ( 16)  0.3446 ( 17)  0.1700 ( 20) -0.1235 ( 22)
          -0.1235 ( 23)  0.1700 ( 24)  0.1700 ( 25) -0.1235 ( 27)  0.1700 ( 28)
          -0.1235 ( 29)  0.2305 ( 40) -0.1552 ( 43)  0.1674 ( 44) -0.1552 ( 45)
           0.2305 ( 46) -0.1552 ( 49)  0.1674 ( 50) -0.1552 ( 51) -0.1469 ( 58)
           0.1469 ( 62)
 CRD 12=   0.1049 ( 20) -0.1971 ( 22)  0.1971 ( 23) -0.1049 ( 24) -0.1049 ( 25)
           0.1971 ( 27)  0.1049 ( 28) -0.1971 ( 29) -0.1343 ( 30)  0.1068 ( 31)
           0.1343 ( 33) -0.1068 ( 34)  0.1343 ( 35) -0.1068 ( 36) -0.1343 ( 38)
           0.1068 ( 39)  0.1365 ( 41) -0.1365 ( 42)  0.3159 ( 43) -0.3159 ( 45)
          -0.1365 ( 47)  0.1365 ( 48) -0.3159 ( 49)  0.3159 ( 51)  0.1809 ( 76)
           0.1809 ( 81)  0.1809 ( 84)  0.1809 ( 88)
 CRD 13=   0.3280 ( 16) -0.3280 ( 17) -0.2070 ( 18)  0.2070 ( 19) -0.1187 ( 30)
          -0.1187 ( 33)  0.1187 ( 35)  0.1187 ( 38)  0.2042 ( 40) -0.2209 ( 43)
           0.2483 ( 44) -0.2209 ( 45) -0.2042 ( 46)  0.2209 ( 49) -0.2483 ( 50)
           0.2209 ( 51) -0.1292 ( 60)  0.1292 ( 67)
 CRD 14=   0.2771 ( 20) -0.2639 ( 22)  0.2639 ( 23) -0.2771 ( 24)  0.2771 ( 25)
          -0.2639 ( 27) -0.2771 ( 28)  0.2639 ( 29) -0.1564 ( 30)  0.1338 ( 31)
           0.1564 ( 33) -0.1338 ( 34) -0.1564 ( 35)  0.1338 ( 36)  0.1564 ( 38)
          -0.1338 ( 39) -0.1515 ( 57) -0.1515 ( 66)  0.1515 ( 71)  0.1515 ( 72)
           0.1259 ( 76)  0.1259 ( 81) -0.1259 ( 84) -0.1259 ( 88)
 CRD 15=   0.1236 ( 20) -0.1099 ( 22)  0.1099 ( 23) -0.1236 ( 24) -0.1236 ( 25)
           0.1099 ( 27)  0.1236 ( 28) -0.1099 ( 29) -0.2104 ( 30)  0.1949 ( 31)
           0.2104 ( 33) -0.1949 ( 34)  0.2104 ( 35) -0.1949 ( 36) -0.2104 ( 38)
           0.1949 ( 39) -0.1466 ( 41)  0.1466 ( 42) -0.2276 ( 43)  0.2276 ( 45)
           0.1466 ( 47) -0.1466 ( 48)  0.2276 ( 49) -0.2276 ( 51) -0.1316 ( 56)
          -0.1316 ( 63) -0.1316 ( 68) -0.1316 ( 73)  0.1611 (100)
 CRD 16=   0.4471 ( 15) -0.1881 ( 18) -0.1881 ( 19)  0.1410 ( 22)  0.1410 ( 23)
           0.1410 ( 27)  0.1410 ( 29)  0.2003 ( 40) -0.2201 ( 43)  0.2471 ( 44)
          -0.2201 ( 45)  0.2003 ( 46) -0.2201 ( 49)  0.2471 ( 50) -0.2201 ( 51)
           0.1016 ( 52)  0.1016 ( 54)  0.1062 ( 61) -0.1062 ( 64) -0.1062 ( 70)
           0.1062 ( 74)
 CRD 17=  -0.1221 (  5) -0.1221 (  6)  0.1221 (  7)  0.1221 (  8) -0.3324 ( 16)
           0.3324 ( 17) -0.1080 ( 20) -0.1080 ( 24)  0.1080 ( 25)  0.1080 ( 28)
          -0.1524 ( 31)  0.1523 ( 32) -0.1524 ( 34)  0.1524 ( 36) -0.1523 ( 37)
           0.1524 ( 39)  0.1738 ( 40) -0.1609 ( 43)  0.1919 ( 44) -0.1609 ( 45)
          -0.1738 ( 46)  0.1609 ( 49) -0.1919 ( 50)  0.1609 ( 51)  0.2200 ( 52)
          -0.1123 ( 53) -0.2200 ( 54)  0.1123 ( 55)  0.1117 ( 60) -0.1117 ( 67)
 CRD 18=  -0.1509 (  1) -0.1509 (  2) -0.1509 (  3) -0.1509 (  4) -0.3155 ( 15)
          -0.2458 ( 16) -0.2458 ( 17) -0.1012 ( 20)  0.1836 ( 21) -0.1274 ( 22)
          -0.1274 ( 23) -0.1012 ( 24) -0.1012 ( 25)  0.1836 ( 26) -0.1274 ( 27)
          -0.1012 ( 28) -0.1274 ( 29) -0.1170 ( 31)  0.1223 ( 32) -0.1170 ( 34)
          -0.1170 ( 36)  0.1223 ( 37) -0.1170 ( 39)  0.1036 ( 40)  0.1072 ( 44)
           0.1036 ( 46)  0.1072 ( 50)  0.1881 ( 52)  0.2716 ( 53)  0.1881 ( 54)
           0.2716 ( 55)
 CRD 19=  -0.1401 (  1)  0.1401 (  2) -0.1401 (  3)  0.1401 (  4)  0.1803 (  5)
          -0.1803 (  6)  0.1803 (  7) -0.1803 (  8)  0.1667 ( 41) -0.1667 ( 42)
           0.1903 ( 43) -0.1903 ( 45)  0.1667 ( 47) -0.1667 ( 48)  0.1903 ( 49)
          -0.1903 ( 51)  0.1772 ( 56)  0.1772 ( 63) -0.1772 ( 68) -0.1772 ( 73)
           0.1460 ( 76)  0.1460 ( 81) -0.1460 ( 84) -0.1460 ( 88) -0.1504 ( 92)
           0.1504 ( 95) -0.2499 ( 98)  0.2499 ( 99)
 CRD 20=   0.1604 ( 20) -0.1691 ( 22)  0.1691 ( 23) -0.1604 ( 24) -0.1604 ( 25)
           0.1691 ( 27)  0.1604 ( 28) -0.1691 ( 29)  0.1166 ( 30) -0.1260 ( 31)
          -0.1166 ( 33)  0.1260 ( 34) -0.1166 ( 35)  0.1260 ( 36)  0.1166 ( 38)
          -0.1260 ( 39) -0.1168 ( 56) -0.1401 ( 57) -0.2140 ( 58) -0.1698 ( 59)
          -0.2140 ( 60) -0.1698 ( 61) -0.2140 ( 62) -0.1168 ( 63) -0.1698 ( 64)
          -0.1698 ( 65) -0.1401 ( 66) -0.2140 ( 67) -0.1168 ( 68) -0.1698 ( 69)
          -0.1698 ( 70) -0.1401 ( 71) -0.1401 ( 72) -0.1168 ( 73) -0.1698 ( 74)
          -0.1698 ( 75)
 CRD 21=   0.1222 (  5) -0.1222 (  6)  0.1222 (  7) -0.1222 (  8)  0.1408 ( 30)
          -0.1408 ( 33)  0.1408 ( 35) -0.1408 ( 38) -0.1699 ( 59) -0.1699 ( 61)
          -0.1699 ( 64) -0.1699 ( 65)  0.1699 ( 69)  0.1699 ( 70)  0.1699 ( 74)
           0.1699 ( 75) -0.1112 ( 76) -0.1550 ( 77) -0.1550 ( 78) -0.1873 ( 79)
          -0.1873 ( 80) -0.1112 ( 81) -0.1550 ( 82) -0.1550 ( 83)  0.1112 ( 84)
           0.1550 ( 85)  0.1550 ( 86)  0.1873 ( 87)  0.1112 ( 88)  0.1550 ( 89)
           0.1550 ( 90)  0.1873 ( 91) -0.1828 ( 92) -0.1505 ( 93) -0.1505 ( 94)
           0.1828 ( 95)  0.1505 ( 96)  0.1505 ( 97)
 CRD 22=   0.1703 (  1) -0.1703 (  2) -0.1703 (  3)  0.1703 (  4)  0.2708 (  5)
          -0.2708 (  6) -0.2708 (  7)  0.2708 (  8) -0.1706 ( 79) -0.1706 ( 80)
          -0.1706 ( 87) -0.1706 ( 91) -0.2371 ( 92) -0.1544 ( 93) -0.1544 ( 94)
          -0.2371 ( 95) -0.1544 ( 96) -0.1544 ( 97)  0.1377 (100)
 CRD 23=  -0.3125 (  9) -0.3010 ( 10) -0.3010 ( 11)  0.3125 ( 12)  0.3010 ( 13)
           0.3010 ( 14) -0.1870 ( 18)  0.1870 ( 19)  0.1684 ( 40) -0.1791 ( 41)
          -0.1791 ( 42)  0.1339 ( 43) -0.1246 ( 44)  0.1339 ( 45) -0.1684 ( 46)
           0.1791 ( 47)  0.1791 ( 48) -0.1339 ( 49)  0.1246 ( 50) -0.1339 ( 51)
 CRD 24=  -0.3164 (  9) -0.3051 ( 10) -0.3051 ( 11) -0.3164 ( 12) -0.3051 ( 13)
          -0.3051 ( 14) -0.1932 ( 18) -0.1932 ( 19)  0.1656 ( 40) -0.1767 ( 41)
          -0.1767 ( 42)  0.1345 ( 43) -0.1276 ( 44)  0.1345 ( 45)  0.1656 ( 46)
          -0.1767 ( 47) -0.1767 ( 48)  0.1345 ( 49) -0.1276 ( 50)  0.1345 ( 51)
 CRD 25=   0.3769 (  1) -0.3769 (  2)  0.3769 (  3) -0.3769 (  4)  0.1599 (  5)
          -0.1599 (  6)  0.1599 (  7) -0.1599 (  8) -0.1234 ( 10)  0.1234 ( 11)
          -0.1234 ( 13)  0.1234 ( 14)  0.1008 ( 41) -0.1008 ( 42)  0.1008 ( 47)
          -0.1008 ( 48) -0.1024 ( 57) -0.1024 ( 66)  0.1024 ( 71)  0.1024 ( 72)
 CRD 26=  -0.3857 (  9)  0.2393 ( 10)  0.2393 ( 11)  0.3857 ( 12) -0.2393 ( 13)
          -0.2393 ( 14) -0.1167 ( 41) -0.1167 ( 42)  0.2431 ( 44)  0.1167 ( 47)
           0.1167 ( 48) -0.2431 ( 50) -0.1351 ( 77)  0.1714 ( 78) -0.1714 ( 82)
           0.1351 ( 83) -0.1351 ( 85)  0.1714 ( 86) -0.1714 ( 89)  0.1351 ( 90)
           0.1533 ( 93) -0.1533 ( 94)  0.1533 ( 96) -0.1533 ( 97)
 CRD 27=   0.3925 (  9) -0.2355 ( 10) -0.2355 ( 11)  0.3925 ( 12) -0.2355 ( 13)
          -0.2355 ( 14)  0.1171 ( 41)  0.1171 ( 42) -0.2419 ( 44)  0.1171 ( 47)
           0.1171 ( 48) -0.2419 ( 50)  0.1363 ( 77) -0.1702 ( 78)  0.1702 ( 82)
          -0.1363 ( 83) -0.1363 ( 85)  0.1702 ( 86) -0.1702 ( 89)  0.1363 ( 90)
          -0.1532 ( 93)  0.1532 ( 94)  0.1532 ( 96) -0.1532 ( 97)
 CRD 28=   0.3615 ( 10) -0.3615 ( 11) -0.3615 ( 13)  0.3615 ( 14) -0.2021 ( 41)
           0.2021 ( 42)  0.2021 ( 47) -0.2021 ( 48) -0.1184 ( 77) -0.1184 ( 78)
           0.1408 ( 79)  0.1408 ( 80) -0.1184 ( 82) -0.1184 ( 83) -0.1184 ( 85)
          -0.1184 ( 86)  0.1408 ( 87) -0.1184 ( 89) -0.1184 ( 90)  0.1408 ( 91)
           0.1470 ( 92) -0.1123 ( 93) -0.1123 ( 94)  0.1470 ( 95) -0.1123 ( 96)
          -0.1123 ( 97)
 CRD 29=  -0.1350 (  1)  0.1350 (  2) -0.1350 (  3)  0.1350 (  4) -0.1480 (  5)
           0.1480 (  6) -0.1480 (  7)  0.1480 (  8) -0.3449 ( 10)  0.3449 ( 11)
          -0.3449 ( 13)  0.3449 ( 14)  0.1783 ( 41) -0.1783 ( 42)  0.1783 ( 47)
          -0.1783 ( 48) -0.1644 ( 79) -0.1644 ( 80)  0.1644 ( 87)  0.1644 ( 91)
          -0.1383 ( 92)  0.1383 ( 95)
 CRD 30=  -0.1717 (  1)  0.1717 (  2)  0.1717 (  3) -0.1717 (  4) -0.2152 (  5)
           0.2152 (  6)  0.2152 (  7) -0.2152 (  8)  0.1023 ( 57)  0.2080 ( 58)
           0.2080 ( 60)  0.2080 ( 62)  0.1023 ( 66)  0.2080 ( 67)  0.1023 ( 71)
           0.1023 ( 72) -0.1735 ( 77) -0.1735 ( 78) -0.1725 ( 79) -0.1725 ( 80)
          -0.1735 ( 82) -0.1735 ( 83) -0.1735 ( 85) -0.1735 ( 86) -0.1725 ( 87)
          -0.1735 ( 89) -0.1735 ( 90) -0.1725 ( 91)
 CRD 31=   0.3395 (  1)  0.3395 (  2)  0.3395 (  3)  0.3395 (  4)  0.2515 (  5)
           0.2515 (  6)  0.2515 (  7)  0.2515 (  8)  0.1547 ( 21)  0.1547 ( 26)
           0.1169 ( 32)  0.1169 ( 37)  0.1364 ( 58) -0.1187 ( 59) -0.1364 ( 62)
           0.1187 ( 65)  0.1187 ( 69) -0.1187 ( 75)
 CRD 32=   0.2113 (  1)  0.2113 (  2) -0.2113 (  3) -0.2113 (  4)  0.3631 (  5)
           0.3631 (  6) -0.3631 (  7) -0.3631 (  8)  0.1702 ( 32) -0.1702 ( 37)
          -0.1124 ( 59)  0.1124 ( 65) -0.1124 ( 69)  0.1124 ( 75)
 CRD 33=  -0.2496 (  1) -0.2496 (  2) -0.2496 (  3) -0.2496 (  4)  0.3344 (  5)
           0.3344 (  6)  0.3344 (  7)  0.3344 (  8) -0.1185 ( 21) -0.1185 ( 26)
           0.1585 ( 32)  0.1585 ( 37)  0.1340 ( 61) -0.1340 ( 64) -0.1340 ( 70)
           0.1340 ( 74)
 CRD 34=  -0.3599 (  1) -0.3599 (  2)  0.3599 (  3)  0.3599 (  4)  0.2077 (  5)
           0.2077 (  6) -0.2077 (  7) -0.2077 (  8) -0.1728 ( 21)  0.1728 ( 26)
          -0.1660 ( 60)  0.1289 ( 61) -0.1289 ( 64)  0.1660 ( 67)  0.1289 ( 70)
          -0.1289 ( 74)
 CRD 35=   0.1154 (  1) -0.1154 (  2)  0.1154 (  3) -0.1154 (  4) -0.2398 (  5)
           0.2398 (  6) -0.2398 (  7)  0.2398 (  8)  0.1696 ( 59)  0.1696 ( 61)
           0.1696 ( 64)  0.1696 ( 65) -0.1696 ( 69) -0.1696 ( 70) -0.1696 ( 74)
          -0.1696 ( 75)  0.1158 ( 76) -0.1711 ( 77) -0.1711 ( 78) -0.1631 ( 79)
          -0.1631 ( 80)  0.1158 ( 81) -0.1711 ( 82) -0.1711 ( 83) -0.1158 ( 84)
           0.1711 ( 85)  0.1711 ( 86)  0.1631 ( 87) -0.1158 ( 88)  0.1711 ( 89)
           0.1711 ( 90)  0.1631 ( 91)
 CRD 36=  -0.2691 (  1)  0.2691 (  2)  0.2691 (  3) -0.2691 (  4)  0.2085 (  5)
          -0.2085 (  6) -0.2085 (  7)  0.2085 (  8)  0.1713 ( 58) -0.1549 ( 59)
           0.1713 ( 60) -0.1549 ( 61)  0.1713 ( 62) -0.1549 ( 64) -0.1549 ( 65)
           0.1713 ( 67) -0.1549 ( 69) -0.1549 ( 70) -0.1549 ( 74) -0.1549 ( 75)
 CRD 37=   0.2429 (  9) -0.2429 ( 12)  0.1162 ( 18) -0.1162 ( 19) -0.1840 ( 20)
           0.1785 ( 22)  0.1785 ( 23) -0.1840 ( 24)  0.1840 ( 25) -0.1785 ( 27)
           0.1840 ( 28) -0.1785 ( 29) -0.1567 ( 30)  0.1228 ( 31) -0.1567 ( 33)
           0.1228 ( 34)  0.1567 ( 35) -0.1228 ( 36)  0.1567 ( 38) -0.1228 ( 39)
           0.1801 ( 60)  0.1714 ( 61) -0.1714 ( 64) -0.1801 ( 67)  0.1714 ( 70)
          -0.1714 ( 74)
 CRD 38=  -0.3081 (  9) -0.1713 ( 10) -0.1713 ( 11) -0.3081 ( 12) -0.1713 ( 13)
          -0.1713 ( 14)  0.2452 ( 15)  0.1348 ( 16)  0.1348 ( 17)  0.1577 ( 30)
          -0.1413 ( 31)  0.1577 ( 33) -0.1413 ( 34)  0.1577 ( 35) -0.1413 ( 36)
           0.1577 ( 38) -0.1413 ( 39) -0.1420 ( 40)  0.1485 ( 41)  0.1485 ( 42)
          -0.1066 ( 43) -0.1066 ( 45) -0.1420 ( 46)  0.1485 ( 47)  0.1485 ( 48)
          -0.1066 ( 49) -0.1066 ( 51) -0.1268 ( 61)  0.1268 ( 64)  0.1268 ( 70)
          -0.1268 ( 74)
 CRD 39=  -0.1957 (  9) -0.2210 ( 10) -0.2210 ( 11)  0.1957 ( 12)  0.2210 ( 13)
           0.2210 ( 14)  0.2164 ( 16) -0.2164 ( 17)  0.2591 ( 18) -0.2591 ( 19)
          -0.1251 ( 20) -0.1251 ( 24)  0.1251 ( 25)  0.1251 ( 28) -0.1347 ( 40)
           0.1452 ( 41)  0.1452 ( 42) -0.1367 ( 43)  0.1610 ( 44) -0.1367 ( 45)
           0.1347 ( 46) -0.1452 ( 47) -0.1452 ( 48)  0.1367 ( 49) -0.1610 ( 50)
           0.1367 ( 51)  0.1022 ( 59)  0.1252 ( 60) -0.1022 ( 65) -0.1252 ( 67)
           0.1022 ( 69) -0.1022 ( 75)
 CRD 40=  -0.1081 (  5) -0.1081 (  6) -0.1081 (  7) -0.1081 (  8)  0.2239 ( 10)
           0.2239 ( 11)  0.2239 ( 13)  0.2239 ( 14)  0.2230 ( 15) -0.3264 ( 18)
          -0.3264 ( 19)  0.1177 ( 32)  0.1177 ( 37) -0.1930 ( 44) -0.1930 ( 50)
          -0.1214 ( 58)  0.1214 ( 62) -0.1495 ( 78)  0.1495 ( 82)  0.1495 ( 86)
          -0.1495 ( 89)
 CRD 41=  -0.1458 (  1) -0.1458 (  2)  0.1458 (  3)  0.1458 (  4)  0.1600 (  5)
           0.1600 (  6) -0.1600 (  7) -0.1600 (  8)  0.2217 (  9) -0.1084 ( 10)
          -0.1084 ( 11) -0.2217 ( 12)  0.1084 ( 13)  0.1084 ( 14) -0.1881 ( 16)
           0.1881 ( 17)  0.1583 ( 21) -0.1583 ( 26) -0.1676 ( 32)  0.1676 ( 37)
           0.1080 ( 44) -0.1080 ( 50) -0.1053 ( 56)  0.1077 ( 60) -0.1497 ( 61)
           0.1053 ( 63)  0.1497 ( 64) -0.1077 ( 67) -0.1053 ( 68) -0.1497 ( 70)
           0.1053 ( 73)  0.1497 ( 74)  0.1773 ( 78)  0.1033 ( 79) -0.1033 ( 80)
          -0.1773 ( 82)  0.1773 ( 86)  0.1033 ( 87) -0.1773 ( 89) -0.1033 ( 91)
 CRD 42=   0.2494 (  1) -0.2494 (  2) -0.2494 (  3)  0.2494 (  4) -0.2156 (  5)
           0.2156 (  6)  0.2156 (  7) -0.2156 (  8)  0.1439 ( 10) -0.1439 ( 11)
          -0.1439 ( 13)  0.1439 ( 14)  0.1623 ( 58) -0.1489 ( 59)  0.1623 ( 60)
          -0.1489 ( 61)  0.1623 ( 62) -0.1489 ( 64) -0.1489 ( 65)  0.1623 ( 67)
          -0.1489 ( 69) -0.1489 ( 70) -0.1489 ( 74) -0.1489 ( 75)  0.1064 ( 77)
           0.1064 ( 78)  0.1064 ( 82)  0.1064 ( 83)  0.1064 ( 85)  0.1064 ( 86)
           0.1064 ( 89)  0.1064 ( 90)
 CRD 43=   0.1112 (  1) -0.1112 (  2)  0.1112 (  3) -0.1112 (  4) -0.2570 (  5)
           0.2570 (  6) -0.2570 (  7)  0.2570 (  8)  0.2514 ( 10) -0.2514 ( 11)
           0.2514 ( 13) -0.2514 ( 14)  0.1233 ( 41) -0.1233 ( 42)  0.1233 ( 47)
          -0.1233 ( 48) -0.1069 ( 59) -0.1069 ( 61) -0.1069 ( 64) -0.1069 ( 65)
           0.1069 ( 69)  0.1069 ( 70)  0.1069 ( 74)  0.1069 ( 75)  0.1368 ( 77)
           0.1368 ( 78)  0.1368 ( 82)  0.1368 ( 83) -0.1368 ( 85) -0.1368 ( 86)
          -0.1368 ( 89) -0.1368 ( 90) -0.1617 ( 92)  0.1617 ( 95)
 CRD 44=  -0.1823 (  1) -0.1823 (  2)  0.1823 (  3)  0.1823 (  4) -0.1116 (  9)
           0.1369 ( 10)  0.1369 ( 11)  0.1116 ( 12) -0.1369 ( 13) -0.1369 ( 14)
           0.3108 ( 16) -0.3108 ( 17) -0.2420 ( 18)  0.2420 ( 19)  0.1937 ( 21)
          -0.1937 ( 26) -0.1311 ( 44)  0.1311 ( 50)  0.1102 ( 57)  0.2203 ( 60)
          -0.1101 ( 61)  0.1101 ( 64) -0.1102 ( 66) -0.2203 ( 67) -0.1101 ( 70)
           0.1102 ( 71) -0.1102 ( 72)  0.1101 ( 74)
 CRD 45=   0.1453 (  5)  0.1453 (  6)  0.1453 (  7)  0.1453 (  8)  0.2702 (  9)
           0.2702 ( 12)  0.3587 ( 15) -0.1285 ( 16) -0.1285 ( 17) -0.2543 ( 18)
          -0.2543 ( 19) -0.1531 ( 32) -0.1531 ( 37) -0.1021 ( 41) -0.1021 ( 42)
          -0.1021 ( 47) -0.1021 ( 48) -0.1553 ( 61)  0.1553 ( 64)  0.1553 ( 70)
          -0.1553 ( 74)  0.1417 ( 78) -0.1417 ( 82) -0.1417 ( 86)  0.1417 ( 89)
 CRD 46=  -0.1890 (  1)  0.1890 (  2)  0.1890 (  3) -0.1890 (  4)  0.2687 ( 10)
          -0.2687 ( 11) -0.2687 ( 13)  0.2687 ( 14)  0.1371 ( 41) -0.1371 ( 42)
          -0.1371 ( 47)  0.1371 ( 48) -0.1045 ( 58) -0.1045 ( 60) -0.1045 ( 62)
          -0.1045 ( 67) -0.1627 ( 79) -0.1627 ( 80) -0.1627 ( 87) -0.1627 ( 91)
          -0.2173 ( 92) -0.2173 ( 95)  0.1762 (100)
 CRD 47=   0.2400 (  9) -0.2400 ( 12)  0.1605 ( 16) -0.1605 ( 17) -0.3058 ( 18)
           0.3058 ( 19)  0.1333 ( 30) -0.1182 ( 31)  0.1333 ( 33) -0.1182 ( 34)
          -0.1333 ( 35)  0.1182 ( 36) -0.1333 ( 38)  0.1182 ( 39)  0.1824 ( 59)
          -0.1824 ( 65)  0.1824 ( 69) -0.1824 ( 75) -0.1028 ( 76) -0.1293 ( 77)
           0.1028 ( 81)  0.1293 ( 83) -0.1028 ( 84) -0.1293 ( 85)  0.1028 ( 88)
           0.1293 ( 90)  0.1006 ( 93) -0.1006 ( 94)  0.1006 ( 96) -0.1006 ( 97)
 CRD 48=   0.1051 (  1)  0.1051 (  2)  0.1051 (  3)  0.1051 (  4)  0.1117 (  9)
           0.1117 ( 12)  0.1738 ( 15) -0.2441 ( 16) -0.2441 ( 17)  0.1955 ( 18)
           0.1955 ( 19)  0.1232 ( 20) -0.1143 ( 21) -0.1292 ( 22) -0.1292 ( 23)
           0.1232 ( 24)  0.1232 ( 25) -0.1143 ( 26) -0.1292 ( 27)  0.1232 ( 28)
          -0.1292 ( 29)  0.1024 ( 53)  0.1024 ( 55) -0.1336 ( 57) -0.2672 ( 58)
           0.2672 ( 62)  0.1336 ( 66)  0.1336 ( 71) -0.1336 ( 72) -0.1197 ( 77)
           0.1197 ( 83)  0.1197 ( 85) -0.1197 ( 90)
 CRD 49=  -0.2031 (  9) -0.2031 ( 12)  0.3685 ( 15) -0.2413 ( 16) -0.2413 ( 17)
           0.1464 ( 18)  0.1464 ( 19) -0.1087 ( 30)  0.1089 ( 31) -0.1087 ( 33)
           0.1089 ( 34) -0.1087 ( 35)  0.1089 ( 36) -0.1087 ( 38)  0.1089 ( 39)
           0.1075 ( 40)  0.1075 ( 46) -0.1230 ( 59)  0.1230 ( 65)  0.1230 ( 69)
          -0.1230 ( 75)  0.1852 ( 77) -0.1852 ( 83) -0.1852 ( 85)  0.1852 ( 90)
          -0.1090 ( 93)  0.1090 ( 94)  0.1090 ( 96) -0.1090 ( 97)
 CRD 50=  -0.1334 (  1)  0.1334 (  2) -0.1334 (  3)  0.1334 (  4)  0.1328 (  5)
          -0.1328 (  6)  0.1328 (  7) -0.1328 (  8)  0.1962 ( 10) -0.1962 ( 11)
           0.1962 ( 13) -0.1962 ( 14) -0.1128 ( 30)  0.1128 ( 33) -0.1128 ( 35)
           0.1128 ( 38)  0.1025 ( 41) -0.1025 ( 42) -0.1285 ( 43)  0.1285 ( 45)
           0.1025 ( 47) -0.1025 ( 48) -0.1285 ( 49)  0.1285 ( 51) -0.1013 ( 57)
          -0.1013 ( 66)  0.1013 ( 71)  0.1013 ( 72) -0.2080 ( 79) -0.2080 ( 80)
           0.2080 ( 87)  0.2080 ( 91)  0.1294 ( 93)  0.1294 ( 94) -0.1294 ( 96)
          -0.1294 ( 97)  0.2342 ( 98) -0.2342 ( 99)
 CRD 51=   0.1559 (  5)  0.1559 (  6) -0.1559 (  7) -0.1559 (  8) -0.1459 (  9)
           0.1459 ( 12) -0.1786 ( 16)  0.1786 ( 17) -0.1178 ( 18)  0.1178 ( 19)
          -0.1674 ( 32)  0.1674 ( 37)  0.1460 ( 40) -0.1460 ( 46)  0.1980 ( 52)
          -0.1980 ( 54)  0.1631 ( 59) -0.1631 ( 65)  0.1631 ( 69) -0.1631 ( 75)
          -0.1018 ( 76)  0.2168 ( 77)  0.1115 ( 79) -0.1115 ( 80)  0.1018 ( 81)
          -0.2168 ( 83) -0.1018 ( 84)  0.2168 ( 85)  0.1115 ( 87)  0.1018 ( 88)
          -0.2168 ( 90) -0.1115 ( 91) -0.1053 ( 93)  0.1053 ( 94) -0.1053 ( 96)
           0.1053 ( 97)
 CRD 52=   0.1417 (  1)  0.1417 (  2)  0.1417 (  3)  0.1417 (  4)  0.1131 (  5)
           0.1131 (  6)  0.1131 (  7)  0.1131 (  8) -0.1984 ( 15) -0.1896 ( 16)
          -0.1896 ( 17) -0.1522 ( 21) -0.1522 ( 26) -0.1214 ( 32) -0.1214 ( 37)
           0.1711 ( 52)  0.2150 ( 53)  0.1711 ( 54)  0.2150 ( 55) -0.1055 ( 57)
          -0.2109 ( 58)  0.1885 ( 59)  0.2109 ( 62) -0.1885 ( 65)  0.1055 ( 66)
          -0.1885 ( 69)  0.1055 ( 71) -0.1055 ( 72)  0.1885 ( 75)  0.1333 ( 77)
          -0.1333 ( 83) -0.1333 ( 85)  0.1333 ( 90)
 CRD 53=   0.1707 (  5) -0.1707 (  6) -0.1707 (  7)  0.1707 (  8) -0.1042 ( 30)
          -0.1080 ( 31)  0.1042 ( 33)  0.1080 ( 34)  0.1042 ( 35)  0.1080 ( 36)
          -0.1042 ( 38) -0.1080 ( 39) -0.1029 ( 43)  0.1029 ( 45)  0.1029 ( 49)
          -0.1029 ( 51) -0.2061 ( 56) -0.2061 ( 63) -0.2061 ( 68) -0.2061 ( 73)
           0.1197 ( 76) -0.1593 ( 79) -0.1593 ( 80)  0.1197 ( 81)  0.1197 ( 84)
          -0.1593 ( 87)  0.1197 ( 88) -0.1593 ( 91)  0.2073 ( 93)  0.2073 ( 94)
           0.2073 ( 96)  0.2073 ( 97) -0.1103 ( 98) -0.1103 ( 99) -0.2221 (100)
 CRD 54=  -0.1513 (  1)  0.1513 (  2) -0.1513 (  3)  0.1513 (  4)  0.1010 ( 20)
           0.1183 ( 22) -0.1183 ( 23) -0.1010 ( 24)  0.1010 ( 25)  0.1183 ( 27)
          -0.1010 ( 28) -0.1183 ( 29)  0.1692 ( 56) -0.2366 ( 57)  0.1692 ( 63)
          -0.2366 ( 66) -0.1692 ( 68)  0.2366 ( 71)  0.2366 ( 72) -0.1692 ( 73)
          -0.2309 ( 76) -0.2309 ( 81)  0.2309 ( 84)  0.2309 ( 88) -0.1550 ( 93)
          -0.1550 ( 94)  0.1550 ( 96)  0.1550 ( 97)

 THE DETERMINANT OF THE G MATRIX IS 10**(   -70)

 THE DETERMINANT OF THE G MATRIX IS 10**(   -70)
 * * * WARNING * * *
 YOUR B MATRIX HAS A SMALL DETERMINANT.
 THIS SUGGESTS YOU MAY HAVE BADLY CHOSEN COORDINATES.


                     --------------------
                     INTERNAL COORDINATES
                     --------------------

                 - - ATOMS - -         COORDINATE      COORDINATE
 NO.   TYPE    I  J  K  L  M  N        (BOHR,RAD)       (ANG,DEG)
 ----------------------------------------------------------------
   1 STRETCH   1 15                     2.6035342       1.3777310
   2 STRETCH   2 15                     2.6035342       1.3777310
   3 STRETCH   3 16                     2.6035342       1.3777310
   4 STRETCH   4 16                     2.6035342       1.3777310
   5 STRETCH   5 17                     2.6052059       1.3786157
   6 STRETCH   6 17                     2.6052059       1.3786157
   7 STRETCH   7 18                     2.6052059       1.3786157
   8 STRETCH   8 18                     2.6052059       1.3786157
   9 STRETCH   9 19                     2.5991841       1.3754291
  10 STRETCH  10 19                     2.5972518       1.3744066
  11 STRETCH  11 19                     2.5972518       1.3744066
  12 STRETCH  12 20                     2.5991841       1.3754291
  13 STRETCH  13 20                     2.5972518       1.3744066
  14 STRETCH  14 20                     2.5972518       1.3744066
  15 STRETCH  15 16                     2.9699566       1.5716335
  16 STRETCH  15 17                     2.9685221       1.5708744
  17 STRETCH  16 18                     2.9685221       1.5708744
  18 STRETCH  17 19                     2.9478322       1.5599257
  19 STRETCH  18 20                     2.9478322       1.5599257
  20 BEND      1 15 17                  1.8880184     108.1754840
  21 BEND      1 15  2                  1.8313383     104.9279545
  22 BEND      1 15 16                  1.8956628     108.6134764
  23 BEND      2 15 16                  1.8956628     108.6134764
  24 BEND      2 15 17                  1.8880184     108.1754840
  25 BEND      3 16 18                  1.8880184     108.1754840
  26 BEND      3 16  4                  1.8313383     104.9279545
  27 BEND      3 16 15                  1.8956628     108.6134764
  28 BEND      4 16 18                  1.8880184     108.1754840
  29 BEND      4 16 15                  1.8956628     108.6134764
  30 BEND      5 17 19                  1.8699046     107.1376397
  31 BEND      5 17 15                  1.9227969     110.1681469
  32 BEND      5 17  6                  1.8301446     104.8595626
  33 BEND      6 17 19                  1.8699046     107.1376397
  34 BEND      6 17 15                  1.9227969     110.1681469
  35 BEND      7 18 20                  1.8699046     107.1376397
  36 BEND      7 18 16                  1.9227969     110.1681469
  37 BEND      7 18  8                  1.8301446     104.8595626
  38 BEND      8 18 20                  1.8699046     107.1376397
  39 BEND      8 18 16                  1.9227969     110.1681469
  40 BEND      9 19 17                  1.9560021     112.0706637
  41 BEND      9 19 11                  1.8461206     105.7749191
  42 BEND      9 19 10                  1.8461206     105.7749191
  43 BEND     10 19 17                  1.9681044     112.7640731
  44 BEND     10 19 11                  1.8703768     107.1646948
  45 BEND     11 19 17                  1.9681044     112.7640731
  46 BEND     12 20 18                  1.9560021     112.0706637
  47 BEND     12 20 14                  1.8461206     105.7749191
  48 BEND     12 20 13                  1.8461206     105.7749191
  49 BEND     13 20 18                  1.9681044     112.7640731
  50 BEND     13 20 14                  1.8703768     107.1646948
  51 BEND     14 20 18                  1.9681044     112.7640731
  52 BEND     15 17 19                  2.0362180     116.6667004
  53 BEND     15 16 18                  2.0527000     117.6110447
  54 BEND     16 18 20                  2.0362180     116.6667004
  55 BEND     16 15 17                  2.0527000     117.6110447
  56 TORSION   1 15 17 19              -0.9874298     -56.5755575
  57 TORSION   1 15 16 18               0.9912978      56.7971801
  58 TORSION   1 15 16  4              -1.1589971     -66.4056397
  59 TORSION   1 15 17  6               1.1487561      65.8188770
  60 TORSION   1 15 16  3               3.1415927     180.0000000
  61 TORSION   1 15 17  5              -3.1236156    -178.9699921
  62 TORSION   2 15 16  3               1.1589971      66.4056397
  63 TORSION   2 15 17 19               0.9874298      56.5755575
  64 TORSION   2 15 17  6               3.1236156     178.9699921
  65 TORSION   2 15 17  5              -1.1487561     -65.8188770
  66 TORSION   2 15 16 18              -0.9912978     -56.7971801
  67 TORSION   2 15 16  4               3.1415927     180.0000000
  68 TORSION   3 16 18 20               0.9874298      56.5755575
  69 TORSION   3 16 18  8              -1.1487561     -65.8188770
  70 TORSION   3 16 18  7               3.1236156     178.9699921
  71 TORSION   3 16 15 17              -0.9912978     -56.7971801
  72 TORSION   4 16 15 17               0.9912978      56.7971801
  73 TORSION   4 16 18 20              -0.9874298     -56.5755575
  74 TORSION   4 16 18  8              -3.1236156    -178.9699921
  75 TORSION   4 16 18  7               1.1487561      65.8188770
  76 TORSION   5 17 15 16               1.0054068      57.6055654
  77 TORSION   5 17 19 11               1.1028184      63.1868399
  78 TORSION   5 17 19 10              -3.0590052    -175.2680865
  79 TORSION   5 17 19  9              -0.9780934     -56.0406233
  80 TORSION   6 17 19  9               0.9780934      56.0406233
  81 TORSION   6 17 15 16              -1.0054068     -57.6055654
  82 TORSION   6 17 19 11               3.0590052     175.2680865
  83 TORSION   6 17 19 10              -1.1028184     -63.1868399
  84 TORSION   7 18 16 15              -1.0054068     -57.6055654
  85 TORSION   7 18 20 14              -1.1028184     -63.1868399
  86 TORSION   7 18 20 13               3.0590052     175.2680865
  87 TORSION   7 18 20 12               0.9780934      56.0406233
  88 TORSION   8 18 16 15               1.0054068      57.6055654
  89 TORSION   8 18 20 14              -3.0590052    -175.2680865
  90 TORSION   8 18 20 13               1.1028184      63.1868399
  91 TORSION   8 18 20 12              -0.9780934     -56.0406233
  92 TORSION   9 19 17 15               3.1415927     180.0000000
  93 TORSION  10 19 17 15               1.0606809      60.7725368
  94 TORSION  11 19 17 15              -1.0606809     -60.7725368
  95 TORSION  12 20 18 16               3.1415927     180.0000000
  96 TORSION  13 20 18 16              -1.0606809     -60.7725368
  97 TORSION  14 20 18 16               1.0606809      60.7725368
  98 TORSION  15 16 18 20               3.1415927     180.0000000
  99 TORSION  16 15 17 19               3.1415927     180.0000000
 100 TORSION  17 15 16 18               3.1415927     180.0000000

     ------------------------------------------
     THE POINT GROUP IS C1 , NAXIS= 1, ORDER= 1
     ------------------------------------------

     DIMENSIONS OF THE SYMMETRY SUBSPACES ARE
 A   =  380

 ..... DONE SETTING UP THE RUN .....
 STEP CPU TIME =     0.01 TOTAL CPU TIME =        0.0 (    0.0 MIN)
 TOTAL WALL CLOCK TIME=        0.0 SECONDS, CPU UTILIZATION IS  50.00%


          -----------------------------
          STATIONARY POINT LOCATION RUN
          -----------------------------

 OBTAINING INITIAL HESSIAN, HESS=GUESS   
 DIAGONAL GUESS HESSIAN IN INTERNAL COORDS IS
     1  0.3412     2  0.3412     3  0.3412     4  0.3412     5  0.3406
     6  0.3406     7  0.3406     8  0.3406     9  0.3427    10  0.3434
    11  0.3434    12  0.3427    13  0.3434    14  0.3434    15  0.3386
    16  0.3391    17  0.3391    18  0.3464    19  0.3464    20  0.2348
    21  0.2271    22  0.2347    23  0.2347    24  0.2348    25  0.2348
    26  0.2271    27  0.2347    28  0.2348    29  0.2347    30  0.2354
    31  0.2347    32  0.2270    33  0.2354    34  0.2347    35  0.2354
    36  0.2347    37  0.2270    38  0.2354    39  0.2347    40  0.2356
    41  0.2275    42  0.2275    43  0.2357    44  0.2275    45  0.2357
    46  0.2356    47  0.2275    48  0.2275    49  0.2357    50  0.2275
    51  0.2357    52  0.2436    53  0.2428    54  0.2436    55  0.2428
    56  0.2500    57  0.2500    58  0.2500    59  0.2500    60  0.2500
    61  0.2500    62  0.2500    63  0.2500    64  0.2500    65  0.2500
    66  0.2500    67  0.2500    68  0.2500    69  0.2500    70  0.2500
    71  0.2500    72  0.2500    73  0.2500    74  0.2500    75  0.2500
    76  0.2500    77  0.2500    78  0.2500    79  0.2500    80  0.2500
    81  0.2500    82  0.2500    83  0.2500    84  0.2500    85  0.2500
    86  0.2500    87  0.2500    88  0.2500    89  0.2500    90  0.2500
    91  0.2500    92  0.2500    93  0.2500    94  0.2500    95  0.2500
    96  0.2500    97  0.2500    98  0.2500    99  0.2500   100  0.2500
 TRANSFORMING HESSIAN TO SYMMETRY COORDINATES

          PARAMETERS CONTROLLING GEOMETRY SEARCH ARE
          METHOD =QA                  UPHESS =BFGS    
          NNEG   =         0          NFRZ   =         3
          NSTEP  =        50          IFOLOW =         1
          HESS   =GUESS               RESTAR =         F
          IHREP  =         0          HSSEND =         F
          NPRT   =         0          NPUN   =         0
          OPTTOL = 5.000E-04          RMIN   = 1.500E-03
          RMAX   = 1.000E-01          RLIM   = 7.000E-02
          DXMAX  = 3.000E-01          PURIFY =         F
          MOVIE  =         F          TRUPD  =         T
          TRMAX  = 5.000E-01          TRMIN  = 5.000E-02
          ITBMAT =         5          STPT   =         F
          STSTEP = 1.000E-02          PROJCT=          F
          FROZEN COORD(S)=   1   2   3


      ***** EQUILIBRIUM GEOMETRY LOCATED *****
            (SUBJECT TO   3 CONSTRAINT(S))
 COORDINATES OF ALL ATOMS ARE (ANGS)
   ATOM   CHARGE       X              Y              Z
 ------------------------------------------------------------
 F           9.0   1.2104440843   0.6348000160   1.0763676602
 F           9.0   1.2104913450   0.6347688989  -1.0761278704
 F           9.0  -1.2104278585  -0.6347619324  -1.0764998160
 F           9.0  -1.2104907252  -0.6348087589   1.0759963504
 F           9.0   1.0121380845  -2.0697704971  -1.0788457972
 F           9.0   1.0122065996  -2.0696389770   1.0791184487
 F           9.0  -1.0121542612   2.0696075804   1.0789778736
 F           9.0  -1.0121938727   2.0697987557  -1.0789868560
 F           9.0   3.2667390150  -2.8031774738   0.0002462026
 F           9.0   3.4914773611  -0.9789483898   1.0640460091
 F           9.0   3.4917395848  -0.9793367427  -1.0645081437
 F           9.0  -3.2667401452   2.8031762400   0.0000945460
 F           9.0  -3.4914453669   0.9792321272  -1.0641930982
 F           9.0  -3.4917875048   0.9790620577   1.0643529331
 C           6.0   0.7851742882  -0.0039366010  -0.0000169944
 C           6.0  -0.7851679060   0.0039361518  -0.0000891561
 C           6.0   1.4215685286  -1.4241876614   0.0000233012
 C           6.0  -1.4215681953   1.4241847534   0.0000049214
 C           6.0   2.9710778216  -1.5267105274  -0.0000463283
 C           6.0  -2.9710787420   1.5267092868   0.0000633946


                     --------------------
                     INTERNAL COORDINATES
                     --------------------

                 - - ATOMS - -         COORDINATE      COORDINATE
 NO.   TYPE    I  J  K  L  M  N        (BOHR,RAD)       (ANG,DEG)
 ----------------------------------------------------------------
   1 STRETCH   1 15                     2.4980454       1.3219088
   2 STRETCH   2 15                     2.4976244       1.3216860
   3 STRETCH   3 16                     2.4980442       1.3219082
   4 STRETCH   4 16                     2.4976249       1.3216863
   5 STRETCH   5 17                     2.4987073       1.3222591
   6 STRETCH   6 17                     2.4988945       1.3223581
   7 STRETCH   7 18                     2.4987102       1.3222606
   8 STRETCH   8 18                     2.4988924       1.3223570
   9 STRETCH   9 19                     2.4760340       1.3102608
  10 STRETCH  10 19                     2.4661840       1.3050485
  11 STRETCH  11 19                     2.4666431       1.3052914
  12 STRETCH  12 20                     2.4760340       1.3102609
  13 STRETCH  13 20                     2.4661862       1.3050496
  14 STRETCH  14 20                     2.4666298       1.3052844
  15 STRETCH  15 16                     2.9675537       1.5703619
  16 STRETCH  15 17                     2.9410055       1.5563132
  17 STRETCH  16 18                     2.9410059       1.5563134
  18 STRETCH  17 19                     2.9345504       1.5528973
  19 STRETCH  18 20                     2.9345529       1.5528987
  20 BEND      1 15 17                  1.8853348     108.0217243
  21 BEND      1 15  2                  1.9028050     109.0226945
  22 BEND      1 15 16                  1.8958080     108.6217974
  23 BEND      2 15 16                  1.8958237     108.6226955
  24 BEND      2 15 17                  1.8853960     108.0252311
  25 BEND      3 16 18                  1.8853819     108.0244256
  26 BEND      3 16  4                  1.9028062     109.0227642
  27 BEND      3 16 15                  1.8958005     108.6213650
  28 BEND      4 16 18                  1.8853465     108.0224001
  29 BEND      4 16 15                  1.8958281     108.6229465
  30 BEND      5 17 19                  1.8511532     106.0632630
  31 BEND      5 17 15                  1.8953850     108.5975587
  32 BEND      5 17  6                  1.9088574     109.3694708
  33 BEND      6 17 19                  1.8511608     106.0636992
  34 BEND      6 17 15                  1.8953309     108.5944631
  35 BEND      7 18 20                  1.8511537     106.0632961
  36 BEND      7 18 16                  1.8953456     108.5953062
  37 BEND      7 18  8                  1.9088576     109.3694816
  38 BEND      8 18 20                  1.8511556     106.0634057
  39 BEND      8 18 16                  1.8953692     108.5966532
  40 BEND      9 19 17                  1.8644756     106.8265825
  41 BEND      9 19 11                  1.8951618     108.5847731
  42 BEND      9 19 10                  1.8951939     108.5866124
  43 BEND     10 19 17                  1.9499580     111.7243627
  44 BEND     10 19 11                  1.9069496     109.2601620
  45 BEND     11 19 17                  1.9501995     111.7381990
  46 BEND     12 20 18                  1.8644768     106.8266507
  47 BEND     12 20 14                  1.8951578     108.5845408
  48 BEND     12 20 13                  1.8951876     108.5862519
  49 BEND     13 20 18                  1.9499519     111.7240127
  50 BEND     13 20 14                  1.9069451     109.2599086
  51 BEND     14 20 18                  1.9502186     111.7392955
  52 BEND     15 17 19                  2.0581256     117.9219129
  53 BEND     15 16 18                  1.9970748     114.4239548
  54 BEND     16 18 20                  2.0581309     117.9222116
  55 BEND     16 15 17                  1.9970706     114.4237149
  56 TORSION   1 15 17 19              -1.0280949     -58.9054981
  57 TORSION   1 15 16 18               1.0336838      59.2257173
  58 TORSION   1 15 16  4              -1.0741628     -61.5449958
  59 TORSION   1 15 17  6               1.0763812      61.6721023
  60 TORSION   1 15 16  3               3.1415556     179.9978753
  61 TORSION   1 15 17  5              -3.1326049    -179.4850380
  62 TORSION   2 15 16  3               1.0740883      61.5407271
  63 TORSION   2 15 17 19               1.0278240      58.8899785
  64 TORSION   2 15 17  6               3.1323002     179.4675789
  65 TORSION   2 15 17  5              -1.0766860     -61.6895614
  66 TORSION   2 15 16 18              -1.0337835     -59.2314308
  67 TORSION   2 15 16  4               3.1415552     179.9978561
  68 TORSION   3 16 18 20               1.0280529      58.9030900
  69 TORSION   3 16 18  8              -1.0764512     -61.6761129
  70 TORSION   3 16 18  7               3.1325353     179.4810500
  71 TORSION   3 16 15 17              -1.0338157     -59.2332752
  72 TORSION   4 16 15 17               1.0336512      59.2238537
  73 TORSION   4 16 18 20              -1.0278663     -58.8923990
  74 TORSION   4 16 18  8              -3.1323704    -179.4716019
  75 TORSION   4 16 18  7               1.0766161      61.6855610
  76 TORSION   5 17 15 16               1.0369795      59.4145483
  77 TORSION   5 17 19 11               1.0558422      60.4952996
  78 TORSION   5 17 19 10              -3.0847686    -176.7442224
  79 TORSION   5 17 19  9              -1.0145116     -58.1272327
  80 TORSION   6 17 19  9               1.0141890      58.1087505
  81 TORSION   6 17 15 16              -1.0372197     -59.4283114
  82 TORSION   6 17 19 11               3.0845428     176.7312827
  83 TORSION   6 17 19 10              -1.0560680     -60.5082392
  84 TORSION   7 18 16 15              -1.0370217     -59.4169694
  85 TORSION   7 18 20 14              -1.0559597     -60.5020363
  86 TORSION   7 18 20 13               3.0846473     176.7372701
  87 TORSION   7 18 20 12               1.0144006      58.1208725
  88 TORSION   8 18 16 15               1.0371771      59.4258677
  89 TORSION   8 18 20 14              -3.0846585    -176.7379112
  90 TORSION   8 18 20 13               1.0559485      60.5013952
  91 TORSION   8 18 20 12              -1.0142981     -58.1150024
  92 TORSION   9 19 17 15               3.1413989     179.9888994
  93 TORSION  10 19 17 15               1.0711419      61.3719097
  94 TORSION  11 19 17 15              -1.0714326     -61.3885684
  95 TORSION  12 20 18 16              -3.1415576    -179.9979943
  96 TORSION  13 20 18 16              -1.0713110     -61.3815967
  97 TORSION  14 20 18 16               1.0712673      61.3790969
  98 TORSION  15 16 18 20              -3.1415042    -179.9949294
  99 TORSION  16 15 17 19               3.1414895     179.9940883
 100 TORSION  17 15 16 18               3.1414978     179.9945668

          INTERNUCLEAR DISTANCES (ANGS.)


 =====================================================
   GAMESS/COSab RESULTS
 =====================================================

   Dielectric Constant                  = INFTY
   Basic Grid Size                      =                 1082
   Number of Segments                   =                   92
   Number of Segments located on spheres=                  438
   Number of Segments of the cavity     =                  702
   Solvent Radius (rsolv)               = 1.40
   Outlying Charge Error Method         = double cavity

 =====================================================

  Total solvated Energy (a.u.)          = -1619.7797817025
  Total Energy corrected (a.u.)         = -1619.7797826714

  Outlying charge effect (a.u.)         =    -0.0000009690
  Outlying charge effect (kcal/mol)     =    -0.0006080388

  Dielectric Energy (a.u.)              =    -0.0024632692
  Dielectric energy corr. (a.u.)        =    -0.0024642381

  Sum of polarization charges           =     0.0017838509
  Sum of polarization charges(cor.)     =    -0.0017838509

  Total surface area of cavity (A**2)   =  222.94
  Total volume of cavity (A**3)         =  251.35

 =====================================================
 NPS=                   702
NR.  ATOM  (X, Y, Z)(a.u.)                  CHARGE(e)  AREA(A**2) SIGMA(e/A**2)
   1   1   3.297663   2.605874   4.784741   0.000138   0.309230   0.000446
   2   1   1.290551   0.831547   5.105748   0.000429   0.206154   0.002079
   3   1   3.625525   4.142905   1.700857   0.000635   0.240512   0.002639
   4   1   3.760740   1.665259   4.893594   0.000372   0.377948   0.000983
   5   1   3.406203   0.769778   5.055323   0.000353   0.206154   0.001715
   6   1   2.592678   2.025614   5.162791   0.000248   0.274871   0.000901
   7   1   1.648169   1.506344   5.206081   0.000550   0.309230   0.001780
   8   1   2.475858   3.218555   4.574289   0.000324   0.309230   0.001049
   9   1   3.459337   3.513774   3.992549   0.000365   0.377948   0.000965
  10   1   3.605432   4.056011   2.851548   0.000681   0.309230   0.002202
  11   1   4.293246   2.611330   4.166699   0.000439   0.412307   0.001064
  12   1   4.787630   2.780046   3.381519   0.000464   0.240512   0.001928
  13   1   2.733816   0.075318   5.050878   0.000300   0.171795   0.001748
  14   1   1.807252   0.169767   5.079280   0.000411   0.240512   0.001708
  15   1   3.015722   4.367265   2.041126   0.000472   0.171795   0.002748
  16   1   4.363908   3.698678   1.948127   0.000596   0.240512   0.002479
  17   1   4.943024   3.072802   1.975266   0.000658   0.240512   0.002735
  18   1   2.936106   4.256693   1.140738   0.000040   0.137436   0.000290
  19   1   4.059040   3.788173   1.182430   0.000237   0.137436   0.001727
  20   1   2.604499   0.954323   5.259544   0.000458   0.274871   0.001665
  21   1   1.754622   2.369843   5.019208   0.000354   0.206154   0.001715
  22   1   2.884175   4.094186   3.386745   0.000541   0.240512   0.002251
  23   1   4.455063   3.447675   2.935174   0.000777   0.343589   0.002262
  24   1   4.786264   3.080369   1.149122   0.000139   0.171795   0.000811
  25   2   3.357993   2.661206  -4.732143   0.000167   0.343589   0.000487
  26   2   2.377771   0.045905  -5.070965   0.000335   0.171795   0.001951
  27   2   4.570759   3.491941  -1.723416   0.000634   0.240512   0.002636
  28   2   2.256724   2.767560  -4.880514   0.000362   0.377948   0.000958
  29   2   1.481367   1.995041  -5.080221   0.000343   0.171795   0.001996
  30   2   2.932105   1.800021  -5.162254   0.000245   0.274871   0.000892
  31   2   2.667385   0.821694  -5.239455   0.000466   0.274871   0.001696
  32   2   4.184120   2.059044  -4.529328   0.000330   0.343589   0.000960
  33   2   3.996118   3.195188  -3.947385   0.000329   0.343589   0.000959
  34   2   4.463796   3.487647  -2.803584   0.000607   0.274871   0.002208
  35   2   2.819570   3.557814  -4.206155   0.000376   0.343589   0.001095
  36   2   3.034842   4.020244  -3.465263   0.000441   0.240512   0.001833
  37   2   1.078228   1.178130  -5.050517   0.000298   0.171795   0.001734
  38   2   1.522689   0.359659  -5.078968   0.000410   0.240512   0.001704
  39   2   3.091030   0.198072  -5.019568   0.000175   0.103077   0.001698
  40   2   5.015357   2.925726  -2.412626   0.000477   0.206154   0.002316
  41   2   3.902831   4.016176  -1.885802   0.000604   0.240512   0.002512
  42   2   3.081867   4.349649  -2.135386   0.000778   0.274871   0.002829
  43   2   4.928162   2.947055  -1.300316   0.000130   0.206154   0.000629
  44   2   3.992601   3.832291  -1.181634   0.000216   0.137436   0.001574
  45   2   1.939125   1.397810  -5.259108   0.000471   0.274871   0.001713
  46   2   3.600201   1.109687  -5.005691   0.000389   0.240512   0.001619
  47   2   4.718208   2.745066  -3.539448   0.000534   0.274871   0.001943
  48   2   3.661572   4.003973  -2.934513   0.000686   0.309230   0.002218
  49   2   3.059099   4.230307  -1.148347   0.000087   0.171795   0.000508
  50   3  -3.357570  -2.660958  -4.733096   0.000168   0.343589   0.000490
  51   3  -2.377322  -0.045620  -5.071558   0.000336   0.171795   0.001958
  52   3  -4.570667  -3.491986  -1.724583   0.000635   0.240512   0.002641
  53   3  -2.256283  -2.767293  -4.881355   0.000364   0.377948   0.000962
  54   3  -1.480908  -1.994750  -5.080901   0.000344   0.171795   0.002001
  55   3  -2.931638  -1.799730  -5.163077   0.000246   0.274871   0.000895
  56   3  -2.666914  -0.821395  -5.240155   0.000467   0.274871   0.001700
  57   3  -4.183722  -2.058819  -4.530315   0.000331   0.343589   0.000965
  58   3  -3.995779  -3.195018  -3.948460   0.000331   0.343589   0.000962
  59   3  -4.463584  -3.487588  -2.804739   0.000609   0.274871   0.002216
  60   3  -2.819201  -3.557614  -4.207134   0.000378   0.343589   0.001099
  61   3  -3.034553  -4.020116  -3.466310   0.000442   0.240512   0.001838
  62   3  -1.077775  -1.177841  -5.051074   0.000299   0.171795   0.001741
  63   3  -1.522237  -0.359369  -5.079496   0.000411   0.240512   0.001710
  64   3  -3.090586  -0.197796  -5.020256   0.000176   0.103077   0.001706
  65   3  -5.015192  -2.925708  -2.413789   0.000477   0.206154   0.002312
  66   3  -3.902719  -4.016203  -1.886945   0.000604   0.240512   0.002510
  67   3  -3.081726  -4.349648  -2.136470   0.000779   0.274871   0.002832
  68   3  -4.928120  -2.947142  -1.301472   0.000182   0.206154   0.000881
  69   3  -3.992569  -3.832385  -1.182769   0.000214   0.137436   0.001558
  70   3  -1.938648  -1.397505  -5.259782   0.000472   0.274871   0.001717
  71   3  -3.599754  -1.109414  -5.006523   0.000390   0.240512   0.001623
  72   3  -4.717918  -2.744939  -3.540561   0.000536   0.274871   0.001950
  73   3  -3.661343  -4.003898  -2.935628   0.000688   0.309230   0.002225
  74   3  -3.059068  -4.230400  -1.149416   0.000148   0.171795   0.000859
  75   4  -3.298070  -2.606185   4.783794   0.000137   0.309230   0.000443
  76   4  -1.291004  -0.831882   5.105220   0.000427   0.206154   0.002073
  77   4  -3.625564  -4.142898   1.699713   0.000633   0.240512   0.002633
  78   4  -3.761164  -1.665583   4.892691   0.000370   0.377948   0.000979
  79   4  -3.406650  -0.770117   5.054554   0.000352   0.206154   0.001708
  80   4  -2.593131  -2.025960   5.161987   0.000247   0.274871   0.000897
  81   4  -1.648630  -1.506690   5.205442   0.000549   0.309230   0.001775
  82   4  -2.476237  -3.218840   4.573376   0.000323   0.309230   0.001045
  83   4  -3.459647  -3.514003   3.991490   0.000363   0.377948   0.000961
  84   4  -3.605606  -4.056123   2.850416   0.000679   0.309230   0.002195
  85   4  -4.293580  -2.611581   4.165636   0.000437   0.412307   0.001060
  86   4  -4.787872  -2.780218   3.380380   0.000463   0.240512   0.001924
  87   4  -2.734266  -0.075654   5.050260   0.000299   0.171795   0.001740
  88   4  -1.807704  -0.170101   5.078760   0.000409   0.240512   0.001701
  89   4  -3.015799  -4.367291   2.040031   0.000472   0.171795   0.002747
  90   4  -4.363977  -3.698701   1.946943   0.000597   0.240512   0.002481
  91   4  -4.943100  -3.072830   1.974079   0.000648   0.240512   0.002696
  92   4  -2.936079  -4.256625   1.139664  -0.000012   0.137436  -0.000091
  93   4  -4.059020  -3.788115   1.181273   0.000239   0.137436   0.001738
  94   4  -2.604969  -0.954679   5.258850   0.000457   0.274871   0.001661
  95   4  -1.755057  -2.370170   5.018467   0.000353   0.206154   0.001711
  96   4  -2.884411  -4.094351   3.385693   0.000540   0.240512   0.002245
  97   4  -4.455249  -3.447800   2.934005   0.000775   0.343589   0.002257
  98   4  -4.786243  -3.080311   1.147953   0.000091   0.171795   0.000529
  99   5   1.042087  -5.398895  -4.794400   0.000201   0.309230   0.000651
 100   5   3.695455  -5.034532  -4.513516   0.000193   0.103077   0.001873
 101   5   1.849009  -2.843444  -5.107970   0.000493   0.206154   0.002392
 102   5  -0.219185  -6.352848  -1.796531   0.000545   0.206154   0.002641
 103   5   2.415206  -7.082948  -2.541379   0.000519   0.171795   0.003020
 104   5   2.128210  -5.409559  -4.915067   0.000520   0.412307   0.001262
 105   5   3.137380  -4.875562  -4.890893   0.000624   0.274871   0.002269
 106   5   1.286670  -4.518113  -5.169940   0.000304   0.274871   0.001105
 107   5   1.377729  -3.444020  -5.210494   0.000612   0.309230   0.001980
 108   5   0.148154  -4.897195  -4.584135   0.000387   0.309230   0.001253
 109   5   0.276823  -5.917222  -4.004656   0.000456   0.377948   0.001207
 110   5  -0.161157  -6.273671  -2.865197   0.000771   0.309230   0.002494
 111   5   1.429216  -6.368653  -4.110502   0.000636   0.481025   0.001323
 112   5   2.145779  -6.877497  -3.347118   0.000945   0.377948   0.002501
 113   5   3.126065  -3.855410  -5.053546   0.000367   0.171795   0.002137
 114   5   2.663546  -3.046961  -5.080718   0.000417   0.240512   0.001733
 115   5  -0.686327  -5.863119  -2.054602   0.000523   0.171795   0.003042
 116   5   0.527884  -6.850145  -1.937973   0.000777   0.274871   0.002825
 117   5   1.724620  -7.156173  -2.040732   0.000991   0.343589   0.002886
 118   5   3.063066  -6.510382  -3.615402   0.000519   0.206154   0.002520
 119   5   3.624875  -5.598358  -4.226588   0.000420   0.206154   0.002037
 120   5  -0.619021  -5.747638  -1.153826   0.000012   0.137436   0.000085
 121   5   0.100052  -6.459208  -1.151482   0.000578   0.206154   0.002801
 122   5   2.341142  -4.188551  -5.248732   0.000648   0.343589   0.001886
 123   5   0.631564  -3.892391  -5.025871   0.000392   0.206154   0.001901
 124   5  -0.488087  -5.628767  -3.399350   0.000596   0.240512   0.002478
 125   5   0.845523  -6.841399  -2.955402   0.001118   0.446666   0.002504
 126   5   2.779922  -6.072295  -4.306441   0.000620   0.309230   0.002005
 127   5   1.293448  -7.001699  -1.244633   0.000384   0.240512   0.001596
 128   6   1.016290  -5.475565   4.743519   0.000241   0.343589   0.000701
 129   6   2.906192  -3.512922   5.108318   0.000502   0.206154   0.002436
 130   6   0.837590  -6.977072   1.949513   0.000585   0.206154   0.002838
 131   6   0.472154  -4.511968   4.890204   0.000433   0.377948   0.001147
 132   6   0.863597  -3.489183   5.086495   0.000382   0.171795   0.002223
 133   6   1.742685  -4.803085   5.160121   0.000398   0.343589   0.001158
 134   6   2.563843  -4.195245   5.210981   0.000628   0.309230   0.002029
 135   6   1.962257  -5.989709   4.537500   0.000464   0.377948   0.001229
 136   6   2.853267  -6.383801   3.927522   0.000977   0.377948   0.002585
 137   6   0.825085  -6.310258   3.943250   0.000475   0.377948   0.001256
 138   6   0.745470  -6.824518   2.884012   0.000789   0.309230   0.002552
 139   6  -0.022586  -5.349035   4.218930   0.000455   0.343589   0.001325
 140   6  -0.359001  -5.735536   3.479642   0.000493   0.240512   0.002051
 141   6   1.446369  -2.789138   5.053925   0.000338   0.171795   0.001968
 142   6   2.374851  -2.862873   5.081017   0.000494   0.240512   0.002055
 143   6   3.504795  -4.673857   4.768389   0.000469   0.240512   0.001949
 144   6   3.634831  -5.534340   4.267272   0.000481   0.240512   0.001998
 145   6   2.553227  -6.928110   3.064815   0.000664   0.240512   0.002759
 146   6   1.836313  -7.153984   2.244525   0.001021   0.343589   0.002972
 147   6  -0.005466  -6.531348   1.901727   0.000670   0.240512   0.002787
 148   6  -0.643159  -5.915858   2.150721   0.000840   0.274871   0.003055
 149   6   1.507824  -7.043983   1.274149   0.000418   0.274871   0.001520
 150   6   0.405082  -6.665043   1.198440   0.000596   0.240512   0.002477
 151   6   1.595553  -3.664502   5.264628   0.000513   0.274871   0.001868
 152   6   2.799498  -5.319764   4.830989   0.000614   0.343589   0.001788
 153   6   1.710729  -6.847211   3.418630   0.000754   0.343589   0.002194
 154   6  -0.090523  -6.303091   2.949969   0.000773   0.309230   0.002500
 155   6  -0.545001  -5.849254   1.163333   0.000197   0.171795   0.001144
 156   7  -1.015952   5.475524   4.743171   0.000241   0.343589   0.000700
 157   7  -2.905830   3.512890   5.108144   0.000502   0.206154   0.002434
 158   7  -0.837477   6.977002   1.949135   0.000584   0.206154   0.002833
 159   7  -0.471807   4.511927   4.889821   0.000433   0.377948   0.001145
 160   7  -0.863237   3.489145   5.086154   0.000381   0.171795   0.002220
 161   7  -1.742315   4.803050   5.159839   0.000397   0.343589   0.001156
 162   7  -2.563471   4.195213   5.210773   0.000627   0.309230   0.002028
 163   7  -1.961935   5.989668   4.537224   0.000464   0.377948   0.001227
 164   7  -2.852993   6.383757   3.927315   0.000976   0.377948   0.002583
 165   7  -0.824810   6.310208   3.942878   0.000474   0.377948   0.001254
 166   7  -0.745280   6.824457   2.883628   0.000788   0.309230   0.002550
 167   7   0.022881   5.348985   4.218498   0.000454   0.343589   0.001322
 168   7   0.359236   5.735478   3.479178   0.000493   0.240512   0.002049
 169   7  -1.446013   2.789101   5.053639   0.000337   0.171795   0.001964
 170   7  -2.374493   2.862839   5.080807   0.000493   0.240512   0.002052
 171   7  -3.504457   4.673823   4.768253   0.000468   0.240512   0.001947
 172   7  -3.634532   5.534301   4.267138   0.000480   0.240512   0.001996
 173   7  -2.553023   6.928056   3.064578   0.000663   0.240512   0.002757
 174   7  -1.836176   7.153920   2.244227   0.001021   0.343589   0.002970
 175   7   0.005574   6.531275   1.901284   0.000672   0.240512   0.002796
 176   7   0.643286   5.915786   2.150232   0.000840   0.274871   0.003057
 177   7  -1.507766   7.043908   1.273825   0.000417   0.274871   0.001516
 178   7  -0.405031   6.664964   1.198030   0.000598   0.240512   0.002487
 179   7  -1.595177   3.664467   5.264346   0.000513   0.274871   0.001866
 180   7  -2.799154   5.319729   4.830788   0.000614   0.343589   0.001786
 181   7  -1.710495   6.847158   3.418325   0.000753   0.343589   0.002192
 182   7   0.090717   6.303029   2.949522   0.000772   0.309230   0.002496
 183   7   0.545046   5.849172   1.162853   0.000137   0.171795   0.000796
 184   8  -1.042423   5.398929  -4.794742   0.000202   0.309230   0.000652
 185   8  -3.695769   5.034576  -4.513640   0.000193   0.103077   0.001874
 186   8  -1.849378   2.843477  -5.108225   0.000494   0.206154   0.002395
 187   8   0.219095   6.352905  -1.796985   0.000545   0.206154   0.002644
 188   8  -2.415354   7.083006  -2.541626   0.000519   0.171795   0.003022
 189   8  -2.128556   5.409595  -4.915321   0.000521   0.412307   0.001263
 190   8  -3.137725   4.875601  -4.891060   0.000624   0.274871   0.002270
 191   8  -1.287039   4.518144  -5.170255   0.000304   0.274871   0.001106
 192   8  -1.378104   3.444051  -5.210792   0.000613   0.309230   0.001982
 193   8  -0.148474   4.897229  -4.584546   0.000388   0.309230   0.001255
 194   8  -0.277093   5.917261  -4.005065   0.000456   0.377948   0.001208
 195   8   0.160980   6.273719  -2.865645   0.000772   0.309230   0.002497
 196   8  -1.429494   6.368695  -4.110822   0.000637   0.481025   0.001324
 197   8  -2.145993   6.877547  -3.347384   0.000945   0.377948   0.002502
 198   8  -3.126426   3.855447  -5.053705   0.000368   0.171795   0.002140
 199   8  -2.663912   3.046998  -5.080908   0.000417   0.240512   0.001736
 200   8   0.686215   5.863172  -2.055089   0.000522   0.171795   0.003037
 201   8  -0.527984   6.850203  -1.938370   0.000778   0.274871   0.002829
 202   8  -1.724727   7.156234  -2.041035   0.000992   0.343589   0.002887
 203   8  -3.063303   6.510433  -3.615591   0.000520   0.206154   0.002521
 204   8  -3.625164   5.598404  -4.226723   0.000420   0.206154   0.002038
 205   8   0.618982   5.747700  -1.154307   0.000062   0.137436   0.000451
 206   8  -0.100089   6.459271  -1.151911   0.000577   0.206154   0.002799
 207   8  -2.341518   4.188585  -5.248958   0.000648   0.343589   0.001887
 208   8  -0.631923   3.892422  -5.026234   0.000392   0.206154   0.001902
 209   8   0.487865   5.628809  -3.399819   0.000597   0.240512   0.002482
 210   8  -0.845705   6.841449  -2.955773   0.001119   0.446666   0.002506
 211   8  -2.780216   6.072338  -4.306648   0.000620   0.309230   0.002006
 212   8  -1.293491   7.001766  -1.244969   0.000385   0.240512   0.001599
 213   9   6.846584  -8.476231  -0.071511   0.000248   0.377948   0.000657
 214   9   7.401868  -6.507808  -2.754459   0.000966   0.343589   0.002813
 215   9   7.264163  -6.698791   2.722623   0.000943   0.309230   0.003049
 216   9   9.343769  -6.010218   0.063979   0.000910   0.309230   0.002941
 217   9   7.318034  -8.123731  -1.124242   0.000568   0.412307   0.001378
 218   9   7.418458  -7.431348  -2.111312   0.001022   0.377948   0.002705
 219   9   5.977219  -8.414647  -0.898370   0.000505   0.377948   0.001336
 220   9   5.129201  -7.964400  -1.536027   0.000777   0.309230   0.002514
 221   9   5.837290  -8.474405   0.598227   0.000510   0.412307   0.001237
 222   9   5.049676  -8.042595   1.329072   0.000793   0.309230   0.002564
 223   9   7.067576  -8.232432   1.072554   0.000465   0.377948   0.001230
 224   9   7.299452  -7.604153   1.994050   0.000856   0.343589   0.002491
 225   9   7.971037  -8.001167   0.146327   0.000640   0.481025   0.001330
 226   9   8.837573  -7.154964   0.122067   0.001107   0.412307   0.002686
 227   9   6.531512  -6.989203  -2.751534   0.000648   0.240512   0.002693
 228   9   5.698032  -7.458966  -2.379807   0.000797   0.274871   0.002900
 229   9   4.448619  -7.977802  -0.635802   0.000646   0.274871   0.002351
 230   9   4.507150  -8.055672   0.424445   0.000646   0.274871   0.002350
 231   9   5.435772  -7.573283   2.200544   0.000771   0.274871   0.002804
 232   9   6.299918  -7.191676   2.638581   0.000749   0.274871   0.002723
 233   9   8.202463  -6.639043   2.156022   0.000938   0.309230   0.003033
 234   9   9.028272  -6.389801   1.104873   0.001085   0.343589   0.003158
 235   9   9.087924  -6.494352  -0.797125   0.000987   0.309230   0.003191
 236   9   8.424177  -6.641865  -1.920439   0.001050   0.343589   0.003056
 237   9   6.505359  -6.173386  -3.111878   0.000135   0.171795   0.000784
 238   9   6.568027  -6.157004   3.110058   0.000402   0.274871   0.001462
 239   9   7.974807  -6.036492   2.602865   0.000281   0.137436   0.002043
 240   9   9.345660  -5.275149   0.707505   0.000163   0.309230   0.000528
 241   9   9.382594  -5.184842  -0.501586   0.000112   0.309230   0.000363
 242   9   8.180910  -6.030988  -2.448105   0.000410   0.171795   0.002387
 243   9   6.329714  -7.949522  -1.871829   0.000746   0.343589   0.002170
 244   9   5.155477  -8.377541  -0.200691   0.000463   0.274871   0.001686
 245   9   6.242471  -7.971528   1.846532   0.000727   0.343589   0.002117
 246   9   8.270360  -7.386568   1.342620   0.001134   0.446666   0.002539
 247   9   8.369942  -7.415124  -1.119201   0.001011   0.412307   0.002452
 248   9   5.775948  -6.678729  -2.914711   0.000377   0.171795   0.002196
 249   9   5.826428  -6.619637   2.949294   0.000247   0.171795   0.001438
 250   9   8.808850  -5.800676   1.834788   0.000691   0.274871   0.002515
 251   9   8.971306  -5.780862  -1.581169   0.000819   0.309230   0.002650
 252  10   7.871751  -0.400028   4.626046   0.000177   0.377948   0.000467
 253  10   7.517935   1.265407   2.124015   0.000420   0.171795   0.002445
 254  10   9.665279  -0.786520   1.851925   0.000865   0.309230   0.002796
 255  10   8.878534  -3.442316   3.692385   0.000839   0.309230   0.002712
 256  10   6.141657  -3.053618   4.995308   0.000639   0.240512   0.002658
 257  10   6.704023  -0.134228   4.769313   0.000487   0.412307   0.001182
 258  10   7.798042   0.436955   3.984191   0.000272   0.274871   0.000988
 259  10   7.465623   1.093947   3.080915   0.000717   0.309230   0.002319
 260  10   8.803144  -0.332678   3.854555   0.000496   0.412307   0.001204
 261  10   9.471694  -0.652996   2.945365   0.000954   0.377948   0.002523
 262  10   8.508553  -1.405556   4.602412   0.000412   0.377948   0.001090
 263  10   8.778926  -2.479837   4.336944   0.000826   0.343589   0.002403
 264  10   7.312231  -1.376759   5.146113   0.000510   0.481025   0.001060
 265  10   6.517043  -2.221887   5.238710   0.000808   0.377948   0.002139
 266  10   8.174316   0.992450   2.032509   0.000638   0.240512   0.002654
 267  10   9.082079   0.241533   1.871356   0.001066   0.377948   0.002820
 268  10   9.820936  -1.803241   2.428818   0.001277   0.412307   0.003097
 269  10   9.506978  -2.686831   3.194717   0.001049   0.343589   0.003052
 270  10   8.023310  -3.575836   4.367497   0.000854   0.309230   0.002761
 271  10   7.066542  -3.301877   4.880755   0.000725   0.274871   0.002637
 272  10   5.513245  -1.991796   5.071455   0.000504   0.240512   0.002094
 273  10   7.556903   1.155463   1.228091   0.000209   0.206154   0.001015
 274  10   9.372146  -0.393470   1.146384   0.000450   0.206154   0.002182
 275  10   9.768405  -1.625616   1.330673   0.000156   0.240512   0.000647
 276  10   9.692114  -2.564194   1.317487  -0.000273   0.171795  -0.001588
 277  10   9.190548  -3.642999   2.803217   0.000606   0.274871   0.002204
 278  10   8.148484  -4.087382   3.786795   0.000338   0.137436   0.002460
 279  10   6.250407  -3.878700   4.526300   0.000175   0.171795   0.001019
 280  10   7.026920   0.708857   3.968587   0.000339   0.206154   0.001645
 281  10   8.605735   0.510095   2.992388   0.001030   0.481025   0.002141
 282  10   9.362414  -1.637532   3.706986   0.000934   0.412307   0.002265
 283  10   7.839404  -2.586560   4.922930   0.000823   0.377948   0.002176
 284  10   5.955051  -1.058070   5.096885   0.000671   0.343589   0.001953
 285  10   8.433366   0.717570   1.233748   0.000485   0.206154   0.002352
 286  10   9.665381  -2.922656   2.079815   0.000415   0.309230   0.001343
 287  10   7.133438  -4.093953   4.300357   0.000349   0.240512   0.001452
 288  11   7.846268  -0.408083  -4.643432   0.000189   0.377948   0.000499
 289  11   8.315408   0.871492  -1.557361   0.000835   0.343589   0.002431
 290  11   5.418319  -1.507670  -5.020663   0.000428   0.206154   0.002077
 291  11   7.630062  -3.733364  -4.452091   0.000872   0.309230   0.002821
 292  11   9.820614  -2.148201  -2.317608   0.000860   0.309230   0.002781
 293  11   8.355033   0.246214  -3.767180   0.000477   0.412307   0.001157
 294  11   8.431951   0.751025  -2.670350   0.000921   0.377948   0.002437
 295  11   7.205939   0.266149  -4.402140   0.000221   0.240512   0.000917
 296  11   6.812137   0.578554  -4.160519   0.000285   0.171795   0.001658
 297  11   6.951455  -0.874685  -5.091790   0.000265   0.274871   0.000963
 298  11   6.070140  -1.486186  -5.197951   0.000521   0.274871   0.001895
 299  11   7.895240  -1.549842  -4.976821   0.000393   0.377948   0.001040
 300  11   7.908248  -2.683641  -4.867352   0.000784   0.343589   0.002280
 301  11   8.834862  -1.026259  -4.221444   0.000565   0.481025   0.001174
 302  11   9.529335  -1.564159  -3.387236   0.001054   0.412307   0.002557
 303  11   7.552682   1.255914  -2.067007   0.000649   0.240512   0.002698
 304  11   5.786765  -2.667638  -5.051102   0.000693   0.274871   0.002520
 305  11   6.786987  -3.251378  -4.938591   0.000683   0.274871   0.002486
 306  11   8.596678  -3.444964  -4.019085   0.000884   0.309230   0.002858
 307  11   9.470481  -2.808016  -3.194610   0.001044   0.343589   0.003037
 308  11   9.730000  -1.038532  -2.325134   0.001151   0.377948   0.003046
 309  11   9.249821   0.029082  -1.976757   0.000976   0.343589   0.002842
 310  11   7.416275   1.185355  -1.188085   0.000046   0.171795   0.000270
[...]
 443   2   5.145648   2.057544  -0.180068  -0.003373   0.241865  -0.013947
 444  10   5.963563   1.425275   0.618506  -0.003486   0.241865  -0.014413
 445   2   2.996845   4.118677  -0.550758  -0.000943   0.259312  -0.003638
 446   2   4.323981   3.276727  -0.550717  -0.001722   0.520159  -0.003310
 447   1   3.526078   3.831646   0.551153  -0.001599   0.520159  -0.003075
 448   1   4.777245   2.880462   0.551193  -0.000998   0.259312  -0.003850
 449   1   0.964015  -0.789732   4.556717  -0.001945   0.251200  -0.007741
 450   4   0.079274  -1.254242   4.561291  -0.001196   0.251200  -0.004762
 451   6   0.890901  -1.777941   4.564011  -0.001176   0.251200  -0.004682
 452   1  -0.079995   1.254018   4.561373  -0.001195   0.251191  -0.004759
 453   4  -0.964735   0.789508   4.556529  -0.001946   0.251191  -0.007748
 454   7  -0.891583   1.777707   4.563912  -0.001177   0.251191  -0.004687
 455   4  -0.556381  -0.462220   4.836834  -0.001013   0.496326  -0.002042
 456   1   0.555568   0.461979   4.837013  -0.001011   0.496326  -0.002038
 457   1   3.376819  -0.966327   4.527887  -0.001467   0.260464  -0.005634
 458   6   3.305119  -1.955214   4.535169  -0.001967   0.260464  -0.007553
 459  10   4.211848  -1.557105   4.523599  -0.001404   0.260464  -0.005390
 460   6   2.242498  -2.066135   4.828280  -0.001064   0.530641  -0.002005
 461   1   2.020923  -0.644273   4.830520  -0.001133   0.530641  -0.002135
 462   7  -0.644302   2.520648   4.891442   0.000254   0.291879   0.000869
 463   7   0.137228   3.731675   4.677118   0.001180   0.583980   0.002020
 464   7   0.892506   4.903664   3.568544   0.001418   0.583980   0.002429
 465   7   1.133738   5.280488   1.844377   0.000438   0.583980   0.000750
 466   1   0.803806   2.246225   4.844300   0.000801   0.583980   0.001372
 467   1   1.711097   3.652783   4.234908   0.001260   0.583980   0.002157
 468   1   2.236449   4.469305   2.741510   0.001187   0.583980   0.002033
 469   1   2.276600   4.534152   1.286350  -0.000163   0.291879  -0.000558
 470  10   6.621908   1.507697   1.269150  -0.000645   0.298824  -0.002159
 471  10   6.590527   1.452512   2.687366   0.000704   0.597550   0.001178
 472  10   6.061438   0.693419   4.157267   0.000974   0.597550   0.001630
 473  10   5.129200  -0.629122   4.788601   0.000497   0.597550   0.000831
 474   1   5.448306   2.351066   1.817294  -0.000183   0.597550  -0.000307
 475   1   5.212698   2.005163   3.503000   0.000940   0.597550   0.001574
 476   1   4.443343   0.909231   4.609252   0.000759   0.597550   0.001271
 477   1   3.636590  -0.232985   4.853917   0.000075   0.298824   0.000252
 478   2   0.964910  -0.789910  -4.556621  -0.001945   0.251202  -0.007745
 479   3   0.080178  -1.254394  -4.561470  -0.001240   0.251202  -0.004936
 480   5   0.891755  -1.778156  -4.563899  -0.001136   0.251202  -0.004524
 481   2  -0.079431   1.254609  -4.561380  -0.001241   0.251213  -0.004939
 482   3  -0.964165   0.790125  -4.556806  -0.001944   0.251213  -0.007737
 483   8  -0.891054   1.778385  -4.563992  -0.001135   0.251213  -0.004519
 484   3  -0.695867  -0.194391  -4.837166  -0.001090   0.496604  -0.002195
 485   2   0.696708   0.194622  -4.836969  -0.001092   0.496604  -0.002199
 486   2   3.376270  -0.966542  -4.527655  -0.001440   0.260514  -0.005528
 487   5   3.304527  -1.955468  -4.534939  -0.001974   0.260514  -0.007578
 488  11   4.211383  -1.557455  -4.523616  -0.001423   0.260514  -0.005463
 489   5   1.918705  -2.042611  -4.831680  -0.000972   0.530118  -0.001833
 490   2   2.344981  -0.668201  -4.826599  -0.001064   0.530118  -0.002007
 491   2   1.662567   4.428724  -0.618952  -0.002504   0.226593  -0.011051
 492   7   0.860034   4.984642   0.181317  -0.002706   0.226593  -0.011940
 493   8   0.907242   5.025242  -0.597879  -0.002017   0.226593  -0.008901
 494   8   1.129380   5.274856  -1.287455  -0.000123   0.291862  -0.000421
 495   8   1.089396   5.210034  -2.742444   0.001264   0.583945   0.002164
 496   8   0.564279   4.393724  -4.235796   0.001336   0.583945   0.002289
 497   8  -0.342870   2.987450  -4.845453   0.000874   0.583945   0.001496
 498   2   2.281079   4.539885  -1.842591   0.000353   0.583945   0.000604
 499   2   2.040072   4.163170  -3.566601   0.001341   0.583945   0.002296
 500   2   1.285002   2.991455  -4.675277   0.001108   0.583945   0.001897
 501   2   0.503544   1.780646  -4.889897   0.000215   0.291862   0.000736
 502   2   5.580944   1.696920  -0.626030  -0.003355   0.238824  -0.014046
 503  10   6.449890   1.137480   0.172700  -0.003618   0.238824  -0.015149
 504  11   6.468778   1.196582  -0.596389  -0.002802   0.238824  -0.011732
 505  11   4.817825  -1.069418  -4.847774   0.000093   0.298848   0.000311
 506  11   5.624684   0.072691  -4.603330   0.000824   0.597596   0.001379
 507  11   6.394398   1.168508  -3.497334   0.000972   0.597596   0.001627
 508  11   6.630517   1.514359  -1.811767  -0.000259   0.597596  -0.000434
 509   2   3.946897   0.206648  -4.794947   0.000432   0.597596   0.000723
 510   2   4.879361   1.529062  -4.163888   0.000895   0.597596   0.001498
 511   2   5.408908   2.288066  -2.694196   0.000683   0.597596   0.001143
 512   2   5.440712   2.343230  -1.276051  -0.000532   0.298848  -0.001779
 513   3  -2.140571  -4.229717  -0.597895  -0.002052   0.225923  -0.009082
 514   4  -2.123146  -4.170019   0.179248  -0.002785   0.225923  -0.012326
 515   5  -1.286037  -4.672270  -0.620946  -0.002461   0.225923  -0.010893
 516   3  -5.195304  -2.094877  -0.598357  -0.002616   0.241879  -0.010815
 517   4  -5.145745  -2.057224   0.179749  -0.003353   0.241879  -0.013862
 518  13  -5.963636  -1.424826  -0.618839  -0.003516   0.241879  -0.014535
 519   4  -4.777445  -2.880201   0.550373  -0.001066   0.259316  -0.004112
 520   4  -3.526364  -3.831529   0.550392  -0.001616   0.520168  -0.003107
 521   3  -4.324162  -3.276515  -0.551519  -0.001696   0.520168  -0.003260
 522   3  -2.997098  -4.118614  -0.551495  -0.000899   0.259316  -0.003466
 523   5  -1.129629  -5.274815  -1.287857  -0.000190   0.291866  -0.000649
 524   5  -1.089306  -5.209981  -2.742917   0.001265   0.583954   0.002167
 525   5  -0.563785  -4.393596  -4.236196   0.001336   0.583954   0.002288
 526   5   0.343590  -2.987230  -4.845576   0.000873   0.583954   0.001495
 527   3  -2.281134  -4.539862  -1.843286   0.000382   0.583954   0.000655
 528   3  -2.039703  -4.163106  -3.567324   0.001344   0.583954   0.002301
 529   3  -1.284297  -2.991298  -4.675821   0.001110   0.583954   0.001902
 530   3  -0.502722  -1.780421  -4.890172   0.000216   0.291866   0.000740
 531   3  -3.376558   0.966744  -4.527977  -0.001437   0.260477  -0.005518
 532   8  -3.304861   1.955681  -4.535177  -0.001972   0.260477  -0.007571
 533  13  -4.211579   1.557616  -4.523713  -0.001423   0.260477  -0.005462
 534   8  -1.918430   2.042871  -4.831905  -0.000970   0.530517  -0.001828
 535   3  -2.344878   0.668443  -4.826961  -0.001061   0.530517  -0.002000
 536  13  -4.818046   1.069572  -4.847738   0.000092   0.298845   0.000307
 537  13  -5.624924  -0.072625  -4.603191   0.000821   0.597591   0.001374
 538  13  -6.394435  -1.168577  -3.497005   0.000970   0.597591   0.001623
 539  13  -6.630128  -1.514520  -1.811277  -0.000303   0.597591  -0.000507
 540   3  -3.947265  -0.206466  -4.795225   0.000435   0.597591   0.000729
 541   3  -4.879663  -1.529003  -4.164007   0.000898   0.597591   0.001502
 542   3  -5.408882  -2.288130  -2.694123   0.000682   0.597591   0.001142
 543   3  -5.440306  -2.343347  -1.275874  -0.000430   0.298845  -0.001438
 544   4  -1.662456  -4.429000   0.619276  -0.002488   0.226583  -0.010982
 545   5  -0.859924  -4.984957  -0.180889  -0.002725   0.226583  -0.012027
 546   6  -0.907114  -5.025441   0.598314  -0.001999   0.226583  -0.008823
 547   6   0.643586  -2.520863   4.891434   0.000254   0.291843   0.000871
 548   6  -0.137759  -3.731718   4.676934   0.001180   0.583908   0.002021
 549   6  -0.892699  -4.903606   3.568425   0.001419   0.583908   0.002430
 550   6  -1.133648  -5.280601   1.844516   0.000461   0.583908   0.000790
 551   4  -0.804515  -2.246357   4.843957   0.000799   0.583908   0.001368
 552   4  -1.711524  -3.652734   4.234460   0.001257   0.583908   0.002153
 553   4  -2.236540  -4.469280   2.741257   0.001186   0.583908   0.002031
 554   4  -2.276503  -4.534343   1.286317  -0.000238   0.291843  -0.000817
 555   4  -3.376522   0.966110   4.527565  -0.001470   0.260504  -0.005644
 556   7  -3.304782   1.954990   4.534931  -0.001970   0.260504  -0.007561
 557  14  -4.211652   1.556933   4.523504  -0.001405   0.260504  -0.005392
 558   7  -2.242527   2.065866   4.828036  -0.001066   0.530248  -0.002011
 559   4  -2.021240   0.644020   4.830177  -0.001136   0.530248  -0.002142
 560   4  -5.580650  -1.696971   0.625048  -0.003380   0.238814  -0.014152
 561  13  -6.449572  -1.137403  -0.173708  -0.003592   0.238814  -0.015039
 562  14  -6.468493  -1.196732   0.595364  -0.002815   0.238814  -0.011787
 563  14  -6.622316  -1.507351   1.268936  -0.000517   0.298868  -0.001730
 564  14  -6.590742  -1.452484   2.687232   0.000703   0.597638   0.001176
 565  14  -6.061405  -0.693628   4.157262   0.000977   0.597638   0.001634
 566  14  -5.129027   0.628899   4.788643   0.000499   0.597638   0.000835
 567   4  -5.448499  -2.350913   1.816758  -0.000225   0.597638  -0.000377
 568   4  -5.212642  -2.005349   3.502583   0.000938   0.597638   0.001569
 569   4  -4.443076  -0.909540   4.608937   0.000756   0.597638   0.001266
 570   4  -3.636255   0.232715   4.853606   0.000074   0.298868   0.000246
 571   5   2.375172  -6.856155  -0.390041  -0.001844   0.197668  -0.009327
 572   6   2.375198  -6.856117   0.390920  -0.001841   0.197668  -0.009312
 573   9   3.203948  -7.096951   0.000480  -0.001493   0.197668  -0.007553
 574   6  -0.438654  -5.772697   0.552827  -0.000844   0.271960  -0.003102
 575   6   0.950079  -6.641447   0.552830  -0.001504   0.545909  -0.002754
 576   5   0.069275  -6.143480  -0.551932  -0.001536   0.545909  -0.002814
 577   5   1.529550  -6.885710  -0.551939  -0.000849   0.271960  -0.003121
 578   5   4.758657  -5.035029  -3.707125  -0.001966   0.200196  -0.009821
 579   9   5.587714  -5.317697  -3.346339  -0.002199   0.200196  -0.010983
 580  11   5.668728  -4.654120  -3.725515  -0.002357   0.200196  -0.011772
 581   9   3.632389  -7.516116  -0.518952  -0.000253   0.282867  -0.000896
 582   9   4.282059  -7.392450  -1.792291   0.000183   0.565964   0.000323
 583   9   5.159117  -6.436557  -2.975098  -0.000840   0.565964  -0.001484
 584   5   2.709707  -7.124283  -1.567669  -0.000596   0.565964  -0.001053
 585   5   3.562904  -6.646786  -3.025766   0.000128   0.565964   0.000226
 586   5   4.255707  -5.658312  -3.801458  -0.000377   0.282867  -0.001332
 587  11   5.595133  -4.157654  -4.326985  -0.001116   0.329247  -0.003390
 588  11   4.982090  -2.757636  -4.781025  -0.001109   0.659049  -0.001683
 589   5   4.083909  -4.196741  -4.550473  -0.001161   0.659049  -0.001762
 590   5   3.456317  -2.765461  -4.866053  -0.000554   0.329247  -0.001684
 591   6   4.758983  -5.033666   3.708013  -0.001955   0.200165  -0.009768
 592   9   5.588014  -5.316362   3.347313  -0.002194   0.200165  -0.010959
 593  10   5.668934  -4.652651   3.726145  -0.002388   0.200165  -0.011929
 594   9   5.418767  -6.035301   3.246231  -0.000728   0.282926  -0.002572
 595   9   4.725866  -7.024351   2.470730   0.000014   0.566085   0.000024
 596   9   3.872493  -7.502350   1.012421  -0.000205   0.566085  -0.000362
 597   6   3.996783  -6.057268   3.532822  -0.000369   0.566085  -0.000653
 598   6   3.119572  -7.013812   2.350064   0.000128   0.566085   0.000225
 599   6   2.469765  -7.137781   1.076440  -0.000538   0.282926  -0.001902
 600  10   4.738590  -2.201168   4.858400  -0.000412   0.329054  -0.001253
 601  10   5.366018  -3.631748   4.543117  -0.001710   0.658661  -0.002596
 602   6   3.700912  -3.320528   4.788649  -0.001052   0.658661  -0.001597
 603   6   4.313774  -4.719910   4.335045  -0.000652   0.329054  -0.001983
 604   7  -2.375174   6.856099   0.390749  -0.001841   0.197669  -0.009313
 605   8  -2.375191   6.856171  -0.390213  -0.001843   0.197669  -0.009325
 606  12  -3.203947   7.096953   0.000302  -0.001493   0.197669  -0.007553
 607   8  -1.529540   6.885711  -0.552126  -0.000848   0.271985  -0.003119
 608   8  -0.069178   6.143352  -0.552225  -0.001522   0.545960  -0.002788
 609   7  -0.949966   6.641369   0.552603  -0.001505   0.545960  -0.002756
 610   7   0.438836   5.772471   0.552494  -0.000883   0.271985  -0.003247
 611   7  -4.758745   5.034103   3.707696  -0.001957   0.200198  -0.009773
 612  12  -5.587801   5.316826   3.346997  -0.002188   0.200198  -0.010929
 613  14  -5.668830   4.653140   3.725986  -0.002388   0.200198  -0.011926
 614  12  -5.418488   6.035723   3.245809  -0.000722   0.282890  -0.002552
 615  12  -4.725657   7.024502   2.470280  -0.000037   0.566012  -0.000065
 616  12  -3.872419   7.502344   1.012129  -0.000241   0.566012  -0.000426
 617   7  -3.996494   6.057558   3.532388  -0.000371   0.566012  -0.000656
 618   7  -3.119396   7.013827   2.349680   0.000127   0.566012   0.000224
 619   7  -2.469698   7.137741   1.076227  -0.000538   0.282890  -0.001902
 620  14  -4.738378   2.201107   4.858529  -0.000411   0.329177  -0.001249
 621  14  -5.365870   3.632098   4.543213  -0.001708   0.658908  -0.002593
 622   7  -3.700524   3.320568   4.788555  -0.001054   0.658908  -0.001599
 623   7  -4.313467   4.720336   4.334839  -0.000653   0.329177  -0.001985
 624   8  -4.758897   5.034595  -3.707443  -0.001965   0.200165  -0.009819
 625  12  -5.587932   5.317243  -3.346656  -0.002198   0.200165  -0.010982
 626  13  -5.668836   4.653634  -3.725678  -0.002356   0.200165  -0.011772
 627  12  -3.632418   7.516143  -0.519173  -0.000248   0.282904  -0.000877
 628  12  -4.282196   7.392424  -1.792685   0.000117   0.566040   0.000207
 629  12  -5.159372   6.436257  -2.975542  -0.000838   0.566040  -0.001480
 630   8  -2.709807   7.124312  -1.567955  -0.000594   0.566040  -0.001049
 631   8  -3.563140   6.646660  -3.026212   0.000125   0.566040   0.000220
 632   8  -4.256020   5.657916  -3.801875  -0.000377   0.282904  -0.001333
 633  13  -5.595247   4.157159  -4.326965  -0.001117   0.329126  -0.003393
 634  13  -4.982283   2.757522  -4.780893  -0.001111   0.658806  -0.001687
 635   8  -4.084254   4.196458  -4.550614  -0.001160   0.658806  -0.001760
 636   8  -3.456725   2.765585  -4.866160  -0.000553   0.329126  -0.001681
 637   9   9.255607  -4.100330   0.543106  -0.000723   0.044044  -0.016413
 638  10   9.336378  -3.445922   0.924729  -0.000846   0.044044  -0.019197
 639  19   9.282968  -3.665829   0.554758  -0.000942   0.044044  -0.021385
 640  10   6.518288  -4.629117   3.872395  -0.000986   0.258388  -0.003815
 641  10   7.997077  -4.487720   3.317506  -0.000931   0.518454  -0.001796
 642  10   9.184820  -3.831430   1.941152  -0.002486   0.518454  -0.004796
 643   9   6.983095  -5.529692   3.148979  -0.001427   0.518454  -0.002753
 644   9   8.604941  -5.156344   2.166112  -0.001165   0.518454  -0.002248
 645   9   9.297018  -4.502178   0.898118  -0.001494   0.258388  -0.005783
 646   9   9.255694  -4.100549  -0.542219  -0.000834   0.044054  -0.018935
 647  11   9.336549  -3.446279  -0.924186  -0.000729   0.044054  -0.016552
 648  19   9.283059  -3.666052  -0.554050  -0.000919   0.044054  -0.020870
 649  11   9.412302  -3.569270  -1.441984  -0.001522   0.258455  -0.005889
 650  11   8.720220  -4.224127  -2.709948  -0.001188   0.518590  -0.002292
 651  11   7.098105  -4.597820  -3.692832  -0.001516   0.518590  -0.002924
 652   9   9.069960  -4.765679  -1.395729  -0.002320   0.518590  -0.004473
 653   9   7.882092  -5.422647  -2.772075  -0.000846   0.518590  -0.001632
 654   9   6.403034  -5.564132  -3.326977  -0.000927   0.258455  -0.003587
 655  19   9.314508  -3.779197   0.073176  -0.001674   0.113252  -0.014779
 656   9   9.325621  -4.402788  -0.077122  -0.000919   0.106137  -0.008661
 657  10   9.451820  -2.506598   0.381865  -0.000711   0.043389  -0.016394
 658  11   9.451905  -2.506737  -0.381773  -0.000828   0.043389  -0.019077
 659  19   9.401313  -2.706068   0.000124  -0.000784   0.043389  -0.018069
 660  11   7.340307   1.067159  -0.545554  -0.001071   0.251716  -0.004255
 661  11   8.641352   0.234326  -0.545245  -0.001089   0.504844  -0.002157
 662  11   9.489581  -1.449636  -0.544834  -0.002478   0.504844  -0.004908
 663  10   7.858399   0.782674   0.543895  -0.001760   0.504844  -0.003486
 664  10   9.205050  -0.537079   0.544299  -0.001349   0.504844  -0.002672
 665  10   9.603233  -2.029654   0.544621  -0.001494   0.251716  -0.005934
 666  19   9.401463  -3.072930   0.336027  -0.001580   0.113819  -0.013879
 667  10   9.509226  -2.911971   0.945321  -0.000888   0.106668  -0.008327
 668  19   9.385952  -3.199712  -0.408319  -0.001502   0.113838  -0.013199
 669  11   9.526060  -2.777192  -0.867396  -0.000946   0.106686  -0.008862
 670  12  -9.255588   4.100474  -0.542904  -0.000838   0.044045  -0.019032
 671  13  -9.336342   3.446164  -0.924706  -0.000728   0.044045  -0.016534
 672  20  -9.282948   3.665971  -0.554671  -0.000943   0.044045  -0.021420
 673  13  -9.411976   3.569019  -1.442457  -0.001524   0.258387  -0.005897
 674  13  -8.719861   4.223522  -2.710240  -0.001190   0.518452  -0.002295
 675  13  -7.097997   4.597140  -3.692945  -0.001517   0.518452  -0.002927
 676  12  -9.069763   4.765339  -1.396366  -0.002427   0.518452  -0.004681
 677  12  -7.881984   5.421999  -2.772492  -0.000851   0.518452  -0.001641
 678  12  -6.403191   5.563555  -3.327291  -0.000950   0.258387  -0.003678
 679  12  -9.255724   4.100405   0.542405  -0.000717   0.044055  -0.016284
 680  14  -9.336597   3.446030   0.924195  -0.000841   0.044055  -0.019089
 681  20  -9.283089   3.665900   0.554119  -0.000920   0.044055  -0.020894
 682  14  -6.518295   4.629758   3.872322  -0.000984   0.258460  -0.003808
 683  14  -7.997358   4.488431   3.317330  -0.000936   0.518600  -0.001804
 684  14  -9.185191   3.831827   1.940743  -0.002487   0.518600  -0.004795
 685  12  -6.983060   5.530327   3.148635  -0.001418   0.518600  -0.002733
 686  12  -8.605166   5.156902   2.165583  -0.001149   0.518600  -0.002216
 687  12  -9.297206   4.502376   0.897397  -0.001471   0.258460  -0.005691
 688  20  -9.314529   3.779203   0.072482  -0.001695   0.113250  -0.014965
 689  12  -9.325612   4.402776  -0.077914  -0.000868   0.106136  -0.008174
 690  13  -9.451809   2.506704  -0.382108  -0.000843   0.043389  -0.019439
 691  14  -9.451928   2.506640   0.381533  -0.000723   0.043389  -0.016661
 692  20  -9.401318   2.706072  -0.000309  -0.000938   0.043389  -0.021612
 693  14  -9.603390   2.029687   0.544340  -0.001500   0.251735  -0.005959
 694  14  -9.205138   0.537027   0.544283  -0.001348   0.504881  -0.002670
 695  14  -7.858315  -0.782716   0.544395  -0.001732   0.504881  -0.003431
 696  13  -9.489407   1.449521  -0.545028  -0.002485   0.504881  -0.004922
 697  13  -8.641052  -0.234506  -0.545027  -0.001091   0.504881  -0.002160
 698  13  -7.339855  -1.067286  -0.544883  -0.001148   0.251735  -0.004559
 699  20  -9.385858   3.199654  -0.408878  -0.001762   0.113817  -0.015479
 700  13  -9.525831   2.777097  -0.867806  -0.000951   0.106667  -0.008914
 701  20  -9.401552   3.072972   0.335483  -0.001585   0.113836  -0.013928
 702  14  -9.509484   2.912079   0.944882  -0.000889   0.106685  -0.008333
 =====================================================

             11053151  WORDS OF DYNAMIC MEMORY USED
 EXECUTION OF GAMESS TERMINATED NORMALLY Fri Nov 25 09:39:25 2016
 DDI: 263640 bytes (0.3 MB / 0 MWords) used by master data server.

 ----------------------------------------
 CPU timing information for all processes
 ========================================
 0: 1882.104 + 0.776 = 1882.880
 ----------------------------------------
 ddikick.x: exited gracefully.
