----- GAMESS execution script -----

          ******************************************************
          *         GAMESS VERSION =  5 DEC 2014 (R1)          *
          *             FROM IOWA STATE UNIVERSITY             *
          * M.W.SCHMIDT, K.K.BALDRIDGE, J.A.BOATZ, S.T.ELBERT, *
          *   M.S.GORDON, J.H.JENSEN, S.KOSEKI, N.MATSUNAGA,   *
          *          K.A.NGUYEN, S.J.SU, T.L.WINDUS,           *
          *       TOGETHER WITH M.DUPUIS, J.A.MONTGOMERY       *
          *         J.COMPUT.CHEM.  14, 1347-1363(1993)        *
          **************** 64 BIT LINUX VERSION ****************

 EXECUTION OF GAMESS BEGUN Fri Nov 25 10:07:04 2016

            ECHO OF THE FIRST FEW INPUT CARDS -
 INPUT CARD>! SELECT RESTRICTED HARTREE-FOCK AS DEFAULT                                     
 INPUT CARD>$contrl scftyp=rhf $end                                                         
 INPUT CARD>                                                                                
 INPUT CARD>! THEORY: HF OR DFT                                                             
 INPUT CARD> $contrl mplevl=0 $end                                                          
 INPUT CARD>                                                                                
 INPUT CARD> $system timlim=10000 mwords=20 $end                                            
 INPUT CARD> $SCF DIRSCF=.TRUE. $end                                                        
 INPUT CARD>                                                                                
 INPUT CARD>                                                                                
 INPUT CARD>! BASIS SETS                                                                    
 INPUT CARD>! 6-311G(d,p)                                                                   
 INPUT CARD> $BASIS GBASIS=N311 NGAUSS=6 NDFUNC=1 NPFUNC=1 $END                             
 INPUT CARD>                                                                                
 INPUT CARD>! One of the following                                                          
 INPUT CARD> $guess guess=HUCKEL $end                                                       
 INPUT CARD>                                                                                
 INPUT CARD> $statpt projct=.FALSE. $end                                                    
 INPUT CARD> $STATPT IFREEZ(1)=1,2,3 $END                                                   
 INPUT CARD>                                                                                
 INPUT CARD>! Optimize the geometry with COSMO effects                                      
 INPUT CARD> $statpt opttol=0.0005 nstep=50 $end                                            
 INPUT CARD> $contrl nzvar=1 $end                                                           
 INPUT CARD> $zmat dlc=.t. auto=.t. $end                                                    
 INPUT CARD> $contrl runtyp=OPTIMIZE maxit=200 $end                                         
 INPUT CARD>                                                                                
 INPUT CARD>! Run COSMO on perfect conductor                                                
 INPUT CARD> $COSGMS PRFCND=.TRUE. $end                                                     
 INPUT CARD>                                                                                
 INPUT CARD>! Specifying RSOLV                                                              
 INPUT CARD> $COSGMS COSRAD = 1.4 $end                                                      
 INPUT CARD>                                                                                
 INPUT CARD>! available memory                                                              
 INPUT CARD> $SYSTEM MWORDS=40 $END                                                         
 INPUT CARD>                                                                                
 INPUT CARD> $DATA                                                                          
 INPUT CARD>Acetic acid, phenyl ester, ID: C122792                                          
 INPUT CARD>C1                                                                              
 INPUT CARD>C      6.0      1.8900000000    2.0690000000    0.7922000000                    
 INPUT CARD>O      8.0      2.9823000000    1.9158000000    1.6125000000                    
 INPUT CARD>C      6.0      4.0058000000    2.8618000000    1.5738000000                    
 INPUT CARD>C      6.0      0.8653000000    0.9932000000    1.0165000000                    
 INPUT CARD>O      8.0      1.8472000000    2.9853000000    0.0000000000                    
 INPUT CARD>C      6.0      3.8134000000    4.1632000000    2.0464000000                    
 INPUT CARD>C      6.0      5.2665000000    2.4221000000    1.1552000000                    
 INPUT CARD>C      6.0      4.9014000000    5.0284000000    2.0988000000                    
 INPUT CARD>C      6.0      6.3400000000    3.3015000000    1.2198000000                    
 INPUT CARD>C      6.0      6.1586000000    4.5989000000    1.6902000000                    
 INPUT CARD>H      1.0      0.5043000000    1.0033000000    2.0533000000                    
 INPUT CARD>H      1.0      0.0000000000    1.1292000000    0.3553000000                    
   40000000 WORDS OF MEMORY AVAILABLE

     BASIS OPTIONS
     -------------
     GBASIS=N311         IGAUSS=       6      POLAR=POPN311 
     NDFUNC=       1     NFFUNC=       0     DIFFSP=       F
     NPFUNC=       1      DIFFS=       F     BASNAM=        


     RUN TITLE
     ---------
 Acetic acid, phenyl ester, ID: C122792                                          

 THE POINT GROUP OF THE MOLECULE IS C1      
 THE ORDER OF THE PRINCIPAL AXIS IS     0

 ATOM      ATOMIC                      COORDINATES (BOHR)
           CHARGE         X                   Y                   Z
 C           6.0     3.5715821168        3.9098430686        1.4970409275
 O           8.0     5.6357298132        3.6203370473        3.0471831552
 C           6.0     7.5698643616        5.4080178317        2.9740507595
 C           6.0     1.6351798972        1.8768758510        1.9209064665
 O           8.0     3.4907018445        5.6413989911        0.0000000000
 C           6.0     7.2062810816        7.8673072321        3.8671352613
 C           6.0     9.9522419143        4.5771053149        2.1830114610
 C           6.0     9.2623029562        9.5022981567        3.9661569030
 C           6.0    11.9808627622        6.2389303485        2.3050877598
 C           6.0    11.6380664680        8.6906608449        3.1940148644
 H           1.0     0.9529888156        1.8959620835        3.8801743706
 H           1.0     0.0000000000        2.1338785853        0.6714196434
 H           1.0     2.4377465242        0.0000000000        1.5493863373
 H           1.0     5.3299721484        8.5090581775        4.4608871666
 H           1.0    10.2160476622        2.6452384376        1.4883481879
 H           1.0     9.0045443315       11.4358657873        4.6570407241
 H           1.0    13.8562268324        5.6138089917        1.6935724302
 H           1.0    13.2467902013        9.9889025985        3.2779186983

          INTERNUCLEAR DISTANCES (ANGS.)




     $CONTRL OPTIONS
     ---------------
 SCFTYP=RHF          RUNTYP=OPTIMIZE     EXETYP=RUN     
 MPLEVL=       0     CITYP =NONE         CCTYP =NONE         VBTYP =NONE    
 DFTTYP=NONE         TDDFT =NONE    
 MULT  =       1     ICHARG=       0     NZVAR =       1     COORD =UNIQUE  
 PP    =NONE         RELWFN=NONE         LOCAL =NONE         NUMGRD=       F
 ISPHER=      -1     NOSYM =       0     MAXIT =     200     UNITS =ANGS    
 PLTORB=       F     MOLPLT=       F     AIMPAC=       F     FRIEND=        
 NPRINT=       7     IREST =       0     GEOM  =INPUT   
 NORMF =       0     NORMP =       0     ITOL  =      20     ICUT  =       9
 INTTYP=BEST         GRDTYP=BEST         QMTTOL= 1.0E-06

     $SYSTEM OPTIONS
     ---------------
  REPLICATED MEMORY=    40000000 WORDS (ON EVERY NODE).
 DISTRIBUTED MEMDDI=           0 MILLION WORDS IN AGGREGATE,
 MEMDDI DISTRIBUTED OVER   1 PROCESSORS IS           0 WORDS/PROCESSOR.
 TOTAL MEMORY REQUESTED ON EACH PROCESSOR=    40000000 WORDS.
 TIMLIM=       10000.00 MINUTES, OR       6.9 DAYS.
 PARALL= F  BALTYP=  DLB     KDIAG=    0  COREFL= F
 MXSEQ2=     300 MXSEQ3=     150  mem10=         0

     $COSGMS OPTIONS
     ---------------
     EPSI  =   INFTY     NSPA  =      92     COSRAD=    1.40
     DISEX =   10.00     OUTCHG=DBLCAV       COSBUG=       F
     COSWRT=       F     DCOSMO=       F

     SYMMETRY COORDINATES WILL NOT BE USED FOR 
     THE COSMO CALCULATION, EVEN IF SPECIFIED:
         -- SWITCHING TO C1 POINT GROUP --


     DEFINITION OF CAVITY
     ---------------------------
     ATOM         COORDINATES           RADIUS 
     1    3.5716    3.9098    1.4970    2.0000
     2    5.6357    3.6203    3.0472    1.7200
     3    7.5699    5.4080    2.9741    2.0000
     4    1.6352    1.8769    1.9209    2.0000
     5    3.4907    5.6414    0.0000    1.7200
     6    7.2063    7.8673    3.8671    2.0000
     7    9.9522    4.5771    2.1830    2.0000
     8    9.2623    9.5023    3.9662    2.0000
     9   11.9809    6.2389    2.3051    2.0000
    10   11.6381    8.6907    3.1940    2.0000
    11    0.9530    1.8960    3.8802    1.3000
    12    0.0000    2.1339    0.6714    1.3000
    13    2.4377    0.0000    1.5494    1.3000
    14    5.3300    8.5091    4.4609    1.3000
    15   10.2160    2.6452    1.4883    1.3000
    16    9.0045   11.4359    4.6570    1.3000
    17   13.8562    5.6138    1.6936    1.3000
    18   13.2468    9.9889    3.2779    1.3000

          ----------------
          PROPERTIES INPUT
          ----------------

     MOMENTS            FIELD           POTENTIAL          DENSITY
 IEMOM =       1   IEFLD =       0   IEPOT =       0   IEDEN =       0
 WHERE =COMASS     WHERE =NUCLEI     WHERE =NUCLEI     WHERE =NUCLEI  
 OUTPUT=BOTH       OUTPUT=BOTH       OUTPUT=BOTH       OUTPUT=BOTH    
 IEMINT=       0   IEFINT=       0                     IEDINT=       0
                                                       MORB  =       0
          EXTRAPOLATION IN EFFECT
          SOSCF IN EFFECT
 ORBITAL PRINTING OPTION: NPREO=     1   238     2     1

     -------------------------------
     INTEGRAL TRANSFORMATION OPTIONS
     -------------------------------
     NWORD  =            0
     CUTOFF = 1.0E-09     MPTRAN =       0
     DIRTRF =       T     AOINTS =DUP     

          ----------------------
          INTEGRAL INPUT OPTIONS
          ----------------------
 NOPK  =       1 NORDER=       0 SCHWRZ=       T


 -----------------------------------------------
  STATISTICS ON AUTOMATIC COORDINATE GENERATION 
 -----------------------------------------------
  NUMBER OF USER SPECIFIED BONDS                             0
  NUMBER OF BONDS                                           18
  NUMBER OF ANGLES                                          28
  NUMBER OF TORSIONS                                        34
  NUMBER OF EXTRA COORD.                                     0
  NUMBER OF EXTRA COORD. FOR CONSTRAINTS                     0
  NUMBER OF CONSTRAINED COORD.                               0

  TOTAL NUMBER OF PRIMITIVES                                80
 -----------------------------------------------

   --- ENCODED Z MATRIX ---
 COORD  TYPE   I   J   K   L   M   N
    1      1    1   2
    2      1    1   4
    3      1    1   5
    4      1    2   3
    5      1    3   7
    6      1    3   6
    7      1    4  13
    8      1    4  12
    9      1    4  11
   10      1    6  14
   11      1    6   8
   12      1    7  15
   13      1    7   9
   14      1    8  10
   15      1    8  16
   16      1    9  10
   17      1    9  17
   18      1   10  18
   19      2    1   4  13
   20      2    1   2   3
   21      2    1   4  11
   22      2    1   4  12
   23      2    2   1   5
   24      2    2   3   6
   25      2    2   3   7
   26      2    2   1   4
   27      2    3   6   8
   28      2    3   6  14
   29      2    3   7   9
   30      2    3   7  15
   31      2    4   1   5
   32      2    6   3   7
   33      2    6   8  16
   34      2    6   8  10
   35      2    7   9  17
   36      2    7   9  10
   37      2    8  10  18
   38      2    8  10   9
   39      2    8   6  14
   40      2    9  10  18
   41      2    9   7  15
   42      2   10   9  17
   43      2   10   8  16
   44      2   11   4  12
   45      2   11   4  13
   46      2   12   4  13
   47      3    1   2   3   6
   48      3    1   2   3   7
   49      3    2   1   4  11
   50      3    2   3   6   8
   51      3    2   3   6  14
   52      3    2   1   4  13
   53      3    2   1   4  12
   54      3    2   3   7   9
   55      3    2   3   7  15
   56      3    3   7   9  17
   57      3    3   7   9  10
   58      3    3   2   1   4
   59      3    3   6   8  16
   60      3    3   6   8  10
   61      3    3   2   1   5
   62      3    5   1   4  13
   63      3    5   1   4  12
   64      3    5   1   4  11
   65      3    6   3   7   9
   66      3    6   8  10  18
   67      3    6   8  10   9
   68      3    6   3   7  15
   69      3    7   3   6  14
   70      3    7   9  10  18
   71      3    7   9  10   8
   72      3    7   3   6   8
   73      3    8  10   9  17
   74      3    9  10   8  16
   75      3   10   9   7  15
   76      3   10   8   6  14
   77      3   14   6   8  16
   78      3   15   7   9  17
   79      3   16   8  10  18
   80      3   17   9  10  18

          INDEP./SYM. INTERNAL COORDINATES
          --------------------------------
 CRD  1=   0.6851 ( 20)  0.1927 ( 23)  0.3708 ( 24) -0.3484 ( 25) -0.2765 ( 26)
          -0.1178 ( 50) -0.1654 ( 58) -0.1112 ( 61)
 CRD  2=  -0.1079 (  5) -0.1030 ( 13) -0.4297 ( 20)  0.1102 ( 21) -0.1482 ( 23)
           0.3911 ( 24) -0.4022 ( 25)  0.1922 ( 26)  0.1376 ( 50) -0.1714 ( 54)
          -0.1218 ( 55) -0.3867 ( 58) -0.2817 ( 61)
 CRD  3=  -0.2972 (  1) -0.3007 (  2) -0.4360 (  4) -0.1710 (  5) -0.1459 (  6)
          -0.1319 ( 11) -0.1352 ( 13) -0.1272 ( 19) -0.1854 ( 20) -0.1330 ( 21)
           0.1864 ( 23) -0.1052 ( 24) -0.1121 ( 25) -0.4581 ( 26)  0.2718 ( 31)
           0.2179 ( 32)
 CRD  4=   0.1107 ( 24) -0.1185 ( 25)  0.5506 ( 47)  0.5668 ( 48)  0.1345 ( 49)
           0.1287 ( 52)  0.1011 ( 53)  0.2863 ( 58)  0.3710 ( 61)
 CRD  5=  -0.2976 (  1) -0.2279 (  5)  0.1493 (  6) -0.1036 ( 13)  0.3529 ( 19)
          -0.1778 ( 22) -0.2539 ( 23)  0.1267 ( 24) -0.1873 ( 25)  0.1854 ( 26)
          -0.1777 ( 48) -0.1302 ( 49) -0.2069 ( 50) -0.1604 ( 51) -0.1815 ( 52)
          -0.2344 ( 53)  0.2061 ( 54)  0.1287 ( 55)  0.2336 ( 58)  0.1293 ( 65)
          -0.1091 ( 72)
 CRD  6=   0.1938 (  1)  0.2434 (  6) -0.1029 (  9) -0.1341 ( 14) -0.1236 ( 16)
           0.1978 ( 19) -0.4754 ( 21)  0.2194 ( 22)  0.1338 ( 23)  0.1206 ( 24)
          -0.1401 ( 26)  0.1341 ( 33) -0.1060 ( 43) -0.1254 ( 46) -0.1870 ( 49)
           0.1796 ( 50)  0.1170 ( 51) -0.1298 ( 52) -0.2494 ( 53) -0.1735 ( 54)
          -0.1330 ( 55)  0.1560 ( 58) -0.1153 ( 65)  0.1283 ( 72)
 CRD  7=  -0.1049 (  1)  0.4229 (  2)  0.1057 (  5) -0.1165 ( 14) -0.1393 ( 19)
          -0.1147 ( 20)  0.4588 ( 22) -0.3607 ( 23) -0.1032 ( 26)  0.4635 ( 31)
          -0.2022 ( 44) -0.1446 ( 46)
 CRD  8=  -0.1132 (  1) -0.1822 (  2)  0.2669 (  5)  0.2256 (  6) -0.1691 ( 11)
          -0.1300 ( 13) -0.2870 ( 14) -0.2813 ( 16) -0.2270 ( 18)  0.1443 ( 21)
          -0.2504 ( 22) -0.1276 ( 27)  0.2753 ( 28) -0.1263 ( 29)  0.2683 ( 30)
          -0.1119 ( 31)  0.1224 ( 33)  0.1536 ( 35) -0.1174 ( 37)  0.2166 ( 38)
          -0.1475 ( 39) -0.1421 ( 41) -0.1547 ( 42) -0.1519 ( 43)  0.1190 ( 46)
 CRD  9=  -0.1377 ( 10) -0.3187 ( 11)  0.1323 ( 12)  0.3342 ( 13) -0.2790 ( 14)
           0.2902 ( 16)  0.1193 ( 27)  0.1792 ( 28) -0.1082 ( 29) -0.1957 ( 30)
          -0.3403 ( 37) -0.2985 ( 39)  0.3488 ( 40)  0.3039 ( 41)
 CRD 10=   0.2137 (  5)  0.2034 (  6) -0.2288 ( 11) -0.2211 ( 13)  0.2959 ( 14)
           0.2882 ( 16)  0.1113 ( 17)  0.2460 ( 28)  0.2370 ( 30) -0.2822 ( 33)
          -0.2684 ( 35) -0.2302 ( 39) -0.2316 ( 41)  0.3210 ( 42)  0.3203 ( 43)
 CRD 11=  -0.1193 (  5)  0.1489 (  6) -0.1493 ( 10)  0.1637 ( 11)  0.1575 ( 12)
          -0.1461 ( 13) -0.2067 ( 14)  0.2176 ( 15)  0.2453 ( 16) -0.2044 ( 17)
          -0.1943 ( 19)  0.1555 ( 21)  0.2206 ( 27) -0.2155 ( 28) -0.2083 ( 29)
           0.2263 ( 30)  0.3088 ( 33) -0.2601 ( 34) -0.3356 ( 35)  0.2679 ( 36)
          -0.1487 ( 37)  0.1590 ( 40)
 CRD 12=  -0.2672 (  5) -0.2676 (  6) -0.2513 ( 10) -0.2858 ( 11) -0.2474 ( 12)
          -0.2895 ( 13) -0.2511 ( 14) -0.2358 ( 15) -0.2470 ( 16) -0.2401 ( 17)
           0.1052 ( 24)  0.1080 ( 25)  0.1138 ( 27)  0.1087 ( 29) -0.2138 ( 32)
          -0.1772 ( 33)  0.1013 ( 34) -0.1839 ( 35)  0.1069 ( 36)  0.1071 ( 37)
          -0.2169 ( 38) -0.1705 ( 39)  0.1098 ( 40) -0.1720 ( 41)
 CRD 13=  -0.1033 (  6)  0.1525 ( 10)  0.1238 ( 11) -0.1547 ( 12) -0.1395 ( 13)
          -0.1374 ( 14) -0.1443 ( 15)  0.1251 ( 16)  0.1434 ( 17) -0.2127 ( 27)
           0.2030 ( 29)  0.1722 ( 33)  0.1964 ( 34) -0.1598 ( 35) -0.2066 ( 36)
          -0.3364 ( 37)  0.2250 ( 39)  0.3267 ( 40) -0.2112 ( 41)  0.3665 ( 42)
          -0.3686 ( 43)
 CRD 14=  -0.1724 (  1) -0.3582 (  2) -0.2587 (  3)  0.1440 (  4)  0.1644 (  6)
           0.1050 ( 10)  0.1770 ( 11)  0.1725 ( 13)  0.2567 ( 18) -0.3476 ( 19)
          -0.1299 ( 20) -0.1511 ( 21)  0.1392 ( 22)  0.1051 ( 24)  0.1081 ( 28)
          -0.1751 ( 32) -0.1055 ( 33)  0.1739 ( 34)  0.1057 ( 36)  0.1059 ( 37)
          -0.2142 ( 38) -0.1175 ( 39)  0.1082 ( 40) -0.1039 ( 41)  0.2300 ( 45)
           0.1168 ( 46)
 CRD 15=  -0.1329 (  1)  0.2631 (  3)  0.1670 (  5)  0.1166 (  7) -0.1500 (  8)
           0.1520 ( 11)  0.1756 ( 12)  0.1657 ( 13) -0.1063 ( 15) -0.1216 ( 17)
           0.2896 ( 18)  0.3321 ( 19) -0.3090 ( 22) -0.2516 ( 26)  0.1329 ( 30)
           0.2133 ( 31)  0.1551 ( 34)  0.1855 ( 36)  0.1066 ( 37) -0.2205 ( 38)
           0.1139 ( 40) -0.1034 ( 42)  0.1073 ( 44) -0.2145 ( 45)
 CRD 16=   0.1677 (  3) -0.1229 (  5)  0.1579 (  6) -0.1132 (  7)  0.1567 (  9)
           0.1440 ( 10) -0.2712 ( 19)  0.4641 ( 21) -0.1029 ( 26)  0.1444 ( 28)
          -0.1197 ( 30) -0.1825 ( 44)  0.1741 ( 46) -0.2241 ( 49) -0.2282 ( 52)
          -0.2059 ( 53)  0.3040 ( 58)  0.1975 ( 61) -0.1113 ( 62) -0.1072 ( 64)
 CRD 17=   0.1468 (  1)  0.1055 (  2) -0.1003 (  3) -0.2326 (  4)  0.2579 ( 10)
           0.2691 ( 12) -0.2776 ( 15) -0.2807 ( 17)  0.1925 ( 18)  0.1034 ( 20)
           0.2021 ( 22) -0.1072 ( 24) -0.1415 ( 25)  0.2057 ( 26) -0.2033 ( 27)
          -0.2059 ( 29) -0.2404 ( 31)  0.2469 ( 32)  0.1416 ( 34)  0.1438 ( 36)
          -0.1234 ( 38)  0.1392 ( 39)  0.1427 ( 41) -0.1168 ( 44) -0.1169 ( 46)
 CRD 18=   0.1723 ( 50)  0.1095 ( 51)  0.1616 ( 54)  0.1058 ( 55) -0.2682 ( 56)
          -0.3356 ( 57) -0.2730 ( 59) -0.3362 ( 60)  0.1647 ( 65)  0.1682 ( 66)
           0.1694 ( 67)  0.1089 ( 68)  0.1070 ( 69)  0.1740 ( 70)  0.1728 ( 71)
           0.1699 ( 72)  0.1053 ( 73)  0.1061 ( 74) -0.2799 ( 75) -0.2736 ( 76)
          -0.2104 ( 77) -0.2126 ( 78)  0.1049 ( 79)  0.1065 ( 80)
 CRD 19=   0.1513 (  2)  0.4773 (  7)  0.4759 (  8)  0.4782 (  9) -0.1762 ( 19)
          -0.1731 ( 21) -0.1973 ( 22) -0.1192 ( 23)  0.1967 ( 44)  0.1813 ( 45)
           0.1985 ( 46)
 CRD 20=   0.2688 (  1)  0.3149 (  3)  0.1080 (  7)  0.1079 (  9) -0.1475 ( 20)
           0.2149 ( 23) -0.1220 ( 31)  0.1148 ( 56) -0.1201 ( 59)  0.1591 ( 65)
           0.1404 ( 66)  0.2601 ( 67)  0.2245 ( 68) -0.2228 ( 69) -0.1377 ( 70)
          -0.2573 ( 71) -0.1563 ( 72) -0.3239 ( 73)  0.3262 ( 74)  0.2066 ( 79)
          -0.2043 ( 80)
 CRD 21=   0.1860 (  7) -0.5792 (  8)  0.4050 (  9) -0.1238 ( 44)  0.3934 ( 45)
          -0.2706 ( 46)  0.1995 ( 49) -0.2453 ( 52) -0.2501 ( 62)  0.1946 ( 64)
 CRD 22=  -0.5727 (  7)  0.1271 (  8)  0.4467 (  9)  0.3798 ( 44) -0.2955 ( 46)
          -0.1730 ( 49)  0.2613 ( 53)  0.2455 ( 63) -0.1888 ( 64)
 CRD 23=   0.1326 (  1)  0.2058 (  3) -0.1883 (  5)  0.1892 (  6)  0.2058 ( 10)
          -0.2570 ( 12)  0.1486 ( 15) -0.1639 ( 20)  0.1380 ( 23)  0.1962 ( 28)
          -0.1694 ( 30) -0.1035 ( 31) -0.1650 ( 39)  0.1124 ( 41) -0.1838 ( 48)
           0.2417 ( 49) -0.1272 ( 50)  0.2484 ( 52)  0.2232 ( 53)  0.1262 ( 54)
          -0.1543 ( 56)  0.1525 ( 59)  0.2035 ( 62)  0.1783 ( 63)  0.1968 ( 64)
          -0.1303 ( 68)  0.1705 ( 73) -0.1655 ( 74)  0.1187 ( 75)
 CRD 24=   0.1215 (  3) -0.2015 ( 10)  0.1256 ( 12)  0.1432 ( 17) -0.1380 ( 20)
           0.1208 ( 30) -0.1176 ( 41)  0.1410 ( 47) -0.1027 ( 49) -0.1102 ( 50)
           0.1348 ( 51) -0.1029 ( 52) -0.1259 ( 55) -0.1487 ( 56)  0.1577 ( 59)
          -0.1030 ( 62) -0.1028 ( 64)  0.3306 ( 66) -0.2450 ( 68)  0.2678 ( 69)
          -0.3315 ( 70)  0.1132 ( 73) -0.1212 ( 74)  0.2802 ( 75) -0.3015 ( 76)
           0.1142 ( 79) -0.1223 ( 80)
 CRD 25=  -0.1147 (  2)  0.3358 (  4) -0.1693 (  8)  0.2856 ( 10) -0.2881 ( 17)
          -0.2932 ( 18) -0.1151 ( 22) -0.1896 ( 23) -0.1772 ( 30)  0.2256 ( 31)
          -0.1402 ( 33) -0.1129 ( 35)  0.1123 ( 39)  0.1929 ( 41)  0.1417 ( 43)
           0.1336 ( 51) -0.1329 ( 55)  0.1313 ( 66) -0.1286 ( 68)  0.1218 ( 69)
          -0.1303 ( 70)  0.1275 ( 75) -0.1189 ( 76) -0.1117 ( 77)  0.1170 ( 78)
           0.1240 ( 79) -0.1200 ( 80)
 CRD 26=   0.1397 (  1)  0.3328 (  3)  0.3079 (  4)  0.2867 ( 12) -0.3081 ( 15)
          -0.2850 ( 18) -0.1896 ( 20) -0.1500 ( 28) -0.1549 ( 35)  0.1443 ( 39)
           0.1536 ( 42) -0.1396 ( 50) -0.1151 ( 51)  0.1301 ( 54)  0.1183 ( 55)
          -0.1514 ( 56)  0.1566 ( 59)  0.1116 ( 65) -0.1126 ( 72)  0.1338 ( 73)
          -0.1384 ( 74)  0.1342 ( 77) -0.1392 ( 78) -0.1204 ( 79)  0.1154 ( 80)
 CRD 27=   0.1146 (  3)  0.1303 (  5) -0.1258 (  6)  0.1666 ( 10) -0.1453 ( 12)
           0.3904 ( 15) -0.4053 ( 17) -0.2019 ( 33)  0.1799 ( 35) -0.3007 ( 37)
           0.3015 ( 40) -0.1649 ( 42)  0.1838 ( 43)  0.1139 ( 47)  0.1068 ( 48)
          -0.1217 ( 49) -0.1231 ( 52) -0.1686 ( 62) -0.1307 ( 63) -0.1672 ( 64)
 CRD 28=   0.1606 (  1)  0.1498 (  3)  0.2970 (  4) -0.1352 (  8) -0.2188 ( 10)
          -0.2741 ( 11) -0.2221 ( 12) -0.2740 ( 13)  0.1296 ( 14) -0.1344 ( 15)
           0.1351 ( 16) -0.1220 ( 17)  0.5127 ( 18) -0.1432 ( 23)  0.1409 ( 31)
           0.1453 ( 32)  0.1684 ( 33)  0.1540 ( 35) -0.1011 ( 42) -0.1132 ( 43)
 CRD 29=  -0.1938 (  5)  0.1974 (  6)  0.3148 ( 10) -0.3211 ( 12) -0.2010 ( 14)
          -0.3058 ( 15)  0.2047 ( 16)  0.3011 ( 17) -0.2625 ( 28)  0.2604 ( 30)
          -0.1742 ( 33)  0.1778 ( 35)  0.1744 ( 39) -0.1708 ( 41) -0.2652 ( 42)
           0.2631 ( 43)
 CRD 30=  -0.1051 (  3)  0.1893 (  7) -0.1146 (  9)  0.2495 ( 10) -0.2511 ( 12)
          -0.1323 ( 14)  0.1336 ( 16) -0.2182 ( 24)  0.2202 ( 25)  0.1116 ( 28)
          -0.1128 ( 30)  0.1406 ( 33) -0.1408 ( 35)  0.1897 ( 37) -0.1809 ( 39)
          -0.1900 ( 40)  0.1824 ( 41) -0.1305 ( 46)  0.1353 ( 47)  0.1565 ( 48)
          -0.1232 ( 49) -0.1167 ( 52) -0.2543 ( 58) -0.3097 ( 62) -0.1889 ( 63)
          -0.3162 ( 64)
 CRD 31=  -0.2584 (  1) -0.2944 (  3)  0.1742 (  4)  0.1995 (  5)  0.1995 (  6)
           0.1677 (  7)  0.1848 (  8)  0.1950 (  9) -0.2147 ( 10) -0.1387 ( 12)
           0.1352 ( 14) -0.2488 ( 15) -0.2698 ( 17)  0.1605 ( 19) -0.1670 ( 20)
           0.1634 ( 21)  0.1705 ( 22)  0.3140 ( 23) -0.1661 ( 26) -0.1126 ( 28)
          -0.1477 ( 31)  0.1163 ( 39) -0.1841 ( 44) -0.1721 ( 45) -0.1652 ( 46)
 CRD 32=   0.2698 (  3) -0.3358 (  4)  0.1814 (  5)  0.1482 (  6) -0.1225 (  7)
          -0.1465 (  9) -0.2650 ( 10)  0.2005 ( 11) -0.3257 ( 12)  0.1940 ( 13)
           0.1641 ( 14) -0.2830 ( 15)  0.2045 ( 16) -0.2837 ( 17) -0.3111 ( 18)
          -0.1002 ( 19)  0.1232 ( 20) -0.1016 ( 21) -0.1146 ( 23)  0.1486 ( 26)
           0.1500 ( 45)
 CRD 33=  -0.5862 (  1)  0.4471 (  3)  0.1909 (  4)  0.2199 (  8) -0.1305 (  9)
           0.1387 ( 10) -0.1100 ( 11) -0.1016 ( 13) -0.1008 ( 14)  0.1566 ( 18)
           0.1154 ( 26) -0.1948 ( 31)  0.1487 ( 45)  0.1062 ( 56) -0.1058 ( 59)
          -0.1144 ( 77)  0.1141 ( 78)
 CRD 34=  -0.3776 (  5)  0.3637 (  6)  0.1991 (  7) -0.2009 (  9) -0.1383 ( 10)
          -0.1585 ( 11)  0.1284 ( 12)  0.1683 ( 13)  0.3307 ( 14) -0.3192 ( 16)
          -0.1186 ( 24)  0.1047 ( 25) -0.1695 ( 37)  0.1047 ( 39)  0.1758 ( 40)
          -0.1128 ( 41)  0.1469 ( 44) -0.1341 ( 46)  0.2006 ( 53)  0.1167 ( 61)
          -0.1901 ( 62) -0.1955 ( 64)
 CRD 35=  -0.1214 (  7)  0.2207 ( 10) -0.4695 ( 11) -0.2124 ( 12)  0.4601 ( 13)
           0.1637 ( 15) -0.1137 ( 16) -0.1661 ( 17)  0.1117 ( 27) -0.2065 ( 28)
           0.1726 ( 30)  0.1283 ( 33) -0.1424 ( 35) -0.1115 ( 40)  0.2129 ( 42)
          -0.1878 ( 43)
 CRD 36=   0.4005 (  2) -0.1481 (  3) -0.2276 (  4)  0.1828 (  5)  0.2509 (  6)
          -0.1179 (  7) -0.1099 (  8) -0.1127 (  9) -0.1783 ( 14) -0.2359 ( 16)
           0.1080 ( 17)  0.2443 ( 18) -0.1177 ( 19) -0.1187 ( 21) -0.1240 ( 22)
           0.1059 ( 23)  0.1178 ( 25) -0.1207 ( 28) -0.1923 ( 30) -0.1491 ( 32)
          -0.1578 ( 33) -0.1258 ( 35) -0.1119 ( 37)  0.1316 ( 38)  0.1409 ( 39)
           0.1643 ( 41)  0.1744 ( 43)  0.1237 ( 44)  0.1289 ( 45)  0.1275 ( 46)
           0.1075 ( 77) -0.1050 ( 78)
 CRD 37=   0.1734 (  1) -0.2741 (  2)  0.2231 (  5)  0.1478 (  6)  0.1163 (  7)
          -0.1885 ( 10) -0.2617 ( 12) -0.2443 ( 14)  0.2456 ( 15) -0.1531 ( 16)
           0.1559 ( 17) -0.1051 ( 23) -0.1496 ( 27) -0.1815 ( 29) -0.2145 ( 33)
           0.1782 ( 34) -0.2207 ( 35)  0.1320 ( 36)  0.2142 ( 39)  0.1919 ( 41)
          -0.1083 ( 45) -0.1169 ( 50)  0.1060 ( 54) -0.1239 ( 66)  0.1238 ( 70)
          -0.1242 ( 77)  0.1269 ( 78)
 CRD 38=   0.1192 (  2)  0.2341 ( 51)  0.2939 ( 55)  0.3066 ( 56)  0.2223 ( 59)
           0.2196 ( 68)  0.3100 ( 69) -0.3106 ( 73) -0.2246 ( 74) -0.2213 ( 75)
          -0.3121 ( 76) -0.3097 ( 79) -0.2253 ( 80)
 CRD 39=   0.1429 (  1)  0.1781 (  2) -0.1355 (  3) -0.1335 (  8)  0.1765 ( 10)
          -0.1456 ( 14)  0.1316 ( 16) -0.2323 ( 17)  0.1366 ( 18) -0.1758 ( 20)
           0.1546 ( 24)  0.1398 ( 27) -0.1089 ( 28)  0.1085 ( 29) -0.1246 ( 32)
          -0.1906 ( 36)  0.1325 ( 38) -0.1758 ( 40)  0.1114 ( 42)  0.1387 ( 44)
          -0.1001 ( 48) -0.1905 ( 50) -0.1463 ( 51)  0.1711 ( 54) -0.1573 ( 59)
          -0.1067 ( 64) -0.1979 ( 66) -0.1665 ( 68)  0.1963 ( 70)  0.1659 ( 74)
           0.1744 ( 75) -0.2008 ( 77)  0.2019 ( 78)  0.1686 ( 80)
 CRD 40=   0.1229 (  1) -0.4088 (  2)  0.1723 (  3) -0.3169 (  4)  0.1179 (  8)
           0.1009 (  9)  0.1222 ( 10)  0.1450 ( 12) -0.1951 ( 15) -0.1177 ( 16)
          -0.1278 ( 17)  0.2396 ( 18)  0.1115 ( 19)  0.1461 ( 20)  0.1032 ( 21)
          -0.2080 ( 23)  0.1200 ( 25)  0.1178 ( 26)  0.1538 ( 27)  0.1583 ( 29)
          -0.1186 ( 30) -0.1898 ( 32) -0.1903 ( 34) -0.1475 ( 36) -0.1440 ( 37)
           0.2155 ( 38)  0.1239 ( 42)  0.1463 ( 43) -0.1277 ( 44) -0.1057 ( 46)
 CRD 41=   0.2036 (  7) -0.2309 (  9) -0.2808 ( 14)  0.1943 ( 15)  0.3017 ( 16)
          -0.1748 ( 17) -0.1041 ( 27)  0.1013 ( 29) -0.1300 ( 33)  0.1727 ( 34)
           0.1362 ( 35) -0.1514 ( 36)  0.1844 ( 37)  0.1324 ( 39) -0.1664 ( 40)
          -0.1232 ( 41)  0.1309 ( 44) -0.1734 ( 46) -0.1777 ( 47) -0.1078 ( 48)
           0.1130 ( 50)  0.2235 ( 53) -0.1013 ( 54)  0.1438 ( 58)  0.2015 ( 61)
          -0.1054 ( 62)  0.1599 ( 63)  0.1237 ( 66)  0.1029 ( 68) -0.1109 ( 70)
          -0.1244 ( 74) -0.1329 ( 75)  0.1386 ( 77) -0.1477 ( 80)
 CRD 42=  -0.2464 (  4)  0.1998 (  5)  0.1580 (  6)  0.1278 ( 10) -0.3605 ( 11)
           0.1005 ( 12) -0.3577 ( 13)  0.1990 ( 14)  0.1009 ( 15)  0.1580 ( 16)
           0.1260 ( 17) -0.2266 ( 18)  0.1347 ( 24)  0.1042 ( 25)  0.1335 ( 27)
          -0.2120 ( 28)  0.1054 ( 29) -0.2087 ( 30) -0.2406 ( 32)  0.1014 ( 33)
           0.1055 ( 34)  0.1323 ( 36)  0.1072 ( 37) -0.2362 ( 38)  0.1289 ( 40)
           0.1032 ( 41) -0.2080 ( 42) -0.2069 ( 43)
 CRD 43=  -0.2959 (  5)  0.3199 (  6) -0.2117 (  7)  0.1960 (  9) -0.1505 ( 10)
           0.1654 ( 12) -0.1851 ( 14)  0.1289 ( 15)  0.2023 ( 16) -0.1201 ( 17)
          -0.1818 ( 24)  0.1977 ( 25) -0.1559 ( 27)  0.1744 ( 29) -0.1289 ( 33)
           0.1455 ( 34)  0.1388 ( 35) -0.1365 ( 36)  0.1081 ( 37)  0.1442 ( 39)
          -0.1350 ( 41) -0.1491 ( 44)  0.1361 ( 46)  0.1287 ( 47)  0.1130 ( 48)
          -0.1905 ( 53) -0.2253 ( 58) -0.1994 ( 61) -0.2191 ( 63)
 CRD 44=   0.2072 (  1) -0.1771 (  3) -0.2091 (  7)  0.4203 (  8) -0.2203 (  9)
           0.1223 ( 19)  0.1287 ( 21) -0.2584 ( 22) -0.2272 ( 26)  0.2391 ( 31)
          -0.1414 ( 44)  0.3004 ( 45) -0.1493 ( 46)  0.2681 ( 49) -0.2757 ( 52)
          -0.2748 ( 62)  0.2689 ( 64)
 CRD 45=   0.1530 (  7) -0.1488 (  9) -0.1534 ( 19)  0.1494 ( 21)  0.1069 ( 44)
          -0.1045 ( 46)  0.1164 ( 47)  0.2114 ( 48) -0.2826 ( 49)  0.1402 ( 51)
          -0.2761 ( 52) -0.3883 ( 61)  0.2317 ( 62)  0.4628 ( 63)  0.2251 ( 64)
          -0.1014 ( 66) -0.1121 ( 71) -0.1327 ( 72) -0.1373 ( 77)  0.1757 ( 80)
 CRD 46=  -0.1512 ( 48) -0.1806 ( 50)  0.3196 ( 55)  0.2386 ( 57) -0.1486 ( 59)
           0.2531 ( 60) -0.2500 ( 65) -0.2658 ( 67)  0.1431 ( 68)  0.1999 ( 69)
          -0.2030 ( 70)  0.1978 ( 73)  0.1367 ( 74) -0.1543 ( 75) -0.3426 ( 77)
          -0.3363 ( 78)  0.3550 ( 79)
 CRD 47=  -0.2907 ( 47)  0.1132 ( 49)  0.3271 ( 51)  0.1193 ( 52) -0.1743 ( 54)
          -0.1261 ( 55) -0.1671 ( 56)  0.1650 ( 57)  0.1372 ( 59)  0.2214 ( 61)
          -0.1568 ( 63) -0.1640 ( 66)  0.1663 ( 67)  0.1441 ( 68) -0.2971 ( 71)
          -0.2237 ( 72)  0.1204 ( 74)  0.1168 ( 75) -0.1816 ( 76) -0.1358 ( 77)
          -0.2152 ( 78) -0.2099 ( 79)  0.3662 ( 80)
 CRD 48=   0.1807 ( 47) -0.1055 ( 48) -0.2708 ( 51)  0.2488 ( 55)  0.2982 ( 57)
          -0.3078 ( 60) -0.3185 ( 65)  0.2946 ( 67) -0.2901 ( 71)  0.3232 ( 72)
           0.2593 ( 77) -0.2471 ( 78) -0.2382 ( 79)  0.2355 ( 80)

 THE DETERMINANT OF THE G MATRIX IS 10**(   -27)


                     --------------------
                     INTERNAL COORDINATES
                     --------------------

                 - - ATOMS - -         COORDINATE      COORDINATE
 NO.   TYPE    I  J  K  L  M  N        (BOHR,RAD)       (ANG,DEG)
 ----------------------------------------------------------------
   1 STRETCH   1  2                     2.5975874       1.3745842
   2 STRETCH   1  4                     2.8394139       1.5025532
   3 STRETCH   1  5                     2.2904059       1.2120307
   4 STRETCH   2  3                     2.6347727       1.3942618
   5 STRETCH   3  7                     2.6442166       1.3992593
   6 STRETCH   3  6                     2.6415710       1.3978592
   7 STRETCH   4 13                     2.0748020       1.0979380
   8 STRETCH   4 12                     2.0739048       1.0974632
   9 STRETCH   4 11                     2.0747240       1.0978967
  10 STRETCH   6 14                     2.0700050       1.0953996
  11 STRETCH   6  8                     2.6287310       1.3910646
  12 STRETCH   7 15                     2.0698454       1.0953151
  13 STRETCH   7  9                     2.6252367       1.3892155
  14 STRETCH   8 10                     2.6266349       1.3899554
  15 STRETCH   8 16                     2.0694066       1.0950829
  16 STRETCH   9 10                     2.6303390       1.3919155
  17 STRETCH   9 17                     2.0692313       1.0949901
  18 STRETCH  10 18                     2.0689281       1.0948297
  19 BEND      1  4 13                  1.9360132     110.9253840
  20 BEND      1  2  3                  2.0842013     119.4159365
  21 BEND      1  4 11                  1.9375910     111.0157855
  22 BEND      1  4 12                  1.9380361     111.0412917
  23 BEND      2  1  5                  2.0971351     120.1569883
  24 BEND      2  3  6                  2.1191153     121.4163655
  25 BEND      2  3  7                  2.0448358     117.1604590
  26 BEND      2  1  4                  1.9530810     111.9032967
  27 BEND      3  6  8                  2.0761693     118.9557392
  28 BEND      3  6 14                  2.1064071     120.6882356
  29 BEND      3  7  9                  2.0753189     118.9070123
  30 BEND      3  7 15                  2.1042640     120.5654481
  31 BEND      4  1  5                  2.2328950     127.9354582
  32 BEND      6  3  7                  2.1149629     121.1784484
  33 BEND      6  8 16                  2.0901262     119.7554090
  34 BEND      6  8 10                  2.0992157     120.2761981
  35 BEND      7  9 17                  2.0890462     119.6935330
  36 BEND      7  9 10                  2.1002291     120.3342638
  37 BEND      8 10 18                  2.0914867     119.8333587
  38 BEND      8 10  9                  2.1004604     120.3475159
  39 BEND      8  6 14                  2.1005468     120.3524636
  40 BEND      9 10 18                  2.0912296     119.8186290
  41 BEND      9  7 15                  2.1035886     120.5267491
  42 BEND     10  9 17                  2.0939071     119.9720422
  43 BEND     10  8 16                  2.0938433     119.9683812
  44 BEND     11  4 12                  1.8844759     107.9725166
  45 BEND     11  4 13                  1.8803245     107.7346588
  46 BEND     12  4 13                  1.8851539     108.0113605
  47 TORSION   1  2  3  6               1.2028580      68.9186895
  48 TORSION   1  2  3  7              -2.0368204    -116.7012122
  49 TORSION   2  1  4 11               1.0445629      59.8490462
  50 TORSION   2  3  6  8               3.0384245     174.0888986
  51 TORSION   2  3  6 14              -0.1151087      -6.5952456
  52 TORSION   2  1  4 13              -1.0455141     -59.9035454
  53 TORSION   2  1  4 12               3.1412157     179.9784005
  54 TORSION   2  3  7  9              -3.0392705    -174.1373728
  55 TORSION   2  3  7 15               0.0967067       5.5408853
  56 TORSION   3  7  9 17               3.1408423     179.9570080
  57 TORSION   3  7  9 10              -0.0032988      -0.1890081
  58 TORSION   3  2  1  4              -3.0954529    -177.3563890
  59 TORSION   3  6  8 16               3.1388823     179.8447058
  60 TORSION   3  6  8 10              -0.0033975      -0.1946608
  61 TORSION   3  2  1  5               0.0582262       3.3361174
  62 TORSION   5  1  4 13               2.0828281     119.3372593
  63 TORSION   5  1  4 12              -0.0136274      -0.7807947
  64 TORSION   5  1  4 11              -2.1102802    -120.9101491
  65 TORSION   6  3  7  9               0.0044845       0.2569402
  66 TORSION   6  8 10 18              -3.1414868    -179.9939333
  67 TORSION   6  8 10  9               0.0045872       0.2628264
  68 TORSION   6  3  7 15               3.1404617     179.9351984
  69 TORSION   7  3  6 14               3.1285008     179.2498920
  70 TORSION   7  9 10 18              -3.1382880    -179.8106588
  71 TORSION   7  9 10  8              -0.0011760      -0.0673806
  72 TORSION   7  3  6  8              -0.0011513      -0.0659639
  73 TORSION   8 10  9 17               3.1378611     179.7861957
  74 TORSION   9 10  8 16              -3.1376940    -179.7766243
  75 TORSION  10  9  7 15              -3.1392782    -179.8673944
  76 TORSION  10  8  6 14              -3.1330907    -179.5128763
  77 TORSION  14  6  8 16               0.0091890       0.5264903
  78 TORSION  15  7  9 17               0.0048629       0.2786216
  79 TORSION  16  8 10 18              -0.0005827      -0.0333840
  80 TORSION  17  9 10 18               0.0007491       0.0429176

     ------------------------------------------
     THE POINT GROUP IS C1 , NAXIS= 1, ORDER= 1
     ------------------------------------------

     DIMENSIONS OF THE SYMMETRY SUBSPACES ARE
 A   =  238

 ..... DONE SETTING UP THE RUN .....
 STEP CPU TIME =     0.01 TOTAL CPU TIME =        0.0 (    0.0 MIN)
 TOTAL WALL CLOCK TIME=        0.0 SECONDS, CPU UTILIZATION IS  50.00%


          -----------------------------
          STATIONARY POINT LOCATION RUN
          -----------------------------

 OBTAINING INITIAL HESSIAN, HESS=GUESS   
 DIAGONAL GUESS HESSIAN IN INTERNAL COORDS IS
     1  0.4011     2  0.3873     3  0.5501     4  0.3860     5  0.4734
     6  0.4747     7  0.3411     8  0.3414     9  0.3411    10  0.3428
    11  0.4810    12  0.3428    13  0.4828    14  0.4821    15  0.3430
    16  0.4802    17  0.3430    18  0.3431    19  0.2252    20  0.2436
    21  0.2252    22  0.2253    23  0.2565    24  0.2547    25  0.2546
    26  0.2486    27  0.2687    28  0.2318    29  0.2687    30  0.2317
    31  0.2605    32  0.2680    33  0.2323    34  0.2693    35  0.2324
    36  0.2693    37  0.2324    38  0.2693    39  0.2323    40  0.2322
    41  0.2324    42  0.2322    43  0.2323    44  0.2026    45  0.2026
    46  0.2026    47  0.2500    48  0.2500    49  0.2500    50  0.2500
    51  0.2500    52  0.2500    53  0.2500    54  0.2500    55  0.2500
    56  0.2500    57  0.2500    58  0.2500    59  0.2500    60  0.2500
    61  0.2500    62  0.2500    63  0.2500    64  0.2500    65  0.2500
    66  0.2500    67  0.2500    68  0.2500    69  0.2500    70  0.2500
    71  0.2500    72  0.2500    73  0.2500    74  0.2500    75  0.2500
    76  0.2500    77  0.2500    78  0.2500    79  0.2500    80  0.2500
 TRANSFORMING HESSIAN TO SYMMETRY COORDINATES

          PARAMETERS CONTROLLING GEOMETRY SEARCH ARE
          METHOD =QA                  UPHESS =BFGS    
          NNEG   =         0          NFRZ   =         3
          NSTEP  =        50          IFOLOW =         1
          HESS   =GUESS               RESTAR =         F
          IHREP  =         0          HSSEND =         F
          NPRT   =         0          NPUN   =         0
          OPTTOL = 5.000E-04          RMIN   = 1.500E-03
          RMAX   = 1.000E-01          RLIM   = 7.000E-02
          DXMAX  = 3.000E-01          PURIFY =         F
          MOVIE  =         F          TRUPD  =         T
          TRMAX  = 5.000E-01          TRMIN  = 5.000E-02
          ITBMAT =         5          STPT   =         F
          STSTEP = 1.000E-02          PROJCT=          F
          FROZEN COORD(S)=   1   2   3


      ***** EQUILIBRIUM GEOMETRY LOCATED *****
            (SUBJECT TO   3 CONSTRAINT(S))
 COORDINATES OF ALL ATOMS ARE (ANGS)
   ATOM   CHARGE       X              Y              Z
 ------------------------------------------------------------
 C           6.0   1.9451558246   2.0311093099   0.7557699150
 O           8.0   2.8868437927   2.0413309243   1.7084818114
 C           6.0   3.9675437404   2.9171308787   1.6372292707
 C           6.0   0.8363916013   1.0553716822   1.0467983455
 O           8.0   1.9981607269   2.7260016120  -0.2018874274
 C           6.0   3.8775080549   4.1543044095   2.2487252063
 C           6.0   5.1446431801   2.5042031862   1.0403801409
 C           6.0   4.9859286769   4.9895796036   2.2611001441
 C           6.0   6.2482780253   3.3473860419   1.0588267396
 C           6.0   6.1734538106   4.5901400429   1.6675232538
 H           1.0   0.3381155826   1.3227235542   1.9721327649
 H           1.0   0.1248684620   1.0796716236   0.2326083278
 H           1.0   1.2318912021   0.0519399191   1.1552330237
 H           1.0   2.9611528607   4.4558571823   2.7215502083
 H           1.0   5.2077043004   1.5364465890   0.5782297048
 H           1.0   4.9225161635   5.9512461429   2.7384533937
 H           1.0   7.1684462672   3.0301629033   0.6008602702
 H           1.0   7.0319877687   5.2388168759   1.6836968963


                     --------------------
                     INTERNAL COORDINATES
                     --------------------

                 - - ATOMS - -         COORDINATE      COORDINATE
 NO.   TYPE    I  J  K  L  M  N        (BOHR,RAD)       (ANG,DEG)
 ----------------------------------------------------------------
   1 STRETCH   1  2                     2.5314858       1.3396047
   2 STRETCH   1  4                     2.8447247       1.5053636
   3 STRETCH   1  5                     2.2381827       1.1843954
   4 STRETCH   2  3                     2.6320938       1.3928442
   5 STRETCH   3  7                     2.6132261       1.3828598
   6 STRETCH   3  6                     2.6134521       1.3829794
   7 STRETCH   4 13                     2.0484606       1.0839988
   8 STRETCH   4 12                     2.0438424       1.0815549
   9 STRETCH   4 11                     2.0492855       1.0844352
  10 STRETCH   6 14                     2.0302064       1.0743391
  11 STRETCH   6  8                     2.6228648       1.3879604
  12 STRETCH   7 15                     2.0301257       1.0742963
  13 STRETCH   7  9                     2.6248202       1.3889951
  14 STRETCH   8 10                     2.6199137       1.3863987
  15 STRETCH   8 16                     2.0323911       1.0754951
  16 STRETCH   9 10                     2.6188545       1.3858382
  17 STRETCH   9 17                     2.0327281       1.0756735
  18 STRETCH  10 18                     2.0336505       1.0761616
  19 BEND      1  4 13                  1.9290175     110.5245622
  20 BEND      1  2  3                  2.1104496     120.9198539
  21 BEND      1  4 11                  1.9215358     110.0958907
  22 BEND      1  4 12                  1.9012270     108.9322830
  23 BEND      2  1  5                  2.1401696     122.6226866
  24 BEND      2  3  6                  2.0821535     119.2986097
  25 BEND      2  3  7                  2.0883639     119.6544380
  26 BEND      2  1  4                  1.9662348     112.6569580
  27 BEND      3  6  8                  2.0832358     119.3606167
  28 BEND      3  6 14                  2.0958054     120.0808048
  29 BEND      3  7  9                  2.0821216     119.2967790
  30 BEND      3  7 15                  2.0997480     120.3066986
  31 BEND      4  1  5                  2.1767760     124.7200755
  32 BEND      6  3  7                  2.1099108     120.8889839
  33 BEND      6  8 16                  2.0886058     119.6682959
  34 BEND      6  8 10                  2.1023082     120.4533878
  35 BEND      7  9 17                  2.0886486     119.6707488
  36 BEND      7  9 10                  2.1028484     120.4843381
  37 BEND      8 10 18                  2.0981362     120.2143486
  38 BEND      8 10  9                  2.0859457     119.5158838
  39 BEND      8  6 14                  2.1040291     120.5519882
  40 BEND      9 10 18                  2.0990923     120.2691273
  41 BEND      9  7 15                  2.1012402     120.3921971
  42 BEND     10  9 17                  2.0916777     119.8443030
  43 BEND     10  8 16                  2.0922628     119.8778306
  44 BEND     11  4 12                  1.9119066     109.5441774
  45 BEND     11  4 13                  1.8865135     108.0892638
  46 BEND     12  4 13                  1.9135981     109.6410940
  47 TORSION   1  2  3  6               1.6029703      91.8434330
  48 TORSION   1  2  3  7              -1.6176288     -92.6833045
  49 TORSION   2  1  4 11               1.0673771      61.1562026
  50 TORSION   2  3  6  8               3.0616812     175.4214106
  51 TORSION   2  3  6 14              -0.0637040      -3.6499693
  52 TORSION   2  1  4 13              -1.0155183     -58.1849140
  53 TORSION   2  1  4 12              -3.1190005    -178.7055669
  54 TORSION   2  3  7  9              -3.0608841    -175.3757385
  55 TORSION   2  3  7 15               0.0675567       3.8707144
  56 TORSION   3  7  9 17               3.1360543     179.6826751
  57 TORSION   3  7  9 10              -0.0005714      -0.0327370
  58 TORSION   3  2  1  4              -3.0999090    -177.6117052
  59 TORSION   3  6  8 16              -3.1376297    -179.7729392
  60 TORSION   3  6  8 10              -0.0004673      -0.0267767
  61 TORSION   3  2  1  5               0.0384695       2.2041378
  62 TORSION   5  1  4 13               2.1293678     122.0037900
  63 TORSION   5  1  4 12               0.0258856       1.4831371
  64 TORSION   5  1  4 11              -2.0709221    -118.6550934
  65 TORSION   6  3  7  9               0.0004181       0.0239534
  66 TORSION   6  8 10 18              -3.1362105    -179.6916257
  67 TORSION   6  8 10  9               0.0003156       0.0180803
  68 TORSION   6  3  7 15               3.1288588     179.2704063
  69 TORSION   7  3  6 14              -3.1252881    -179.0658159
  70 TORSION   7  9 10 18               3.1367313     179.7214629
  71 TORSION   7  9 10  8               0.0002080       0.0119187
  72 TORSION   7  3  6  8               0.0000971       0.0055640
  73 TORSION   8 10  9 17              -3.1364090    -179.7030001
  74 TORSION   9 10  8 16               3.1374686     179.7637111
  75 TORSION  10  9  7 15              -3.1290006    -179.2785312
  76 TORSION  10  8  6 14               3.1248397     179.0401266
  77 TORSION  14  6  8 16              -0.0123227      -0.7060359
  78 TORSION  15  7  9 17               0.0076250       0.4368809
  79 TORSION  16  8 10 18               0.0009426       0.0540051
  80 TORSION  17  9 10 18               0.0001142       0.0065441

          INTERNUCLEAR DISTANCES (ANGS.)


 =====================================================
   GAMESS/COSab RESULTS
 =====================================================

   Dielectric Constant                  = INFTY
   Basic Grid Size                      =                 1082
   Number of Segments                   =                   92
   Number of Segments located on spheres=                  315
   Number of Segments of the cavity     =                  735
   Solvent Radius (rsolv)               = 1.40
   Outlying Charge Error Method         = double cavity

 =====================================================

  Total solvated Energy (a.u.)          =  -457.4691144701
  Total Energy corrected (a.u.)         =  -457.4689156128

  Outlying charge effect (a.u.)         =     0.0001988573
  Outlying charge effect (kcal/mol)     =     0.1247849435

  Dielectric Energy (a.u.)              =    -0.0177390820
  Dielectric energy corr. (a.u.)        =    -0.0175402247

  Sum of polarization charges           =     0.0221280529
  Sum of polarization charges(cor.)     =    -0.0221280529

  Total surface area of cavity (A**2)   =  174.31
  Total volume of cavity (A**3)         =  170.30

 =====================================================
 NPS=                   735
NR.  ATOM  (X, Y, Z)(a.u.)                  CHARGE(e)  AREA(A**2) SIGMA(e/A**2)
   1   1   1.885661   5.897915   4.043014  -0.001482   0.092912  -0.015951
   2   1   0.795618   6.284813   1.482590  -0.000199   0.139368  -0.001429
   3   1   5.375677   1.772811  -1.241786  -0.001166   0.232280  -0.005018
   4   1   1.338704   6.778756   1.847097  -0.000172   0.092912  -0.001853
   5   1   3.686059   1.775856  -1.738947  -0.000229   0.092912  -0.002469
   6   1   1.051984   6.384376   2.385745  -0.001048   0.232280  -0.004512
   7   1   1.470114   6.206541   3.380175  -0.002706   0.232280  -0.011649
   8   1   5.403198   1.192841  -0.646012  -0.002151   0.232280  -0.009258
   9   1   4.542430   1.376523  -1.305530  -0.000609   0.278737  -0.002184
  10   1   5.347950   0.738826   0.056366  -0.003226   0.232280  -0.013888
  11   1   1.748489   6.933822   2.421664  -0.001605   0.232280  -0.006909
  12   2   6.836573   1.065778   4.157469   0.002600   0.240512   0.010810
  13   2   4.673175   2.632714   6.135899   0.004591   0.309230   0.014847
  14   2   6.958456   1.567273   4.977828   0.002269   0.206154   0.011004
  15   2   6.261005   2.601298   6.116012   0.001508   0.171795   0.008776
  16   2   5.610723   2.648883   6.241800   0.002426   0.206154   0.011768
  17   2   6.145544   1.199178   4.966758   0.003210   0.240512   0.013348
  18   2   5.411560   1.843241   5.779105   0.003898   0.309230   0.012605
  19   2   4.562254   3.659238   6.347484   0.004173   0.309230   0.013495
  20   2   6.040595   0.807090   4.186071   0.002541   0.171795   0.014791
  21   2   6.584227   0.810523   3.151676   0.002822   0.240512   0.011733
  22   2   6.571607   1.970514   5.628080   0.003178   0.274871   0.011564
  23   2   5.488283   3.558710   6.464952   0.002524   0.240512   0.010494
  24   2   5.437300   1.231676   5.144052   0.002109   0.137436   0.015346
  25   2   3.958454   4.376751   6.066582   0.003305   0.240512   0.013742
  26   3   9.564885   4.779932   6.171854   0.000841   0.092912   0.009055
  27   3   8.325678   2.487346   5.202592   0.000031   0.046456   0.000657
  28   3   8.175643   2.848053   5.687144   0.000071   0.092912   0.000768
  29   3   7.254106   3.978166   6.539292   0.000018   0.139368   0.000131
  30   3   8.644488   3.290959   5.928221   0.000262   0.185824   0.001408
  31   3   9.134554   3.916057   6.103183   0.000588   0.139368   0.004218
  32   3   8.693406   4.316451   6.473789   0.000977   0.232280   0.004206
  33   3   7.617863   4.320401   6.678402   0.000246   0.185824   0.001322
  34   3   7.989093   3.550863   6.286781  -0.000011   0.232280  -0.000047
  35   4   3.066882   0.154240  -0.969538  -0.000509   0.278737  -0.001827
  36   4  -0.045407  -0.954364   0.261912   0.000505   0.418105   0.001208
  37   4  -0.646214   5.046696   2.073520  -0.000491   0.325193  -0.001510
  38   4  -2.155410   1.423568   1.944733   0.000003   0.325193   0.000009
  39   4   0.169345  -0.888977   3.972946  -0.000157   0.371649  -0.000423
  40   4   3.522039  -0.294220  -0.319049  -0.000516   0.232280  -0.002221
  41   4   1.956794   1.092870  -1.672855  -0.000544   0.232280  -0.002342
  42   4   2.264227   0.178721  -1.265324  -0.000154   0.278737  -0.000553
  43   4   1.442836  -0.630503  -0.737590   0.000410   0.325193   0.001260
  44   4   0.029612  -0.096965   4.717737  -0.000167   0.371649  -0.000449
  45   4  -2.077580   2.062065   2.925709  -0.000002   0.371649  -0.000005
  46   4  -1.061047   4.556835   2.838413  -0.000218   0.232280  -0.000940
  47   4   2.373139   1.316805   5.610934  -0.000159   0.232280  -0.000684
  48   4   0.530165  -0.461444  -0.695771   0.000055   0.232280   0.000235
  49   4   1.008260  -1.154350  -0.032387   0.000169   0.278737   0.000605
  50   4  -0.198011   5.156384   3.037720  -0.000366   0.185824  -0.001972
  51   4  -1.317670   4.407198   1.727440   0.000142   0.325193   0.000435
  52   4  -2.128565   2.710307   2.097415   0.000479   0.371649   0.001288
  53   4  -1.836953   0.739723   2.993488  -0.000321   0.464561  -0.000691
  54   4  -0.893396  -0.377573   3.571221  -0.000391   0.464561  -0.000842
  55   4   1.183952  -0.418163   4.860304   0.000316   0.371649   0.000850
  56   4   2.408074   0.184094   5.191016   0.000120   0.325193   0.000368
  57   4   3.229946   0.144265   4.831390  -0.000280   0.232280  -0.001206
  58   4  -0.709689   4.770070   0.822940  -0.000360   0.325193  -0.001106
  59   4  -1.808516   0.338859   1.737644  -0.000383   0.418105  -0.000915
  60   4  -1.055234  -0.552811   1.056846  -0.000316   0.418105  -0.000755
  61   4  -0.249820  -1.273578   1.473606  -0.000276   0.464561  -0.000593
  62   4  -0.180944  -1.234898   2.846096  -0.000525   0.371649  -0.001413
  63   4   1.432931   0.264509  -1.378920  -0.000018   0.232280  -0.000077
  64   4   2.446475  -0.721173  -0.503817   0.000047   0.278737   0.000168
  65   4  -1.284196   0.461545   3.908975  -0.000485   0.278737  -0.001739
  66   4  -1.718467   3.748021   2.548691   0.000273   0.278737   0.000978
  67   4   1.579911   0.449827   5.427615   0.000083   0.325193   0.000257
  68   4  -1.815594   3.607095   1.591357   0.000111   0.232280   0.000480
  69   4  -1.209641  -0.521662   2.388962  -0.000486   0.418105  -0.001163
  70   5   3.848267   7.010305  -3.046825   0.004875   0.377948   0.012899
  71   5   1.237147   6.995827  -1.228328   0.003833   0.274871   0.013946
  72   5   2.029219   4.326524  -2.995520   0.004817   0.274871   0.017523
  73   5   5.351176   4.080093  -3.015076   0.003642   0.309230   0.011776
  74   5   2.790129   7.341203  -2.571836   0.005418   0.412307   0.013142
  75   5   1.802025   7.172762  -1.988456   0.004816   0.343589   0.014016
  76   5   3.051186   6.189303  -3.375184   0.005700   0.412307   0.013824
  77   5   2.385465   5.245545  -3.317878   0.005379   0.343589   0.015655
  78   5   4.464025   6.097955  -3.413880   0.004811   0.377948   0.012728
  79   5   5.076123   5.188454  -3.360248   0.004282   0.343589   0.012463
  80   5   4.984853   7.082006  -2.700138   0.005151   0.377948   0.013628
  81   5   5.793399   7.051200  -2.080163   0.005097   0.274871   0.018543
  82   5   4.012636   7.859055  -2.163998   0.005813   0.446666   0.013014
  83   5   4.021251   8.323122  -1.048364   0.006341   0.412307   0.015379
  84   5   1.116914   6.177144  -1.944166   0.004315   0.274871   0.015700
  85   5   1.470517   5.183066  -2.672470   0.005521   0.309230   0.017855
  86   5   3.064583   4.168624  -3.396920   0.005038   0.343589   0.014663
  87   5   4.329690   3.942827  -3.347547   0.005225   0.412307   0.012671
  88   5   5.916483   4.910485  -2.815606   0.004139   0.274871   0.015058
  89   5   2.953420   8.291413  -0.213006   0.005859   0.446666   0.013118
  90   5   1.836421   7.739352  -0.706018   0.005636   0.446666   0.012617
  91   5   0.738425   6.152792  -0.960432   0.004094   0.274871   0.014893
  92   5   2.618475   3.503339  -2.932726   0.002938   0.171795   0.017103
  93   5   4.375882   2.894452  -2.642241   0.002214   0.206154   0.010737
  94   5   5.062748   3.123916  -2.571975   0.002099   0.206154   0.010180
  95   5   5.711369   3.553807  -2.447077   0.002424   0.206154   0.011759
  96   5   1.076826   6.934650  -0.066441   0.004421   0.377948   0.011698
  97   5   1.944435   6.324984  -2.796632   0.006305   0.412307   0.015292
  98   5   3.787740   5.089182  -3.631222   0.006510   0.481025   0.013533
  99   5   5.769475   6.099883  -2.767089   0.005896   0.412307   0.014300
 100   5   5.172980   7.805535  -1.633952   0.006401   0.377948   0.016937
 101   5   2.783950   8.033850  -1.509357   0.005148   0.412307   0.012486
 102   5   0.963620   5.416242  -1.989351   0.002549   0.137436   0.018544
 103   5   3.475271   3.114272  -2.896326   0.004431   0.343589   0.012897
 104   5   2.039352   7.740922   0.536740   0.004539   0.412307   0.011009
 105   6   5.551333  10.920290   2.943287   0.000876   0.325193   0.002695
 106   6   7.029210   7.022680   7.925064   0.001067   0.371649   0.002871
 107   6   6.075700   7.566727   7.804304   0.000435   0.371649   0.001169
 108   6   4.963943  10.707664   3.518188   0.000150   0.232280   0.000645
 109   6   6.245092  10.380713   6.839988  -0.000560   0.092912  -0.006026
 110   6   5.447968  11.129446   4.230313  -0.000265   0.185824  -0.001424
 111   6   5.071593  10.197291   2.329049   0.000976   0.325193   0.003000
 112   6   6.310621   6.187791   7.487634   0.000835   0.371649   0.002248
 113   6   7.169316   8.375301   7.988962   0.001018   0.371649   0.002738
 114   6   6.592776   9.659345   7.485606   0.000340   0.185824   0.001828
 115   6   6.098917  10.317729   1.663392   0.001325   0.232280   0.005702
 116   6   6.825001   9.576974   0.925145   0.001424   0.185824   0.007663
 117   6   7.667978   6.039583   7.549294   0.002388   0.511017   0.004674
 118   6   8.091164   7.308874   7.911107   0.001787   0.371649   0.004808
 119   6   5.472315   6.531201   7.266455  -0.000016   0.278737  -0.000059
 120   6   4.378960   9.840420   2.972374   0.000199   0.278737   0.000715
 121   6   5.646471  11.152609   4.994238  -0.000067   0.092912  -0.000721
 122   6   6.499682   8.835583   7.803152   0.000023   0.232280   0.000100
 123   6   8.924633   6.234023   7.269436   0.002681   0.418105   0.006412
 124   6   5.558650   9.887216   1.602309   0.000673   0.185824   0.003624
 125   7  10.831185   4.113671   5.525702   0.000860   0.139368   0.006173
 126   7  12.202174   2.198318   3.274480   0.000767   0.278737   0.002753
 127   7   9.129651   4.668364  -1.766172   0.000500   0.232280   0.002151
 128   7   9.164342   3.556953  -1.582489   0.000406   0.371649   0.001091
 129   7   9.443336   1.236767   3.376077  -0.000094   0.232280  -0.000403
 130   7  11.782928   1.672610   2.787807   0.000136   0.278737   0.000490
 131   7  11.919015   3.014829  -0.584993  -0.000500   0.092912  -0.005383
 132   7  12.414165   2.080659   2.039615  -0.000277   0.185824  -0.001490
 133   7  11.329731   1.861618   3.825826   0.000883   0.325193   0.002716
 134   7   9.826781   1.657663   4.161525   0.000796   0.371649   0.002141
 135   7  10.270376   4.554888  -1.769214   0.001042   0.371649   0.002803
 136   7  11.316370   3.527867  -1.242023   0.000253   0.185824   0.001363
 137   7  11.635506   2.658636   4.480541   0.001726   0.325193   0.005309
 138   7  11.179581   3.359240   5.171412   0.000997   0.232280   0.004292
 139   7  10.478608   3.179384   5.327632   0.001491   0.232280   0.006419
 140   7   9.840318   2.332912   4.883810   0.000821   0.232280   0.003536
 141   7   9.480795   5.589598  -1.706985   0.001891   0.418105   0.004522
 142   7  10.579426   1.369204   3.462346   0.000464   0.278737   0.001664
 143   7  12.494697   2.258769   1.274557  -0.000052   0.092912  -0.000561
 144   7  10.431782   3.695937  -1.598585   0.000077   0.278737   0.000275
 145   7   8.933059   6.700037  -1.162817   0.001409   0.185824   0.007585
 146   7  10.679336   2.304783   4.700097   0.001030   0.278737   0.003695
 147   8   8.438237  10.125520   0.690806   0.000895   0.139368   0.006424
 148   8   9.967499  12.522782   2.171718   0.000947   0.325193   0.002912
 149   8   7.010881  12.142308   3.220143   0.000659   0.278737   0.002365
 150   8  10.430997   9.521895   7.913968   0.001102   0.371649   0.002966
 151   8  10.233908  10.599483   7.773574   0.000508   0.371649   0.001366
 152   8   7.692875  10.772572   7.353279  -0.000034   0.092912  -0.000367
 153   8   6.938586  12.276114   4.171174   0.000202   0.278737   0.000723
 154   8   9.662308  12.944908   2.907416   0.000259   0.278737   0.000930
 155   8  11.782008  11.764565   6.078304  -0.000078   0.092912  -0.000842
 156   8  10.667363  12.841467   3.229781  -0.000103   0.185824  -0.000553
 157   8   8.870534  12.531290   2.185884   0.000879   0.325193   0.002703
 158   8   7.620762  12.268537   2.547656   0.000605   0.232280   0.002605
 159   8   8.205335  10.407920   7.714599   0.000011   0.185824   0.000062
 160   8   9.171317   9.603130   8.039971   0.001311   0.418105   0.003136
 161   8  11.475130  10.191553   7.353040   0.001069   0.371649   0.002876
 162   8  11.816419  11.141565   6.643113   0.000367   0.185824   0.001975
 163   8   9.084708  11.844646   1.385861   0.001681   0.325193   0.005170
 164   8   8.629394  10.978664   0.918122   0.001079   0.232280   0.004645
 165   8   7.924221  10.889409   1.125197   0.001622   0.232280   0.006982
 166   8   7.292535  11.550974   1.982353   0.000994   0.278737   0.003566
 167   8   9.917341   8.403647   7.876716   0.002555   0.511017   0.005000
 168   8  11.246904   8.821835   7.526409   0.001776   0.418105   0.004248
 169   8   9.041098  10.437833   7.895200   0.000295   0.232280   0.001268
 170   8   8.183713  12.752330   2.966775   0.000525   0.325193   0.001615
 171   8  11.153649  12.761224   3.846716  -0.000038   0.092912  -0.000414
 172   8  11.235822  11.030988   7.175945   0.000077   0.185824   0.000412
 173   8  10.624166   7.426301   7.244162   0.002977   0.464561   0.006407
 174   8   8.082553  11.823730   1.673826   0.001011   0.278737   0.003627
 175   9  12.129789   5.169133   5.584587   0.000917   0.139368   0.006578
 176   9  14.921695   5.982094   4.114708   0.000789   0.278737   0.002832
 177   9  13.746596   3.266580   3.080879   0.000667   0.278737   0.002392
 178   9  12.253624   7.294141  -1.625027   0.001087   0.371649   0.002926
 179   9  13.234837   6.813292  -1.464546   0.000501   0.371649   0.001348
 180   9  12.707870   4.317050  -1.071430  -0.000035   0.092912  -0.000371
 181   9  13.878193   3.166630   2.132046   0.000185   0.278737   0.000664
 182   9  15.225565   5.601975   3.442280   0.000268   0.278737   0.000961
 183   9  14.733603   7.980227   0.273249  -0.000079   0.092912  -0.000849
 184   9  15.403965   6.599671   3.129981  -0.000094   0.185824  -0.000507
 185   9  14.597395   4.946529   4.145407   0.000913   0.325193   0.002807
 186   9  14.016542   3.815888   3.763168   0.000611   0.232280   0.002630
 187   9  12.503120   4.910939  -1.434075   0.000004   0.185824   0.000022
 188   9  11.995797   6.059903  -1.764502   0.001295   0.418105   0.003098
 189   9  13.166264   8.115967  -1.037673   0.001079   0.371649   0.002903
 190   9  14.156218   8.184535  -0.303992   0.000356   0.185824   0.001914
 191   9  13.975218   5.332904   4.933442   0.001715   0.325193   0.005275
 192   9  13.007972   5.124830   5.377463   0.001042   0.232280   0.004486
 193   9  12.737108   4.471002   5.160072   0.001643   0.232280   0.007075
 194   9  13.224118   3.689646   4.309358   0.001001   0.278737   0.003592
 195   9  11.037847   7.100401  -1.617340   0.002561   0.511017   0.005011
 196   9  11.790095   8.266094  -1.242353   0.001765   0.418105   0.004221
 197   9  12.761047   5.708837  -1.603911   0.000293   0.232280   0.001261
 198   9  14.643636   4.230255   3.361070   0.000528   0.325193   0.001625
 199   9  15.471981   7.093295   2.517419  -0.000046   0.092912  -0.000496
 200   9  13.905958   7.658376  -0.845986   0.000079   0.185824   0.000425
 201   9  10.272261   8.040510  -0.996851   0.002988   0.464561   0.006431
 202   9  13.692123   4.375155   4.633027   0.001035   0.278737   0.003711
 203  10   9.895152   9.590057  -0.059590   0.000907   0.139368   0.006508
 204  10  13.088483   9.862775  -0.142520   0.001048   0.325193   0.003224
 205  10  11.725645  12.119779   1.599364   0.000799   0.278737   0.002866
 206  10  14.023786   8.201310   6.067015   0.001280   0.371649   0.003444
 207  10  14.580186   8.929134   5.544390   0.000678   0.325193   0.002085
 208  10  13.132918  11.100989   5.649766  -0.000129   0.092912  -0.001384
 209  10  12.234901  12.331922   2.388823   0.000300   0.278737   0.001075
 210  10  13.567071  10.413924   0.386415   0.000387   0.278737   0.001388
 211  10  15.406696   8.335210   2.729614  -0.000392   0.092912  -0.004224
 212  10  14.195317   9.565536   0.487902  -0.000077   0.185824  -0.000413
 213  10  12.506319  10.757263   0.111610   0.001045   0.325193   0.003214
 214  10  11.820885  11.645581   0.820779   0.000713   0.232280   0.003068
 215  10  13.332539  10.502850   6.008263   0.000127   0.185824   0.000682
 216  10  13.457203   9.278760   6.423883   0.001525   0.418105   0.003647
 217  10  14.782900   7.700127   5.054169   0.001215   0.371649   0.003269
 218  10  15.348307   8.031530   3.710658   0.000386   0.185824   0.002076
 219  10  11.765042  10.120975  -0.338982   0.001853   0.325193   0.005700
 220  10  10.696392   9.949168  -0.272011   0.001185   0.232280   0.005099
 221  10  10.351759  10.484919   0.105238   0.001774   0.232280   0.007639
 222  10  10.876743  11.449323   0.709992   0.001107   0.278737   0.003971
 223  10  12.955947   7.964476   6.632115   0.002848   0.511017   0.005573
 224  10  13.797374   7.102780   5.848014   0.001952   0.418105   0.004668
 225  10  13.892989   9.857763   5.966180   0.000327   0.232280   0.001407
 226  10  12.660922  11.504230   0.852225   0.000735   0.325193   0.002259
 227  10  14.699552   9.174260   0.952846   0.000002   0.092912   0.000023
 228  10  15.152166   8.250234   4.548383   0.000217   0.232280   0.000935
 229  10  12.361588   6.773612   6.343134   0.003152   0.464561   0.006786
 230  10  11.345314  10.943410   0.145894   0.001170   0.278737   0.004197
 231  11  -0.610883   3.028795   5.774470  -0.005488   0.588831  -0.009320
 232  11   1.169488   2.097202   6.091477  -0.002671   0.412182  -0.006481
 233  11  -0.626755   1.230598   5.406917  -0.002164   0.353299  -0.006126
 234  11  -1.717581   2.805765   4.349813  -0.002163   0.372926  -0.005800
 235  11  -0.579351   4.501605   4.463509  -0.002527   0.412182  -0.006130
 236  11   0.767359   3.329202   6.035547  -0.004880   0.529948  -0.009208
 237  11   0.130800   1.714193   5.998374  -0.003642   0.510320  -0.007136
 238  11  -1.347885   1.986805   5.077606  -0.003641   0.490692  -0.007421
 239  11  -1.285268   3.705880   4.663467  -0.003513   0.471065  -0.007458
 240  11   0.194619   4.311492   5.325120  -0.004551   0.510320  -0.008918
 241  12  -1.702758   2.047637  -1.069208  -0.003939   0.451437  -0.008725
 242  12  -0.265502   0.511008  -1.416480  -0.002097   0.392554  -0.005343
 243  12   0.264616   1.657674  -1.986925  -0.002735   0.392554  -0.006968
 244  12  -1.050040   3.622424  -0.930888  -0.002396   0.314043  -0.007630
 245  12  -2.109990   2.725463   0.190260  -0.002015   0.353299  -0.005705
 246  12  -1.820693   0.789141  -0.050219  -0.002087   0.372926  -0.005595
 247  12  -0.812699   1.438781  -1.699026  -0.003132   0.392554  -0.007978
 248  12  -0.755987   2.714769  -1.704309  -0.004079   0.471065  -0.008658
 249  12  -1.649852   3.393686  -0.364875  -0.002505   0.392554  -0.006382
 250  12  -2.180522   1.756742   0.100003  -0.002526   0.392554  -0.006434
 251  12  -1.259469   0.570356  -0.840302  -0.002814   0.412182  -0.006826
 252  13   3.135775  -2.221867   2.178906  -0.004730   0.510320  -0.009268
 253  13   4.290202  -1.317208   1.757144  -0.003241   0.392554  -0.008257
 254  13   2.854017  -1.661717   0.551744  -0.001885   0.333671  -0.005649
 255  13   1.509559  -2.198303   1.880356  -0.002825   0.431809  -0.006541
 256  13   2.232420  -1.600373   3.955346  -0.002284   0.392554  -0.005819
 257  13   3.519169  -1.073322   3.984101  -0.002598   0.392554  -0.006617
 258  13   3.775487  -1.463201   0.957544  -0.002720   0.412182  -0.006599
 259  13   2.229237  -2.120349   1.132537  -0.003084   0.431809  -0.007143
 260  13   1.632168  -2.110835   3.002432  -0.003465   0.490692  -0.007062
 261  13   3.058346  -1.943278   3.338128  -0.003532   0.412182  -0.008569
 262  13   4.158487  -1.388665   2.871245  -0.003816   0.431809  -0.008836
 263  14   3.803968   9.179453   6.642427  -0.004822   0.490692  -0.009828
 264  14   4.161851  10.404315   4.936021  -0.002441   0.392554  -0.006219
 265  14   5.089411  10.054750   6.905774  -0.002411   0.333671  -0.007224
 266  14   4.493893   7.959310   7.289715  -0.002802   0.412182  -0.006798
 267  14   3.456210   9.413807   4.457109  -0.002964   0.372926  -0.007947
 268  14   4.544298  10.426094   6.095077  -0.003671   0.431809  -0.008502
 269  14   4.807717   9.073224   7.376333  -0.003255   0.431809  -0.007539
 270  14   3.736726   7.673388   6.564657  -0.004710   0.451437  -0.010433
 271  14   3.187140   8.550650   5.608442  -0.004851   0.451437  -0.010745
 272  14   3.555671   9.722354   5.564745  -0.003486   0.372926  -0.009347
 273  15  10.279214   0.725444   0.044189  -0.004663   0.471065  -0.009899
 274  15  11.425606   1.034793   1.273165  -0.002537   0.372926  -0.006804
 275  15  11.327658   1.964437  -0.622976  -0.002564   0.353299  -0.007256
 276  15   9.288602   2.080819  -1.155201  -0.002472   0.333671  -0.007409
 277  15   9.484307   0.594199   1.851010  -0.003248   0.431809  -0.007522
 278  15  11.473356   1.313714   0.174223  -0.004059   0.451437  -0.008992
 279  15  10.336970   1.798006  -1.044398  -0.003706   0.471065  -0.007867
 280  15   9.176396   1.151181  -0.495604  -0.004576   0.451437  -0.010137
 281  15   9.157270   0.575028   0.710881  -0.004853   0.451437  -0.010751
 282  15  10.557086   0.580484   1.447988  -0.003698   0.451437  -0.008193
 283  16   9.222171  13.428052   6.301111  -0.005915   0.608459  -0.009722
 284  16   9.834792  13.557188   4.533901  -0.002610   0.412182  -0.006332
 285  16  10.995695  12.773083   6.089208  -0.002563   0.353299  -0.007256
 286  16   9.618903  12.025189   7.483167  -0.001978   0.353299  -0.005598
 287  16   7.657674  12.284166   6.676000  -0.002565   0.333671  -0.007688
 288  16   7.707313  13.096034   4.911137  -0.001754   0.333671  -0.005256
 289  16  10.473194  13.390935   5.428136  -0.004006   0.490692  -0.008164
 290  16  10.300329  12.624110   6.947005  -0.003595   0.490692  -0.007326
 291  16   8.589726  12.360991   7.244880  -0.003776   0.510320  -0.007400
 292  16   7.813662  13.032478   5.967756  -0.004034   0.490692  -0.008220
 293  16   8.748909  13.611382   4.807535  -0.004118   0.549575  -0.007492
 294  17  15.651890   5.068259   0.054206  -0.005914   0.608459  -0.009719
 295  17  15.899795   5.612852   1.830992  -0.002623   0.412182  -0.006363
 296  17  15.493579   6.951343   0.273775  -0.002560   0.353299  -0.007246
 297  17  14.435554   5.835222  -1.152017  -0.001971   0.353299  -0.005580
 298  17  14.138271   3.871900  -0.363349  -0.002619   0.333671  -0.007848
 299  17  14.892084   3.690471   1.418556  -0.001776   0.333671  -0.005323
 300  17  15.932412   6.277796   0.941251  -0.004013   0.490692  -0.008178
 301  17  15.183060   6.326948  -0.595277  -0.003598   0.490692  -0.007333
 302  17  14.476350   4.752224  -0.919209  -0.003776   0.510320  -0.007399
 303  17  14.884196   3.816345   0.362201  -0.004036   0.490692  -0.008224
 304  17  15.666152   4.554155   1.545464  -0.004114   0.549575  -0.007486
 305  18  15.290459  11.322526   3.241878  -0.005812   0.608459  -0.009552
 306  18  14.864123  10.760510   1.504816  -0.002526   0.412182  -0.006129
 307  18  15.698672   9.488649   2.942659  -0.002351   0.353299  -0.006654
 308  18  15.104754  10.280205   4.791638  -0.001958   0.353299  -0.005542
 309  18  13.832794  11.954715   4.413295  -0.002580   0.333671  -0.007733
 310  18  13.573301  12.245602   2.509513  -0.001761   0.333671  -0.005278
 311  18  15.524509  10.218165   2.215171  -0.003915   0.490692  -0.007979
 312  18  15.630270  10.033638   3.912118  -0.003552   0.490692  -0.007240
 313  18  14.664052  11.289868   4.668711  -0.003723   0.510320  -0.007295
 314  18  14.093915  12.206788   3.436470  -0.003820   0.490692  -0.007785
 315  18  14.443935  11.693263   1.963477  -0.004074   0.549575  -0.007412
 316   1   5.535414   0.533820   1.814418  -0.000800   0.086236  -0.009276
 317   2   5.794858   0.657969   2.156870  -0.000146   0.086236  -0.001693
 318  13   5.027395   0.010628   1.976276  -0.000976   0.086236  -0.011321
 319   1   6.419463   1.017517   1.619462  -0.000353   0.128781  -0.002742
 320   2   6.713245   1.063969   1.956472   0.000394   0.128781   0.003056
 321  15   7.634019   1.136152   1.541544  -0.000691   0.128781  -0.005370
 322   2   6.272211   0.838909   2.177603   0.000133   0.019520   0.006823
 323   1   5.888711   0.725582   1.679155  -0.000180   0.020828  -0.008648
 324   1   0.507369   5.813492   0.791904  -0.000079   0.037099  -0.002127
 325   4   0.178596   5.463344   0.892911  -0.000232   0.037099  -0.006246
 326   5   0.639870   5.984765   0.466385   0.000261   0.037099   0.007044
 327   1   3.186570   1.984468  -1.838271  -0.000071   0.037099  -0.001922
 328   4   2.821610   1.686038  -1.701739  -0.000249   0.037099  -0.006711
 329   5   3.215590   2.303633  -2.062202   0.000159   0.037099   0.004297
 330   1   0.920870   5.464042   3.632098  -0.000478   0.026693  -0.017914
 331   4   0.539727   5.176954   3.746702  -0.000396   0.026693  -0.014822
 332  11   0.434613   5.023407   3.984557  -0.000399   0.026693  -0.014937
 333   1   4.635708   0.246557   0.300368  -0.000560   0.026120  -0.021430
 334   4   4.297624  -0.100887   0.376459  -0.000344   0.026120  -0.013153
 335  13   4.243139  -0.332353   0.562249  -0.000291   0.026120  -0.011152
 336   4   0.370024   5.373669   3.158290  -0.001677   0.224187  -0.007481
 337   4  -0.046397   5.384704   1.608841  -0.001136   0.224187  -0.005067
 338   1   0.711440   5.796857   2.238826  -0.004842   0.458159  -0.010569
 339   4   3.033431   1.001485  -1.353054  -0.001221   0.244720  -0.004989
 340   4   4.057418   0.180217  -0.205337  -0.001804   0.244720  -0.007373
 341   1   4.043519   1.082671  -0.871662  -0.005860   0.504582  -0.011614
 342   1   2.837222   7.554468   2.052675  -0.000239   0.126545  -0.001885
 343   5   2.902664   7.692538   1.687697   0.000566   0.126545   0.004472
 344   6   3.569752   8.176604   2.548160  -0.000160   0.126545  -0.001266
 345   1   6.342768   2.710407  -1.131145  -0.000482   0.141173  -0.003414
 346   5   6.284215   3.017934  -1.373408   0.000567   0.141173   0.004019
 347  15   7.525450   2.687388  -0.833493  -0.000659   0.141173  -0.004670
 348   5   5.380108   2.846033  -1.970672   0.001174   0.168224   0.006976
 349   5   3.904144   2.540699  -2.273918   0.001310   0.168224   0.007787
 350   1   4.637068   2.318340  -1.720066   0.000368   0.350065   0.001052
 351   5   1.034313   6.607550   0.518281   0.001140   0.161019   0.007080
 352   5   2.077265   7.423122   1.167807   0.001027   0.161019   0.006375
 353   1   1.478423   6.739690   1.313385   0.000451   0.334682   0.001346
 354   1   3.157692   7.758389   2.686397  -0.000494   0.090732  -0.005449
 355   6   3.704564   8.556806   3.165450  -0.000384   0.090732  -0.004235
 356  14   3.612316   8.582573   3.449826  -0.000548   0.090732  -0.006041
 357   6   3.607411   8.652456   2.972871   0.000037   0.010140   0.003648
 358   1   2.681862   7.636138   2.264488   0.000007   0.010140   0.000709
 359  11   0.737215   4.830656   4.575066  -0.002276   0.211214  -0.010777
 360   1   1.347022   5.571533   3.986202  -0.002784   0.297674  -0.009351
 361  13   4.449849  -0.481438   1.121193  -0.002802   0.288652  -0.009708
 362   1   5.227396   0.352041   1.049548  -0.003674   0.406268  -0.009042
 363  14   3.305562   8.590598   3.837595  -0.001275   0.268099  -0.004755
 364  14   3.104917   7.851244   4.853269  -0.004220   0.538211  -0.007841
 365   1   2.325160   7.178930   3.168507  -0.004060   0.776004  -0.005231
 366   1   2.212875   6.285353   4.328742  -0.002266   0.391875  -0.005783
 367  15   8.132172   0.877220   1.037201  -0.001370   0.236121  -0.005802
 368  15   8.136887   1.285057  -0.012477  -0.003226   0.473372  -0.006815
 369  15   8.210934   2.064087  -0.822296  -0.001154   0.236121  -0.004889
 370   1   6.332529   0.919533   0.629920  -0.003188   0.685951  -0.004648
 371   1   6.389767   1.782041  -0.721396  -0.002960   0.685951  -0.004315
 372   2   6.043707   4.357957   6.505813   0.000172   0.046214   0.003712
 373   3   6.399894   4.635390   6.614611  -0.000010   0.046214  -0.000211
 374   6   6.377733   5.055264   6.777269   0.000005   0.046214   0.000112
 375   2   7.811746   2.039920   4.804333   0.000236   0.045926   0.005142
 376   3   8.229743   2.236127   4.853760   0.000013   0.045926   0.000278
 377   7   8.609275   2.133239   4.633385   0.000019   0.045926   0.000420
 378   3   6.668184   4.078257   6.506848   0.000116   0.173390   0.000671
 379   3   7.579360   2.888964   5.708500   0.000052   0.340405   0.000154
 380   2   6.484247   3.233425   6.148884   0.001850   0.327887   0.005641
 381   2   7.315786   2.135402   5.264533   0.000846   0.158452   0.005341
 382   2   3.295998   2.634131   5.695015   0.000408   0.054039   0.007542
 383   4   2.577641   2.266077   5.643673  -0.000214   0.054039  -0.003954
 384  11   2.303492   2.376706   5.708686  -0.000326   0.054039  -0.006037
 385   2   4.626957   0.695932   4.472641   0.000311   0.055490   0.005598
 386   4   3.974873   0.231027   4.359074  -0.000197   0.055490  -0.003551
 387  13   3.958418  -0.019854   4.190693  -0.000369   0.055490  -0.006649
 388   4   3.770319   0.609936   4.861380  -0.000140   0.365233  -0.000384
 389   4   2.987849   1.753729   5.581814  -0.000188   0.365233  -0.000515
 390   2   4.378921   1.764069   5.383144   0.006760   0.673649   0.010035
 391   2   4.441234   5.517484   6.133775   0.000219   0.058863   0.003719
 392   6   4.682311   6.226530   6.463566  -0.000256   0.058863  -0.004353
 393  14   4.513526   6.472023   6.449745  -0.000458   0.058863  -0.007773
 394   6   5.357617   5.715859   6.730795  -0.000239   0.532758  -0.000448
 395   2   5.235452   4.531966   6.415327   0.003002   0.482596   0.006221
 396   2   7.730532   1.214367   2.957631   0.000215   0.058375   0.003683
 397   7   8.525327   1.200144   2.757240  -0.000243   0.058375  -0.004171
 398  15   8.623180   1.103926   2.492535  -0.000358   0.058375  -0.006137
 399   7   8.663441   1.631566   3.927932  -0.000112   0.538078  -0.000209
 400   2   7.459921   1.364000   3.871071   0.003205   0.487377   0.006576
 401  11   2.064640   2.790551   5.888935  -0.001409   0.310137  -0.004543
 402  11   1.722549   3.909598   5.631991  -0.002264   0.310137  -0.007302
 403   2   3.301323   3.786102   5.785230   0.004198   0.764873   0.005488
 404  13   4.884255  -0.452442   2.344356  -0.001467   0.251116  -0.005841
 405  13   4.427717  -0.404678   3.538255  -0.002683   0.505338  -0.005309
 406   2   5.808245   0.487571   3.156303   0.002837   0.620204   0.004575
 407   2   5.227660   0.619547   4.418454   0.002114   0.312494   0.006764
 408  14   3.975132   6.699636   6.264814  -0.001344   0.248198  -0.005416
 409   2   3.905791   5.263294   5.975467   0.001554   0.308508   0.005037
 410  15   8.495296   0.888288   2.036986  -0.001451   0.310903  -0.004666
 411   2   7.093654   0.921867   2.505528   0.001679   0.386568   0.004343
 412   3   7.093440   7.850873   0.092004   0.001056   0.111925   0.009438
 413   5   6.344218   7.641679  -0.416688   0.002362   0.111925   0.021103
 414   6   7.056367   8.231588   0.335260   0.000843   0.111925   0.007529
 415   3   7.423188   7.424420  -0.220915   0.001054   0.112710   0.009354
 416   5   6.676661   7.212801  -0.732682   0.002299   0.112710   0.020394
 417   7   7.810434   7.253281  -0.383047   0.001053   0.112710   0.009344
 418   5   6.161910   7.514834  -1.021101   0.001202   0.061692   0.019478
 419   3   7.213835   7.686372  -0.218872   0.000370   0.068591   0.005390
 420   3   9.805555   5.592757   6.212250   0.000322   0.048218   0.006687
 421   6   9.797225   5.982340   6.439268   0.000343   0.048218   0.007115
 422   8  10.141110   6.275830   6.417758   0.000369   0.048218   0.007661
 423   3   7.823010   8.309431   0.423921   0.000268   0.048218   0.005551
 424   6   7.793519   8.728011   0.589157   0.000350   0.048218   0.007250
 425   8   8.158644   8.992397   0.629658   0.000349   0.048218   0.007233
 426   6   7.541909   8.616682   0.506181   0.000244   0.030558   0.007970
 427   3   7.543525   8.036929   0.218036   0.000235   0.030558   0.007692
 428   6   7.176223   5.361661   7.037985   0.000492   0.252180   0.001951
 429   6   9.070370   5.653971   6.725444   0.001300   0.252180   0.005157
 430   3   8.149640   4.961210   6.530147   0.001443   0.533228   0.002706
 431   3   8.250783   7.753520   0.016934   0.000271   0.048289   0.005622
 432   7   8.627444   7.643188  -0.205109   0.000336   0.048289   0.006963
 433   9   9.002488   7.895216  -0.173567   0.000348   0.048289   0.007201
 434   3  10.231801   5.033974   5.805364   0.000306   0.048289   0.006335
 435   7  10.629592   4.894636   5.645060   0.000394   0.048289   0.008163
 436   9  10.983410   5.175803   5.614581   0.000354   0.048289   0.007341
 437   7   8.370888   7.484687  -0.323932   0.000275   0.030368   0.009055
 438   3   7.841365   7.705065  -0.023778   0.000239   0.030368   0.007867
 439   7  10.218922   4.150955   5.627150   0.001570   0.252992   0.006205
 440   7   9.325923   2.547172   4.975557   0.000557   0.252992   0.002201
 441   3   9.203272   3.578251   5.517260   0.001341   0.535321   0.002505
 442   3  10.178414   5.488788   5.941173   0.000584   0.156501   0.003730
 443   8  10.515683   6.175321   6.147698   0.000716   0.156501   0.004573
 444   9  10.933831   5.631356   5.749449   0.000704   0.156501   0.004496
[...]
 476   4   1.250190   0.882849   5.522890  -0.000795   0.153596  -0.005175
 477   4   2.096977   1.787731   5.717430  -0.000448   0.086049  -0.005211
 478  12   0.997000   1.473377  -1.827921  -0.000447   0.065787  -0.006787
 479  12   0.537906   0.581536  -1.453342  -0.000918   0.145038  -0.006332
 480  12  -0.343070  -0.000892  -0.700844  -0.000830   0.145038  -0.005726
 481  12  -1.303244   0.211062   0.144576  -0.000923   0.145038  -0.006363
 482  12  -1.973784   1.135981   0.758169  -0.000952   0.145038  -0.006565
 483  12  -2.097116   2.418576   0.904233  -0.000805   0.145038  -0.005554
 484  12  -1.625863   3.566163   0.526662  -0.000896   0.145038  -0.006180
 485  12  -0.937725   4.142068  -0.057509  -0.000436   0.065787  -0.006635
 486   4   1.227507   0.985305  -1.603612  -0.000812   0.145158  -0.005591
 487   4   0.433088  -0.040266  -0.939985  -0.000633   0.145158  -0.004358
 488   4  -0.654910  -0.259192   0.004278  -0.000785   0.145158  -0.005409
 489   4  -1.618553   0.412625   0.866458  -0.000859   0.145158  -0.005919
 490   4  -2.087678   1.717119   1.315365  -0.000750   0.145158  -0.005166
 491   4  -1.882080   3.153195   1.178560  -0.000659   0.145158  -0.004537
 492   4  -1.080735   4.169213   0.508594  -0.000826   0.145158  -0.005690
 493  13   3.472149  -0.508637   4.268813  -0.000495   0.070468  -0.007027
 494  13   2.413407  -0.916602   4.355306  -0.001002   0.157354  -0.006367
 495  13   1.300683  -1.422982   3.727908  -0.001189   0.157354  -0.007555
 496  13   0.822733  -1.746127   2.480774  -0.001208   0.157354  -0.007680
 497  13   1.187267  -1.745601   1.155889  -0.001074   0.157354  -0.006825
 498  13   2.235864  -1.421634   0.329032  -0.001014   0.157354  -0.006443
 499  13   3.512818  -0.915017   0.359542  -0.001250   0.157354  -0.007942
 500   4   2.977629  -0.312704   4.553770  -0.000881   0.153610  -0.005737
 501   4   1.563944  -0.893211   4.338206  -0.000864   0.153610  -0.005628
 502   4   0.617774  -1.386632   3.223190  -0.001015   0.153610  -0.006607
 503   4   0.550311  -1.578533   1.693293  -0.001015   0.153610  -0.006610
 504   4   1.390874  -1.385517   0.413386  -0.000797   0.153610  -0.005189
 505   4   2.774167  -0.891466  -0.060300  -0.000952   0.153610  -0.006199
 506   4   3.902225  -0.416465   0.220754  -0.000534   0.086093  -0.006205
 507   6   6.787040   8.767287   0.349962   0.002349   0.365023   0.006436
 508   6   5.566954   9.286978   0.982743   0.003986   0.726954   0.005484
 509   6   4.195482   9.105790   2.140119   0.001706   0.726954   0.002347
 510   5   5.357983   8.163380  -0.576970   0.009389   0.644695   0.014564
 511   5   3.935714   8.480471   0.328946   0.007451   0.644695   0.011558
 512   5   2.984103   8.094222   1.283850   0.002301   0.322255   0.007141
 513   5   6.918597   3.327258  -1.306473   0.000319   0.081026   0.003936
 514   7   8.058944   3.101055  -1.090902  -0.000175   0.081026  -0.002163
 515  15   8.188899   2.849091  -0.997770  -0.000486   0.081026  -0.006002
 516   7   8.072571   3.452444  -1.493079   0.000608   0.364745   0.001668
 517   7   8.268615   4.892500  -1.732506   0.003108   0.726396   0.004278
 518   7   8.170682   6.610387  -1.177724   0.004847   0.726396   0.006673
 519   5   6.531427   4.147466  -2.113446   0.006382   0.644483   0.009903
 520   5   6.639880   5.863737  -2.081700   0.008934   0.644483   0.013862
 521   5   6.463544   7.089502  -1.416203   0.004459   0.322127   0.013842
 522  12  -0.475616   4.298070  -0.659289  -0.000599   0.219001  -0.002735
 523  12  -0.085885   3.623588  -1.534644  -0.001669   0.440466  -0.003789
 524  12   0.740391   2.558795  -2.006782  -0.001686   0.440466  -0.003828
 525   5   0.539524   5.081566  -1.377091   0.005603   0.538588   0.010403
 526   5   1.234299   4.040836  -2.325009   0.006252   0.538588   0.011609
 527   5   2.043907   3.070902  -2.509582   0.002628   0.271240   0.009688
 528  15   8.245593   2.495706  -1.119322  -0.000001   0.070734  -0.000013
 529   5   6.411033   3.098508  -1.793376   0.000452   0.092149   0.004903
 530   6   6.362254  11.319539   5.693263  -0.000115   0.006565  -0.017559
 531   8   6.698154  11.621002   5.713031  -0.000143   0.006565  -0.021847
 532  16   6.898824  11.826495   5.789706  -0.000105   0.006565  -0.015991
 533   6   6.636356  10.944048   6.486144  -0.000101   0.006565  -0.015322
 534   8   6.975794  11.240665   6.516146  -0.000124   0.006565  -0.018947
 535  16   7.151391  11.480504   6.520294  -0.000114   0.006565  -0.017361
 536   8   7.098884  10.832508   6.894119  -0.000873   0.200877  -0.004345
 537   8   8.213502   9.341281   7.711752   0.000402   0.410966   0.000979
 538   8   9.680838   7.400351   7.291478   0.002605   0.410966   0.006339
 539   6   6.994268   9.888446   7.254446  -0.001608   0.410966  -0.003912
 540   6   8.450707   7.948888   7.716844   0.001898   0.410966   0.004618
 541   6   9.585113   6.455170   6.931614   0.001299   0.200877   0.006469
 542   8   7.996752   9.731503   0.792735   0.001388   0.201762   0.006882
 543   8   7.015904  11.014575   2.041538   0.001891   0.412942   0.004579
 544   8   6.522757  11.634161   4.390062  -0.001483   0.412942  -0.003592
 545   6   7.081643   9.861972   1.220257   0.002729   0.412942   0.006609
 546   6   6.123005  11.105656   3.137784   0.000331   0.412942   0.000803
 547   6   5.987521  11.255322   5.169308  -0.000847   0.201762  -0.004197
 548  14   5.355607  10.714427   5.965394  -0.000676   0.076548  -0.008829
 549  14   4.764995  10.634860   4.871519  -0.001536   0.175781  -0.008740
 550  14   3.997415   9.730227   3.960854  -0.001336   0.175781  -0.007601
 551   6   5.482311  10.871776   5.369737  -0.001579   0.162451  -0.009718
 552   6   4.622000  10.382866   4.014231  -0.001073   0.162451  -0.006604
 553   6   3.964389   9.341953   3.403600  -0.000511   0.093520  -0.005469
 554  14   4.607039   6.998263   6.884615  -0.000505   0.066851  -0.007561
 555  14   5.144645   7.793056   7.419633  -0.001037   0.148547  -0.006982
 556  14   5.580265   9.047454   7.463892  -0.001086   0.148547  -0.007311
 557  14   5.599706  10.184302   6.776551  -0.001296   0.148547  -0.008722
 558   6   5.131433   7.012857   7.150729  -0.000863   0.146321  -0.005896
 559   6   5.789016   8.265614   7.626202  -0.000772   0.146321  -0.005279
 560   6   6.058800   9.683272   7.244949  -0.001103   0.146321  -0.007540
 561   6   5.951606  10.596675   6.454685  -0.000662   0.081673  -0.008105
 562  16   7.016665  11.918612   6.001186  -0.000582   0.089461  -0.006506
 563   6   6.204044  11.159517   5.988622  -0.000538   0.126230  -0.004265
 564  16   7.138418  11.746340   6.373494  -0.000529   0.078280  -0.006754
 565   6   6.353376  10.960140   6.401535  -0.000358   0.110461  -0.003242
 566   7  12.836397   2.878250   0.582403  -0.000116   0.006554  -0.017696
 567   9  13.217808   3.120833   0.572958  -0.000137   0.006554  -0.020893
 568  17  13.471581   3.259199   0.503098  -0.000110   0.006554  -0.016800
 569   7  12.567881   3.247097  -0.212618  -0.000104   0.006554  -0.015834
 570   9  12.945822   3.494448  -0.232339  -0.000118   0.006554  -0.017976
 571  17  13.224160   3.599069  -0.229464  -0.000109   0.006554  -0.016615
 572   9  11.652925   4.824908   5.459674   0.001398   0.200838   0.006958
 573   9  12.643314   3.555728   4.220389   0.001846   0.410838   0.004492
 574   9  13.153779   2.938651   1.886789  -0.001489   0.410838  -0.003625
 575   7  11.537859   3.916069   5.021120   0.002659   0.410838   0.006473
 576   7  12.510732   2.684349   3.117589   0.000283   0.410838   0.000690
 577   7  12.661440   2.531292   1.097347  -0.000896   0.200838  -0.004459
 578   9  12.593445   3.726877  -0.618818  -0.000884   0.202079  -0.004377
 579   9  11.470236   5.215281  -1.453705   0.000413   0.413605   0.000998
 580   9   9.981122   7.155326  -1.041606   0.002672   0.413605   0.006460
 581   7  11.661841   3.885541  -1.000603  -0.001589   0.413605  -0.003842
 582   7  10.189552   5.823061  -1.479609   0.001880   0.413605   0.004546
 583   7   9.035787   7.316052  -0.696165   0.001233   0.202079   0.006103
 584   7  12.386298   2.863531   0.018151  -0.000105   0.006474  -0.016245
 585  15  12.190070   2.642198   0.003991  -0.000118   0.006474  -0.018244
 586  17  12.989140   3.297878   0.038197  -0.000133   0.006474  -0.020541
 587   7  12.489088   2.723962   0.324437  -0.000105   0.006474  -0.016197
 588  15  12.282263   2.517016   0.278702  -0.000140   0.006474  -0.021592
 589  17  13.079508   3.175176   0.307468  -0.000135   0.006474  -0.020788
 590  15  12.036873   2.015132   0.437835  -0.000609   0.065049  -0.009366
 591  15  11.813880   1.551968   1.377285  -0.001161   0.143739  -0.008078
 592  15  10.949035   1.090322   2.225982  -0.000949   0.143739  -0.006606
 593  15   9.681875   0.908979   2.432825  -0.000926   0.143739  -0.006443
 594   7  12.216786   2.130836   0.977942  -0.001240   0.143156  -0.008659
 595   7  11.630404   1.525139   2.166279  -0.000852   0.143156  -0.005955
 596   7  10.369897   1.144984   2.790347  -0.000744   0.143156  -0.005199
 597   7   9.189990   1.075836   2.774155  -0.000426   0.079472  -0.005362
 598  15   8.990074   2.591727  -1.185282  -0.000583   0.072995  -0.007990
 599  15  10.174219   2.707187  -1.265492  -0.001115   0.165541  -0.006735
 600  15  11.443047   2.486813  -0.630899  -0.001502   0.165541  -0.009072
 601   7   9.370854   3.049540  -1.334150  -0.000993   0.156701  -0.006334
 602   7  10.966705   3.045725  -1.108421  -0.001192   0.156701  -0.007607
 603   7  11.970979   2.733517  -0.317625  -0.000650   0.089180  -0.007285
 604  17  13.619442   3.320124   0.363600  -0.000358   0.047983  -0.007453
 605   7  12.685172   2.720765   0.399893  -0.000263   0.067714  -0.003881
 606  17  13.453028   3.543695  -0.135125  -0.000411   0.054894  -0.007485
 607   7  12.489227   2.992917  -0.176677  -0.000257   0.077466  -0.003319
 608   8   8.926059   9.132514   0.435344   0.000402   0.048175   0.008336
 609   9   9.342096   8.591288   0.039084   0.000400   0.048175   0.008305
 610  10   9.296712   9.007767   0.208518   0.000445   0.048175   0.009235
 611   8  10.904896   6.417878   6.220969   0.000398   0.048175   0.008272
 612   9  11.320943   5.876639   5.824737   0.000408   0.048175   0.008465
 613  10  11.296791   6.263991   6.056248   0.000433   0.048175   0.008989
 614   8  11.582593  12.519755   4.549939  -0.000089   0.005491  -0.016194
 615  10  11.951357  12.352388   4.350846  -0.000094   0.005491  -0.017114
 616  16  11.379050  12.651029   4.722296  -0.000103   0.005491  -0.018705
 617   8  11.812283  12.200004   5.224626  -0.000102   0.005491  -0.018492
 618  10  12.178117  12.036715   5.016928  -0.000099   0.005491  -0.017942
 619  16  11.587991  12.360161   5.336037  -0.000105   0.005491  -0.019066
 620  10  12.586856  11.627616   5.308816  -0.000780   0.203227  -0.003839
 621  10  12.581328   9.915894   6.449616   0.000567   0.416281   0.001363
 622  10  11.856591   7.532369   6.603634   0.002860   0.416281   0.006871
 623   8  12.060235  11.185183   6.065891  -0.001463   0.416281  -0.003515
 624   8  11.762123   8.894340   7.011050   0.001872   0.416281   0.004497
 625   8  10.981693   7.014275   6.714858   0.001255   0.203227   0.006175
 626  10   9.435772   9.713063   0.293079   0.001486   0.204147   0.007281
 627  10  10.384370  11.373616   1.073424   0.002107   0.418344   0.005036
 628  10  11.667863  12.311060   3.010363  -0.001386   0.418344  -0.003312
 629   8   9.231109  10.567937   0.821277   0.002930   0.418344   0.007003
 630   8  10.485771  12.233148   2.210803   0.000346   0.418344   0.000827
 631   8  11.486741  12.571704   3.985529  -0.000851   0.204147  -0.004168
 632  16  10.995161  12.952151   4.684613  -0.000531   0.071670  -0.007406
 633  16  10.055921  13.211928   4.036507  -0.001169   0.161653  -0.007231
 634  16   8.650505  13.177124   3.919952  -0.000951   0.161653  -0.005884
 635  16   7.515698  12.745717   4.638345  -0.001145   0.161653  -0.007081
 636  16   7.100560  12.237370   5.607335  -0.000515   0.071670  -0.007187
 637   8  10.845485  12.866144   4.101420  -0.001169   0.154659  -0.007557
 638   8   9.396267  13.071148   3.495924  -0.000780   0.154659  -0.005043
 639   8   7.878995  12.792682   3.855402  -0.000810   0.154659  -0.005234
 640   8   7.000964  12.160554   5.012278  -0.001212   0.154659  -0.007837
 641  16   7.510514  11.675076   6.794597  -0.000552   0.071448  -0.007720
 642  16   8.470487  11.431927   7.411957  -0.001105   0.161029  -0.006859
 643  16   9.874230  11.487271   7.486909  -0.001056   0.161029  -0.006556
 644  16  10.979933  11.931401   6.739017  -0.001126   0.161029  -0.006991
 645  16  11.362301  12.441726   5.761691  -0.000516   0.071448  -0.007223
 646   8   7.714362  11.180350   7.081776  -0.001133   0.154287  -0.007340
 647   8   9.180245  10.998994   7.641845  -0.000803   0.154287  -0.005203
 648   8  10.678577  11.297218   7.240048  -0.000754   0.154287  -0.004886
 649   8  11.515105  11.936841   6.062558  -0.001144   0.154287  -0.007414
 650   9  15.380838   7.553081   1.849318  -0.000094   0.005747  -0.016424
 651  10  15.315561   7.950750   2.051961  -0.000092   0.005747  -0.015996
 652  17  15.455785   7.324688   1.674270  -0.000103   0.005747  -0.017918
 653   9  15.143082   7.885551   1.141300  -0.000109   0.005747  -0.019046
 654  10  15.080834   8.278983   1.352965  -0.000099   0.005747  -0.017305
 655  17  15.239504   7.627127   1.030204  -0.000105   0.005747  -0.018354
 656  10  14.802934   8.787890   1.060268  -0.000778   0.203608  -0.003821
 657  10  13.173688   9.262883  -0.109774   0.000438   0.417159   0.001051
 658  10  10.681536   9.211953  -0.312118   0.003020   0.417159   0.007239
 659   9  14.248590   8.411875   0.285697  -0.001439   0.417159  -0.003449
 660   9  11.977242   8.758765  -0.701725   0.001967   0.417159   0.004716
 661   9   9.946920   8.511143  -0.445725   0.001333   0.203608   0.006547
 662  10  12.010829   6.207908   5.984545   0.001274   0.202448   0.006294
 663  10  13.869114   6.677024   5.255179   0.001953   0.414561   0.004712
 664  10  15.161681   7.674808   3.376912  -0.001384   0.414561  -0.003338
 665   9  12.783315   5.785166   5.468464   0.002855   0.414561   0.006888
 666   9  14.744998   6.552527   4.142890   0.000389   0.414561   0.000940
 667   9  15.388010   7.440145   2.409703  -0.000803   0.202448  -0.003966
 668  17  15.638280   6.872547   1.708239  -0.000526   0.071282  -0.007379
 669  17  15.612026   5.891788   2.334862  -0.001154   0.160545  -0.007187
 670  17  15.193195   4.554772   2.419478  -0.000941   0.160545  -0.005859
 671  17  14.491447   3.593516   1.675347  -0.001128   0.160545  -0.007025
 672  17  13.916583   3.341402   0.694936  -0.000528   0.071282  -0.007413
 673   9  15.498250   6.743851   2.284233  -0.001151   0.154032  -0.007472
 674   9  15.282353   5.291295   2.856632  -0.000766   0.154032  -0.004970
 675   9  14.613498   3.919494   2.462978  -0.000797   0.154032  -0.005176
 676   9  13.799958   3.260708   1.284706  -0.001203   0.154032  -0.007812
 677  17  13.514654   3.894282  -0.495627  -0.000553   0.071533  -0.007728
 678  17  13.553225   4.888711  -1.106971  -0.001107   0.161247  -0.006867
 679  17  13.986530   6.227152  -1.163492  -0.001061   0.161247  -0.006581
 680  17  14.694942   7.167846  -0.391729  -0.001129   0.161247  -0.007000
 681  17  15.266590   7.391560   0.601895  -0.000514   0.071533  -0.007184
 682   9  13.099712   4.225813  -0.790801  -0.001133   0.154452  -0.007337
 683   9  13.332846   5.690885  -1.337236  -0.000806   0.154452  -0.005217
 684   9  14.014603   7.051832  -0.910141  -0.000755   0.154452  -0.004890
 685   9  14.828606   7.677091   0.292285  -0.001145   0.154452  -0.007414
 686  10  12.469929  12.010432   4.766362  -0.000128   0.009706  -0.013182
 687  16  11.830261  12.248974   5.060050  -0.000148   0.009706  -0.015271
 688  18  12.734740  11.986908   4.633806  -0.000156   0.009706  -0.016032
 689  10  12.315374  12.226330   4.311432  -0.000127   0.009706  -0.013060
 690  16  11.694374  12.438794   4.660070  -0.000144   0.009706  -0.014792
 691  18  12.596113  12.180556   4.225759  -0.000130   0.009706  -0.013425
 692  16  11.482706  12.511310   5.387890  -0.000162   0.019946  -0.008121
 693  10  12.391624  12.090792   4.909868  -0.000089   0.028150  -0.003179
 694  16  11.310764  12.755241   4.877021  -0.000183   0.020812  -0.008808
 695  10  12.188944  12.369501   4.318891  -0.000097   0.029372  -0.003297
 696  10  15.141659   8.552132   1.637353  -0.000122   0.009222  -0.013185
 697  17  15.203269   7.876613   1.334408  -0.000147   0.009222  -0.015988
 698  18  15.187236   8.812011   1.773853  -0.000151   0.009222  -0.016366
 699  10  15.287320   8.348537   2.070986  -0.000115   0.009222  -0.012496
 700  17  15.331337   7.697608   1.715666  -0.000142   0.009222  -0.015411
 701  18  15.317885   8.629399   2.162794  -0.000123   0.009222  -0.013310
 702  17  15.362277   7.481083   0.990091  -0.000201   0.026284  -0.007651
 703  10  15.196095   8.461246   1.482509  -0.000114   0.037096  -0.003078
 704  17  15.538268   7.240563   1.506016  -0.000219   0.026395  -0.008283
 705  10  15.393787   8.179808   2.078519  -0.000099   0.037253  -0.002654
 706  18  13.305929  11.840702   4.687844  -0.000552   0.066628  -0.008287
 707  18  13.881361  11.066350   5.199968  -0.000937   0.147773  -0.006343
 708  18  14.677869  10.013625   5.141847  -0.000882   0.147773  -0.005967
 709  18  15.302217   9.208284   4.300630  -0.000815   0.147773  -0.005513
 710  18  15.502640   8.975075   3.015532  -0.001105   0.147773  -0.007478
 711  10  13.168288  11.468860   5.121300  -0.001013   0.146119  -0.006932
 712  10  14.023705  10.326524   5.530228  -0.000674   0.146119  -0.004614
 713  10  14.865417   9.225809   4.997462  -0.000603   0.146119  -0.004128
 714  10  15.354009   8.610574   3.737837  -0.000854   0.146119  -0.005847
 715  10  15.395835   8.585258   2.533268  -0.000466   0.081401  -0.005723
 716  18  15.204747   9.401450   1.727716  -0.000527   0.066844  -0.007891
 717  18  14.630539  10.174442   1.205207  -0.001005   0.148350  -0.006772
 718  18  13.831615  11.230604   1.253681  -0.000784   0.148350  -0.005287
 719  18  13.202845  12.041873   2.091891  -0.000875   0.148350  -0.005900
 720  18  12.999376  12.279047   3.379701  -0.001150   0.148350  -0.007749
 721  10  14.821780   9.376226   1.281824  -0.001050   0.146495  -0.007164
 722  10  13.966189  10.519124   0.859626  -0.000664   0.146495  -0.004536
 723  10  13.120147  11.625752   1.385069  -0.000611   0.146495  -0.004170
 724  10  12.626967  12.247052   2.644935  -0.000864   0.146495  -0.005896
 725  10  12.583160  12.274903   3.853022  -0.000623   0.081664  -0.007629
 726  14   3.201713   7.000272   5.772596  -0.000953   0.331270  -0.002876
 727  11   1.423400   4.736480   5.315936  -0.001302   0.331270  -0.003930
 728  16   6.900388  11.759780   6.278591   0.000025   0.007553   0.003278
 729  14   5.725749  10.861325   6.272288  -0.000018   0.007553  -0.002336
 730  17  13.441338   3.255936   0.081284  -0.000104   0.106685  -0.000977
 731  15  12.247360   2.385363   0.012876  -0.000202   0.106685  -0.001895
 732  18  12.832187  12.247135   4.396073  -0.000296   0.159788  -0.001850
 733  16  11.595171  12.635597   5.109887  -0.000269   0.159788  -0.001684
 734  18  15.453632   8.836876   2.007085  -0.000253   0.151849  -0.001664
 735  17  15.509360   7.549175   1.280255  -0.000238   0.151849  -0.001570
 =====================================================

              4762966  WORDS OF DYNAMIC MEMORY USED
 EXECUTION OF GAMESS TERMINATED NORMALLY Fri Nov 25 10:48:10 2016
 DDI: 263640 bytes (0.3 MB / 0 MWords) used by master data server.

 ----------------------------------------
 CPU timing information for all processes
 ========================================
 0: 2460.500 + 0.948 = 2461.448
 ----------------------------------------
 ddikick.x: exited gracefully.
