----- GAMESS execution script -----

          ******************************************************
          *         GAMESS VERSION =  5 DEC 2014 (R1)          *
          *             FROM IOWA STATE UNIVERSITY             *
          * M.W.SCHMIDT, K.K.BALDRIDGE, J.A.BOATZ, S.T.ELBERT, *
          *   M.S.GORDON, J.H.JENSEN, S.KOSEKI, N.MATSUNAGA,   *
          *          K.A.NGUYEN, S.J.SU, T.L.WINDUS,           *
          *       TOGETHER WITH M.DUPUIS, J.A.MONTGOMERY       *
          *         J.COMPUT.CHEM.  14, 1347-1363(1993)        *
          **************** 64 BIT LINUX VERSION ****************

 EXECUTION OF GAMESS BEGUN Fri Nov 25 09:47:42 2016

            ECHO OF THE FIRST FEW INPUT CARDS -
 INPUT CARD>! SELECT RESTRICTED HARTREE-FOCK AS DEFAULT                                     
 INPUT CARD>$contrl scftyp=rhf $end                                                         
 INPUT CARD>                                                                                
 INPUT CARD>! THEORY: HF OR DFT                                                             
 INPUT CARD> $contrl mplevl=0 $end                                                          
 INPUT CARD>                                                                                
 INPUT CARD> $system timlim=10000 mwords=20 $end                                            
 INPUT CARD> $SCF DIRSCF=.TRUE. $end                                                        
 INPUT CARD>                                                                                
 INPUT CARD>                                                                                
 INPUT CARD>! BASIS SETS                                                                    
 INPUT CARD>! 6-311G(d,p)                                                                   
 INPUT CARD> $BASIS GBASIS=N311 NGAUSS=6 NDFUNC=1 NPFUNC=1 $END                             
 INPUT CARD>                                                                                
 INPUT CARD>! One of the following                                                          
 INPUT CARD> $guess guess=HUCKEL $end                                                       
 INPUT CARD>                                                                                
 INPUT CARD> $statpt projct=.FALSE. $end                                                    
 INPUT CARD> $STATPT IFREEZ(1)=1,2,3 $END                                                   
 INPUT CARD>                                                                                
 INPUT CARD>! Optimize the geometry with COSMO effects                                      
 INPUT CARD> $statpt opttol=0.0005 nstep=50 $end                                            
 INPUT CARD> $contrl nzvar=1 $end                                                           
 INPUT CARD> $zmat dlc=.t. auto=.t. $end                                                    
 INPUT CARD> $contrl runtyp=OPTIMIZE maxit=200 $end                                         
 INPUT CARD>                                                                                
 INPUT CARD>! Run COSMO on perfect conductor                                                
 INPUT CARD> $COSGMS PRFCND=.TRUE. $end                                                     
 INPUT CARD>                                                                                
 INPUT CARD>! Specifying RSOLV                                                              
 INPUT CARD> $COSGMS COSRAD = 1.4 $end                                                      
 INPUT CARD>                                                                                
 INPUT CARD>! available memory                                                              
 INPUT CARD> $SYSTEM MWORDS=40 $END                                                         
 INPUT CARD>                                                                                
 INPUT CARD> $DATA                                                                          
 INPUT CARD>Phenanthrene, ID: C85018                                                        
 INPUT CARD>C1                                                                              
 INPUT CARD>C      6.0      4.2350000000    4.1802000000    6.0145000000                    
 INPUT CARD>C      6.0      3.3801000000    3.3389000000    5.3404000000                    
 INPUT CARD>C      6.0      3.4415000000    3.2290000000    3.9345000000                    
 INPUT CARD>C      6.0      5.1810000000    4.9410000000    5.3074000000                    
 INPUT CARD>C      6.0      5.2585000000    4.8495000000    3.9364000000                    
 INPUT CARD>C      6.0      4.3890000000    3.9913000000    3.2292000000                    
 INPUT CARD>C      6.0      4.4638000000    3.8904000000    1.7979000000                    
 INPUT CARD>C      6.0      2.5525000000    2.3512000000    3.2063000000                    
 INPUT CARD>C      6.0      2.6517000000    2.2756000000    1.8060000000                    
 INPUT CARD>C      6.0      1.5851000000    1.5666000000    3.8700000000                    
 INPUT CARD>C      6.0      3.6314000000    3.0682000000    1.1161000000                    
 INPUT CARD>C      6.0      1.7857000000    1.4199000000    1.0915000000                    
   40000000 WORDS OF MEMORY AVAILABLE

     BASIS OPTIONS
     -------------
     GBASIS=N311         IGAUSS=       6      POLAR=POPN311 
     NDFUNC=       1     NFFUNC=       0     DIFFSP=       F
     NPFUNC=       1      DIFFS=       F     BASNAM=        


     RUN TITLE
     ---------
 Phenanthrene, ID: C85018                                                        

 THE POINT GROUP OF THE MOLECULE IS C1      
 THE ORDER OF THE PRINCIPAL AXIS IS     0

 ATOM      ATOMIC                      COORDINATES (BOHR)
           CHARGE         X                   Y                   Z
 C           6.0     8.0029895580        7.8994325739       11.3657569532
 C           6.0     6.3874628111        6.3096061004       10.0918926648
 C           6.0     6.5034919867        6.1019252144        7.4351268987
 C           6.0     9.7906703424        9.3371361053       10.0295317072
 C           6.0     9.9371241064        9.1642261775        7.4387173781
 C           6.0     8.2940073601        7.5424633348        6.1023031596
 C           6.0     8.4353588640        7.3517899826        3.3975383533
 C           6.0     4.8235255837        4.4431237423        6.0590284344
 C           6.0     5.0109864016        4.3002604577        3.4128451338
 C           6.0     2.9954046631        2.9604447324        7.3132395725
 C           6.0     6.8623509518        5.7980572755        2.1091231749
 C           6.0     3.3744836963        2.6832219300        2.0626359156
 C           6.0     1.6055111992        1.2540221655        3.3247839028
 C           6.0     1.4146488744        1.3936729159        5.9690774774
 H           1.0     7.9052907244        8.0538231871       13.4265031428
 H           1.0     4.9752705805        5.1695344120       11.1089431914
 H           1.0    11.0649125759       10.5951266954       11.0664243567
 H           1.0    11.3287183238       10.2818101266        6.3878407563
 H           1.0     9.8501967110        8.4969639312        2.4090226891
 H           1.0     2.8718165835        3.0929145241        9.3858910358
 H           1.0     6.9649630729        5.6482020047        0.0457313689
 H           1.0     3.5309530081        2.5809877540        0.0000000000
 H           1.0     0.3359932806        0.0000000000        2.2780646782
 H           1.0     0.0000000000        0.2473651318        6.9511680732

          INTERNUCLEAR DISTANCES (ANGS.)




     $CONTRL OPTIONS
     ---------------
 SCFTYP=RHF          RUNTYP=OPTIMIZE     EXETYP=RUN     
 MPLEVL=       0     CITYP =NONE         CCTYP =NONE         VBTYP =NONE    
 DFTTYP=NONE         TDDFT =NONE    
 MULT  =       1     ICHARG=       0     NZVAR =       1     COORD =UNIQUE  
 PP    =NONE         RELWFN=NONE         LOCAL =NONE         NUMGRD=       F
 ISPHER=      -1     NOSYM =       0     MAXIT =     200     UNITS =ANGS    
 PLTORB=       F     MOLPLT=       F     AIMPAC=       F     FRIEND=        
 NPRINT=       7     IREST =       0     GEOM  =INPUT   
 NORMF =       0     NORMP =       0     ITOL  =      20     ICUT  =       9
 INTTYP=BEST         GRDTYP=BEST         QMTTOL= 1.0E-06

     $SYSTEM OPTIONS
     ---------------
  REPLICATED MEMORY=    40000000 WORDS (ON EVERY NODE).
 DISTRIBUTED MEMDDI=           0 MILLION WORDS IN AGGREGATE,
 MEMDDI DISTRIBUTED OVER   1 PROCESSORS IS           0 WORDS/PROCESSOR.
 TOTAL MEMORY REQUESTED ON EACH PROCESSOR=    40000000 WORDS.
 TIMLIM=       10000.00 MINUTES, OR       6.9 DAYS.
 PARALL= F  BALTYP=  DLB     KDIAG=    0  COREFL= F
 MXSEQ2=     300 MXSEQ3=     150  mem10=         0

     $COSGMS OPTIONS
     ---------------
     EPSI  =   INFTY     NSPA  =      92     COSRAD=    1.40
     DISEX =   10.00     OUTCHG=DBLCAV       COSBUG=       F
     COSWRT=       F     DCOSMO=       F

     SYMMETRY COORDINATES WILL NOT BE USED FOR 
     THE COSMO CALCULATION, EVEN IF SPECIFIED:
         -- SWITCHING TO C1 POINT GROUP --


     DEFINITION OF CAVITY
     ---------------------------
     ATOM         COORDINATES           RADIUS 
     1    8.0030    7.8994   11.3658    2.0000
     2    6.3875    6.3096   10.0919    2.0000
     3    6.5035    6.1019    7.4351    2.0000
     4    9.7907    9.3371   10.0295    2.0000
     5    9.9371    9.1642    7.4387    2.0000
     6    8.2940    7.5425    6.1023    2.0000
     7    8.4354    7.3518    3.3975    2.0000
     8    4.8235    4.4431    6.0590    2.0000
     9    5.0110    4.3003    3.4128    2.0000
    10    2.9954    2.9604    7.3132    2.0000
    11    6.8624    5.7981    2.1091    2.0000
    12    3.3745    2.6832    2.0626    2.0000
    13    1.6055    1.2540    3.3248    2.0000
    14    1.4146    1.3937    5.9691    2.0000
    15    7.9053    8.0538   13.4265    1.3000
    16    4.9753    5.1695   11.1089    1.3000
    17   11.0649   10.5951   11.0664    1.3000
    18   11.3287   10.2818    6.3878    1.3000
    19    9.8502    8.4970    2.4090    1.3000
    20    2.8718    3.0929    9.3859    1.3000
    21    6.9650    5.6482    0.0457    1.3000
    22    3.5310    2.5810    0.0000    1.3000
    23    0.3360    0.0000    2.2781    1.3000
    24    0.0000    0.2474    6.9512    1.3000

          ----------------
          PROPERTIES INPUT
          ----------------

     MOMENTS            FIELD           POTENTIAL          DENSITY
 IEMOM =       1   IEFLD =       0   IEPOT =       0   IEDEN =       0
 WHERE =COMASS     WHERE =NUCLEI     WHERE =NUCLEI     WHERE =NUCLEI  
 OUTPUT=BOTH       OUTPUT=BOTH       OUTPUT=BOTH       OUTPUT=BOTH    
 IEMINT=       0   IEFINT=       0                     IEDINT=       0
                                                       MORB  =       0
          EXTRAPOLATION IN EFFECT
          SOSCF IN EFFECT
 ORBITAL PRINTING OPTION: NPREO=     1   326     2     1

     -------------------------------
     INTEGRAL TRANSFORMATION OPTIONS
     -------------------------------
     NWORD  =            0
     CUTOFF = 1.0E-09     MPTRAN =       0
     DIRTRF =       T     AOINTS =DUP     

          ----------------------
          INTEGRAL INPUT OPTIONS
          ----------------------
 NOPK  =       1 NORDER=       0 SCHWRZ=       T


 -----------------------------------------------
  STATISTICS ON AUTOMATIC COORDINATE GENERATION 
 -----------------------------------------------
  NUMBER OF USER SPECIFIED BONDS                             0
  NUMBER OF BONDS                                           26
  NUMBER OF ANGLES                                          42
  NUMBER OF TORSIONS                                        64
  NUMBER OF EXTRA COORD.                                     0
  NUMBER OF EXTRA COORD. FOR CONSTRAINTS                     0
  NUMBER OF CONSTRAINED COORD.                               0

  TOTAL NUMBER OF PRIMITIVES                               132
 -----------------------------------------------

   --- ENCODED Z MATRIX ---
 COORD  TYPE   I   J   K   L   M   N
    1      1    1   4
    2      1    1  15
    3      1    1   2
    4      1    2   3
    5      1    2  16
    6      1    3   8
    7      1    3   6
    8      1    4  17
    9      1    4   5
   10      1    5   6
   11      1    5  18
   12      1    6   7
   13      1    7  11
   14      1    7  19
   15      1    8  10
   16      1    8   9
   17      1    9  12
   18      1    9  11
   19      1   10  14
   20      1   10  20
   21      1   11  21
   22      1   12  13
   23      1   12  22
   24      1   13  23
   25      1   13  14
   26      1   14  24
   27      2    1   4  17
   28      2    1   2  16
   29      2    1   2   3
   30      2    1   4   5
   31      2    2   3   6
   32      2    2   3   8
   33      2    2   1  15
   34      2    2   1   4
   35      2    3   6   5
   36      2    3   8   9
   37      2    3   8  10
   38      2    3   6   7
   39      2    3   2  16
   40      2    4   1  15
   41      2    4   5  18
   42      2    4   5   6
   43      2    5   6   7
   44      2    5   4  17
   45      2    6   7  19
   46      2    6   7  11
   47      2    6   5  18
   48      2    6   3   8
   49      2    7  11  21
   50      2    7  11   9
   51      2    8   9  11
   52      2    8   9  12
   53      2    8  10  20
   54      2    8  10  14
   55      2    9   8  10
   56      2    9  11  21
   57      2    9  12  22
   58      2    9  12  13
   59      2   10  14  24
   60      2   10  14  13
   61      2   11   9  12
   62      2   11   7  19
   63      2   12  13  14
   64      2   12  13  23
   65      2   13  14  24
   66      2   13  12  22
   67      2   14  13  23
   68      2   14  10  20
   69      3    1   2   3   8
   70      3    1   4   5  18
   71      3    1   4   5   6
   72      3    1   2   3   6
   73      3    2   3   6   5
   74      3    2   3   8   9
   75      3    2   1   4   5
   76      3    2   3   8  10
   77      3    2   1   4  17
   78      3    2   3   6   7
   79      3    3   6   5  18
   80      3    3   6   5   4
   81      3    3   2   1  15
   82      3    3   6   7  19
   83      3    3   2   1   4
   84      3    3   6   7  11
   85      3    3   8  10  20
   86      3    3   8  10  14
   87      3    3   8   9  11
   88      3    3   8   9  12
   89      3    4   1   2  16
   90      3    4   5   6   7
   91      3    5   6   7  19
   92      3    5   6   3   8
   93      3    5   6   7  11
   94      3    5   4   1  15
   95      3    6   7  11   9
   96      3    6   3   2  16
   97      3    6   5   4  17
   98      3    6   3   8  10
   99      3    6   7  11  21
  100      3    6   3   8   9
  101      3    7   6   5  18
  102      3    7   6   3   8
  103      3    7  11   9  12
  104      3    7  11   9   8
  105      3    8  10  14  24
  106      3    8  10  14  13
  107      3    8   9  12  22
  108      3    8   9  12  13
  109      3    8   9  11  21
  110      3    8   3   2  16
  111      3    9  12  13  14
  112      3    9  12  13  23
  113      3    9   8  10  14
  114      3    9   8  10  20
  115      3    9  11   7  19
  116      3   10  14  13  23
  117      3   10  14  13  12
  118      3   10   8   9  12
  119      3   10   8   9  11
  120      3   11   9  12  13
  121      3   11   9  12  22
  122      3   12  13  14  24
  123      3   12   9  11  21
  124      3   13  14  10  20
  125      3   14  13  12  22
  126      3   15   1   4  17
  127      3   15   1   2  16
  128      3   17   4   5  18
  129      3   19   7  11  21
  130      3   20  10  14  24
  131      3   22  12  13  23
  132      3   23  13  14  24

          INDEP./SYM. INTERNAL COORDINATES
          --------------------------------
 CRD  1=  -0.1651 (  3) -0.1725 (  4) -0.3421 (  6) -0.1115 (  7)  0.1192 (  9)
           0.1222 ( 12)  0.1764 ( 13) -0.1725 ( 15) -0.1115 ( 16)  0.1222 ( 18)
          -0.1651 ( 19)  0.1192 ( 22)  0.2051 ( 31) -0.3431 ( 32) -0.1602 ( 35)
           0.1380 ( 36) -0.3431 ( 37) -0.1135 ( 38)  0.2737 ( 43)  0.1380 ( 48)
          -0.1135 ( 51) -0.1602 ( 52)  0.2051 ( 55)  0.2737 ( 61)
 CRD  2=  -0.1330 (  4) -0.3728 (  6) -0.1032 (  7) -0.3616 ( 10) -0.1670 ( 12)
          -0.2543 ( 13) -0.1330 ( 15) -0.1031 ( 16) -0.3615 ( 17) -0.1669 ( 18)
          -0.1326 ( 29)  0.1333 ( 31)  0.1692 ( 38)  0.1459 ( 41) -0.1868 ( 43)
          -0.1058 ( 47)  0.1691 ( 51) -0.1325 ( 54)  0.1333 ( 55) -0.1058 ( 57)
          -0.1867 ( 61)  0.1459 ( 66)
 CRD  3=   0.2937 ( 69)  0.1045 ( 71)  0.1319 ( 72) -0.1042 ( 73) -0.1622 ( 74)
           0.1044 ( 79) -0.1110 ( 81)  0.1723 ( 84) -0.1912 ( 85) -0.2937 ( 86)
           0.1698 ( 87)  0.2626 ( 88) -0.1064 ( 90)  0.1492 ( 91) -0.2626 ( 92)
           0.2661 ( 93)  0.1241 ( 97)  0.1622 ( 98) -0.1203 ( 99) -0.1698 (102)
          -0.2661 (103) -0.1722 (104)  0.1110 (105) -0.1044 (107)  0.1912 (110)
          -0.1045 (111) -0.1241 (112) -0.1319 (113)  0.1202 (115)  0.1042 (118)
           0.1064 (120) -0.1492 (123)
 CRD  4=   0.1350 (  4) -0.1546 (  7) -0.1497 (  9) -0.2500 ( 10) -0.2439 ( 12)
          -0.1349 ( 15)  0.1546 ( 16)  0.2501 ( 17)  0.2440 ( 18)  0.1498 ( 22)
           0.2042 ( 32)  0.1359 ( 35)  0.1198 ( 36) -0.2042 ( 37)  0.1549 ( 38)
          -0.2908 ( 43) -0.2029 ( 45) -0.1129 ( 47) -0.1198 ( 48) -0.1292 ( 49)
          -0.1549 ( 51) -0.1359 ( 52)  0.2029 ( 56)  0.1130 ( 57)  0.2909 ( 61)
           0.1292 ( 62)
 CRD  5=  -0.1656 ( 73)  0.2983 ( 74) -0.1184 ( 75)  0.3301 ( 76) -0.1881 ( 78)
           0.1090 ( 79)  0.1597 ( 80)  0.1108 ( 83) -0.1570 ( 87) -0.1345 ( 88)
           0.1824 ( 90) -0.1345 ( 92) -0.1044 ( 94)  0.1812 ( 95)  0.1314 ( 96)
           0.2982 ( 98)  0.2664 (100)  0.1317 (101) -0.1570 (102)  0.1108 (106)
           0.1090 (107)  0.1597 (108)  0.1314 (114) -0.1184 (117) -0.1656 (118)
          -0.1881 (119)  0.1824 (120)  0.1317 (121) -0.1044 (122)
 CRD  6=  -0.3579 (  4) -0.1034 (  9) -0.2732 ( 12)  0.3580 ( 15)  0.2732 ( 18)
           0.1035 ( 22)  0.1282 ( 28) -0.1934 ( 32) -0.1002 ( 33)  0.1328 ( 35)
          -0.2533 ( 36)  0.1934 ( 37) -0.1288 ( 39) -0.1208 ( 42) -0.1157 ( 43)
          -0.1089 ( 46)  0.2533 ( 48) -0.1571 ( 49)  0.1089 ( 50) -0.1328 ( 52)
           0.1288 ( 53)  0.1208 ( 58)  0.1002 ( 59)  0.1157 ( 61)  0.1571 ( 62)
          -0.1282 ( 68)
 CRD  7=   0.2630 (  4)  0.2195 (  7)  0.2998 ( 12)  0.1715 ( 14)  0.2629 ( 15)
           0.2196 ( 16)  0.2997 ( 18)  0.1715 ( 21) -0.1193 ( 28)  0.1381 ( 30)
          -0.1942 ( 35)  0.2104 ( 38)  0.1574 ( 39)  0.1666 ( 45) -0.1189 ( 46)
          -0.1189 ( 50)  0.2104 ( 51) -0.1942 ( 52)  0.1574 ( 53)  0.1665 ( 56)
           0.1381 ( 63) -0.1193 ( 68)
 CRD  8=  -0.3209 (  1) -0.1542 (  2) -0.1654 (  3) -0.1554 (  8) -0.2488 (  9)
           0.1651 ( 19)  0.2483 ( 22)  0.1551 ( 24)  0.3202 ( 25)  0.1538 ( 26)
          -0.1370 ( 27) -0.1250 ( 28)  0.1107 ( 30)  0.1146 ( 34)  0.2107 ( 39)
          -0.1873 ( 40) -0.1600 ( 41)  0.2252 ( 47) -0.2105 ( 53) -0.2247 ( 57)
          -0.1143 ( 60) -0.1105 ( 63)  0.1868 ( 65)  0.1597 ( 66)  0.1367 ( 67)
           0.1249 ( 68)
 CRD  9=  -0.3204 (  1) -0.1920 (  2) -0.2241 (  3) -0.1537 (  8) -0.2438 (  9)
          -0.2246 ( 19) -0.2444 ( 22) -0.1541 ( 24) -0.3209 ( 25) -0.1924 ( 26)
          -0.1395 ( 27) -0.1026 ( 28)  0.1331 ( 34)  0.1857 ( 39) -0.1608 ( 40)
          -0.1255 ( 41)  0.2229 ( 47)  0.1863 ( 53)  0.2235 ( 57)  0.1334 ( 60)
          -0.1610 ( 65) -0.1259 ( 66) -0.1397 ( 67) -0.1030 ( 68)
 CRD 10=   0.2814 (  3) -0.2719 (  9) -0.1132 ( 11)  0.1641 ( 13)  0.2103 ( 19)
          -0.2170 ( 22) -0.1015 ( 23)  0.1556 ( 27)  0.2372 ( 28)  0.2634 ( 33)
          -0.1083 ( 34) -0.1892 ( 39) -0.1551 ( 40) -0.2464 ( 41)  0.1070 ( 42)
          -0.2314 ( 44)  0.1393 ( 47)  0.1241 ( 49) -0.1488 ( 53)  0.1011 ( 57)
           0.2159 ( 59)  0.1178 ( 62) -0.1743 ( 64) -0.1233 ( 65) -0.1946 ( 66)
           0.1146 ( 67)  0.1785 ( 68)
 CRD 11=  -0.2652 (  3)  0.1977 (  9)  0.3246 ( 19)  0.1104 ( 20) -0.2566 ( 22)
          -0.1524 ( 27) -0.2181 ( 28) -0.1686 ( 33)  0.1469 ( 39)  0.1156 ( 40)
           0.1873 ( 41)  0.2110 ( 44) -0.1437 ( 47) -0.1878 ( 53)  0.1725 ( 57)
           0.2267 ( 59) -0.2597 ( 64) -0.1495 ( 65) -0.2404 ( 66)  0.1847 ( 67)
           0.2684 ( 68)
 CRD 12=  -0.2803 (  1) -0.1428 (  4) -0.1801 (  5) -0.2295 (  7) -0.1441 ( 11)
          -0.1207 ( 14)  0.1428 ( 15)  0.2292 ( 16)  0.1800 ( 20)  0.1210 ( 21)
           0.1439 ( 23)  0.2801 ( 25)  0.1659 ( 29) -0.1352 ( 30) -0.1049 ( 31)
           0.1621 ( 33) -0.2129 ( 39) -0.1376 ( 40)  0.1398 ( 42)  0.1984 ( 44)
          -0.1087 ( 45)  0.1236 ( 46) -0.1239 ( 50)  0.2126 ( 53) -0.1656 ( 54)
           0.1048 ( 55)  0.1083 ( 56) -0.1396 ( 58) -0.1618 ( 59)  0.1351 ( 63)
          -0.1980 ( 64)  0.1375 ( 65)
 CRD 13=   0.1317 (  1)  0.1128 (  5)  0.1066 (  7) -0.3944 ( 13) -0.1292 ( 14)
           0.1071 ( 16)  0.1132 ( 20) -0.1290 ( 21)  0.1323 ( 25) -0.1055 ( 29)
          -0.1084 ( 38) -0.1422 ( 44)  0.2650 ( 45)  0.1089 ( 46)  0.1692 ( 47)
          -0.3739 ( 49)  0.1087 ( 50) -0.1084 ( 51) -0.1060 ( 54)  0.2653 ( 56)
           0.1694 ( 57) -0.3739 ( 62) -0.1427 ( 64)
 CRD 14=   0.2732 (  1)  0.1079 (  5)  0.1511 (  7)  0.1177 ( 11)  0.2517 ( 13)
           0.1514 ( 16)  0.1083 ( 20)  0.1179 ( 23)  0.2735 ( 25)  0.1850 ( 27)
          -0.2420 ( 33)  0.1536 ( 39)  0.1807 ( 40) -0.2149 ( 44) -0.1684 ( 45)
           0.1493 ( 47)  0.1877 ( 49)  0.1534 ( 53) -0.1682 ( 56)  0.1492 ( 57)
          -0.2416 ( 59)  0.1877 ( 62) -0.2148 ( 64)  0.1804 ( 65)  0.1848 ( 67)
 CRD 15=  -0.1684 (  3) -0.1324 (  5) -0.1092 (  7) -0.1899 (  9) -0.1193 ( 11)
           0.1083 ( 16)  0.1676 ( 19)  0.1312 ( 20)  0.1896 ( 22)  0.1183 ( 23)
           0.2791 ( 27) -0.1777 ( 28)  0.1278 ( 29) -0.2165 ( 33)  0.2534 ( 40)
          -0.2202 ( 41)  0.1196 ( 42) -0.1938 ( 44)  0.1006 ( 47) -0.1268 ( 54)
          -0.1009 ( 57) -0.1187 ( 58)  0.2162 ( 59)  0.1937 ( 64) -0.2527 ( 65)
           0.2197 ( 66) -0.2786 ( 67)  0.1768 ( 68)
 CRD 16=  -0.1648 (  3) -0.2034 (  5) -0.1576 (  7) -0.1560 (  9) -0.2051 ( 11)
          -0.1138 ( 13) -0.1580 ( 16) -0.1653 ( 19) -0.2037 ( 20) -0.1569 ( 22)
          -0.2055 ( 23)  0.2149 ( 27) -0.1861 ( 28)  0.1799 ( 29) -0.1260 ( 33)
           0.2242 ( 40) -0.1741 ( 41)  0.1814 ( 42) -0.1318 ( 44)  0.1802 ( 54)
           0.1819 ( 58) -0.1269 ( 59) -0.1328 ( 64)  0.2252 ( 65) -0.1752 ( 66)
           0.2163 ( 67) -0.1868 ( 68)
 CRD 17=  -0.1257 ( 69) -0.1423 ( 73)  0.1128 ( 74) -0.1144 ( 75) -0.2463 ( 78)
           0.1711 ( 80)  0.1547 ( 81)  0.2394 ( 82)  0.1422 ( 83)  0.1381 ( 84)
           0.1258 ( 86)  0.1361 ( 87)  0.2760 ( 90)  0.1343 ( 91) -0.1268 ( 94)
          -0.1117 ( 97) -0.1128 ( 98)  0.1042 ( 99)  0.2029 (101) -0.1361 (102)
          -0.1381 (104) -0.1548 (105) -0.1422 (106) -0.1711 (108) -0.2394 (109)
           0.1118 (112) -0.1042 (115)  0.1144 (117)  0.1423 (118)  0.2463 (119)
          -0.2760 (120) -0.2029 (121)  0.1268 (122) -0.1343 (123)
 CRD 18=  -0.1221 (  1)  0.1049 (  2) -0.1134 (  3) -0.1451 (  5) -0.1661 (  8)
          -0.2874 ( 10) -0.1470 ( 11)  0.2290 ( 14)  0.2875 ( 17)  0.1134 ( 19)
           0.1452 ( 20) -0.2289 ( 21)  0.1471 ( 23)  0.1661 ( 24)  0.1221 ( 25)
          -0.1049 ( 26)  0.1078 ( 30)  0.1089 ( 33) -0.1993 ( 34) -0.1281 ( 35)
           0.1041 ( 38)  0.1912 ( 45) -0.2408 ( 46) -0.1276 ( 47)  0.2408 ( 50)
          -0.1041 ( 51)  0.1281 ( 52) -0.1913 ( 56)  0.1276 ( 57) -0.1088 ( 59)
           0.1994 ( 60) -0.1077 ( 63)
 CRD 19=   0.2225 ( 69)  0.2176 ( 71)  0.2390 ( 72) -0.1235 ( 73) -0.1026 ( 75)
          -0.1030 ( 80) -0.1624 ( 81) -0.1278 ( 83)  0.1519 ( 85)  0.2225 ( 86)
          -0.1073 ( 88) -0.1764 ( 90)  0.1312 ( 91) -0.1073 ( 92)  0.1626 ( 93)
          -0.1156 ( 95)  0.1685 ( 96)  0.2142 ( 97)  0.1626 (103) -0.1624 (105)
          -0.1278 (106) -0.1030 (108)  0.1519 (110)  0.2176 (111)  0.2141 (112)
           0.2390 (113)  0.1685 (114) -0.1027 (117) -0.1235 (118) -0.1764 (120)
           0.1313 (123)
 CRD 20=  -0.1725 (  2)  0.1062 (  3)  0.1063 (  5)  0.2413 (  8) -0.1857 ( 11)
           0.2170 ( 14) -0.1062 ( 19) -0.1064 ( 20) -0.2171 ( 21)  0.1858 ( 23)
          -0.2414 ( 24)  0.1726 ( 26)  0.1263 ( 27) -0.2296 ( 30)  0.1864 ( 34)
          -0.1034 ( 40)  0.1634 ( 42)  0.1034 ( 44)  0.2076 ( 45) -0.1998 ( 46)
          -0.1446 ( 47)  0.1999 ( 50) -0.2077 ( 56)  0.1447 ( 57) -0.1635 ( 58)
          -0.1865 ( 60)  0.2298 ( 63) -0.1034 ( 64)  0.1035 ( 65) -0.1263 ( 67)
 CRD 21=   0.2698 (  2) -0.1577 (  5)  0.1404 (  6) -0.2608 (  8)  0.1827 ( 11)
          -0.1560 ( 12) -0.1060 ( 14) -0.1559 ( 18) -0.1577 ( 20) -0.1059 ( 21)
           0.1826 ( 23) -0.2606 ( 24)  0.2697 ( 26) -0.1290 ( 27)  0.1191 ( 29)
           0.2432 ( 30)  0.1116 ( 33) -0.2392 ( 34)  0.1276 ( 40) -0.1338 ( 42)
          -0.1142 ( 44)  0.1191 ( 54) -0.1337 ( 58)  0.1116 ( 59) -0.2391 ( 60)
           0.2430 ( 63) -0.1141 ( 64)  0.1276 ( 65) -0.1289 ( 67)
 CRD 22=   0.2429 (  2)  0.1585 (  3)  0.1780 (  4)  0.1161 (  7)  0.1283 (  9)
           0.2378 ( 10)  0.1390 ( 11) -0.1633 ( 12)  0.1657 ( 14) -0.1781 ( 15)
          -0.1161 ( 16) -0.2378 ( 17)  0.1634 ( 18) -0.1585 ( 19) -0.1656 ( 21)
          -0.1283 ( 22) -0.1389 ( 23) -0.2429 ( 26) -0.1860 ( 28)  0.1742 ( 29)
          -0.1584 ( 31) -0.1074 ( 36) -0.1314 ( 41) -0.1434 ( 46)  0.1016 ( 47)
           0.1073 ( 48) -0.1899 ( 49)  0.1434 ( 50) -0.1742 ( 54)  0.1584 ( 55)
          -0.1016 ( 57)  0.1899 ( 62)  0.1314 ( 66)  0.1861 ( 68)
 CRD 23=   0.1043 ( 70)  0.1014 ( 75)  0.1431 ( 77) -0.1906 ( 79) -0.1310 ( 80)
          -0.1432 ( 82) -0.1582 ( 83) -0.1536 ( 84) -0.1786 ( 89) -0.2206 ( 91)
          -0.2310 ( 93)  0.2330 ( 95)  0.2224 ( 99) -0.1134 (101) -0.2309 (103)
          -0.1536 (104) -0.1581 (106) -0.1905 (107) -0.1309 (108) -0.1433 (109)
           0.2223 (115)  0.1430 (116)  0.1014 (117) -0.1133 (121) -0.2206 (123)
          -0.1785 (124)  0.1042 (125) -0.1177 (127)  0.2117 (129) -0.1176 (130)
 CRD 24=   0.2601 ( 70)  0.1901 ( 71)  0.1718 ( 72)  0.1288 ( 74) -0.1518 ( 78)
          -0.2212 ( 79) -0.1521 ( 80)  0.1164 ( 82) -0.1367 ( 83) -0.1118 ( 85)
          -0.2071 ( 89) -0.1526 ( 94)  0.2402 ( 96) -0.1289 ( 98)  0.1367 (106)
           0.2213 (107)  0.1522 (108) -0.1163 (109)  0.1117 (110) -0.1902 (111)
          -0.1718 (113) -0.2403 (114)  0.1518 (119)  0.1526 (122)  0.2072 (124)
          -0.2602 (125)  0.1411 (128) -0.1411 (131)
 CRD 25=   0.1017 (  2)  0.2701 (  4)  0.2404 (  5) -0.1374 (  6) -0.1116 (  7)
           0.1459 (  8) -0.1367 ( 11) -0.2181 ( 12) -0.1418 ( 13) -0.2778 ( 14)
           0.2700 ( 15) -0.1117 ( 16) -0.2180 ( 18)  0.2404 ( 20) -0.2778 ( 21)
          -0.1366 ( 23)  0.1459 ( 24)  0.1016 ( 26) -0.1556 ( 28)  0.2034 ( 39)
           0.1054 ( 42)  0.1149 ( 43) -0.1214 ( 45)  0.2033 ( 53) -0.1214 ( 56)
           0.1054 ( 58)  0.1149 ( 61) -0.1556 ( 68)
 CRD 26=   0.1459 ( 70)  0.1465 ( 71) -0.2261 ( 75) -0.2437 ( 77)  0.1460 ( 81)
          -0.1472 ( 82)  0.1697 ( 83)  0.1952 ( 89) -0.2026 ( 94)  0.1643 ( 97)
          -0.1459 (105) -0.1697 (106)  0.1471 (109) -0.1464 (111) -0.1642 (112)
           0.2436 (116)  0.2260 (117)  0.2024 (122) -0.1951 (124) -0.1458 (125)
          -0.2202 (126)  0.1715 (127)  0.1637 (128) -0.1714 (130) -0.1635 (131)
           0.2200 (132)
 CRD 27=  -0.1022 (  4) -0.1716 (  5) -0.2937 (  6)  0.2238 (  8)  0.1238 (  9)
           0.2033 ( 10)  0.1698 ( 11) -0.3030 ( 13) -0.1022 ( 15)  0.2033 ( 17)
          -0.1716 ( 20)  0.1238 ( 22)  0.1698 ( 23)  0.2239 ( 24) -0.1184 ( 36)
           0.2160 ( 38) -0.2194 ( 41) -0.1284 ( 43)  0.2108 ( 47) -0.1184 ( 48)
           0.1114 ( 49)  0.2160 ( 51)  0.2108 ( 57) -0.1284 ( 61)  0.1113 ( 62)
          -0.2195 ( 66)
 CRD 28=   0.1551 ( 70)  0.1422 ( 71) -0.1872 ( 75) -0.2140 ( 77)  0.1210 ( 81)
          -0.1195 ( 82)  0.1457 ( 83) -0.1046 ( 85)  0.2042 ( 89) -0.1627 ( 94)
           0.1124 ( 95) -0.1175 ( 96)  0.1693 ( 97)  0.1438 ( 99) -0.1086 (101)
           0.1211 (105)  0.1458 (106) -0.1196 (109) -0.1045 (110)  0.1424 (111)
           0.1693 (112) -0.1176 (114)  0.1437 (115) -0.2141 (116) -0.1874 (117)
          -0.1086 (121) -0.1629 (122)  0.2044 (124)  0.1552 (125) -0.1895 (126)
           0.1796 (127)  0.1821 (128)  0.1751 (129)  0.1797 (130)  0.1822 (131)
          -0.1897 (132)
 CRD 29=   0.2623 (  5)  0.1459 (  8)  0.1246 (  9) -0.2291 ( 11) -0.1681 ( 12)
           0.1681 ( 18) -0.2624 ( 20) -0.1245 ( 22)  0.2292 ( 23) -0.1458 ( 24)
           0.1907 ( 31) -0.1731 ( 32) -0.1969 ( 35)  0.1731 ( 37) -0.1519 ( 41)
           0.1216 ( 43) -0.2253 ( 45) -0.2390 ( 49)  0.1969 ( 52) -0.1907 ( 55)
           0.2253 ( 56) -0.1217 ( 61)  0.2390 ( 62)  0.1518 ( 66)
 CRD 30=   0.1480 ( 69) -0.2319 ( 70) -0.1284 ( 76) -0.1473 ( 77)  0.2229 ( 79)
          -0.2367 ( 81)  0.1480 ( 86) -0.1518 ( 88)  0.1643 ( 89) -0.1517 ( 92)
           0.2487 ( 94)  0.1736 ( 95) -0.1654 ( 96)  0.1422 ( 97)  0.1726 ( 99)
           0.1245 (100)  0.1226 (101) -0.2366 (105)  0.2229 (107)  0.1422 (112)
          -0.1654 (114)  0.1725 (115) -0.1472 (116)  0.1225 (121)  0.2487 (122)
           0.1643 (124) -0.2319 (125)  0.1715 (129)
 CRD 31=   0.2630 (  2)  0.1009 (  3)  0.1173 (  5)  0.1579 (  7) -0.2506 ( 11)
          -0.1472 ( 12) -0.3509 ( 14) -0.1579 ( 16)  0.1472 ( 18) -0.1009 ( 19)
          -0.1172 ( 20)  0.3509 ( 21)  0.2505 ( 23) -0.2630 ( 26) -0.1418 ( 28)
          -0.1141 ( 32) -0.2014 ( 36)  0.1141 ( 37) -0.1111 ( 38)  0.1343 ( 39)
           0.1013 ( 45)  0.2014 ( 48)  0.1094 ( 49)  0.1111 ( 51) -0.1343 ( 53)
          -0.1014 ( 56) -0.1094 ( 62)  0.1418 ( 68)
 CRD 32=  -0.1638 (  2)  0.1675 (  5)  0.2697 (  6)  0.1182 (  7) -0.1562 (  8)
          -0.2057 ( 11) -0.1044 ( 13) -0.1712 ( 14)  0.1183 ( 16)  0.1675 ( 20)
          -0.1714 ( 21) -0.2057 ( 23) -0.1562 ( 24) -0.1638 ( 26) -0.1401 ( 27)
           0.2400 ( 28) -0.2032 ( 33) -0.1000 ( 35) -0.2390 ( 39)  0.2125 ( 40)
           0.1102 ( 44) -0.1000 ( 52) -0.2389 ( 53) -0.2031 ( 59)  0.1101 ( 64)
           0.2124 ( 65) -0.1400 ( 67)  0.2399 ( 68)
 CRD 33=  -0.4187 (  2) -0.1019 (  3)  0.1528 (  4) -0.1107 (  5)  0.1286 (  6)
           0.1484 (  9)  0.2308 ( 11) -0.1771 ( 14)  0.1519 ( 15) -0.1006 ( 20)
          -0.1710 ( 21)  0.1447 ( 22)  0.2277 ( 23) -0.4154 ( 26)  0.1953 ( 27)
           0.1300 ( 33) -0.2269 ( 44) -0.1093 ( 47) -0.1097 ( 57)  0.1212 ( 59)
          -0.2212 ( 64)  0.1912 ( 67)
 CRD 34=   0.1416 (  3)  0.2679 (  5) -0.3880 (  8)  0.1540 ( 10)  0.1543 ( 14)
          -0.1550 ( 17) -0.1454 ( 19) -0.2719 ( 20) -0.1609 ( 21)  0.3904 ( 24)
          -0.1019 ( 27) -0.2271 ( 33)  0.2034 ( 40)  0.1414 ( 44)  0.2319 ( 59)
          -0.1498 ( 64) -0.2068 ( 65)  0.1092 ( 67)
 CRD 35=   0.1832 (  1) -0.1664 (  3) -0.2836 (  5)  0.2047 (  6)  0.2295 (  7)
           0.2978 (  8) -0.1865 ( 10) -0.2719 ( 11)  0.1065 ( 13) -0.1075 ( 14)
           0.2295 ( 16) -0.1861 ( 17) -0.1662 ( 19) -0.2829 ( 20) -0.1081 ( 21)
          -0.2711 ( 23)  0.2969 ( 24)  0.1825 ( 25)  0.1031 ( 33) -0.1105 ( 40)
           0.1033 ( 59) -0.1106 ( 65)
 CRD 36=  -0.1542 (  1) -0.3121 (  2)  0.1522 (  4)  0.1496 (  5) -0.2016 (  8)
           0.1315 (  9)  0.1844 ( 11) -0.1204 ( 14) -0.1525 ( 15) -0.1507 ( 20)
           0.1199 ( 21) -0.1317 ( 22) -0.1858 ( 23)  0.2028 ( 24)  0.1550 ( 25)
           0.3127 ( 26)  0.2023 ( 27) -0.1379 ( 36)  0.1115 ( 41)  0.1096 ( 43)
          -0.1933 ( 44) -0.1997 ( 47)  0.1378 ( 48)  0.2001 ( 57) -0.1094 ( 61)
           0.1935 ( 64) -0.1115 ( 66) -0.2028 ( 67)
 CRD 37=  -0.1158 (  3)  0.1253 (  4)  0.1437 (  5)  0.2072 (  6) -0.1881 (  7)
           0.2427 (  8) -0.1813 ( 10) -0.2223 ( 12)  0.3676 ( 14)  0.1252 ( 15)
          -0.1881 ( 16) -0.1813 ( 17) -0.2222 ( 18) -0.1159 ( 19)  0.1437 ( 20)
           0.3676 ( 21)  0.2427 ( 24) -0.1422 ( 41)  0.1604 ( 47)  0.1604 ( 57)
          -0.1422 ( 66)
 CRD 38=  -0.1049 (  1) -0.1014 (  2)  0.1009 (  4)  0.1168 (  5)  0.1116 (  8)
          -0.1296 ( 10)  0.1695 ( 11) -0.1830 ( 12) -0.1962 ( 14) -0.1009 ( 15)
           0.1297 ( 17)  0.1830 ( 18) -0.1168 ( 20)  0.1961 ( 21) -0.1695 ( 23)
          -0.1116 ( 24)  0.1049 ( 25)  0.1013 ( 26)  0.1030 ( 28) -0.1089 ( 33)
           0.1216 ( 38) -0.1534 ( 39)  0.1636 ( 40) -0.1864 ( 41) -0.1308 ( 43)
           0.2800 ( 45)  0.1510 ( 47)  0.1937 ( 49) -0.1216 ( 51)  0.1534 ( 53)
          -0.2800 ( 56) -0.1511 ( 57)  0.1090 ( 59)  0.1308 ( 61) -0.1937 ( 62)
          -0.1636 ( 65)  0.1865 ( 66) -0.1030 ( 68)
 CRD 39=   0.2133 ( 77)  0.2407 ( 81) -0.2154 ( 82) -0.1712 ( 85) -0.1014 ( 89)
          -0.1569 ( 91) -0.1951 ( 94)  0.1164 ( 96) -0.2779 ( 97) -0.2561 ( 99)
          -0.1235 (101) -0.2408 (105)  0.2154 (109)  0.1712 (110)  0.2780 (112)
          -0.1165 (114)  0.2562 (115) -0.2133 (116)  0.1236 (121)  0.1951 (122)
           0.1569 (123)  0.1015 (124) -0.1293 (128)  0.1293 (131)
 CRD 40=   0.1654 (  1) -0.2485 (  2)  0.1881 (  4) -0.3198 (  5)  0.2642 (  7)
          -0.1560 (  8) -0.2793 ( 11) -0.1030 ( 14) -0.1881 ( 15) -0.2642 ( 16)
           0.3198 ( 20)  0.1030 ( 21)  0.2793 ( 23)  0.1560 ( 24) -0.1654 ( 25)
           0.2485 ( 26)  0.1410 ( 28)  0.1108 ( 32) -0.1108 ( 37) -0.1258 ( 39)
           0.1258 ( 53) -0.1410 ( 68)
 CRD 41=   0.1887 (  1) -0.2322 (  2)  0.1260 (  3)  0.1548 (  4) -0.2307 (  5)
          -0.2039 (  6) -0.2355 (  8)  0.1398 (  9)  0.1691 ( 10) -0.2550 ( 11)
          -0.2269 ( 12)  0.2507 ( 14)  0.1548 ( 15)  0.1691 ( 17) -0.2269 ( 18)
           0.1260 ( 19) -0.2307 ( 20)  0.2507 ( 21)  0.1398 ( 22) -0.2550 ( 23)
          -0.2355 ( 24)  0.1887 ( 25) -0.2322 ( 26)
 CRD 42=  -0.1709 (  1)  0.2684 (  3) -0.1003 (  4) -0.2241 (  6)  0.2646 (  7)
           0.1828 (  9) -0.2479 ( 10) -0.1422 ( 12)  0.3887 ( 13) -0.1249 ( 14)
          -0.1004 ( 15)  0.2646 ( 16) -0.2479 ( 17) -0.1422 ( 18)  0.2685 ( 19)
          -0.1249 ( 21)  0.1827 ( 22) -0.1709 ( 25)  0.1177 ( 40) -0.1143 ( 41)
           0.1092 ( 45)  0.1092 ( 56)  0.1177 ( 65) -0.1144 ( 66)
 CRD 43=   0.1680 (  1) -0.1123 (  2)  0.2824 (  4) -0.2176 (  5) -0.1078 (  6)
          -0.2051 (  7) -0.2048 (  9)  0.1482 ( 11)  0.1561 ( 12)  0.1587 ( 13)
          -0.1626 ( 14)  0.2824 ( 15) -0.2049 ( 16)  0.1562 ( 18) -0.2176 ( 20)
          -0.1627 ( 21) -0.2048 ( 22)  0.1482 ( 23)  0.1679 ( 25) -0.1122 ( 26)
          -0.1827 ( 27)  0.1854 ( 44)  0.1853 ( 64) -0.1827 ( 67)
 CRD 44=   0.1880 (  1) -0.1867 (  2) -0.2101 (  7) -0.1484 (  8)  0.2160 (  9)
          -0.1926 ( 11) -0.1318 ( 12)  0.1795 ( 14)  0.2101 ( 16)  0.1317 ( 18)
          -0.1795 ( 21) -0.2159 ( 22)  0.1926 ( 23)  0.1484 ( 24) -0.1881 ( 25)
           0.1868 ( 26) -0.1596 ( 28) -0.1143 ( 32)  0.1521 ( 33)  0.1143 ( 37)
           0.1085 ( 39) -0.1074 ( 43)  0.1194 ( 46)  0.1561 ( 47)  0.2147 ( 49)
          -0.1194 ( 50) -0.1085 ( 53) -0.1562 ( 57) -0.1521 ( 59)  0.1074 ( 61)
          -0.2147 ( 62)  0.1596 ( 68)
 CRD 45=  -0.2392 (  3)  0.2403 (  4)  0.1631 (  5)  0.2208 (  8) -0.1635 (  9)
          -0.1095 ( 11)  0.1331 ( 14) -0.2403 ( 15)  0.2391 ( 19) -0.1630 ( 20)
          -0.1331 ( 21)  0.1635 ( 22)  0.1095 ( 23) -0.2208 ( 24)  0.1230 ( 29)
           0.1503 ( 30) -0.1785 ( 31)  0.1126 ( 35) -0.1586 ( 36) -0.1266 ( 38)
          -0.1862 ( 39)  0.1497 ( 41) -0.1142 ( 42)  0.1063 ( 46)  0.1586 ( 48)
          -0.1063 ( 50)  0.1266 ( 51) -0.1126 ( 52)  0.1862 ( 53) -0.1230 ( 54)
           0.1785 ( 55)  0.1143 ( 58) -0.1504 ( 63) -0.1497 ( 66)
 CRD 46=  -0.1883 ( 70)  0.1343 ( 74) -0.1607 ( 77)  0.2468 ( 79) -0.2125 ( 82)
          -0.1120 ( 85) -0.1905 ( 89) -0.1527 ( 91)  0.2459 ( 96)  0.1332 ( 97)
          -0.1342 ( 98) -0.1238 ( 99)  0.1872 (101) -0.2469 (107)  0.2126 (109)
           0.1120 (110) -0.1331 (112) -0.2459 (114)  0.1237 (115)  0.1607 (116)
          -0.1871 (121)  0.1527 (123)  0.1905 (124)  0.1883 (125) -0.1332 (126)
          -0.2183 (127)  0.2182 (130)  0.1331 (132)
 CRD 47=   0.2067 (  1)  0.1079 (  2) -0.2470 (  3)  0.1142 (  4) -0.1765 (  7)
          -0.1174 (  8) -0.1646 (  9)  0.3082 ( 10) -0.1310 ( 12) -0.1074 ( 14)
          -0.1143 ( 15)  0.1765 ( 16) -0.3082 ( 17)  0.1310 ( 18)  0.2469 ( 19)
           0.1074 ( 21)  0.1647 ( 22)  0.1174 ( 24) -0.2067 ( 25) -0.1079 ( 26)
          -0.1145 ( 35)  0.1772 ( 38) -0.1481 ( 40)  0.1410 ( 45) -0.1273 ( 46)
          -0.1124 ( 47)  0.1273 ( 50) -0.1772 ( 51)  0.1145 ( 52) -0.1409 ( 56)
           0.1124 ( 57)  0.1481 ( 65)
 CRD 48=  -0.1473 (  1)  0.1683 (  2)  0.2000 (  4) -0.1128 (  5) -0.1884 (  6)
           0.1747 (  7) -0.2054 (  9)  0.1225 ( 10)  0.1162 ( 11) -0.2501 ( 12)
           0.2000 ( 15)  0.1747 ( 16)  0.1224 ( 17) -0.2500 ( 18) -0.1127 ( 20)
          -0.2053 ( 22)  0.1162 ( 23) -0.1474 ( 25)  0.1683 ( 26)  0.1875 ( 28)
          -0.1485 ( 33)  0.1127 ( 34) -0.1298 ( 35) -0.1072 ( 39)  0.1106 ( 41)
           0.1417 ( 43) -0.2050 ( 47) -0.1297 ( 52) -0.1072 ( 53) -0.2050 ( 57)
          -0.1485 ( 59)  0.1127 ( 60)  0.1417 ( 61)  0.1106 ( 66)  0.1874 ( 68)
 CRD 49=   0.1330 ( 70)  0.1301 ( 74)  0.1713 ( 76) -0.1056 ( 77) -0.1090 ( 78)
          -0.1609 ( 79) -0.2021 ( 81)  0.1660 ( 82) -0.1817 ( 85)  0.1145 ( 89)
           0.1243 ( 90) -0.1316 ( 93)  0.2152 ( 94) -0.1408 ( 96)  0.1217 ( 97)
           0.1301 ( 98) -0.1493 ( 99) -0.1316 (103) -0.2019 (105) -0.1607 (107)
           0.1661 (109) -0.1819 (110)  0.1218 (112) -0.1406 (114) -0.1491 (115)
          -0.1057 (116) -0.1088 (119)  0.1241 (120)  0.2150 (122)  0.1143 (124)
           0.1328 (125)  0.1011 (126)  0.2482 (128) -0.2901 (129)  0.2480 (131)
           0.1008 (132)
 CRD 50=   0.1856 (  1) -0.1441 (  2)  0.1615 (  3)  0.1697 (  4) -0.1575 (  5)
          -0.1334 (  7) -0.2441 (  9) -0.1331 ( 10)  0.2139 ( 11) -0.1699 ( 15)
           0.1334 ( 16)  0.1330 ( 17) -0.1613 ( 19)  0.1574 ( 20)  0.2442 ( 22)
          -0.2138 ( 23) -0.1857 ( 25)  0.1441 ( 26) -0.1803 ( 27) -0.2037 ( 32)
          -0.1775 ( 36)  0.2036 ( 37)  0.1013 ( 39)  0.1327 ( 42)  0.1923 ( 44)
           0.1775 ( 48) -0.1011 ( 53) -0.1327 ( 58) -0.1923 ( 64)  0.1804 ( 67)
 CRD 51=  -0.1554 (  3)  0.1919 (  5) -0.3318 (  6)  0.1294 (  8)  0.1755 ( 10)
          -0.1631 ( 11)  0.2751 ( 13) -0.1222 ( 14)  0.1757 ( 17) -0.1555 ( 19)
           0.1920 ( 20) -0.1222 ( 21) -0.1633 ( 23)  0.1294 ( 24)  0.1822 ( 29)
           0.1299 ( 30) -0.1606 ( 31)  0.1140 ( 32)  0.1038 ( 33) -0.1131 ( 34)
           0.1141 ( 37) -0.1564 ( 39)  0.1269 ( 41) -0.1318 ( 42) -0.1218 ( 43)
           0.1373 ( 45) -0.1565 ( 53)  0.1822 ( 54) -0.1606 ( 55)  0.1374 ( 56)
          -0.1319 ( 58)  0.1038 ( 59) -0.1130 ( 60) -0.1218 ( 61)  0.1299 ( 63)
           0.1270 ( 66)
 CRD 52=   0.1752 (  1)  0.1160 (  2) -0.2273 (  3)  0.1246 (  6) -0.2318 (  8)
          -0.1700 ( 12)  0.3588 ( 13) -0.1132 ( 14) -0.1701 ( 18) -0.2274 ( 19)
          -0.1131 ( 21) -0.2318 ( 24)  0.1752 ( 25)  0.1160 ( 26)  0.1037 ( 27)
          -0.1984 ( 30)  0.1141 ( 34)  0.1338 ( 38) -0.1916 ( 40) -0.1196 ( 41)
           0.1087 ( 42)  0.1684 ( 45)  0.1338 ( 51)  0.1684 ( 56)  0.1087 ( 58)
           0.1142 ( 60) -0.1985 ( 63) -0.1917 ( 65) -0.1196 ( 66)  0.1038 ( 67)
 CRD 53=  -0.1986 (  1)  0.1583 (  2)  0.1574 (  4) -0.1683 (  5) -0.2804 ( 12)
           0.2396 ( 14) -0.1574 ( 15)  0.2804 ( 18)  0.1683 ( 20) -0.2397 ( 21)
           0.1986 ( 25) -0.1583 ( 26)  0.1445 ( 28) -0.1549 ( 29) -0.1579 ( 33)
           0.1488 ( 34)  0.2241 ( 46)  0.2384 ( 49) -0.2241 ( 50)  0.1549 ( 54)
           0.1579 ( 59) -0.1488 ( 60) -0.2384 ( 62) -0.1444 ( 68)
 CRD 54=   0.1715 ( 70) -0.1096 ( 73) -0.1864 ( 78) -0.2217 ( 81) -0.1403 ( 82)
           0.1012 ( 84)  0.1501 ( 85)  0.1372 ( 89)  0.1678 ( 90) -0.2180 ( 91)
           0.1991 ( 94) -0.2481 ( 99) -0.1010 (104)  0.2216 (105)  0.1402 (109)
          -0.1502 (110)  0.2484 (115)  0.1092 (118)  0.1865 (119) -0.1680 (120)
          -0.1994 (122)  0.2183 (123) -0.1362 (124) -0.1708 (125)  0.2007 (126)
           0.1700 (128) -0.1705 (131) -0.1996 (132)
 CRD 55=  -0.1654 ( 69) -0.1897 ( 70) -0.2159 ( 77)  0.1301 ( 79) -0.1653 ( 86)
           0.1120 ( 87)  0.1781 ( 88) -0.2230 ( 89)  0.1780 ( 92) -0.1148 ( 93)
           0.1596 ( 96)  0.2336 ( 97) -0.1443 (100)  0.1972 (101)  0.1115 (102)
          -0.1149 (103)  0.1307 (107)  0.2337 (112)  0.1600 (114) -0.2158 (116)
           0.1973 (121) -0.2236 (124) -0.1905 (125) -0.2448 (126) -0.1938 (127)
          -0.1934 (130) -0.2458 (132)
 CRD 56=   0.2560 (  1) -0.1740 (  2) -0.1908 (  4)  0.1171 (  5)  0.1629 (  7)
          -0.2571 (  9)  0.1609 ( 11) -0.1163 ( 12) -0.1907 ( 15)  0.1629 ( 16)
          -0.1162 ( 18)  0.1171 ( 20) -0.2571 ( 22)  0.1610 ( 23)  0.2560 ( 25)
          -0.1740 ( 26) -0.1531 ( 27) -0.1523 ( 28)  0.1303 ( 29)  0.1411 ( 33)
          -0.1672 ( 34) -0.1337 ( 35)  0.1532 ( 42)  0.1323 ( 43)  0.1477 ( 44)
          -0.1334 ( 47) -0.1337 ( 52)  0.1304 ( 54) -0.1333 ( 57)  0.1532 ( 58)
           0.1411 ( 59) -0.1672 ( 60)  0.1323 ( 61)  0.1478 ( 64) -0.1532 ( 67)
          -0.1523 ( 68)
 CRD 57=  -0.1310 (  1) -0.1072 (  2)  0.2534 (  3) -0.1186 (  4)  0.1996 (  8)
          -0.1593 (  9)  0.2756 ( 10)  0.1186 ( 15) -0.2756 ( 17) -0.2534 ( 19)
           0.1594 ( 22) -0.1995 ( 24)  0.1309 ( 25)  0.1072 ( 26) -0.1036 ( 27)
           0.2022 ( 30)  0.1205 ( 31) -0.1127 ( 34)  0.1205 ( 38)  0.1125 ( 39)
           0.1676 ( 40)  0.1774 ( 41) -0.1004 ( 42) -0.1205 ( 51) -0.1125 ( 53)
          -0.1205 ( 55)  0.1003 ( 58)  0.1127 ( 60) -0.2021 ( 63) -0.1676 ( 65)
          -0.1773 ( 66)  0.1037 ( 67)
 CRD 58=  -0.1923 (  3)  0.1388 (  4) -0.3340 (  6)  0.1579 (  7) -0.1010 (  8)
          -0.2473 ( 10)  0.1325 ( 12) -0.2235 ( 13)  0.1395 ( 15)  0.1571 ( 16)
          -0.2473 ( 17)  0.1332 ( 18) -0.1923 ( 19) -0.1010 ( 24) -0.1134 ( 30)
          -0.1913 ( 31)  0.1004 ( 35)  0.1023 ( 36) -0.1837 ( 38) -0.1426 ( 39)
          -0.1111 ( 41) -0.1374 ( 45)  0.1018 ( 48) -0.1837 ( 51)  0.1009 ( 52)
          -0.1425 ( 53) -0.1914 ( 55) -0.1374 ( 56) -0.1134 ( 63) -0.1110 ( 66)
 CRD 59=   0.1526 (  1) -0.2180 (  4)  0.1177 (  5)  0.2684 (  7) -0.1521 (  9)
           0.1113 ( 11) -0.2310 ( 12)  0.1280 ( 14)  0.2176 ( 15) -0.2690 ( 16)
           0.2306 ( 18) -0.1180 ( 20) -0.1282 ( 21)  0.1520 ( 22) -0.1115 ( 23)
          -0.1529 ( 25)  0.1271 ( 29)  0.1689 ( 32)  0.1017 ( 33) -0.1483 ( 35)
           0.1691 ( 36) -0.1692 ( 37)  0.1326 ( 42)  0.1445 ( 43)  0.1451 ( 46)
          -0.1204 ( 47) -0.1694 ( 48)  0.1294 ( 49) -0.1454 ( 50)  0.1480 ( 52)
          -0.1274 ( 54)  0.1203 ( 57) -0.1328 ( 58) -0.1018 ( 59) -0.1448 ( 61)
          -0.1296 ( 62)
 CRD 60=   0.1391 ( 69) -0.1219 ( 70)  0.1020 ( 73)  0.1056 ( 77) -0.1728 ( 80)
           0.1570 ( 82) -0.1564 ( 83) -0.1255 ( 84)  0.1392 ( 86) -0.2066 ( 93)
          -0.1459 ( 94)  0.2157 ( 95) -0.1153 ( 96)  0.1403 (100)  0.1071 (101)
          -0.2067 (103) -0.1255 (104) -0.1564 (106) -0.1728 (108)  0.1570 (109)
          -0.1153 (114)  0.1056 (116)  0.1020 (118)  0.1072 (121) -0.1460 (122)
          -0.1220 (125) -0.1260 (126)  0.2590 (127) -0.1420 (128) -0.3655 (129)
           0.2591 (130) -0.1421 (131) -0.1260 (132)
 CRD 61=  -0.2047 ( 71) -0.2073 ( 72)  0.1421 ( 73) -0.1649 ( 74)  0.1404 ( 75)
          -0.1579 ( 77) -0.1490 ( 79)  0.1060 ( 81)  0.1027 ( 84) -0.1741 ( 85)
           0.1012 ( 87) -0.1556 ( 89)  0.1453 ( 90)  0.1024 ( 94)  0.1649 ( 98)
          -0.1013 (102) -0.1027 (104) -0.1060 (105)  0.1490 (107)  0.1742 (110)
           0.2046 (111)  0.2073 (113)  0.1579 (116) -0.1404 (117) -0.1421 (118)
          -0.1452 (120) -0.1023 (122)  0.1556 (124) -0.1959 (126) -0.1173 (127)
           0.3102 (128)  0.1173 (130) -0.3102 (131)  0.1959 (132)
 CRD 62=  -0.1065 ( 69)  0.1277 ( 70) -0.1048 ( 72) -0.1937 ( 75)  0.1224 ( 78)
           0.1201 ( 80)  0.2394 ( 83) -0.1258 ( 84) -0.1232 ( 85)  0.1064 ( 86)
          -0.1240 ( 87)  0.1957 ( 91)  0.1249 ( 96) -0.1177 ( 97)  0.1257 ( 99)
          -0.1922 (101)  0.1240 (102)  0.1258 (104) -0.2393 (106) -0.1201 (108)
           0.1232 (110)  0.1176 (112)  0.1047 (113) -0.1249 (114) -0.1258 (115)
           0.1936 (117) -0.1223 (119)  0.1921 (121) -0.1957 (123) -0.1277 (125)
           0.2233 (126) -0.2869 (127)  0.2867 (130) -0.2232 (132)
 CRD 63=  -0.1245 ( 69)  0.2667 ( 71) -0.2566 ( 75)  0.1611 ( 76)  0.1147 ( 79)
          -0.1293 ( 80) -0.1065 ( 81)  0.1069 ( 83) -0.1179 ( 85) -0.1246 ( 86)
           0.1144 ( 87)  0.1312 ( 88)  0.1001 ( 89) -0.1123 ( 90)  0.1312 ( 92)
          -0.1471 (100)  0.1317 (101)  0.1144 (102) -0.1065 (105)  0.1070 (106)
           0.1147 (107) -0.1293 (108) -0.1179 (110)  0.2667 (111) -0.2567 (117)
          -0.1123 (120)  0.1317 (121)  0.1002 (124)  0.2620 (126) -0.1133 (127)
          -0.2900 (128) -0.1133 (130) -0.2901 (131)  0.2622 (132)
 CRD 64=   0.1435 ( 72)  0.1040 ( 75)  0.2150 ( 76) -0.1644 ( 78) -0.1841 ( 83)
           0.2196 ( 84) -0.2039 ( 85)  0.1084 ( 88) -0.2318 ( 91)  0.1084 ( 92)
          -0.3125 ( 95)  0.1667 (101)  0.2197 (104) -0.1842 (106) -0.2038 (110)
           0.1436 (113)  0.1041 (117) -0.1644 (119)  0.1667 (121) -0.2319 (123)
           0.1872 (127)  0.3239 (129)  0.1873 (130)
 CRD 65=   0.2165 ( 71) -0.1930 ( 72)  0.2212 ( 73) -0.1371 ( 74) -0.1856 ( 75)
          -0.2363 ( 80)  0.1737 ( 83)  0.1406 ( 84)  0.1386 ( 87) -0.1720 ( 91)
           0.1371 ( 98)  0.2090 (101) -0.1386 (102) -0.1406 (104) -0.1737 (106)
           0.2362 (108) -0.2164 (111)  0.1930 (113)  0.1856 (117) -0.2212 (118)
          -0.2090 (121)  0.1720 (123)  0.1411 (126) -0.1411 (127) -0.1771 (128)
           0.1411 (130)  0.1770 (131) -0.1411 (132)
 CRD 66=  -0.1100 ( 71)  0.2025 ( 72) -0.2234 ( 73)  0.2610 ( 76)  0.1802 ( 80)
          -0.1334 ( 83) -0.2067 ( 84) -0.2124 ( 85)  0.2562 ( 87)  0.1538 ( 91)
           0.1783 ( 95) -0.2850 (100) -0.1473 (101)  0.2561 (102) -0.2067 (104)
          -0.1334 (106)  0.1802 (108) -0.2124 (110) -0.1100 (111)  0.2025 (113)
          -0.2235 (118) -0.1473 (121)  0.1539 (123) -0.1204 (129)

 THE DETERMINANT OF THE G MATRIX IS 10**(   -32)


                     --------------------
                     INTERNAL COORDINATES
                     --------------------

                 - - ATOMS - -         COORDINATE      COORDINATE
 NO.   TYPE    I  J  K  L  M  N        (BOHR,RAD)       (ANG,DEG)
 ----------------------------------------------------------------
   1 STRETCH   1  4                     2.6548619       1.4048925
   2 STRETCH   1 15                     2.0688297       1.0947776
   3 STRETCH   1  2                     2.6000394       1.3758817
   4 STRETCH   2  3                     2.6673954       1.4115250
   5 STRETCH   2 16                     2.0804908       1.1009484
   6 STRETCH   3  8                     2.7326830       1.4460737
   7 STRETCH   3  6                     2.6565983       1.4058114
   8 STRETCH   4 17                     2.0691496       1.0949469
   9 STRETCH   4  5                     2.6007048       1.3762338
  10 STRETCH   5  6                     2.6675739       1.4116194
  11 STRETCH   5 18                     2.0712001       1.0960320
  12 STRETCH   6  7                     2.7151592       1.4368005
  13 STRETCH   7 11                     2.5589945       1.3541617
  14 STRETCH   7 19                     2.0713167       1.0960937
  15 STRETCH   8 10                     2.6670974       1.4113673
  16 STRETCH   8  9                     2.6566591       1.4058436
  17 STRETCH   9 12                     2.6675869       1.4116263
  18 STRETCH   9 11                     2.7148917       1.4366589
  19 STRETCH  10 14                     2.6000643       1.3758949
  20 STRETCH  10 20                     2.0805543       1.1009820
  21 STRETCH  11 21                     2.0713695       1.0961216
  22 STRETCH  12 13                     2.6009408       1.3763587
  23 STRETCH  12 22                     2.0710870       1.0959721
  24 STRETCH  13 23                     2.0687843       1.0947536
  25 STRETCH  13 14                     2.6548483       1.4048853
  26 STRETCH  14 24                     2.0687569       1.0947391
  27 BEND      1  4 17                  2.0848321     119.4520789
  28 BEND      1  2 16                  2.1145120     121.1526154
  29 BEND      1  2  3                  2.1043169     120.5684799
  30 BEND      1  4  5                  2.0982249     120.2194308
  31 BEND      2  3  6                  2.0792220     119.1306468
  32 BEND      2  3  8                  2.1200890     121.4721547
  33 BEND      2  1 15                  2.0993849     120.2858936
  34 BEND      2  1  4                  2.0977780     120.1938232
  35 BEND      3  6  5                  2.0868667     119.5686532
  36 BEND      3  8  9                  2.0838593     119.3963416
  37 BEND      3  8 10                  2.1200265     121.4685736
  38 BEND      3  6  7                  2.0906933     119.7878999
  39 BEND      3  2 16                  2.0643563     118.2789046
  40 BEND      4  1 15                  2.0860225     119.5202830
  41 BEND      4  5 18                  2.1029694     120.4912725
  42 BEND      4  5  6                  2.0999621     120.3189661
  43 BEND      5  6  7                  2.1056254     120.6434469
  44 BEND      5  4 17                  2.1001283     120.3284902
  45 BEND      6  7 19                  2.0625220     118.1738052
  46 BEND      6  7 11                  2.1085345     120.8101287
  47 BEND      6  5 18                  2.0802538     119.1897612
  48 BEND      6  3  8                  2.0838742     119.3971981
  49 BEND      7 11 21                  2.1118281     120.9988389
  50 BEND      7 11  9                  2.1087413     120.8219782
  51 BEND      8  9 11                  2.0906680     119.7864522
  52 BEND      8  9 12                  2.0868678     119.5687176
  53 BEND      8 10 20                  2.0643830     118.2804336
  54 BEND      8 10 14                  2.1043575     120.5708048
  55 BEND      9  8 10                  2.0792995     119.1350848
  56 BEND      9 11 21                  2.0626158     118.1791805
  57 BEND      9 12 22                  2.0802075     119.1871100
  58 BEND      9 12 13                  2.0998488     120.3124730
  59 BEND     10 14 24                  2.0992703     120.2793259
  60 BEND     10 14 13                  2.0977549     120.1925014
  61 BEND     11  9 12                  2.1056495     120.6448302
  62 BEND     11  7 19                  2.1121287     121.0160629
  63 BEND     12 13 14                  2.0982421     120.2204183
  64 BEND     12 13 23                  2.1000877     120.3261611
  65 BEND     13 14 24                  2.0861602     119.5281725
  66 BEND     13 12 22                  2.1031290     120.5004169
  67 BEND     14 13 23                  2.0848555     119.4534199
  68 BEND     14 10 20                  2.1144448     121.1487612
  69 TORSION   1  2  3  8              -3.1414453    -179.9915567
  70 TORSION   1  4  5 18              -3.1414591    -179.9923457
  71 TORSION   1  4  5  6               0.0000393       0.0022525
  72 TORSION   1  2  3  6               0.0000157       0.0009017
  73 TORSION   2  3  6  5              -0.0000179      -0.0010246
  74 TORSION   2  3  8  9              -3.1415601    -179.9981326
  75 TORSION   2  1  4  5              -0.0000416      -0.0023834
  76 TORSION   2  3  8 10               0.0000584       0.0033482
  77 TORSION   2  1  4 17               3.1414869     179.9939408
  78 TORSION   2  3  6  7              -3.1415773    -179.9991215
  79 TORSION   3  6  5 18               3.1414900     179.9941198
  80 TORSION   3  6  5  4              -0.0000096      -0.0005484
  81 TORSION   3  2  1 15               3.1415231     179.9960163
  82 TORSION   3  6  7 19              -3.1413122    -179.9839293
  83 TORSION   3  2  1  4               0.0000137       0.0007870
  84 TORSION   3  6  7 11              -0.0000711      -0.0040743
  85 TORSION   3  8 10 20              -0.0000858      -0.0049178
  86 TORSION   3  8 10 14              -3.1415424    -179.9971225
  87 TORSION   3  8  9 11              -0.0000372      -0.0021329
  88 TORSION   3  8  9 12               3.1415877     179.9997170
  89 TORSION   4  1  2 16              -3.1415246    -179.9961011
  90 TORSION   4  5  6  7               3.1415496     179.9975318
  91 TORSION   5  6  7 19               0.0003141       0.0179946
  92 TORSION   5  6  3  8               3.1414459     179.9915926
  93 TORSION   5  6  7 11               3.1415551     179.9978497
  94 TORSION   5  4  1 15              -3.1415516    -179.9976493
  95 TORSION   6  7 11  9               0.0002031       0.0116359
  96 TORSION   6  3  2 16               3.1415556     179.9978777
  97 TORSION   6  5  4 17              -3.1414886    -179.9940392
  98 TORSION   6  3  8 10              -3.1414022    -179.9890906
  99 TORSION   6  7 11 21               3.1414835     179.9937474
 100 TORSION   6  3  8  9               0.0001646       0.0094287
 101 TORSION   7  6  5 18              -0.0001361      -0.0077999
 102 TORSION   7  6  3  8              -0.0001135      -0.0065043
 103 TORSION   7 11  9 12               3.1414115     179.9896197
 104 TORSION   7 11  9  8              -0.0001485      -0.0085101
 105 TORSION   8 10 14 24               3.1414574     179.9922506
 106 TORSION   8 10 14 13              -0.0000635      -0.0036360
 107 TORSION   8  9 12 22              -3.1415513    -179.9976288
 108 TORSION   8  9 12 13              -0.0000279      -0.0015995
 109 TORSION   8  9 11 21              -3.1414376    -179.9911147
 110 TORSION   8  3  2 16               0.0000946       0.0054193
 111 TORSION   9 12 13 14               0.0000415       0.0023755
 112 TORSION   9 12 13 23               3.1414620     179.9925157
 113 TORSION   9  8 10 14               0.0000760       0.0043544
 114 TORSION   9  8 10 20               3.1415326     179.9965591
 115 TORSION   9 11  7 19               3.1414341     179.9909152
 116 TORSION  10 14 13 23              -3.1414178    -179.9899822
 117 TORSION  10 14 13 12               0.0000043       0.0002440
 118 TORSION  10  8  9 12              -0.0000302      -0.0017289
 119 TORSION  10  8  9 11               3.1415302     179.9964212
 120 TORSION  11  9 12 13              -3.1415880    -179.9997334
 121 TORSION  11  9 12 22               0.0000740       0.0042373
 122 TORSION  12 13 14 24              -3.1415171    -179.9956735
 123 TORSION  12  9 11 21               0.0001224       0.0070152
 124 TORSION  13 14 10 20              -3.1415161    -179.9956147
 125 TORSION  14 13 12 22               3.1415639     179.9983523
 126 TORSION  15  1  4 17              -0.0000231      -0.0013251
 127 TORSION  15  1  2 16              -0.0000152      -0.0008718
 128 TORSION  17  4  5 18               0.0001983       0.0113625
 129 TORSION  19  7 11 21              -0.0004708      -0.0269733
 130 TORSION  20 10 14 24               0.0000047       0.0002719
 131 TORSION  22 12 13 23              -0.0002008      -0.0115075
 132 TORSION  23 13 14 24               0.0002461       0.0141003

     ------------------------------------------
     THE POINT GROUP IS C1 , NAXIS= 1, ORDER= 1
     ------------------------------------------

     DIMENSIONS OF THE SYMMETRY SUBSPACES ARE
 A   =  326

 ..... DONE SETTING UP THE RUN .....
 STEP CPU TIME =     0.02 TOTAL CPU TIME =        0.0 (    0.0 MIN)
 TOTAL WALL CLOCK TIME=        0.0 SECONDS, CPU UTILIZATION IS 100.00%


          -----------------------------
          STATIONARY POINT LOCATION RUN
          -----------------------------

 OBTAINING INITIAL HESSIAN, HESS=GUESS   
 DIAGONAL GUESS HESSIAN IN INTERNAL COORDS IS
     1  0.4683     2  0.3432     3  0.4954     4  0.4623     5  0.3391
     6  0.4322     7  0.4674     8  0.3431     9  0.4951    10  0.4622
    11  0.3423    12  0.4401    13  0.5168    14  0.3423    15  0.4624
    16  0.4674    17  0.4622    18  0.4402    19  0.4954    20  0.3391
    21  0.3423    22  0.4950    23  0.3424    24  0.3432    25  0.4683
    26  0.3432    27  0.2314    28  0.2329    29  0.2688    30  0.2693
    31  0.2665    32  0.2633    33  0.2333    34  0.2693    35  0.2665
    36  0.2638    37  0.2634    38  0.2645    39  0.2306    40  0.2314
    41  0.2331    42  0.2688    43  0.2641    44  0.2332    45  0.2294
    46  0.2685    47  0.2309    48  0.2638    49  0.2346    50  0.2685
    51  0.2645    52  0.2665    53  0.2306    54  0.2688    55  0.2665
    56  0.2294    57  0.2309    58  0.2688    59  0.2333    60  0.2693
    61  0.2641    62  0.2346    63  0.2693    64  0.2332    65  0.2314
    66  0.2331    67  0.2314    68  0.2329    69  0.2500    70  0.2500
    71  0.2500    72  0.2500    73  0.2500    74  0.2500    75  0.2500
    76  0.2500    77  0.2500    78  0.2500    79  0.2500    80  0.2500
    81  0.2500    82  0.2500    83  0.2500    84  0.2500    85  0.2500
    86  0.2500    87  0.2500    88  0.2500    89  0.2500    90  0.2500
    91  0.2500    92  0.2500    93  0.2500    94  0.2500    95  0.2500
    96  0.2500    97  0.2500    98  0.2500    99  0.2500   100  0.2500
   101  0.2500   102  0.2500   103  0.2500   104  0.2500   105  0.2500
   106  0.2500   107  0.2500   108  0.2500   109  0.2500   110  0.2500
   111  0.2500   112  0.2500   113  0.2500   114  0.2500   115  0.2500
   116  0.2500   117  0.2500   118  0.2500   119  0.2500   120  0.2500
   121  0.2500   122  0.2500   123  0.2500   124  0.2500   125  0.2500
   126  0.2500   127  0.2500   128  0.2500   129  0.2500   130  0.2500
   131  0.2500   132  0.2500
 TRANSFORMING HESSIAN TO SYMMETRY COORDINATES

          PARAMETERS CONTROLLING GEOMETRY SEARCH ARE
          METHOD =QA                  UPHESS =BFGS    
          NNEG   =         0          NFRZ   =         3
          NSTEP  =        50          IFOLOW =         1
          HESS   =GUESS               RESTAR =         F
          IHREP  =         0          HSSEND =         F
          NPRT   =         0          NPUN   =         0
          OPTTOL = 5.000E-04          RMIN   = 1.500E-03
          RMAX   = 1.000E-01          RLIM   = 7.000E-02
          DXMAX  = 3.000E-01          PURIFY =         F
          MOVIE  =         F          TRUPD  =         T
          TRMAX  = 5.000E-01          TRMIN  = 5.000E-02
          ITBMAT =         5          STPT   =         F
          STSTEP = 1.000E-02          PROJCT=          F
          FROZEN COORD(S)=   1   2   3


      ***** EQUILIBRIUM GEOMETRY LOCATED *****
            (SUBJECT TO   3 CONSTRAINT(S))
 COORDINATES OF ALL ATOMS ARE (ANGS)
   ATOM   CHARGE       X              Y              Z
 ------------------------------------------------------------
 C           6.0   4.2328239084   4.1778919857   6.0110059519
 C           6.0   3.3882354684   3.3457072510   5.3362704157
 C           6.0   3.4452925225   3.2322590996   3.9332459014
 C           6.0   5.1798811340   4.9401278510   5.3085935467
 C           6.0   5.2546295624   4.8471719503   3.9461754481
 C           6.0   4.3899736039   3.9924245458   3.2314749909
 C           6.0   4.4605398581   3.8869453357   1.7935886861
 C           6.0   2.5518204740   2.3500067078   3.2013880609
 C           6.0   2.6496714393   2.2737936896   1.8058960951
 C           6.0   1.5845218808   1.5647186380   3.8588355665
 C           6.0   3.6358800575   3.0724506592   1.1180298806
 C           6.0   1.7803980527   1.4162169657   1.1002509749
 C           6.0   0.8492416357   0.6635175569   1.7611816187
 C           6.0   0.7519583481   0.7405774530   3.1597114201
 H           1.0   4.1662375387   4.2440017376   7.0818339301
 H           1.0   2.6730933661   2.7730560768   5.8915292108
 H           1.0   5.8414528008   5.5932643678   5.8474046105
 H           1.0   5.9786914781   5.4291602063   3.4035748428
 H           1.0   5.1924524236   4.4780841437   1.2708661569
 H           1.0   1.4934935555   1.6084518938   4.9253600456
 H           1.0   3.6968734181   3.0013758194   0.0458293344
 H           1.0   1.8587699704   1.3605536241   0.0287364187
 H           1.0   0.1897133848   0.0120815754   1.2178320308
 H           1.0   0.0234341656   0.1529390415   3.6883036904


                     --------------------
                     INTERNAL COORDINATES
                     --------------------

                 - - ATOMS - -         COORDINATE      COORDINATE
 NO.   TYPE    I  J  K  L  M  N        (BOHR,RAD)       (ANG,DEG)
 ----------------------------------------------------------------
   1 STRETCH   1  4                     2.6532346       1.4040314
   2 STRETCH   1 15                     2.0313252       1.0749311
   3 STRETCH   1  2                     2.5780248       1.3642321
   4 STRETCH   2  3                     2.6621697       1.4087597
   5 STRETCH   2 16                     2.0244513       1.0712936
   6 STRETCH   3  8                     2.7464666       1.4533676
   7 STRETCH   3  6                     2.6474759       1.4009840
   8 STRETCH   4 17                     2.0305383       1.0745147
   9 STRETCH   4  5                     2.5844455       1.3676298
  10 STRETCH   5  6                     2.6651299       1.4103261
  11 STRETCH   5 18                     2.0330074       1.0758213
  12 STRETCH   6  7                     2.7277738       1.4434758
  13 STRETCH   7 11                     2.5352243       1.3415830
  14 STRETCH   7 19                     2.0338754       1.0762806
  15 STRETCH   8 10                     2.6621546       1.4087516
  16 STRETCH   8  9                     2.6474927       1.4009929
  17 STRETCH   9 12                     2.6651228       1.4103223
  18 STRETCH   9 11                     2.7277724       1.4434751
  19 STRETCH  10 14                     2.5780360       1.3642380
  20 STRETCH  10 20                     2.0244542       1.0712951
  21 STRETCH  11 21                     2.0338806       1.0762833
  22 STRETCH  12 13                     2.5844640       1.3676396
  23 STRETCH  12 22                     2.0330009       1.0758178
  24 STRETCH  13 23                     2.0305324       1.0745116
  25 STRETCH  13 14                     2.6532237       1.4040256
  26 STRETCH  14 24                     2.0313246       1.0749308
  27 BEND      1  4 17                  2.0879751     119.6321614
  28 BEND      1  2 16                  2.0748727     118.8814464
  29 BEND      1  2  3                  2.1137019     121.1061994
  30 BEND      1  4  5                  2.0924830     119.8904445
  31 BEND      2  3  6                  2.0742898     118.8480504
  32 BEND      2  3  8                  2.1240949     121.7016722
  33 BEND      2  1 15                  2.0850308     119.4634627
  34 BEND      2  1  4                  2.0959268     120.0877618
  35 BEND      3  6  5                  2.0810604     119.2359767
  36 BEND      3  8  9                  2.0848007     119.4502786
  37 BEND      3  8 10                  2.1240943     121.7016409
  38 BEND      3  6  7                  2.0855129     119.4910866
  39 BEND      3  2 16                  2.0946107     120.0123542
  40 BEND      4  1 15                  2.1022277     120.4487755
  41 BEND      4  5 18                  2.0972302     120.1624390
  42 BEND      4  5  6                  2.1089087     120.8315672
  43 BEND      5  6  7                  2.1166120     121.2729367
  44 BEND      5  4 17                  2.1027272     120.4773940
  45 BEND      6  7 19                  2.0679254     118.4833968
  46 BEND      6  7 11                  2.1128744     121.0587874
  47 BEND      6  5 18                  2.0770464     119.0059936
  48 BEND      6  3  8                  2.0848006     119.4502771
  49 BEND      7 11 21                  2.1023818     120.4576066
  50 BEND      7 11  9                  2.1128738     121.0587541
  51 BEND      8  9 11                  2.0855082     119.4908156
  52 BEND      8  9 12                  2.0810605     119.2359863
  53 BEND      8 10 20                  2.0946230     120.0130584
  54 BEND      8 10 14                  2.1137014     121.1061681
  55 BEND      9  8 10                  2.0742903     118.8480805
  56 BEND      9 11 21                  2.0679296     118.4836381
  57 BEND      9 12 22                  2.0770478     119.0060718
  58 BEND      9 12 13                  2.1089069     120.8314670
  59 BEND     10 14 24                  2.0850166     119.4626542
  60 BEND     10 14 13                  2.0959313     120.0880182
  61 BEND     11  9 12                  2.1166166     121.2731981
  62 BEND     11  7 19                  2.1023855     120.4578143
  63 BEND     12 13 14                  2.0924801     119.8902798
  64 BEND     12 13 23                  2.1027212     120.4770525
  65 BEND     13 14 24                  2.1022373     120.4493275
  66 BEND     13 12 22                  2.0972306     120.1624611
  67 BEND     14 13 23                  2.0879839     119.6326673
  68 BEND     14 10 20                  2.0748609     118.8807734
  69 TORSION   1  2  3  8              -3.1414637    -179.9926126
  70 TORSION   1  4  5 18              -3.1414992    -179.9946433
  71 TORSION   1  4  5  6               0.0000170       0.0009750
  72 TORSION   1  2  3  6               0.0000326       0.0018670
  73 TORSION   2  3  6  5              -0.0000237      -0.0013561
  74 TORSION   2  3  8  9              -3.1415833    -179.9994659
  75 TORSION   2  1  4  5              -0.0000085      -0.0004842
  76 TORSION   2  3  8 10               0.0000453       0.0025981
  77 TORSION   2  1  4 17               3.1415323     179.9965433
  78 TORSION   2  3  6  7              -3.1415891    -179.9997942
  79 TORSION   3  6  5 18               3.1415164     179.9956295
  80 TORSION   3  6  5  4              -0.0000007      -0.0000388
  81 TORSION   3  2  1 15               3.1415389     179.9969212
  82 TORSION   3  6  7 19              -3.1413769    -179.9876389
  83 TORSION   3  2  1  4              -0.0000166      -0.0009516
  84 TORSION   3  6  7 11              -0.0000262      -0.0014986
  85 TORSION   3  8 10 20              -0.0000621      -0.0035567
  86 TORSION   3  8 10 14              -3.1415785    -179.9991904
  87 TORSION   3  8  9 11              -0.0000090      -0.0005184
  88 TORSION   3  8  9 12              -3.1415731    -179.9988816
  89 TORSION   4  1  2 16              -3.1415790    -179.9992178
  90 TORSION   4  5  6  7               3.1415642     179.9983707
  91 TORSION   5  6  7 19               0.0002436       0.0139557
  92 TORSION   5  6  3  8               3.1414748     179.9932502
  93 TORSION   5  6  7 11              -3.1415910    -179.9999040
  94 TORSION   5  4  1 15              -3.1415636    -179.9983359
  95 TORSION   6  7 11  9               0.0001270       0.0072766
  96 TORSION   6  3  2 16              -3.1415907    -179.9998863
  97 TORSION   6  5  4 17              -3.1415233    -179.9960270
  98 TORSION   6  3  8 10              -3.1414504    -179.9918490
  99 TORSION   6  7 11 21               3.1415031     179.9948713
 100 TORSION   6  3  8  9               0.0001062       0.0060870
 101 TORSION   7  6  5 18              -0.0001040      -0.0059611
 102 TORSION   7  6  3  8              -0.0000905      -0.0051879
 103 TORSION   7 11  9 12               3.1414545     179.9920836
 104 TORSION   7 11  9  8              -0.0001090      -0.0062452
 105 TORSION   8 10 14 24               3.1415022     179.9948150
 106 TORSION   8 10 14 13              -0.0000597      -0.0034228
 107 TORSION   8  9 12 22              -3.1415685    -179.9986171
 108 TORSION   8  9 12 13              -0.0000084      -0.0004797
 109 TORSION   8  9 11 21              -3.1414893    -179.9940791
 110 TORSION   8  3  2 16               0.0000983       0.0056341
 111 TORSION   9 12 13 14              -0.0000007      -0.0000420
 112 TORSION   9 12 13 23               3.1414714     179.9930509
 113 TORSION   9  8 10 14               0.0000499       0.0028615
 114 TORSION   9  8 10 20               3.1415664     179.9984952
 115 TORSION   9 11  7 19               3.1414730     179.9931443
 116 TORSION  10 14 13 23              -3.1414383    -179.9911569
 117 TORSION  10 14 13 12               0.0000348       0.0019947
 118 TORSION  10  8  9 12              -0.0000155      -0.0008864
 119 TORSION  10  8  9 11               3.1415486     179.9974768
 120 TORSION  11  9 12 13              -3.1415719    -179.9988127
 121 TORSION  11  9 12 22               0.0000532       0.0030499
 122 TORSION  12 13 14 24              -3.1415268    -179.9962255
 123 TORSION  12  9 11 21               0.0000742       0.0042497
 124 TORSION  13 14 10 20              -3.1415770    -179.9991050
 125 TORSION  14 13 12 22               3.1415590     179.9980739
 126 TORSION  15  1  4 17              -0.0000228      -0.0013084
 127 TORSION  15  1  2 16              -0.0000235      -0.0013450
 128 TORSION  17  4  5 18               0.0001458       0.0083547
 129 TORSION  19  7 11 21              -0.0003362      -0.0192610
 130 TORSION  20 10 14 24              -0.0000151      -0.0008672
 131 TORSION  22 12 13 23              -0.0001542      -0.0088332
 132 TORSION  23 13 14 24               0.0001854       0.0106229

          INTERNUCLEAR DISTANCES (ANGS.)


 =====================================================
   GAMESS/COSab RESULTS
 =====================================================

   Dielectric Constant                  = INFTY
   Basic Grid Size                      =                 1082
   Number of Segments                   =                   92
   Number of Segments located on spheres=                  378
   Number of Segments of the cavity     =                  932
   Solvent Radius (rsolv)               = 1.40
   Outlying Charge Error Method         = double cavity

 =====================================================

  Total solvated Energy (a.u.)          =  -536.1202592596
  Total Energy corrected (a.u.)         =  -536.1204597723

  Outlying charge effect (a.u.)         =    -0.0002005127
  Outlying charge effect (kcal/mol)     =    -0.1258237100

  Dielectric Energy (a.u.)              =    -0.0129710295
  Dielectric energy corr. (a.u.)        =    -0.0131715421

  Sum of polarization charges           =     0.0284784696
  Sum of polarization charges(cor.)     =    -0.0284784696

  Total surface area of cavity (A**2)   =  210.42
  Total volume of cavity (A**3)         =  224.21

 =====================================================
 NPS=                   932
NR.  ATOM  (X, Y, Z)(a.u.)                  CHARGE(e)  AREA(A**2) SIGMA(e/A**2)
   1   1   5.667549  10.605951  10.134304   0.000964   0.139368   0.006919
   2   1   7.146251  11.235252  12.908476   0.000915   0.325193   0.002813
   3   1   4.902653   9.029921  13.205686   0.001079   0.278737   0.003872
   4   1  10.224972   5.528262  13.289697   0.001287   0.371649   0.003463
   5   1   9.789907   6.074603  14.145256   0.000714   0.371649   0.001920
   6   1   7.286610   5.444555  14.146962   0.000043   0.092912   0.000464
   7   1   5.157014   8.327032  13.813007   0.000247   0.278737   0.000885
   8   1   7.055262  10.742740  13.657967   0.000310   0.278737   0.001112
   9   1  10.207374   9.023930  14.210897  -0.000442   0.092912  -0.004752
  10   1   8.108768  10.854031  13.707911   0.000045   0.185824   0.000240
  11   1   6.149225  10.779708  12.953464   0.001014   0.325193   0.003118
  12   1   5.190584   9.861644  12.949830   0.000848   0.232280   0.003653
  13   1   7.954485   5.198587  14.007029   0.000201   0.185824   0.001081
  14   1   9.106393   4.954388  13.459169   0.001666   0.418105   0.003984
  15   1  10.846526   6.712315  13.544618   0.001045   0.371649   0.002811
  16   1  10.616604   8.089567  14.078329   0.000368   0.185824   0.001981
  17   1   6.183957  11.157719  11.946842   0.001671   0.325193   0.005138
  18   1   5.762807  10.917970  10.976704   0.001176   0.232280   0.005064
  19   1   5.211788  10.426039  11.026687   0.001917   0.232280   0.008251
  20   1   4.821756   9.820898  12.052889   0.001269   0.278737   0.004554
  21   1   9.954892   4.809475  12.327351   0.003235   0.511017   0.006331
  22   1  10.961015   5.826006  12.467761   0.001801   0.418105   0.004307
  23   1   8.776772   5.414706  14.102676   0.000443   0.232280   0.001906
  24   1   5.764688   9.999388  13.564696   0.000765   0.325193   0.002353
  25   1   8.791764  10.535826  13.944098  -0.000161   0.092912  -0.001731
  26   1  10.495405   7.210819  14.112951   0.000197   0.232280   0.000850
  27   1  10.554956   5.119325  11.144622   0.003128   0.464561   0.006733
  28   1   5.378503  10.514438  12.105302   0.001235   0.278737   0.004432
  29   2   9.513476   4.178459   9.977097   0.000652   0.092912   0.007017
  30   2   7.337346   3.785869  12.725421   0.001018   0.278737   0.003653
  31   2   2.985479   7.861764  10.570355   0.001248   0.418105   0.002986
  32   2   2.936152   7.153925  11.339079   0.000432   0.325193   0.001328
  33   2   4.536058   6.615881  13.357201  -0.000249   0.092912  -0.002678
  34   2   6.572645   4.157837  13.177598   0.000175   0.278737   0.000630
  35   2   7.279527   2.777046  11.056561   0.000783   0.278737   0.002810
  36   2   7.523517   3.261571  11.997011   0.000802   0.232280   0.003451
  37   2   3.961595   7.319344  12.791632   0.000187   0.232280   0.000807
  38   2   3.554007   8.153325  11.762285   0.001452   0.371649   0.003908
  39   2   7.896884   2.851736  10.162558   0.001381   0.325193   0.004246
  40   2   8.961823   3.543904   9.959676   0.001287   0.232280   0.005541
  41   2   9.108428   3.771036  10.758083   0.001601   0.185824   0.008618
  42   2   8.353974   3.572021  11.790663   0.001429   0.325193   0.004395
  43   2   3.729668   8.943018  10.604751   0.003111   0.511017   0.006089
  44   2   3.234343   8.300091   9.506265   0.001606   0.371649   0.004321
  45   2   3.408437   7.324463  12.161056   0.000256   0.185824   0.001376
  46   2   6.735442   2.985081  11.826361   0.000465   0.325193   0.001431
  47   2   4.266118   9.370123   9.428005   0.002931   0.464561   0.006309
  48   2   8.395455   3.200209  10.835936   0.001323   0.278737   0.004748
  49   3   9.044497   3.384204   6.766118   0.000578   0.092912   0.006225
  50   3   8.371400   2.885463   8.093553   0.001044   0.232280   0.004497
  51   3   8.796687   3.098628   7.393614   0.000765   0.185824   0.004116
  52   3   9.325612   3.588660   7.545926   0.000495   0.139368   0.003553
  53   3   4.473056   9.290921   7.476930   0.002019   0.371649   0.005432
  54   3   3.475378   8.355108   7.581787   0.000978   0.185824   0.005262
  55   3   3.997991   8.776222   6.509841   0.001817   0.418105   0.004345
  56   3   9.260471   3.647205   8.249384   0.001451   0.232280   0.006247
  57   4  11.635741   6.039301   9.946544   0.000928   0.139368   0.006661
  58   4  12.150270   7.819137  12.563041   0.000926   0.325193   0.002848
  59   4  13.553715   9.009390   9.994152   0.001085   0.278737   0.003893
  60   4   8.500663  12.836425  10.639302   0.001291   0.371649   0.003475
  61   4   9.455256  12.918051  11.188701   0.000783   0.371649   0.002106
  62   4  11.291439  12.742028   9.382903  -0.000089   0.092912  -0.000955
  63   4  13.513565   9.971267   9.966360   0.000442   0.278737   0.001585
  64   4  12.515514   8.643226  12.555421   0.000325   0.278737   0.001165
  65   4   9.662467  11.355069  13.223921  -0.000226   0.092912  -0.002427
  66   4  11.732732   8.859062  13.237638  -0.000096   0.185824  -0.000517
  67   4  12.855498   7.922113  11.728981   0.001005   0.325193   0.003091
  68   4  13.388875   8.326331  10.582698   0.000845   0.232280   0.003640
  69   4  10.621945  12.986003   9.518520   0.000275   0.185824   0.001478
  70   4   9.342179  13.075569   9.720645   0.001817   0.418105   0.004347
  71   4   8.440241  12.330453  11.901695   0.001018   0.371649   0.002740
  72   4   9.066928  11.787607  12.815795   0.000469   0.185824   0.002524
  73   4  12.364399   6.992414  11.501232   0.001678   0.325193   0.005161
  74   4  12.103275   6.407520  10.626172   0.001184   0.232280   0.005097
  75   4  12.447516   6.649615  10.017070   0.001963   0.232280   0.008451
  76   4  13.175864   7.663808   9.906025   0.001263   0.278737   0.004532
  77   4   8.005188  12.629944   9.531340   0.003190   0.511017   0.006243
  78   4   7.534083  12.259910  10.837659   0.001796   0.418105   0.004295
  79   4  10.074291  13.101748  10.165583   0.000403   0.232280   0.001734
  80   4  13.306529   8.782937  11.297792   0.000804   0.325193   0.002471
  81   4  11.241455   9.408982  13.520051  -0.000033   0.092912  -0.000350
  82   4   9.251967  12.334590  12.268254   0.000050   0.185824   0.000270
  83   4   6.945831  11.777811   9.543644   0.002985   0.418105   0.007138
  84   4  12.933597   7.350269  10.703967   0.001265   0.278737   0.004538
  85   5   6.814740  11.291340   7.650310   0.000964   0.139368   0.006918
  86   5   8.362743  11.965052   5.467386   0.000456   0.139368   0.003272
  87   5  10.036761  12.937665   7.486078   0.001081   0.278737   0.003880
  88   5  13.258849   7.478451   6.845073   0.001236   0.371649   0.003327
  89   5  13.447779   8.416197   6.293087   0.000684   0.371649   0.001839
  90   5  13.487562  10.264514   8.094641  -0.000045   0.092912  -0.000489
  91   5  10.987793  12.787776   7.511810   0.000329   0.278737   0.001181
  92   5   9.442555  12.074629   5.101173   0.000198   0.232280   0.000853
  93   5   8.919028  12.413050   5.820372   0.000823   0.278737   0.002953
  94   5   9.337845  12.850744   6.899486   0.000841   0.232280   0.003621
  95   5  13.652987   9.571197   7.960164   0.000198   0.185824   0.001064
  96   5  13.595024   8.289138   7.761066   0.001803   0.418105   0.004312
  97   5  12.882764   7.504068   5.777090   0.000517   0.232280   0.002225
  98   5   7.801678  11.985065   6.125502   0.001555   0.325193   0.004782
  99   5   7.132633  11.654413   6.970209   0.001226   0.232280   0.005277
 100   5   7.565861  12.108703   7.471250   0.001922   0.232280   0.008275
 101   5   8.657009  12.716464   7.578181   0.001248   0.278737   0.004478
 102   5  12.999825   7.012349   7.954741   0.003122   0.511017   0.006109
 103   5  12.575026   6.583745   6.650448   0.001877   0.418105   0.004489
 104   5  13.703679   9.012444   7.314225   0.000412   0.232280   0.001774
 105   5   9.780227  12.715085   6.183578   0.000706   0.325193   0.002170
 106   5  12.981610   8.394111   5.363289  -0.000132   0.092912  -0.001418
 107   5  12.032048   6.057432   7.947021   0.002808   0.418105   0.006715
 108   5   8.315798  12.509873   6.781558   0.001253   0.278737   0.004496
 109   6  11.400770   5.400941   5.886292   0.000565   0.139368   0.004056
 110   6  10.268942   4.322372   6.014439   0.001015   0.185824   0.005464
 111   6  10.940547   4.846801   5.997961   0.000748   0.185824   0.004025
 112   6  11.059016   5.035305   6.700473   0.000861   0.139368   0.006180
 113   6   5.766961  10.328147   6.481775   0.002031   0.371649   0.005464
 114   6   5.303633   9.722875   5.341129   0.001044   0.185824   0.005616
 115   6   6.201197  10.611514   5.406134   0.001871   0.418105   0.004474
 116   6  10.556246   4.659865   7.030309   0.001324   0.232280   0.005699
 117   7  10.135512   4.078738   4.227627   0.000502   0.139368   0.003602
 118   7  11.963841   6.125642   3.939959   0.000211   0.139368   0.001516
 119   7  11.187812   5.876067   1.264343   0.001322   0.278737   0.004744
 120   7   7.317519  10.813189   2.378530   0.001154   0.371649   0.003104
 121   7   8.319398  10.879851   2.055667   0.000611   0.325193   0.001880
 122   7   8.516588   9.177155   0.084732  -0.000020   0.092912  -0.000219
 123   7  10.979646   6.624442   0.694964   0.000429   0.278737   0.001539
[...]
 673  10   1.247613   5.632907   5.085909   0.000355   0.049907   0.007117
 674   8   3.844829   7.852086   4.468465   0.000152   0.050766   0.003000
 675   9   3.860706   7.862827   4.011925   0.000200   0.050766   0.003932
 676  11   4.203018   8.089348   3.781147   0.000202   0.050766   0.003989
 677   8   8.249652   2.911226   5.047157   0.000146   0.050766   0.002881
 678   9   8.314882   2.866608   4.597100   0.000169   0.050766   0.003329
 679  11   8.606298   3.150219   4.359636   0.000245   0.050766   0.004827
 680   9   1.998574   6.468369   4.083483   0.001249   0.209457   0.005961
 681   9   3.205012   7.534637   4.109854   0.000963   0.209457   0.004596
 682   8   2.589338   6.999361   4.753076   0.002051   0.429643   0.004774
 683   9   7.900596   2.267555   4.726749   0.000960   0.209477   0.004581
 684   9   6.706213   1.187552   4.701974   0.001122   0.209477   0.005357
 685   8   7.223983   1.800531   5.361971   0.002038   0.429686   0.004743
 686  10   1.610621   6.461513   7.295482   0.000885   0.216280   0.004092
 687  10   1.099750   5.872059   5.839753   0.001447   0.216280   0.006690
 688   8   1.842165   6.493790   6.264307   0.002102   0.444733   0.004727
 689  10   5.806622   0.592047   6.458172   0.001341   0.216291   0.006199
 690  10   6.281554   1.221876   7.909250   0.000910   0.216291   0.004208
 691   8   6.460484   1.313144   6.871127   0.002271   0.444759   0.005106
 692   9   1.490041   5.687934   4.066054   0.000556   0.105524   0.005265
 693  10   1.182437   5.415648   4.750754   0.000446   0.105524   0.004225
 694  12   1.218815   5.394333   3.832678   0.000580   0.105524   0.005499
 695   9   5.877216   0.766613   4.642475   0.000525   0.105524   0.004972
 696  10   5.492450   0.580884   5.317037   0.000457   0.105524   0.004334
 697  12   5.581857   0.500084   4.405929   0.000552   0.105524   0.005234
 698   9   7.352995   1.725074   1.907169   0.000223   0.049959   0.004454
 699  11   7.651360   2.018758   1.691714   0.000151   0.049959   0.003027
 700  12   7.039650   1.471496   1.685662   0.000184   0.049959   0.003675
 701   9   2.929432   6.687066   1.326145   0.000213   0.049959   0.004262
 702  11   3.279975   6.922221   1.117543   0.000159   0.049959   0.003179
 703  12   2.667061   6.376309   1.111333   0.000172   0.049959   0.003451
 704  11   8.759662   2.905169   3.607114   0.001067   0.221536   0.004817
 705  11   8.245224   2.295427   2.161607   0.000688   0.221536   0.003105
 706   9   8.006427   2.266897   3.201521   0.001423   0.454934   0.003128
 707  11   3.570389   7.539250   1.547550   0.000672   0.221522   0.003034
 708  11   4.066894   8.169040   2.990622   0.001055   0.221522   0.004764
 709   9   3.393266   7.441507   2.595526   0.001480   0.454903   0.003252
 710  12   1.300451   5.709632   2.940129   0.001349   0.215413   0.006261
 711  12   2.013088   6.150580   1.526347   0.000950   0.215413   0.004410
 712   9   2.097573   6.291415   2.568121   0.002286   0.442680   0.005164
 713  12   6.689993   0.904376   2.140686   0.000942   0.215430   0.004374
 714  12   6.005683   0.431563   3.558299   0.001332   0.215430   0.006183
 715   9   6.718761   1.107667   3.175196   0.002190   0.442717   0.004946
 716  10   5.184491   0.275135   5.540525   0.000638   0.100991   0.006314
 717  12   5.220347   0.253678   4.622586   0.000501   0.100991   0.004964
 718  14   4.926258  -0.007866   5.309290   0.000709   0.100991   0.007016
 719  10   0.817739   5.173214   4.966805   0.000611   0.100991   0.006054
 720  12   0.906929   5.091934   4.055873   0.000506   0.100991   0.005006
 721  14   0.534173   4.918629   4.732242   0.000698   0.100991   0.006910
 722  12   0.962981   5.353980   3.734652   0.000082   0.007725   0.010626
 723  10   0.874252   5.427544   5.038474   0.000072   0.007725   0.009377
 724  12   5.526268   0.242935   4.333790   0.000074   0.007657   0.009625
 725  10   5.429943   0.309707   5.637439   0.000079   0.007657   0.010260
 726  10   1.380545   0.896926  10.022135  -0.000095   0.009701  -0.009825
 727  14   1.121965   0.647340   9.761371  -0.000121   0.009701  -0.012441
 728  20   1.472877   1.087867  10.227625  -0.000138   0.009701  -0.014176
 729  10   0.452882   1.937440   9.900282  -0.000120   0.009701  -0.012355
 730  14   0.205628   1.675152   9.641006  -0.000125   0.009701  -0.012884
 731  20   0.628582   2.034872  10.116722  -0.000134   0.009701  -0.013840
 732  14  -0.284456   1.903922   9.300839  -0.000600   0.191339  -0.003133
 733  14  -0.766211   3.403156   8.107203   0.001355   0.390694   0.003468
 734  14  -0.288714   4.628038   6.094619   0.003192   0.390694   0.008169
 735  10  -0.120667   2.876305   9.203235  -0.000650   0.390694  -0.001663
 736  10  -0.300535   4.530099   7.467883   0.002681   0.390694   0.006863
 737  10   0.410753   5.250906   5.771103   0.001522   0.191339   0.007953
 738  14   4.729981  -0.415188   6.063051   0.001578   0.191335   0.008250
 739  14   3.737327  -0.820362   7.722828   0.002707   0.390684   0.006928
 740  14   1.928262  -0.243218   9.196866  -0.000595   0.390684  -0.001524
 741  10   4.771818  -0.226885   7.034980   0.003200   0.390684   0.008190
 742  10   3.274037  -0.307313   8.913485   0.001314   0.390684   0.003364
 743  10   1.716440   0.480931   9.839201  -0.000568   0.191335  -0.002968
 744  10   4.675199   1.879087  10.604079  -0.000497   0.063740  -0.007797
 745  16   4.980774   2.538729  11.188934  -0.000860   0.063740  -0.013499
 746  20   4.519787   2.000718  10.826456  -0.000609   0.063740  -0.009555
 747  20   1.870246   1.137480  10.527743  -0.000570   0.071750  -0.007938
 748  20   3.041881   1.059526  10.630950  -0.001202   0.162399  -0.007400
 749  20   4.129896   1.506883  10.705478  -0.000507   0.071750  -0.007066
 750  10   2.302454   0.808851  10.252886  -0.001040   0.154269  -0.006744
 751  10   3.871115   1.065293  10.376270  -0.000876   0.154269  -0.005681
 752  20   1.308246   4.672147  10.334825  -0.000614   0.071756  -0.008556
 753  20   0.743999   3.637123  10.329104  -0.001165   0.162417  -0.007174
 754  20   0.690931   2.460283  10.372833  -0.000505   0.071756  -0.007042
 755  10   0.879532   4.421126   9.983297  -0.000855   0.154279  -0.005540
 756  10   0.450989   2.885640  10.009683  -0.001112   0.154279  -0.007210
 757  11   4.127770   5.613435  -0.794215  -0.000404   0.064974  -0.006219
 758  12   3.488448   5.104891  -0.864623  -0.000292   0.064974  -0.004489
 759  22   3.541986   4.887043  -1.063013  -0.000481   0.064974  -0.007400
 760  11   6.684537   2.745460  -0.458194  -0.000402   0.064974  -0.006184
 761  12   6.113886   2.159886  -0.519577  -0.000300   0.064974  -0.004617
 762  22   5.928509   2.210034  -0.749367  -0.000508   0.064974  -0.007812
 763  12   2.626790   6.169553   0.546069   0.000503   0.317220   0.001585
 764  12   3.203323   5.535394  -0.547046  -0.000177   0.317220  -0.000558
 765  11   3.808961   6.608221   0.032537  -0.000390   0.636401  -0.000613
 766  12   6.467089   1.874364  -0.118168  -0.000214   0.317172  -0.000676
 767  12   6.896211   1.380465   1.106906   0.000585   0.317172   0.001845
 768  11   7.531170   2.432950   0.521556  -0.000446   0.636304  -0.000700
 769  11   9.207350   7.185452  -0.536524  -0.000154   0.010550  -0.014575
 770  19   9.638205   7.657780  -0.184619  -0.000184   0.010550  -0.017435
 771  21   9.033132   7.047439  -0.733786  -0.000162   0.010550  -0.015401
 772  11   6.998282   3.095436  -0.612535  -0.000467   0.084658  -0.005515
 773  21   6.976440   3.279656  -0.849674  -0.000619   0.084658  -0.007310
 774  22   6.162384   2.643161  -0.809734  -0.000608   0.084658  -0.007182
 775  11   4.528111   5.865975  -0.936704  -0.000473   0.084658  -0.005582
 776  21   4.734453   5.794264  -1.143898  -0.000664   0.084658  -0.007846
 777  22   4.003839   5.064181  -1.093008  -0.000609   0.084658  -0.007190
 778  21   5.094638   6.431259  -1.282000  -0.000446   0.068887  -0.006481
 779  21   5.846733   7.270038  -1.294808  -0.000946   0.153868  -0.006149
 780  21   7.149378   7.660934  -1.246607  -0.001032   0.153868  -0.006707
 781  21   8.235850   7.373871  -1.165768  -0.000574   0.068887  -0.008329
 782  11   5.134365   6.947334  -0.985174  -0.000764   0.150046  -0.005092
 783  11   6.374367   7.841071  -0.973867  -0.000656   0.150046  -0.004370
 784  11   7.898867   7.776904  -0.882882  -0.001103   0.150046  -0.007353
 785  21   8.959683   6.562168  -1.070787  -0.000571   0.068894  -0.008281
 786  21   9.120805   5.450067  -0.987908  -0.001029   0.153887  -0.006688
 787  21   8.583481   4.200713  -0.935668  -0.000958   0.153887  -0.006223
 788  21   7.663997   3.549512  -0.944817  -0.000398   0.068894  -0.005782
 789  11   9.283715   6.223894  -0.701159  -0.001022   0.150058  -0.006813
 790  11   9.173270   4.702132  -0.606577  -0.000666   0.150058  -0.004438
 791  11   8.143409   3.572519  -0.590295  -0.000767   0.150058  -0.005114
 792  12   5.165544   0.047189   4.292245   0.000422   0.047927   0.008795
 793  13   4.890012  -0.219648   4.519679   0.000472   0.047927   0.009849
 794  14   4.825775  -0.174937   4.970818   0.000417   0.047927   0.008709
 795  12   0.734980   5.017046   3.710207   0.000436   0.047927   0.009095
 796  13   0.412283   4.803115   3.931445   0.000484   0.047927   0.010109
 797  14   0.396496   4.793478   4.388949   0.000415   0.047927   0.008659
 798  13   0.162856   4.735179   3.248444   0.001653   0.203146   0.008139
 799  13  -0.291637   3.741434   1.476383   0.002871   0.416932   0.006886
 800  13   0.249854   1.770733  -0.005099  -0.001039   0.416932  -0.002491
 801  12   0.381232   4.746509   2.246845   0.003601   0.416932   0.008636
 802  12   0.249351   3.177374   0.274007   0.001214   0.416932   0.002912
 803  12   1.018248   1.454058  -0.605353  -0.000801   0.203146  -0.003942
 804  13   1.750538  -0.206958  -0.143172  -0.000692   0.203137  -0.003406
 805  13   3.254855  -1.033513   1.034864   0.001239   0.416911   0.002971
 806  13   4.589956  -0.814100   3.165717   0.003604   0.416911   0.008646
 807  12   2.770430  -0.216948  -0.039827  -0.001074   0.416911  -0.002576
 808  12   4.476633  -0.767522   1.736943   0.002867   0.416911   0.006876
 809  12   5.306729  -0.195156   3.558281   0.001669   0.203137   0.008217
 810  22   1.688055   1.556615  -1.238466  -0.000536   0.068286  -0.007847
 811  22   1.536411   2.662402  -1.307011  -0.001017   0.152279  -0.006678
 812  22   2.073011   3.902246  -1.332181  -0.000933   0.152279  -0.006127
 813  22   2.983715   4.550314  -1.299240  -0.000366   0.068286  -0.005361
 814  12   1.325334   1.933098  -0.956074  -0.001015   0.148960  -0.006811
 815  12   1.443355   3.444678  -1.025979  -0.000668   0.148960  -0.004487
 816  12   2.465205   4.566837  -1.009541  -0.000716   0.148960  -0.004809
 817  22   5.556222   1.664692  -0.961152  -0.000415   0.068284  -0.006084
 818  22   4.810848   0.831201  -0.972365  -0.000911   0.152275  -0.005980
 819  22   3.520637   0.436713  -1.046238  -0.001010   0.152275  -0.006633
 820  22   2.440898   0.712166  -1.139526  -0.000527   0.068284  -0.007711
 821  12   5.476275   1.189286  -0.613815  -0.000698   0.148958  -0.004687
 822  12   4.248143   0.298553  -0.657365  -0.000652   0.148958  -0.004377
 823  12   2.735538   0.351292  -0.770742  -0.001083   0.148958  -0.007271
 824  13  -1.458094  -0.829634   4.087508  -0.000099   0.005921  -0.016676
 825  14  -1.454668  -0.780609   4.541912  -0.000076   0.005921  -0.012794
 826  23  -1.468655  -0.922442   3.805797  -0.000106   0.005921  -0.017849
 827  13  -0.908561  -1.446225   4.159708  -0.000095   0.005921  -0.016102
 828  14  -0.912270  -1.389193   4.613175  -0.000090   0.005921  -0.015151
 829  23  -0.968818  -1.483272   3.871468  -0.000068   0.005921  -0.011444
 830  14  -0.499718  -1.701487   5.005691  -0.000729   0.205528  -0.003547
 831  14   1.497674  -2.153579   5.169550   0.000157   0.420694   0.000373
 832  14   3.820067  -1.254108   5.281551   0.002817   0.420694   0.006696
 833  13   0.299135  -1.968109   4.417369  -0.001466   0.420694  -0.003484
 834  13   2.786148  -1.953274   4.589562   0.001637   0.420694   0.003892
 835  13   4.484539  -0.798585   4.644093   0.001379   0.205528   0.006710
 836  14  -0.267350   4.516842   4.679247   0.001388   0.205498   0.006752
 837  14  -1.605042   2.957928   4.672080   0.001652   0.420626   0.003927
 838  14  -1.901270   0.485595   4.787690  -0.001371   0.420626  -0.003258
 839  13  -0.779550   3.920652   4.017878   0.002827   0.420626   0.006721
 840  13  -1.934696   1.712151   4.059201   0.000133   0.420626   0.000317
 841  13  -1.712327  -0.325963   4.186963  -0.000734   0.205498  -0.003570
 842  13   1.218346   0.262895  -0.312046  -0.000082   0.005977  -0.013782
 843  22   1.703538   0.678726  -0.680702  -0.000131   0.005977  -0.021849
 844  23   0.992284   0.094833  -0.220313  -0.000107   0.005977  -0.017904
 845  13   1.000992   0.506757  -0.340586  -0.000082   0.005977  -0.013665
 846  22   1.512336   0.893247  -0.705808  -0.000125   0.005977  -0.020867
 847  23   0.797301   0.313597  -0.245915  -0.000091   0.005977  -0.015238
 848  22   2.066290   0.824800  -1.062666  -0.000270   0.030462  -0.008851
 849  13   1.354517   0.256121  -0.442345  -0.000157   0.043010  -0.003647
 850  22   1.763766   1.160651  -1.103826  -0.000269   0.030302  -0.008887
 851  13   1.008709   0.647236  -0.486492  -0.000154   0.042784  -0.003590
 852  23  -1.675604  -0.821937   3.389805  -0.000451   0.066079  -0.006820
 853  23  -1.999633   0.015860   2.778667  -0.000954   0.146461  -0.006512
 854  23  -1.852501   0.761559   1.706033  -0.000712   0.146461  -0.004865
 855  23  -1.118554   0.918702   0.626733  -0.000809   0.146461  -0.005522
 856  23  -0.091155   0.424478  -0.027830  -0.001053   0.146461  -0.007190
 857  13  -1.801861  -0.266035   3.521638  -0.000972   0.144991  -0.006707
 858  13  -2.009911   0.789071   2.509182  -0.000621   0.144991  -0.004283
 859  13  -1.488202   1.323667   1.234966  -0.000557   0.144991  -0.003840
 860  13  -0.445263   1.124073   0.208301  -0.000801   0.144991  -0.005526
 861  13   0.500073   0.518361  -0.212983  -0.000584   0.080730  -0.007231
 862  23   0.790751  -0.429524  -0.074438  -0.000516   0.066082  -0.007810
 863  23   1.193146  -1.284372   0.462019  -0.000849   0.146468  -0.005799
 864  23   1.150233  -2.100111   1.492121  -0.000819   0.146468  -0.005590
 865  23   0.493879  -2.360538   2.601065  -0.000746   0.146468  -0.005096
 866  23  -0.513547  -1.961553   3.345567  -0.001018   0.146468  -0.006951
 867  13   1.336047  -0.573525   0.081368  -0.000949   0.144995  -0.006545
 868  13   1.658620  -1.675303   1.010768  -0.000603   0.144995  -0.004156
 869  13   1.244564  -2.312531   2.277358  -0.000610   0.144995  -0.004204
 870  13   0.259393  -2.230487   3.374836  -0.000788   0.144995  -0.005432
 871  13  -0.686298  -1.701977   3.889111  -0.000496   0.080733  -0.006139
 872  14   0.037518   1.365998   9.503159  -0.000202   0.021012  -0.009595
 873  20   0.515696   1.745793   9.902720  -0.000204   0.021012  -0.009692
 874  24  -0.124306   1.131806   9.419376  -0.000249   0.021012  -0.011834
 875  14   0.812848   0.496384   9.604985  -0.000202   0.021012  -0.009609
 876  20   1.199015   0.979378   9.992462  -0.000221   0.021012  -0.010522
 877  24   0.572049   0.350771   9.510830  -0.000208   0.021012  -0.009893
 878  20   0.708063   2.062563  10.285121  -0.000117   0.014257  -0.008223
 879  14   0.047054   1.498648   9.626304  -0.000036   0.020145  -0.001783
 880  20   1.478481   1.194038  10.388474  -0.000147   0.014232  -0.010318
 881  14   0.941365   0.499570   9.741797  -0.000044   0.020110  -0.002168
 882  23  -1.228323  -1.334967   3.687463  -0.000964   0.154759  -0.006231
 883  14  -1.322947  -1.088910   4.781462  -0.000532   0.218172  -0.002437
 884  24  -0.677343   0.988393   9.212055  -0.000508   0.065784  -0.007723
 885  24  -1.447986   1.338772   8.539448  -0.000864   0.145633  -0.005935
 886  24  -2.135382   1.197420   7.434910  -0.000834   0.145633  -0.005724
 887  24  -2.284876   0.435329   6.381645  -0.000850   0.145633  -0.005835
 888  24  -1.837343  -0.646097   5.796215  -0.001039   0.145633  -0.007134
 889  24  -0.969780  -1.619160   5.910154  -0.001068   0.145633  -0.007333
 890  24  -0.025305  -2.099017   6.678400  -0.000876   0.145633  -0.006018
 891  24   0.622546  -1.895887   7.797116  -0.000729   0.145633  -0.005008
 892  24   0.717552  -1.090107   8.823854  -0.000871   0.145633  -0.005979
 893  24   0.387686  -0.206149   9.351928  -0.000450   0.065784  -0.006845
 894  14  -0.785966   1.514600   8.983381  -0.000907   0.144513  -0.006278
 895  14  -1.757016   1.747735   7.904223  -0.000596   0.144513  -0.004121
 896  14  -2.252290   1.213076   6.627229  -0.000571   0.144513  -0.003954
 897  14  -2.075909   0.122077   5.657444  -0.000853   0.144513  -0.005904
 898  14  -1.297632  -1.093776   5.378414  -0.001159   0.144513  -0.008018
 899  14  -0.225263  -1.953618   5.900494  -0.000859   0.144513  -0.005946
 900  14   0.717081  -2.117386   7.017204  -0.000538   0.144513  -0.003726
 901  14   1.156706  -1.520310   8.286889  -0.000570   0.144513  -0.003946
 902  14   0.919743  -0.398531   9.207396  -0.000982   0.144513  -0.006798
 903  16   5.193801   5.532438  13.745026  -0.001426   0.350151  -0.004072
 904  15   5.948526   6.568622  14.439181  -0.001240   0.350151  -0.003542
 905  20   4.289841   2.044640  11.187302  -0.001305   0.188455  -0.006924
 906  20   3.414448   2.500746  11.706305  -0.004157   0.377310  -0.011019
 907  20   2.429954   3.442566  11.773038  -0.004420   0.377310  -0.011715
 908  20   1.890086   4.519812  11.133672  -0.003777   0.377310  -0.010010
 909  16   4.656546   2.889351  11.977067  -0.003778   0.377310  -0.010014
 910  16   3.586103   3.618491  12.405101  -0.004420   0.377310  -0.011714
 911  16   2.784467   4.680283  12.103963  -0.004157   0.377310  -0.011018
 912  16   2.500659   5.524523  11.432830  -0.001307   0.188455  -0.006933
 913  18  12.810376  11.831605   8.000044  -0.000114   0.099016  -0.001152
 914  17  12.767091  11.886256   9.469814  -0.000092   0.099016  -0.000925
 915  19  10.349584  11.023212   2.897886  -0.000932   0.267043  -0.003489
 916  19  11.434289  10.460020   2.749160  -0.003430   0.534239  -0.006420
 917  19  12.220112   9.217559   3.013540  -0.003162   0.534239  -0.005919
 918  18  11.249159  11.405733   4.102364  -0.003110   0.534239  -0.005822
 919  18  12.409447  10.465101   4.094094  -0.003350   0.534239  -0.006270
 920  18  12.816074   9.355359   4.439081  -0.000947   0.267043  -0.003547
 921  21   8.841605   7.270320  -0.987728  -0.000472   0.175280  -0.002695
 922  19   9.806776   8.076875  -0.244891  -0.000472   0.175280  -0.002692
 923  24   0.142410   0.542083   9.587629  -0.001241   0.350193  -0.003542
 924  20   0.883311   1.569060  10.309777  -0.001426   0.350193  -0.004073
 925  22   3.796386   4.657028  -1.577017  -0.000946   0.267042  -0.003544
 926  22   4.573709   3.790420  -1.977799  -0.003350   0.534238  -0.006270
 927  22   5.529422   2.715603  -1.574713  -0.003108   0.534238  -0.005818
 928  21   5.188961   5.317216  -1.753771  -0.003164   0.534238  -0.005923
 929  21   6.179555   4.209058  -1.901436  -0.003430   0.534238  -0.006420
 930  21   6.893714   3.402824  -1.304922  -0.000933   0.267042  -0.003495
 931  23   0.737329   0.088784  -0.357505  -0.000091   0.098914  -0.000924
 932  22   1.776550   0.853286  -1.065046  -0.000114   0.098914  -0.001150
 =====================================================

              8770055  WORDS OF DYNAMIC MEMORY USED
 EXECUTION OF GAMESS TERMINATED NORMALLY Fri Nov 25 10:13:27 2016
 DDI: 263640 bytes (0.3 MB / 0 MWords) used by master data server.

 ----------------------------------------
 CPU timing information for all processes
 ========================================
 0: 1543.24 + 0.792 = 1543.816
 ----------------------------------------
 ddikick.x: exited gracefully.
