----- GAMESS execution script -----

          ******************************************************
          *         GAMESS VERSION =  5 DEC 2014 (R1)          *
          *             FROM IOWA STATE UNIVERSITY             *
          * M.W.SCHMIDT, K.K.BALDRIDGE, J.A.BOATZ, S.T.ELBERT, *
          *   M.S.GORDON, J.H.JENSEN, S.KOSEKI, N.MATSUNAGA,   *
          *          K.A.NGUYEN, S.J.SU, T.L.WINDUS,           *
          *       TOGETHER WITH M.DUPUIS, J.A.MONTGOMERY       *
          *         J.COMPUT.CHEM.  14, 1347-1363(1993)        *
          **************** 64 BIT LINUX VERSION ****************

 EXECUTION OF GAMESS BEGUN Fri Nov 25 10:03:47 2016

            ECHO OF THE FIRST FEW INPUT CARDS -
 INPUT CARD>! SELECT RESTRICTED HARTREE-FOCK AS DEFAULT                                     
 INPUT CARD>$contrl scftyp=rhf $end                                                         
 INPUT CARD>                                                                                
 INPUT CARD>! THEORY: HF OR DFT                                                             
 INPUT CARD> $contrl mplevl=0 $end                                                          
 INPUT CARD>                                                                                
 INPUT CARD> $system timlim=10000 mwords=20 $end                                            
 INPUT CARD> $SCF DIRSCF=.TRUE. $end                                                        
 INPUT CARD>                                                                                
 INPUT CARD>                                                                                
 INPUT CARD>! BASIS SETS                                                                    
 INPUT CARD>! 6-311G(d,p)                                                                   
 INPUT CARD> $BASIS GBASIS=N311 NGAUSS=6 NDFUNC=1 NPFUNC=1 $END                             
 INPUT CARD>                                                                                
 INPUT CARD>! One of the following                                                          
 INPUT CARD> $guess guess=HUCKEL $end                                                       
 INPUT CARD>                                                                                
 INPUT CARD> $statpt projct=.FALSE. $end                                                    
 INPUT CARD> $STATPT IFREEZ(1)=1,2,3 $END                                                   
 INPUT CARD>                                                                                
 INPUT CARD>! Optimize the geometry with COSMO effects                                      
 INPUT CARD> $statpt opttol=0.0005 nstep=50 $end                                            
 INPUT CARD> $contrl nzvar=1 $end                                                           
 INPUT CARD> $zmat dlc=.t. auto=.t. $end                                                    
 INPUT CARD> $contrl runtyp=OPTIMIZE maxit=200 $end                                         
 INPUT CARD>                                                                                
 INPUT CARD>! Run COSMO on perfect conductor                                                
 INPUT CARD> $COSGMS PRFCND=.TRUE. $end                                                     
 INPUT CARD>                                                                                
 INPUT CARD>! Specifying RSOLV                                                              
 INPUT CARD> $COSGMS COSRAD = 1.4 $end                                                      
 INPUT CARD>                                                                                
 INPUT CARD>! available memory                                                              
 INPUT CARD> $SYSTEM MWORDS=40 $END                                                         
 INPUT CARD>                                                                                
 INPUT CARD> $DATA                                                                          
 INPUT CARD>Phenol, ID: C108952                                                             
 INPUT CARD>C1                                                                              
 INPUT CARD>O      8.0      0.3792000000    2.3991000000    0.0767000000                    
 INPUT CARD>C      6.0      1.7410000000    2.2635000000    0.0604000000                    
 INPUT CARD>C      6.0      2.4822000000    3.4537000000    0.0746000000                    
 INPUT CARD>C      6.0      2.3800000000    1.0169000000    0.0335000000                    
 INPUT CARD>C      6.0      3.8685000000    3.3780000000    0.0622000000                    
 INPUT CARD>C      6.0      3.7689000000    0.9695000000    0.0214000000                    
 INPUT CARD>C      6.0      4.5128000000    2.1443000000    0.0358000000                    
 INPUT CARD>H      1.0      0.0000000000    1.5292000000    0.0598000000                    
 INPUT CARD>H      1.0      1.9740000000    4.4239000000    0.0950000000                    
 INPUT CARD>H      1.0      1.8001000000    0.0870000000    0.0221000000                    
 INPUT CARD>H      1.0      4.4597000000    4.2998000000    0.0734000000                    
 INPUT CARD>H      1.0      4.2770000000    0.0000000000    0.0000000000                    
   40000000 WORDS OF MEMORY AVAILABLE

     BASIS OPTIONS
     -------------
     GBASIS=N311         IGAUSS=       6      POLAR=POPN311 
     NDFUNC=       1     NFFUNC=       0     DIFFSP=       F
     NPFUNC=       1      DIFFS=       F     BASNAM=        


     RUN TITLE
     ---------
 Phenol, ID: C108952                                                             

 THE POINT GROUP OF THE MOLECULE IS C1      
 THE ORDER OF THE PRINCIPAL AXIS IS     0

 ATOM      ATOMIC                      COORDINATES (BOHR)
           CHARGE         X                   Y                   Z
 O           8.0     0.7165840945        4.5336416171        0.1449419833
 C           6.0     3.2900129446        4.2773947732        0.1141394497
 C           6.0     4.6906778467        6.5265466438        0.1409735587
 C           6.0     4.4975478508        1.9216623569        0.0633058206
 C           6.0     7.3104049835        6.3834943865        0.1175409564
 C           6.0     7.1221882751        1.8320893451        0.0404401361
 C           6.0     8.5279554374        4.0521394355        0.0676521904
 H           1.0     0.0000000000        2.8897689804        0.1130056141
 H           1.0     3.7303190998        8.3599587971        0.1795239688
 H           1.0     3.4016957505        0.1644061609        0.0417629443
 H           1.0     8.4276109874        8.1254438020        0.1387058875
 H           1.0     8.0823580495        0.0000000000        0.0000000000
 H           1.0    10.5943708050        3.9665348482        0.0525343825

          INTERNUCLEAR DISTANCES (ANGS.)




     $CONTRL OPTIONS
     ---------------
 SCFTYP=RHF          RUNTYP=OPTIMIZE     EXETYP=RUN     
 MPLEVL=       0     CITYP =NONE         CCTYP =NONE         VBTYP =NONE    
 DFTTYP=NONE         TDDFT =NONE    
 MULT  =       1     ICHARG=       0     NZVAR =       1     COORD =UNIQUE  
 PP    =NONE         RELWFN=NONE         LOCAL =NONE         NUMGRD=       F
 ISPHER=      -1     NOSYM =       0     MAXIT =     200     UNITS =ANGS    
 PLTORB=       F     MOLPLT=       F     AIMPAC=       F     FRIEND=        
 NPRINT=       7     IREST =       0     GEOM  =INPUT   
 NORMF =       0     NORMP =       0     ITOL  =      20     ICUT  =       9
 INTTYP=BEST         GRDTYP=BEST         QMTTOL= 1.0E-06

     $SYSTEM OPTIONS
     ---------------
  REPLICATED MEMORY=    40000000 WORDS (ON EVERY NODE).
 DISTRIBUTED MEMDDI=           0 MILLION WORDS IN AGGREGATE,
 MEMDDI DISTRIBUTED OVER   1 PROCESSORS IS           0 WORDS/PROCESSOR.
 TOTAL MEMORY REQUESTED ON EACH PROCESSOR=    40000000 WORDS.
 TIMLIM=       10000.00 MINUTES, OR       6.9 DAYS.
 PARALL= F  BALTYP=  DLB     KDIAG=    0  COREFL= F
 MXSEQ2=     300 MXSEQ3=     150  mem10=         0

     $COSGMS OPTIONS
     ---------------
     EPSI  =   INFTY     NSPA  =      92     COSRAD=    1.40
     DISEX =   10.00     OUTCHG=DBLCAV       COSBUG=       F
     COSWRT=       F     DCOSMO=       F

     SYMMETRY COORDINATES WILL NOT BE USED FOR 
     THE COSMO CALCULATION, EVEN IF SPECIFIED:
         -- SWITCHING TO C1 POINT GROUP --


     DEFINITION OF CAVITY
     ---------------------------
     ATOM         COORDINATES           RADIUS 
     1    0.7166    4.5336    0.1449    1.7200
     2    3.2900    4.2774    0.1141    2.0000
     3    4.6907    6.5265    0.1410    2.0000
     4    4.4975    1.9217    0.0633    2.0000
     5    7.3104    6.3835    0.1175    2.0000
     6    7.1222    1.8321    0.0404    2.0000
     7    8.5280    4.0521    0.0677    2.0000
     8    0.0000    2.8898    0.1130    1.3000
     9    3.7303    8.3600    0.1795    1.3000
    10    3.4017    0.1644    0.0418    1.3000
    11    8.4276    8.1254    0.1387    1.3000
    12    8.0824    0.0000    0.0000    1.3000
    13   10.5944    3.9665    0.0525    1.3000

          ----------------
          PROPERTIES INPUT
          ----------------

     MOMENTS            FIELD           POTENTIAL          DENSITY
 IEMOM =       1   IEFLD =       0   IEPOT =       0   IEDEN =       0
 WHERE =COMASS     WHERE =NUCLEI     WHERE =NUCLEI     WHERE =NUCLEI  
 OUTPUT=BOTH       OUTPUT=BOTH       OUTPUT=BOTH       OUTPUT=BOTH    
 IEMINT=       0   IEFINT=       0                     IEDINT=       0
                                                       MORB  =       0
          EXTRAPOLATION IN EFFECT
          SOSCF IN EFFECT
 ORBITAL PRINTING OPTION: NPREO=     1   169     2     1

     -------------------------------
     INTEGRAL TRANSFORMATION OPTIONS
     -------------------------------
     NWORD  =            0
     CUTOFF = 1.0E-09     MPTRAN =       0
     DIRTRF =       T     AOINTS =DUP     

          ----------------------
          INTEGRAL INPUT OPTIONS
          ----------------------
 NOPK  =       1 NORDER=       0 SCHWRZ=       T


 -----------------------------------------------
  STATISTICS ON AUTOMATIC COORDINATE GENERATION 
 -----------------------------------------------
  NUMBER OF USER SPECIFIED BONDS                             0
  NUMBER OF BONDS                                           13
  NUMBER OF ANGLES                                          19
  NUMBER OF TORSIONS                                        26
  NUMBER OF EXTRA COORD.                                     0
  NUMBER OF EXTRA COORD. FOR CONSTRAINTS                     0
  NUMBER OF CONSTRAINED COORD.                               0

  TOTAL NUMBER OF PRIMITIVES                                58
 -----------------------------------------------

   --- ENCODED Z MATRIX ---
 COORD  TYPE   I   J   K   L   M   N
    1      1    1   2
    2      1    1   8
    3      1    2   3
    4      1    2   4
    5      1    3   9
    6      1    3   5
    7      1    4  10
    8      1    4   6
    9      1    5   7
   10      1    5  11
   11      1    6   7
   12      1    6  12
   13      1    7  13
   14      2    1   2   3
   15      2    1   2   4
   16      2    2   3   5
   17      2    2   3   9
   18      2    2   4   6
   19      2    2   1   8
   20      2    2   4  10
   21      2    3   2   4
   22      2    3   5  11
   23      2    3   5   7
   24      2    4   6  12
   25      2    4   6   7
   26      2    5   3   9
   27      2    5   7  13
   28      2    5   7   6
   29      2    6   4  10
   30      2    6   7  13
   31      2    7   5  11
   32      2    7   6  12
   33      3    1   2   3   5
   34      3    1   2   4   6
   35      3    1   2   4  10
   36      3    1   2   3   9
   37      3    2   4   6   7
   38      3    2   3   5  11
   39      3    2   3   5   7
   40      3    2   4   6  12
   41      3    3   5   7  13
   42      3    3   5   7   6
   43      3    3   2   4   6
   44      3    3   2   1   8
   45      3    3   2   4  10
   46      3    4   2   3   9
   47      3    4   6   7  13
   48      3    4   6   7   5
   49      3    4   2   1   8
   50      3    4   2   3   5
   51      3    5   7   6  12
   52      3    6   7   5  11
   53      3    7   5   3   9
   54      3    7   6   4  10
   55      3    9   3   5  11
   56      3   10   4   6  12
   57      3   11   5   7  13
   58      3   12   6   7  13

          INDEP./SYM. INTERNAL COORDINATES
          --------------------------------
 CRD  1=   0.1977 (  1) -0.1280 (  3)  0.2703 (  4)  0.2044 (  8) -0.4808 ( 14)
           0.5760 ( 15)  0.1392 ( 16) -0.1191 ( 17)  0.3881 ( 19)  0.1254 ( 20)
 CRD  2=  -0.4300 (  1) -0.2203 (  2) -0.4151 (  3) -0.2740 (  6)  0.1095 (  9)
           0.1223 ( 11) -0.3293 ( 14) -0.1134 ( 17) -0.1071 ( 18) -0.3360 ( 19)
           0.2840 ( 21) -0.1389 ( 22) -0.1382 ( 25)  0.1664 ( 26)  0.1121 ( 29)
           0.1771 ( 31)  0.1377 ( 32)
 CRD  3=  -0.1206 (  1)  0.1947 (  3)  0.2864 (  4) -0.2931 (  6)  0.1029 (  7)
          -0.1422 (  8) -0.3173 (  9) -0.1128 ( 10) -0.2614 ( 11) -0.2723 ( 13)
          -0.1511 ( 16)  0.3340 ( 17) -0.1553 ( 18) -0.1382 ( 19)  0.2738 ( 20)
           0.1787 ( 24) -0.1829 ( 26) -0.1794 ( 27)  0.2572 ( 28) -0.1185 ( 29)
          -0.1244 ( 31) -0.1283 ( 32)
 CRD  4=   0.1039 (  4)  0.1472 (  5)  0.2678 (  6) -0.1224 (  7) -0.3563 (  8)
           0.2522 (  9) -0.3264 ( 11) -0.1154 ( 14) -0.1430 ( 16) -0.1375 ( 17)
           0.2337 ( 20)  0.2805 ( 26)  0.3217 ( 27) -0.3281 ( 29) -0.3629 ( 30)
 CRD  5=   0.2673 (  3)  0.1659 (  4) -0.1471 (  6) -0.2057 (  8)  0.2724 (  9)
           0.1599 ( 10)  0.3546 ( 11)  0.1918 ( 17)  0.2508 ( 20) -0.2206 ( 22)
          -0.3415 ( 24) -0.2440 ( 26) -0.2166 ( 29)  0.3118 ( 31)  0.3153 ( 32)
 CRD  6=   0.1947 (  4)  0.1775 (  5) -0.1155 (  6) -0.1368 (  7)  0.1988 (  8)
           0.3046 (  9) -0.1870 ( 10) -0.1251 ( 11)  0.2512 ( 12) -0.1978 ( 16)
           0.2603 ( 17)  0.2507 ( 18) -0.2152 ( 20) -0.3787 ( 22)  0.2918 ( 23)
           0.2616 ( 24) -0.2604 ( 25)  0.1539 ( 27) -0.1104 ( 30)
 CRD  7=   0.3983 ( 33) -0.3575 ( 34) -0.2813 ( 35)  0.2466 ( 36) -0.1765 ( 38)
          -0.1412 ( 41) -0.1444 ( 42) -0.2212 ( 43) -0.3890 ( 44) -0.1450 ( 45)
           0.1189 ( 46)  0.1923 ( 47)  0.1954 ( 48) -0.2586 ( 49)  0.2706 ( 50)
 CRD  8=   0.2566 (  3)  0.2514 (  4)  0.2369 (  5)  0.2785 (  6)  0.2554 (  7)
           0.2706 (  8)  0.2315 (  9)  0.2459 ( 10)  0.2378 ( 11)  0.2233 ( 12)
          -0.1179 ( 14) -0.1117 ( 15) -0.1061 ( 16) -0.1325 ( 18)  0.2296 ( 21)
           0.2003 ( 22) -0.1269 ( 23)  0.1851 ( 24)  0.1807 ( 26) -0.1118 ( 27)
           0.2330 ( 28)  0.1855 ( 29) -0.1212 ( 30)
 CRD  9=   0.1122 (  4)  0.1580 (  5)  0.1543 (  6) -0.1405 (  7) -0.1130 (  8)
          -0.1194 (  9) -0.1333 ( 10)  0.1555 ( 11)  0.1493 ( 12) -0.1992 ( 16)
           0.2093 ( 18)  0.1662 ( 22)  0.2037 ( 23) -0.1775 ( 24) -0.1934 ( 25)
           0.2100 ( 26) -0.3326 ( 27) -0.2233 ( 29)  0.3430 ( 30) -0.3699 ( 31)
           0.3708 ( 32)
 CRD 10=  -0.1411 (  1) -0.1318 (  2)  0.2032 (  4)  0.1577 (  5)  0.1636 (  6)
           0.2940 (  7)  0.1876 (  8) -0.1916 ( 10) -0.2149 ( 12)  0.3959 ( 13)
          -0.1260 ( 18) -0.3688 ( 19)  0.1930 ( 20) -0.1011 ( 22)  0.2187 ( 23)
          -0.1109 ( 24)  0.2628 ( 25)  0.1414 ( 27) -0.2934 ( 28)  0.1520 ( 30)
          -0.1176 ( 31) -0.1519 ( 32)
 CRD 11=  -0.1353 ( 33) -0.2075 ( 34) -0.1308 ( 35)  0.3473 ( 37)  0.2745 ( 38)
           0.3448 ( 39)  0.2885 ( 40) -0.2115 ( 41) -0.2227 ( 42) -0.2211 ( 43)
          -0.1444 ( 45) -0.1418 ( 47) -0.1306 ( 48) -0.1225 ( 50) -0.1523 ( 52)
           0.2814 ( 53)  0.2714 ( 54)  0.2111 ( 55)  0.2126 ( 56) -0.1410 ( 57)
 CRD 12=   0.1208 (  1) -0.1181 (  2)  0.2213 (  4) -0.3529 (  5)  0.1566 (  8)
           0.2363 ( 10)  0.2693 ( 12)  0.1646 ( 14)  0.2396 ( 16) -0.1378 ( 17)
           0.1372 ( 18) -0.5529 ( 19) -0.2564 ( 21) -0.1018 ( 26) -0.2348 ( 29)
 CRD 13=  -0.1093 ( 33)  0.1502 ( 34)  0.1980 ( 38) -0.2299 ( 40) -0.2385 ( 42)
          -0.1003 ( 43)  0.3442 ( 44) -0.2250 ( 45)  0.2884 ( 46)  0.2638 ( 48)
           0.1047 ( 49)  0.1253 ( 50)  0.3990 ( 51) -0.3924 ( 52) -0.1192 ( 53)
          -0.1063 ( 56) -0.2117 ( 57)  0.2183 ( 58)
 CRD 14=   0.2045 ( 35) -0.1709 ( 36) -0.1041 ( 37)  0.1032 ( 39) -0.3806 ( 41)
          -0.1483 ( 42)  0.3091 ( 45) -0.2689 ( 46)  0.3806 ( 47)  0.1483 ( 48)
           0.1902 ( 49)  0.3131 ( 53) -0.3504 ( 54)  0.1267 ( 55) -0.1537 ( 56)
          -0.1938 ( 57)  0.1831 ( 58)
 CRD 15=   0.2702 (  1)  0.3683 (  2) -0.1425 (  3)  0.1825 (  4) -0.2225 (  5)
          -0.1366 (  6)  0.4564 (  7) -0.3854 ( 10) -0.1593 ( 13)  0.1437 ( 14)
          -0.1884 ( 15) -0.2843 ( 17)  0.1103 ( 20)  0.2875 ( 26)
 CRD 16=  -0.2696 (  1) -0.3664 (  5) -0.1218 (  6) -0.1597 ( 10)  0.1250 ( 11)
           0.4339 ( 12)  0.4579 ( 13)  0.2109 ( 19)  0.1588 ( 20)  0.2688 ( 22)
           0.1820 ( 27) -0.1185 ( 29) -0.1828 ( 30) -0.2469 ( 31)
 CRD 17=   0.3614 (  2) -0.1152 (  3)  0.1307 (  4) -0.1275 (  6) -0.1925 (  7)
          -0.1533 (  8)  0.1457 (  9)  0.2596 ( 10) -0.2686 ( 12)  0.3563 ( 13)
          -0.1256 ( 15)  0.1672 ( 20)  0.3243 ( 24)  0.1470 ( 26) -0.2976 ( 27)
          -0.1456 ( 29)  0.2589 ( 30) -0.2747 ( 32)
 CRD 18=  -0.1098 (  1)  0.1626 (  3) -0.2332 (  4)  0.3755 (  5) -0.2645 (  7)
          -0.2399 (  9) -0.2560 ( 10)  0.1696 ( 11)  0.3603 ( 12) -0.1077 ( 13)
           0.1048 ( 16) -0.2276 ( 17)  0.2644 ( 20) -0.1897 ( 22)  0.1242 ( 24)
           0.1036 ( 25)  0.1228 ( 26) -0.1888 ( 29)  0.2632 ( 31) -0.2278 ( 32)
 CRD 19=   0.1510 ( 33) -0.1596 ( 34)  0.1805 ( 36)  0.1099 ( 37) -0.2081 ( 38)
           0.2779 ( 40) -0.1823 ( 43)  0.5104 ( 44)  0.2018 ( 46)  0.4887 ( 49)
           0.1723 ( 50) -0.1992 ( 51)  0.1388 ( 52) -0.1202 ( 53) -0.2377 ( 55)
           0.1351 ( 56) -0.1115 ( 58)
 CRD 20=  -0.4426 (  1)  0.2306 (  2) -0.2626 (  3) -0.1086 (  4)  0.1882 (  6)
           0.3428 (  7)  0.2148 (  8)  0.3769 ( 10) -0.2231 ( 11)  0.1480 ( 12)
          -0.2289 ( 13)  0.2434 ( 19)  0.1288 ( 20) -0.1081 ( 22) -0.1150 ( 28)
          -0.2015 ( 29)  0.1385 ( 30)
 CRD 21=  -0.7248 (  2)  0.1005 (  3) -0.2396 (  5)  0.1656 (  7)  0.1208 (  9)
           0.2198 ( 14) -0.2136 ( 15) -0.1019 ( 17)  0.3151 ( 19) -0.1162 ( 22)
           0.1180 ( 24)  0.1654 ( 26) -0.1572 ( 27) -0.1358 ( 29)  0.1460 ( 30)
 CRD 22=  -0.3803 (  1)  0.1628 (  2)  0.1919 (  3)  0.1832 (  4) -0.3509 (  5)
           0.2137 (  6) -0.3208 (  7)  0.2352 (  8)  0.2263 (  9) -0.3161 ( 10)
           0.1940 ( 11) -0.3301 ( 12) -0.3538 ( 13)
 CRD 23=  -0.3850 (  3)  0.3220 (  4)  0.3980 (  6) -0.3704 (  8) -0.3262 (  9)
           0.3872 ( 11) -0.1108 ( 15)  0.1579 ( 17)  0.1314 ( 19) -0.1067 ( 22)
           0.1393 ( 24) -0.1398 ( 26)  0.1161 ( 27)  0.1060 ( 31) -0.1485 ( 32)
 CRD 24=  -0.1397 (  1)  0.1263 (  2)  0.2938 (  3) -0.2617 (  5)  0.2972 (  6)
           0.1574 (  7) -0.3064 (  8) -0.1498 ( 10) -0.2836 ( 11)  0.2606 ( 12)
           0.1552 ( 13) -0.1502 ( 14)  0.2351 ( 15) -0.1119 ( 16) -0.1029 ( 19)
          -0.2460 ( 20) -0.1656 ( 22)  0.1133 ( 25) -0.2367 ( 27)  0.1644 ( 29)
           0.1579 ( 30)  0.2426 ( 31)
 CRD 25=  -0.2552 (  1)  0.1361 (  3)  0.3709 (  4) -0.1225 (  6) -0.2509 (  7)
           0.1430 (  8) -0.3749 (  9)  0.2542 ( 10) -0.1324 ( 11)  0.2201 ( 13)
           0.1610 ( 14) -0.2091 ( 17) -0.1215 ( 18)  0.1214 ( 19) -0.1969 ( 22)
           0.1318 ( 23) -0.2247 ( 24)  0.2318 ( 26)  0.1828 ( 29) -0.1761 ( 30)
           0.2142 ( 32)
 CRD 26=   0.2029 ( 33) -0.2225 ( 34)  0.1035 ( 35)  0.2820 ( 36)  0.3250 ( 38)
           0.2470 ( 41)  0.3337 ( 45) -0.2523 ( 47)  0.1610 ( 49) -0.3151 ( 52)
          -0.3197 ( 54)  0.2456 ( 55) -0.2696 ( 56) -0.3026 ( 58)
 CRD 27=   0.2788 (  1) -0.2658 (  5) -0.2464 (  7)  0.2347 ( 10)  0.2808 ( 12)
          -0.2588 ( 13) -0.1416 ( 14) -0.1127 ( 15) -0.2565 ( 16)  0.1354 ( 17)
          -0.2504 ( 18)  0.1204 ( 20)  0.2543 ( 21) -0.1201 ( 22)  0.2393 ( 23)
          -0.1322 ( 24)  0.2675 ( 25)  0.1211 ( 26)  0.1011 ( 27) -0.2543 ( 28)
           0.1300 ( 29)  0.1531 ( 30) -0.1193 ( 31) -0.1353 ( 32)
 CRD 28=   0.1790 ( 33) -0.2119 ( 34) -0.2521 ( 35) -0.1354 ( 36) -0.1385 ( 38)
          -0.2809 ( 40)  0.1979 ( 41)  0.1522 ( 44) -0.2830 ( 46) -0.2214 ( 47)
           0.3029 ( 49)  0.3195 ( 51)  0.1239 ( 52)  0.3223 ( 53)  0.1770 ( 55)
          -0.2411 ( 56)  0.3436 ( 57)
 CRD 29=   0.1456 (  1) -0.3387 (  3)  0.2635 (  6) -0.2174 (  7)  0.2635 (  8)
          -0.2283 ( 10) -0.3586 ( 11)  0.1732 ( 13) -0.1903 ( 15)  0.1409 ( 17)
          -0.2239 ( 18)  0.1569 ( 20)  0.1672 ( 21) -0.2374 ( 23) -0.1994 ( 24)
          -0.2006 ( 26) -0.2139 ( 27)  0.1789 ( 28)  0.1687 ( 31)  0.1439 ( 32)
 CRD 30=  -0.1855 (  1) -0.1048 (  3)  0.3560 (  4)  0.2201 (  5) -0.2491 (  6)
          -0.2522 (  8)  0.3497 (  9)  0.2222 ( 12) -0.1582 ( 13)  0.1931 ( 14)
           0.2298 ( 16) -0.1553 ( 17) -0.1370 ( 20) -0.1672 ( 21)  0.1976 ( 22)
           0.2320 ( 25) -0.1645 ( 28)  0.2013 ( 29)  0.2073 ( 30) -0.1317 ( 31)
          -0.1576 ( 32)
 CRD 31=  -0.1805 ( 34)  0.3248 ( 36)  0.2451 ( 37)  0.2337 ( 39) -0.1597 ( 40)
          -0.2103 ( 41) -0.1211 ( 44)  0.1933 ( 45)  0.1337 ( 46) -0.2738 ( 48)
          -0.2609 ( 50)  0.1325 ( 51)  0.1993 ( 52) -0.1623 ( 53) -0.3315 ( 55)
          -0.3278 ( 56)  0.3726 ( 58)
 CRD 32=   0.1833 ( 33) -0.3720 ( 35)  0.1104 ( 36) -0.1326 ( 37)  0.1782 ( 38)
          -0.1920 ( 39) -0.1370 ( 40)  0.3146 ( 42)  0.2551 ( 43) -0.1667 ( 46)
           0.1895 ( 47) -0.1485 ( 48)  0.2739 ( 49) -0.1441 ( 51) -0.1187 ( 53)
           0.1955 ( 54)  0.2514 ( 55)  0.1911 ( 56) -0.3944 ( 57)  0.1939 ( 58)
 CRD 33=   0.2779 ( 35) -0.2428 ( 36)  0.3113 ( 37) -0.2979 ( 39)  0.2923 ( 42)
          -0.3227 ( 43) -0.2980 ( 48) -0.1943 ( 49)  0.3152 ( 50)  0.2466 ( 55)
          -0.2621 ( 56) -0.2378 ( 57)  0.2417 ( 58)

 THE DETERMINANT OF THE G MATRIX IS 10**(   -14)


                     --------------------
                     INTERNAL COORDINATES
                     --------------------

                 - - ATOMS - -         COORDINATE      COORDINATE
 NO.   TYPE    I  J  K  L  M  N        (BOHR,RAD)       (ANG,DEG)
 ----------------------------------------------------------------
   1 STRETCH   1  2                     2.5863386       1.3686315
   2 STRETCH   1  8                     1.7935523       0.9491071
   3 STRETCH   2  3                     2.6497672       1.4021965
   4 STRETCH   2  4                     2.6476782       1.4010911
   5 STRETCH   3  9                     2.0700665       1.0954321
   6 STRETCH   3  5                     2.6237346       1.3884207
   7 STRETCH   4 10                     2.0710638       1.0959598
   8 STRETCH   4  6                     2.6262680       1.3897613
   9 STRETCH   5  7                     2.6306147       1.3920615
  10 STRETCH   5 11                     2.0695374       1.0951521
  11 STRETCH   6  7                     2.6278402       1.3905933
  12 STRETCH   6 12                     2.0688433       1.0947848
  13 STRETCH   7 13                     2.0682430       1.0944671
  14 BEND      1  2  3                  2.0283362     116.2151054
  15 BEND      1  2  4                  2.1438229     122.8320047
  16 BEND      2  3  5                  2.0730729     118.7783293
  17 BEND      2  3  9                  2.1021846     120.4463041
  18 BEND      2  4  6                  2.0786506     119.0979083
  19 BEND      2  1  8                  1.8823296     107.8495390
  20 BEND      2  4 10                  2.1104074     120.9174391
  21 BEND      3  2  4                  2.1110244     120.9527903
  22 BEND      3  5 11                  2.0863605     119.5396539
  23 BEND      3  5  7                  2.1067033     120.7052088
  24 BEND      4  6 12                  2.0877055     119.6167165
  25 BEND      4  6  7                  2.1010080     120.3788910
  26 BEND      5  3  9                  2.1079278     120.7753663
  27 BEND      5  7 13                  2.0935291     119.9503823
  28 BEND      5  7  6                  2.0959112     120.0868647
  29 BEND      6  4 10                  2.0941272     119.9846523
  30 BEND      6  7 13                  2.0937440     119.9626963
  31 BEND      7  5 11                  2.0901214     119.7551372
  32 BEND      7  6 12                  2.0944717     120.0043880
  33 TORSION   1  2  3  5               3.1390825     179.8561780
  34 TORSION   1  2  4  6              -3.1390855    -179.8563528
  35 TORSION   1  2  4 10               0.0024121       0.1382012
  36 TORSION   1  2  3  9              -0.0026130      -0.1497136
  37 TORSION   2  4  6  7              -0.0000198      -0.0011323
  38 TORSION   2  3  5 11              -3.1412361    -179.9795734
  39 TORSION   2  3  5  7               0.0002936       0.0168194
  40 TORSION   2  4  6 12              -3.1411840    -179.9765847
  41 TORSION   3  5  7 13              -3.1399765    -179.9074034
  42 TORSION   3  5  7  6               0.0001046       0.0059957
  43 TORSION   3  2  4  6               0.0004272       0.0244794
  44 TORSION   3  2  1  8               3.1362016     179.6911170
  45 TORSION   3  2  4 10              -3.1412605    -179.9809666
  46 TORSION   4  2  3  9               3.1409277     179.9618991
  47 TORSION   4  6  7 13               3.1398366     179.8993872
  48 TORSION   4  6  7  5              -0.0002444      -0.0140011
  49 TORSION   4  2  1  8              -0.0073792      -0.4227973
  50 TORSION   4  2  3  5              -0.0005622      -0.0322093
  51 TORSION   5  7  6 12               3.1409182     179.9613559
  52 TORSION   6  7  5 11              -3.1415511    -179.9976192
  53 TORSION   7  5  3  9              -3.1411959    -179.9772689
  54 TORSION   7  6  4 10              -3.1415183    -179.9957382
  55 TORSION   9  3  5 11               0.0004597       0.0263383
  56 TORSION  10  4  6 12               0.0005028       0.0288095
  57 TORSION  11  5  7 13               0.0015530       0.0889817
  58 TORSION  12  6  7 13              -0.0021861      -0.1252557

     ------------------------------------------
     THE POINT GROUP IS C1 , NAXIS= 1, ORDER= 1
     ------------------------------------------

     DIMENSIONS OF THE SYMMETRY SUBSPACES ARE
 A   =  169

 ..... DONE SETTING UP THE RUN .....
 STEP CPU TIME =     0.00 TOTAL CPU TIME =        0.0 (    0.0 MIN)
 TOTAL WALL CLOCK TIME=        0.0 SECONDS, CPU UTILIZATION IS   0.00%


          -----------------------------
          STATIONARY POINT LOCATION RUN
          -----------------------------

 OBTAINING INITIAL HESSIAN, HESS=GUESS   
 DIAGONAL GUESS HESSIAN IN INTERNAL COORDS IS
     1  0.4057     2  0.3678     3  0.4707     4  0.4717     5  0.3427
     6  0.4835     7  0.3424     8  0.4822     9  0.4801    10  0.3429
    11  0.4815    12  0.3432    13  0.3434    14  0.2563    15  0.2564
    16  0.2686    17  0.2315    18  0.2685    19  0.2187    20  0.2316
    21  0.2676    22  0.2324    23  0.2694    24  0.2324    25  0.2694
    26  0.2324    27  0.2322    28  0.2692    29  0.2323    30  0.2323
    31  0.2322    32  0.2323    33  0.2500    34  0.2500    35  0.2500
    36  0.2500    37  0.2500    38  0.2500    39  0.2500    40  0.2500
    41  0.2500    42  0.2500    43  0.2500    44  0.2500    45  0.2500
    46  0.2500    47  0.2500    48  0.2500    49  0.2500    50  0.2500
    51  0.2500    52  0.2500    53  0.2500    54  0.2500    55  0.2500
    56  0.2500    57  0.2500    58  0.2500
 TRANSFORMING HESSIAN TO SYMMETRY COORDINATES

          PARAMETERS CONTROLLING GEOMETRY SEARCH ARE
          METHOD =QA                  UPHESS =BFGS    
          NNEG   =         0          NFRZ   =         3
          NSTEP  =        50          IFOLOW =         1
          HESS   =GUESS               RESTAR =         F
          IHREP  =         0          HSSEND =         F
          NPRT   =         0          NPUN   =         0
          OPTTOL = 5.000E-04          RMIN   = 1.500E-03
          RMAX   = 1.000E-01          RLIM   = 7.000E-02
          DXMAX  = 3.000E-01          PURIFY =         F
          MOVIE  =         F          TRUPD  =         T
          TRMAX  = 5.000E-01          TRMIN  = 5.000E-02
          ITBMAT =         5          STPT   =         F
          STSTEP = 1.000E-02          PROJCT=          F
          FROZEN COORD(S)=   1   2   3


      ***** EQUILIBRIUM GEOMETRY LOCATED *****
            (SUBJECT TO   3 CONSTRAINT(S))
 COORDINATES OF ALL ATOMS ARE (ANGS)
   ATOM   CHARGE       X              Y              Z
 ------------------------------------------------------------
 O           8.0   0.3943571062   2.3881652203   0.0759878408
 C           6.0   1.7398975572   2.2686698247   0.0608457856
 C           6.0   2.4858321228   3.4420256473   0.0746098287
 C           6.0   2.3750273810   1.0335903599   0.0340811466
 C           6.0   3.8652935282   3.3697098475   0.0620559094
 C           6.0   3.7612907539   0.9813862109   0.0216166673
 C           6.0   4.5108108803   2.1433540943   0.0356154963
 H           1.0  -0.0178715725   1.5398511299   0.0600432445
 H           1.0   1.9891502101   4.3958301252   0.0947745856
 H           1.0   1.8018213018   0.1212129372   0.0230044662
 H           1.0   4.4440455448   4.2750150911   0.0728731050
 H           1.0   4.2586940882   0.0280743270   0.0006092536
 H           1.0   5.5822588848   2.0996233574   0.0270859870


                     --------------------
                     INTERNAL COORDINATES
                     --------------------

                 - - ATOMS - -         COORDINATE      COORDINATE
 NO.   TYPE    I  J  K  L  M  N        (BOHR,RAD)       (ANG,DEG)
 ----------------------------------------------------------------
   1 STRETCH   1  2                     2.5528705       1.3509210
   2 STRETCH   1  8                     1.7825872       0.9433046
   3 STRETCH   2  3                     2.6275834       1.3904574
   4 STRETCH   2  4                     2.6249699       1.3890743
   5 STRETCH   3  9                     2.0325253       1.0755661
   6 STRETCH   3  5                     2.6104914       1.3814127
   7 STRETCH   4 10                     2.0362799       1.0775530
   8 STRETCH   4  6                     2.6216206       1.3873020
   9 STRETCH   5  7                     2.6193948       1.3861242
  10 STRETCH   5 11                     2.0305970       1.0745457
  11 STRETCH   6  7                     2.6131199       1.3828036
  12 STRETCH   6 12                     2.0323605       1.0754789
  13 STRETCH   7 13                     2.0264930       1.0723740
  14 BEND      1  2  3                  2.0483137     117.3597314
  15 BEND      1  2  4                  2.1344471     122.2948130
  16 BEND      2  3  5                  2.0845431     119.4355221
  17 BEND      2  3  9                  2.0953010     120.0519025
  18 BEND      2  4  6                  2.0834844     119.3748638
  19 BEND      2  1  8                  1.9342747     110.8257752
  20 BEND      2  4 10                  2.1057685     120.6516454
  21 BEND      3  2  4                  2.1004238     120.3454175
  22 BEND      3  5 11                  2.0870725     119.5804475
  23 BEND      3  5  7                  2.1077611     120.7658176
  24 BEND      4  6 12                  2.0894133     119.7145641
  25 BEND      4  6  7                  2.1058790     120.6579804
  26 BEND      5  3  9                  2.1033412     120.5125753
  27 BEND      5  7 13                  2.0961606     120.1011529
  28 BEND      5  7  6                  2.0842790     119.4203924
  29 BEND      6  4 10                  2.0939324     119.9734908
  30 BEND      6  7 13                  2.1027453     120.4784297
  31 BEND      7  5 11                  2.0883516     119.6537348
  32 BEND      7  6 12                  2.0878929     119.6274537
  33 TORSION   1  2  3  5               3.1398702     179.9013119
  34 TORSION   1  2  4  6              -3.1399752    -179.9073295
  35 TORSION   1  2  4 10               0.0016123       0.0923804
  36 TORSION   1  2  3  9              -0.0018105      -0.1037326
  37 TORSION   2  4  6  7               0.0000409       0.0023432
  38 TORSION   2  3  5 11              -3.1413530    -179.9862686
  39 TORSION   2  3  5  7               0.0002950       0.0169017
  40 TORSION   2  4  6 12              -3.1412833    -179.9822754
  41 TORSION   3  5  7 13              -3.1405076    -179.9378338
  42 TORSION   3  5  7  6               0.0000857       0.0049121
  43 TORSION   3  2  4  6               0.0003449       0.0197631
  44 TORSION   3  2  1  8               3.1361890     179.6903942
  45 TORSION   3  2  4 10              -3.1412528    -179.9805270
  46 TORSION   4  2  3  9               3.1409933     179.9656590
  47 TORSION   4  6  7 13               3.1403342     179.9278966
  48 TORSION   4  6  7  5              -0.0002553      -0.0146286
  49 TORSION   4  2  1  8              -0.0066401      -0.3804492
  50 TORSION   4  2  3  5              -0.0005113      -0.0292965
  51 TORSION   5  7  6 12               3.1410691     179.9700033
  52 TORSION   6  7  5 11              -3.1414515    -179.9919153
  53 TORSION   7  5  3  9              -3.1412092    -179.9780301
  54 TORSION   7  6  4 10              -3.1415467    -179.9973687
  55 TORSION   9  3  5 11               0.0003281       0.0187996
  56 TORSION  10  4  6 12               0.0003144       0.0180127
  57 TORSION  11  5  7 13               0.0011404       0.0653388
  58 TORSION  12  6  7 13              -0.0015267      -0.0874714

          INTERNUCLEAR DISTANCES (ANGS.)


 =====================================================
   GAMESS/COSab RESULTS
 =====================================================

   Dielectric Constant                  = INFTY
   Basic Grid Size                      =                 1082
   Number of Segments                   =                   92
   Number of Segments located on spheres=                  252
   Number of Segments of the cavity     =                  567
   Solvent Radius (rsolv)               = 1.40
   Outlying Charge Error Method         = double cavity

 =====================================================

  Total solvated Energy (a.u.)          =  -305.6473209173
  Total Energy corrected (a.u.)         =  -305.6475033398

  Outlying charge effect (a.u.)         =    -0.0001824225
  Outlying charge effect (kcal/mol)     =    -0.1144719151

  Dielectric Energy (a.u.)              =    -0.0140744096
  Dielectric energy corr. (a.u.)        =    -0.0142568320

  Sum of polarization charges           =     0.0198346290
  Sum of polarization charges(cor.)     =    -0.0198346290

  Total surface area of cavity (A**2)   =  130.44
  Total volume of cavity (A**3)         =  120.24

 =====================================================
 NPS=                   567
NR.  ATOM  (X, Y, Z)(a.u.)                  CHARGE(e)  AREA(A**2) SIGMA(e/A**2)
   1   1  -0.376072   6.505928   2.453444   0.004349   0.274871   0.015820
   2   1  -1.151434   6.951118  -0.867716   0.004170   0.274871   0.015169
   3   1  -2.390903   4.530449   0.997391   0.000638   0.274871   0.002319
   4   1  -1.258973   3.921813  -2.346057   0.001863   0.343589   0.005423
   5   1   0.065416   3.159856   3.019619   0.000684   0.240512   0.002844
   6   1   0.117958   7.012305   2.124622   0.002997   0.171795   0.017445
   7   1  -0.524060   7.447246  -0.442558   0.004550   0.274871   0.016552
   8   1  -0.843423   6.949817   1.593620   0.005611   0.343589   0.016331
   9   1  -1.136438   7.154998   0.352501   0.004344   0.274871   0.015803
  10   1  -0.371399   6.969402  -1.668517   0.007580   0.446666   0.016969
  11   1   0.219363   6.391061  -2.456582   0.004175   0.274871   0.015187
  12   1   0.419195   6.064994   2.980762   0.004483   0.309230   0.014496
  13   1  -2.491196   4.385640  -0.128354  -0.000295   0.274871  -0.001071
  14   1  -2.100009   4.221717  -1.400565   0.000553   0.309230   0.001790
  15   1  -0.430894   3.563156  -2.733775   0.001180   0.240512   0.004907
  16   1   0.254694   3.039017  -2.711490   0.000176   0.171795   0.001026
  17   1  -1.038707   3.647498   2.719077   0.001364   0.309230   0.004411
  18   1  -1.885415   4.110672   2.009728   0.000877   0.309230   0.002835
  19   1  -1.353150   6.051177   2.091752   0.004981   0.343589   0.014498
  20   1  -2.007926   5.261417   1.700694   0.003594   0.377948   0.009510
  21   1  -2.354457   5.469693   0.346672   0.003968   0.481025   0.008249
  22   1  -1.865585   6.406973  -0.257694   0.005102   0.377948   0.013500
  23   1  -1.560943   6.142649  -1.465867   0.005803   0.412307   0.014074
  24   1  -1.524571   5.089893  -2.110251   0.005070   0.446666   0.011350
  25   1  -0.510552   4.632587  -2.851965   0.004058   0.343589   0.011811
  26   1   0.280711   5.332960  -2.967116   0.004504   0.309230   0.014567
  27   1   0.345641   3.930954   3.316317   0.002779   0.274871   0.010111
  28   1  -0.459319   4.318424   3.156201   0.002971   0.274871   0.010810
  29   1  -0.561001   5.492237   2.954180   0.004671   0.309230   0.015107
  30   1  -0.471656   7.432139   0.893439   0.003908   0.240512   0.016248
  31   1  -1.734918   6.443485   0.972204   0.005252   0.377948   0.013897
  32   1  -0.630246   5.851871  -2.479397   0.005799   0.377948   0.015342
  33   1   0.279203   5.104488   3.305479   0.003346   0.274871   0.012173
  34   1  -2.234490   5.215308  -0.948480   0.003188   0.412307   0.007731
  35   1   0.394887   4.119672  -3.063781   0.002115   0.240512   0.008794
  36   1  -1.343881   4.901642   2.603094   0.004363   0.377948   0.011544
  37   2   4.314137   4.235787   3.752081   0.000522   0.092912   0.005617
  38   2   1.799656   2.844948   3.275568  -0.000120   0.092912  -0.001289
  39   2   2.131380   4.706435  -3.458655  -0.000045   0.232280  -0.000192
  40   2   1.978216   3.591783   3.591378   0.000058   0.092912   0.000619
  41   2   2.079321   5.277337   3.556352   0.000258   0.139368   0.001855
  42   2   2.076714   5.572408  -3.226480   0.000294   0.139368   0.002110
  43   2   1.926160   3.098847  -3.204324  -0.000074   0.139368  -0.000528
  44   2   2.508686   3.444001   3.715828   0.000380   0.232280   0.001635
  45   2   3.579027   3.840876   3.856682   0.000659   0.232280   0.002838
  46   2   3.457937   4.674948   3.870636   0.000801   0.185824   0.004311
  47   2   2.650427   5.211605   3.723749   0.000186   0.139368   0.001338
  48   2   2.897477   4.937328  -3.587600   0.000599   0.278737   0.002149
  49   2   2.513152   3.685077  -3.534883   0.000412   0.325193   0.001268
  50   2   3.733690   4.277352  -3.638083   0.001769   0.418105   0.004231
  51   2   2.497118   4.366068   3.809926   0.000150   0.325193   0.000461
  52   3   5.140079   5.787771  -3.543395   0.001047   0.139368   0.007511
  53   3   5.257611   8.888654  -2.737592   0.001283   0.325193   0.003944
  54   3   4.052297   7.944903   3.575105   0.001757   0.371649   0.004727
  55   3   3.664503   8.785089   2.972235   0.001043   0.371649   0.002806
  56   3   2.404568   8.211058  -2.331682   0.000279   0.232280   0.001201
  57   3   4.579664   9.341638  -2.353173   0.000596   0.278737   0.002138
  58   3   5.565353  10.064318   1.067646  -0.000401   0.092912  -0.004314
  59   3   5.351793   9.720822  -1.732857   0.000028   0.185824   0.000152
  60   3   4.290163   8.480179  -3.055080   0.001452   0.325193   0.004466
  61   3   2.938156   7.719322  -2.975570   0.001395   0.371649   0.003755
  62   3   2.877882   7.568343   3.278083   0.001492   0.418105   0.003568
  63   3   5.027334   8.787001   3.135253   0.001697   0.371649   0.004566
  64   3   5.390688   9.710965   2.017757   0.000371   0.185824   0.001996
  65   3   4.982192   7.741235  -3.419011   0.002410   0.325193   0.007411
  66   3   4.996904   6.676188  -3.622665   0.001396   0.232280   0.006011
  67   3   4.317242   6.382677  -3.617301   0.001915   0.232280   0.008243
  68   3   3.319651   6.890620  -3.357086   0.001015   0.232280   0.004371
  69   3   3.902155   6.749341   3.827685   0.003194   0.511017   0.006250
  70   3   5.103635   7.534480   3.754642   0.002512   0.418105   0.006007
  71   3   2.521992   8.180784   2.737391   0.000327   0.278737   0.001174
  72   3   3.404177   8.638138  -2.697836   0.000935   0.278737   0.003353
  73   3   5.542618  10.000649  -1.019552   0.000004   0.092912   0.000047
  74   3   4.801916   9.378622   2.593067   0.000411   0.232280   0.001771
  75   3   5.029646   5.986517   3.870028   0.003578   0.464561   0.007702
  76   3   3.992028   7.416115  -3.458369   0.001491   0.278737   0.005349
  77   4   5.052435   2.627578   3.740152   0.001037   0.139368   0.007442
  78   4   4.905556  -0.471743   2.933152   0.001239   0.325193   0.003809
  79   4   2.213437   1.125106   2.966867   0.000180   0.139368   0.001290
  80   4   3.668024   0.573481  -3.357286   0.001746   0.371649   0.004699
  81   4   3.361881  -0.212580  -2.820924   0.000793   0.278737   0.002846
  82   4   2.109566   0.433831   2.578006   0.000079   0.232280   0.000340
  83   4   4.186606  -0.868218   2.560994   0.000545   0.278737   0.001955
  84   4   4.909301  -1.543307  -1.307188  -0.000103   0.092912  -0.001111
  85   4   4.914537  -1.307598   1.927105  -0.000022   0.185824  -0.000119
  86   4   3.979941   0.012917   3.267737   0.001413   0.325193   0.004346
  87   4   2.856706   0.719714   3.242649   0.000830   0.232280   0.003575
  88   4   2.476806   0.935173  -2.969132   0.000887   0.325193   0.002729
  89   4   4.579763  -0.344904  -2.934679   0.001601   0.371649   0.004309
  90   4   4.882195  -1.152981  -2.052328   0.000422   0.185824   0.002271
  91   4   4.735585   0.693315   3.619088   0.002369   0.325193   0.007284
  92   4   4.839624   1.753478   3.822183   0.001395   0.232280   0.006008
  93   4   4.185815   2.100761   3.828864   0.001973   0.232280   0.008495
  94   4   3.063642   1.617231   3.548977   0.001235   0.278737   0.004431
  95   4   3.737298   1.747945  -3.634013   0.002608   0.418105   0.006237
  96   4   4.745634   0.898143  -3.555641   0.002458   0.418105   0.005878
  97   4   2.291149   0.318519  -2.540445   0.000440   0.278737   0.001580
  98   4   3.077897  -0.072775   2.926385   0.000858   0.278737   0.003078
  99   4   5.069492  -1.601032   1.210580  -0.000041   0.092912  -0.000443
 100   4   4.193077  -0.919088  -2.374261   0.000239   0.185824   0.001285
 101   4   4.794482   2.447174  -3.670075   0.003638   0.464561   0.007830
 102   4   3.775671   1.097050   3.676012   0.001474   0.278737   0.005290
 103   4   2.860429   1.731583  -3.339363   0.001014   0.232280   0.004365
 104   5   6.834655   5.633129  -3.560208   0.000978   0.139368   0.007014
 105   5   9.614314   7.139676  -2.772810   0.000791   0.278737   0.002839
 106   5   7.112277   9.016663  -2.571799   0.000840   0.278737   0.003015
 107   5   8.295446   7.639611   3.535540   0.001113   0.371649   0.002996
 108   5   8.818866   8.395802   2.924020   0.000548   0.371649   0.001475
 109   5   6.945736   9.747150   1.771328   0.000026   0.092912   0.000280
 110   5   7.180723   9.611979  -1.817807   0.000236   0.278737   0.000847
 111   5   9.657412   7.889292  -2.418968   0.000326   0.278737   0.001170
 112   5  10.682344   7.457640   1.415619  -0.000097   0.092912  -0.001042
 113   5  10.382681   7.408103  -1.813001   0.000016   0.185824   0.000086
 114   5   8.753316   7.711774  -3.104309   0.000941   0.325193   0.002894
 115   5   7.635700   8.424612  -3.036163   0.000673   0.232280   0.002895
 116   5   7.126442   9.391857   2.377340   0.000112   0.185824   0.000604
 117   5   7.377936   8.470236   3.257137   0.001385   0.418105   0.003313
 118   5   9.503132   7.215244   3.072181   0.001168   0.371649   0.003143
 119   5  10.338417   7.302453   2.167918   0.000395   0.185824   0.002124
 120   5   8.451162   6.744040  -3.464285   0.001809   0.325193   0.005564
 121   5   7.531687   6.200454  -3.651622   0.001104   0.232280   0.004755
 122   5   6.938530   6.643153  -3.634348   0.001797   0.232280   0.007735
 123   5   6.904326   7.859306  -3.332333   0.001042   0.278737   0.003738
 124   5   7.189239   7.173036   3.808160   0.002739   0.511017   0.005359
 125   5   8.467369   6.523363   3.709964   0.001775   0.418105   0.004245
 126   5   7.799235   9.025600   2.758415   0.000338   0.232280   0.001453
 127   5   8.394606   8.630382  -2.706996   0.000583   0.325193   0.001792
 128   5  10.733740   7.381044  -1.106214  -0.000038   0.092912  -0.000404
 129   5   9.841711   7.819843   2.512622   0.000117   0.185824   0.000630
 130   5   7.091160   5.815259   3.850026   0.003165   0.464561   0.006813
 131   5   7.674946   7.440180  -3.487864   0.001074   0.278737   0.003854
 132   6   6.770564   2.622893   3.725969   0.000975   0.139368   0.006998
 133   6   9.392989   0.879747   2.888999   0.000807   0.278737   0.002895
 134   6   6.732986  -0.770695   2.733761   0.000787   0.278737   0.002823
 135   6   7.922034   0.505230  -3.394365   0.001130   0.371649   0.003039
 136   6   8.388151  -0.294664  -2.792156   0.000551   0.371649   0.001482
 137   6   6.424941  -1.478274  -1.605426  -0.000005   0.092912  -0.000051
 138   6   6.735450  -1.368760   1.978841   0.000249   0.278737   0.000892
 139   6   9.363900   0.129686   2.534670   0.000340   0.278737   0.001218
 140   6  10.353481   0.474811  -1.317925  -0.000098   0.092912  -0.001049
 141   6  10.117491   0.546292   1.915562   0.000039   0.185824   0.000209
 142   6   8.491309   0.384814   3.236161   0.000961   0.325193   0.002955
 143   6   7.314519  -0.227340   3.188418   0.000646   0.232280   0.002782
 144   6   6.625124  -1.139399  -2.214711   0.000082   0.185824   0.000443
 145   6   6.940475  -0.242221  -3.099190   0.001362   0.418105   0.003258
 146   6   9.098947   0.778197  -2.985894   0.001041   0.325193   0.003202
 147   6   9.805286   0.876754  -2.419207   0.000401   0.139368   0.002879
 148   6   8.281590   1.374830   3.601231   0.001870   0.325193   0.005750
 149   6   7.416771   1.996599   3.804964   0.001111   0.232280   0.004785
 150   6   6.786912   1.607559   3.798535   0.001775   0.232280   0.007641
 151   6   6.640909   0.399457   3.497565   0.001011   0.278737   0.003628
 152   6   6.856205   1.067219  -3.647120   0.002680   0.511017   0.005243
 153   6   8.187876   1.602358  -3.572210   0.001824   0.418105   0.004362
 154   6   7.320434  -0.832974  -2.607980   0.000327   0.232280   0.001408
 155   6   8.046440  -0.498351   2.845672   0.000569   0.325193   0.001750
 156   6  10.456787   0.543407   1.202546  -0.000052   0.092912  -0.000554
 157   6   9.582069   0.223051  -2.304483   0.000122   0.232280   0.000527
 158   6   6.876664   2.428421  -3.687632   0.003194   0.464561   0.006876
 159   6   7.447947   0.749300   3.639032   0.001064   0.278737   0.003819
 160   7   7.587011   4.093251  -3.593860   0.001061   0.139368   0.007611
 161   7  10.237942   2.433986  -2.888158   0.001340   0.325193   0.004122
 162   7  10.666874   5.556236  -2.657674   0.001247   0.278737   0.004473
 163   7  10.183233   3.828159   3.455884   0.001899   0.371649   0.005109
 164   7  11.089017   3.758261   2.827855   0.001245   0.371649   0.003351
 165   7  11.408935   6.183733   1.255243  -0.000014   0.092912  -0.000149
 166   7  11.229052   5.795547  -1.913176   0.000503   0.278737   0.001805
 167   7  10.978009   2.789443  -2.515955   0.000799   0.278737   0.002866
 168   7  11.202842   1.509756   0.876345  -0.000320   0.092912  -0.003449
 169   7  10.938644   1.919301  -1.910927   0.000175   0.185824   0.000942
 170   7  10.356960   3.482326  -3.188863   0.001578   0.325193   0.004853
 171   7  10.410863   4.806737  -3.119018   0.001065   0.232280   0.004584
 172   7  11.114312   5.785711   2.203669   0.000349   0.232280   0.001502
 173   7  10.433442   5.039761   3.175371   0.002074   0.418105   0.004960
 174   7  10.416750   2.572083   2.985735   0.001831   0.371649   0.004928
 175   7  11.008043   1.818816   1.837913   0.000437   0.185824   0.002354
 176   7   9.362485   3.256459  -3.531489   0.002490   0.325193   0.007656
 177   7   8.426470   3.777187  -3.701000   0.001468   0.232280   0.006321
 178   7   8.510335   4.512568  -3.683754   0.002208   0.232280   0.009506
 179   7   9.548887   5.154260  -3.399058   0.001435   0.278737   0.005149
 180   7   9.227928   4.548064   3.747151   0.003705   0.511017   0.007250
 181   7   9.308896   3.116888   3.644614   0.002527   0.418105   0.006045
 182   7  11.116360   4.956663   2.664135   0.000633   0.232280   0.002724
 183   7  10.976778   4.254216  -2.801071   0.001238   0.325193   0.003808
 184   7  11.104806   1.601009  -1.207647   0.000037   0.092912   0.000402
 185   7  11.027798   2.483781   2.425720   0.000577   0.232280   0.002485
 186   7   8.006599   3.948591   3.809759   0.003805   0.464561   0.008190
 187   7   9.572293   4.277741  -3.556792   0.001640   0.278737   0.005882
 188   8  -1.171858   0.733870   0.044206  -0.010693   0.471065  -0.022700
 189   8  -1.833637   2.334017  -1.456233  -0.007384   0.451437  -0.016356
 190   8  -2.382011   2.542116   0.734489  -0.007458   0.431809  -0.017270
 191   8  -0.586740   1.726132   2.193870  -0.006758   0.392554  -0.017217
 192   8  -0.454660   1.333985  -1.723498  -0.005846   0.274788  -0.021276
 193   8  -2.096069   1.617692  -0.221614  -0.008962   0.451437  -0.019851
 194   8  -1.739616   1.450995   1.111895  -0.007637   0.392554  -0.019454
 195   8  -0.818882   0.938511   1.351362  -0.008009   0.372926  -0.021475
 196   8  -1.213549   1.136101  -1.110005  -0.009438   0.451437  -0.020908
 197   8  -2.421638   2.734544  -0.436522  -0.005440   0.353299  -0.015399
 198   8  -1.689304   2.313255   1.827641  -0.005976   0.392554  -0.015223
 199   8  -0.800434   2.091931  -2.072452  -0.003918   0.294415  -0.013307
 200   9   2.710279  10.524830   0.306709  -0.005327   0.569203  -0.009359
 201   9   3.961533  10.356308  -1.160337  -0.002184   0.372926  -0.005855
 202   9   4.475021  10.549531   0.881275  -0.002369   0.353299  -0.006706
 203   9   2.884758   9.733338   1.978052  -0.001932   0.353299  -0.005468
 204   9   2.136282   9.443540  -1.273540  -0.002654   0.412182  -0.006440
 205   9   4.134348  10.719560  -0.091760  -0.003995   0.490692  -0.008142
 206   9   3.550279  10.380685   1.479511  -0.003566   0.490692  -0.007267
 207   9   1.975734   9.582503   1.287315  -0.004377   0.529948  -0.008259
 208   9   1.751810   9.686546  -0.142059  -0.004128   0.471065  -0.008764
 209   9   2.948802  10.187824  -1.177729  -0.003670   0.490692  -0.007480
 210  10   2.311598  -1.963945  -0.130897  -0.004687   0.490692  -0.009551
 211  10   3.465673  -1.831574   1.379582  -0.002326   0.372926  -0.006236
 212  10   3.925531  -2.063085  -0.670813  -0.002678   0.353299  -0.007581
 213  10   2.414167  -1.121190  -1.753831  -0.001761   0.333671  -0.005277
 214  10   1.938212  -0.872550   1.677542  -0.002614   0.372926  -0.007010
 215  10   3.617017  -2.202144   0.325231  -0.003967   0.471065  -0.008420
 216  10   3.027854  -1.810851  -1.272466  -0.003504   0.471065  -0.007439
 217  10   1.623934  -1.037410  -1.078639  -0.004186   0.451437  -0.009273
 218  10   1.546675  -1.319750   0.471339  -0.004312   0.431809  -0.009986
 219  10   2.517636  -1.637395   1.371663  -0.003223   0.412182  -0.007821
 220  11   9.763400  10.119288   0.217909  -0.005685   0.608459  -0.009343
 221  11  10.245075   8.991508  -1.200228  -0.002498   0.412182  -0.006061
 222  11  10.711746   8.575224   0.797376  -0.002456   0.353299  -0.006951
 223  11   9.232088   9.544631   1.923826  -0.001887   0.353299  -0.005340
 224  11   7.845524  10.434179   0.563255  -0.002481   0.333671  -0.007434
 225  11   8.323828  10.078942  -1.286439  -0.001677   0.333671  -0.005026
 226  11  10.670938   8.956970  -0.174410  -0.003846   0.490692  -0.007837
 227  11  10.115563   9.291506   1.408154  -0.003437   0.490692  -0.007005
 228  11   8.638669  10.234442   1.290767  -0.003615   0.510320  -0.007084
 229  11   8.409980  10.493948  -0.310662  -0.003868   0.490692  -0.007882
 230  11   9.451027   9.777866  -1.290140  -0.003928   0.549575  -0.007147
 231  12   9.227524  -2.099240  -0.103032  -0.005727   0.608459  -0.009412
 232  12   9.831563  -1.019770   1.305830  -0.002519   0.412182  -0.006111
 233  12  10.296849  -0.643408  -0.700001  -0.002461   0.353299  -0.006964
 234  12   8.717944  -1.478099  -1.799260  -0.001903   0.353299  -0.005386
 235  12   7.283534  -2.244553  -0.413610  -0.002533   0.333671  -0.007592
 236  12   7.824336  -1.934911   1.427040  -0.001690   0.333671  -0.005065
 237  12  10.240274  -1.021349   0.272483  -0.003858   0.490692  -0.007863
 238  12   9.629333  -1.303960  -1.299696  -0.003465   0.490692  -0.007062
 239  12   8.077895  -2.114106  -1.155380  -0.003630   0.510320  -0.007112
 240  12   7.856232  -2.354626   0.449996  -0.003876   0.490692  -0.007900
 241  12   8.973453  -1.733694   1.410303  -0.003958   0.549575  -0.007202
 242  13  13.000663   3.816341   0.087040  -0.005379   0.608459  -0.008840
 243  13  12.243798   2.834892  -1.319701  -0.002159   0.412182  -0.005239
 244  13  12.155216   2.218038   0.678583  -0.001997   0.353299  -0.005653
 245  13  12.267343   3.982326   1.806740  -0.001628   0.353299  -0.004609
 246  13  12.312730   5.630951   0.448438  -0.002300   0.333671  -0.006894
 247  13  12.231546   5.029063  -1.390181  -0.001421   0.314043  -0.004526
 248  13  12.446912   2.447577  -0.298141  -0.003494   0.490692  -0.007120
 249  13  12.484501   3.092686   1.285300  -0.003175   0.490692  -0.006470
 250  13  12.552821   4.843744   1.170178  -0.003337   0.510320  -0.006540
 251  13  12.632991   5.175245  -0.432287  -0.003473   0.490692  -0.007077
 252  13  12.521350   3.917166  -1.412443  -0.003633   0.549575  -0.006610
 253   1   1.408500   6.236473  -2.663725   0.000574   0.046343   0.012389
 254   2   1.841765   6.259178  -2.782297   0.000217   0.046343   0.004690
 255   3   2.101264   6.628954  -2.744394   0.000156   0.046343   0.003359
 256   1   1.463209   6.135263   2.997367   0.000452   0.046343   0.009764
 257   2   1.898692   6.153865   3.108282   0.000180   0.046343   0.003874
 258   3   2.157538   6.524849   3.078614   0.000141   0.046343   0.003039
 259   1   1.157328   2.510754   2.816801  -0.000388   0.042393  -0.009141
 260   2   1.580409   2.402446   2.923529  -0.000325   0.042393  -0.007663
 261   4   1.807326   2.013182   2.879896  -0.000263   0.042393  -0.006206
 262   1   1.104361   2.600916  -2.602291  -0.000388   0.042393  -0.009158
 263   2   1.525240   2.496357  -2.720809  -0.000341   0.042393  -0.008043
 264   4   1.752840   2.105930  -2.694592  -0.000279   0.042393  -0.006571
 265   2   1.716275   5.540474   3.319518   0.000752   0.184185   0.004080
 266   2   1.552589   3.699591   3.301989   0.000412   0.360934   0.001142
 267   1   1.023497   4.878683   3.249887   0.003706   0.364130   0.010179
 268   1   0.863943   3.104634   3.072023   0.000062   0.172614   0.000361
 269   2   1.429620   3.108537  -2.961694  -0.000333   0.184616  -0.001804
 270   2   1.591852   4.949957  -3.077593   0.001554   0.361781   0.004294
 271   1   0.865903   3.887186  -2.930403   0.001769   0.365096   0.004844
 272   1   1.025088   5.673322  -2.880818   0.001915   0.173019   0.011067
 273   1   1.020182   7.614294  -1.421410   0.000465   0.058367   0.007972
 274   3   1.654384   8.091065  -1.517786  -0.000076   0.058367  -0.001300
 275   9   1.684519   8.338304  -1.352623  -0.000251   0.058367  -0.004299
 276   1   1.049077   7.561145   1.804711   0.000593   0.058367   0.010151
 277   3   1.685044   8.034670   1.905366  -0.000080   0.058367  -0.001363
 278   9   1.712289   8.287224   1.747923  -0.000251   0.058367  -0.004301
 279   3   1.919554   7.326719  -2.363540   0.000725   0.482347   0.001503
 280   1   0.828605   6.962166  -2.030357   0.004381   0.437365   0.010017
 281   3   1.849067   7.472943   2.508617   0.000576   0.485127   0.001187
 282   1   0.992864   6.642229   2.619195   0.004026   0.439888   0.009153
 283   1   0.741249   2.255254   2.561986  -0.000893   0.075483  -0.011836
 284   4   1.407847   1.775983   2.569140  -0.000973   0.075483  -0.012895
 285   8   0.586074   2.013708   2.411840  -0.001467   0.075483  -0.019438
 286   1   0.710496   2.362854  -2.370721  -0.000893   0.075483  -0.011825
 287   4   1.376823   1.884532  -2.407074  -0.000992   0.075483  -0.013142
 288   8   0.557138   2.114948  -2.229328  -0.001201   0.075483  -0.015907
 289   4   1.789078   1.710722   2.914806  -0.000026   0.077221  -0.000343
 290   1   0.840156   2.397198   2.782998  -0.000153   0.069915  -0.002188
 291   4   1.719852   1.783941  -2.725139  -0.000084   0.065876  -0.001281
 292   1   0.821513   2.536531  -2.603154  -0.000108   0.059644  -0.001803
 293   8  -0.082603   2.209472   2.465269  -0.001037   0.081985  -0.012649
 294   8  -1.153698   2.734659   2.215691  -0.002448   0.177551  -0.013789
 295   8  -2.127560   3.226648   1.218008  -0.002865   0.177551  -0.016137
 296   8  -2.352399   3.363236  -0.236853  -0.002797   0.177551  -0.015755
 297   8  -1.736014   3.088412  -1.552289  -0.002602   0.177551  -0.014658
 298   8  -0.531169   2.514876  -2.188871  -0.002537   0.177551  -0.014291
 299   1  -0.337824   2.792161   2.597863  -0.001571   0.175782  -0.008936
 300   1  -1.649722   3.441788   1.953125  -0.001645   0.175782  -0.009357
 301   1  -2.334226   3.800730   0.552628  -0.002151   0.175782  -0.012237
 302   1  -2.110638   3.721792  -1.029319  -0.001932   0.175782  -0.010990
 303   1  -1.070646   3.237346  -2.143996  -0.001544   0.175782  -0.008781
 304   1   0.068621   2.689653  -2.459882  -0.000800   0.093870  -0.008523
 305   9   1.493115   8.642541  -1.066797  -0.000669   0.249164  -0.002683
 306   9   1.274822   8.803994   0.209537  -0.002344   0.501962  -0.004670
 307   9   1.515887   8.600653   1.475746  -0.000661   0.249164  -0.002653
 308   1   0.342068   7.760258  -0.668131   0.005485   0.612851   0.008950
 309   1   0.357626   7.731641   1.068912   0.005666   0.612851   0.009245
 310   2   5.256413   4.544788   3.449716   0.000381   0.048208   0.007896
 311   3   5.508363   4.919621   3.489982   0.000467   0.048208   0.009692
 312   5   5.956918   4.907604   3.450356   0.000475   0.048208   0.009851
 313   2   5.201464   4.658233  -3.240984   0.000384   0.048208   0.007973
 314   3   5.452822   5.034286  -3.272651   0.000488   0.048208   0.010123
 315   5   5.901964   5.021058  -3.240826   0.000479   0.048208   0.009946
 316   3   4.857179   5.272985  -3.433784   0.001297   0.180370   0.007192
 317   3   3.311329   6.253686  -3.260650   0.001635   0.366057   0.004468
 318   2   3.914990   5.101956  -3.420352   0.001774   0.366057   0.004847
 319   2   2.385422   6.070561  -3.098441   0.000395   0.180370   0.002188
 320   3   2.795420   6.503350   3.412916   0.000610   0.179729   0.003396
 321   3   4.325166   5.527810   3.672388   0.002254   0.364680   0.006181
 322   2   3.025163   5.585831   3.551204   0.000957   0.364680   0.002623
 323   2   4.568430   4.603436   3.662340   0.001061   0.179729   0.005901
 324   2   5.166118   3.857653  -3.254016   0.000384   0.048404   0.007936
 325   4   5.381962   3.461915  -3.298665   0.000470   0.048404   0.009715
 326   6   5.832354   3.433392  -3.266993   0.000470   0.048404   0.009707
 327   2   5.221936   3.741441   3.435217   0.000394   0.048404   0.008145
 328   4   5.438381   3.344453   3.462486   0.000498   0.048404   0.010289
 329   6   5.888174   3.317178   3.422334   0.000484   0.048404   0.010007
 330   4   4.801451   3.148114   3.635833   0.001399   0.190497   0.007345
 331   4   3.087455   2.271042   3.435826   0.001351   0.388029   0.003481
 332   2   3.844561   3.386227   3.623233   0.001901   0.388029   0.004899
 333   2   2.150877   2.523187   3.257672  -0.000187   0.190497  -0.000983
 334   4   2.387183   2.051983  -3.074832   0.000113   0.191096   0.000589
 335   4   4.079058   2.929984  -3.442783   0.002425   0.389339   0.006227
 336   2   2.728693   2.961398  -3.254221   0.000511   0.389339   0.001313
 337   2   4.444023   3.847851  -3.455613   0.001188   0.191096   0.006217
 338   2   5.467742   4.132922   3.359072   0.000796   0.156626   0.005082
 339   5   6.171780   4.497609   3.359767   0.000970   0.156626   0.006194
 340   6   6.137345   3.706514   3.346213   0.000981   0.156626   0.006264
 341   2   5.412967   4.245851  -3.168623   0.000793   0.156626   0.005066
 342   5   6.117000   4.610548  -3.168515   0.000957   0.156626   0.006112
 343   6   6.082567   3.819448  -3.181755   0.000949   0.156626   0.006056
 344   3   6.204714  10.049993  -0.307551  -0.000098   0.007060  -0.013940
 345   5   6.653902  10.067420  -0.317288  -0.000122   0.007060  -0.017280
 346  11   6.941283  10.127209  -0.273194  -0.000100   0.007060  -0.014161
 347   3   6.212865  10.032903   0.686385  -0.000089   0.007060  -0.012602
 348   5   6.662157  10.050112   0.689350  -0.000105   0.007060  -0.014900
 349  11   6.948793  10.111463   0.642632  -0.000102   0.007060  -0.014385
 350   5   6.515036   9.890100   1.216237  -0.000679   0.199322  -0.003407
 351   5   6.465191   8.659445   2.827081   0.000999   0.407760   0.002450
 352   5   6.350798   6.336405   3.636997   0.003231   0.407760   0.007924
 353   3   5.854111   9.497157   1.874465  -0.000896   0.407760  -0.002197
 354   3   5.769249   7.604835   3.448466   0.002656   0.407760   0.006514
 355   3   5.665781   5.592076   3.671873   0.001438   0.199322   0.007214
 356   5   6.251923   5.678923  -3.440067   0.001669   0.199375   0.008373
 357   5   6.359632   7.683428  -3.149954   0.002512   0.407878   0.006160
 358   5   6.470860   9.521276  -1.513419  -0.000960   0.407878  -0.002353
 359   3   5.648647   6.489589  -3.379398   0.003589   0.407878   0.008800
 360   3   5.776995   8.784220  -2.492548   0.001035   0.407878   0.002537
 361   3   5.853618   9.959289  -0.841140  -0.000640   0.199375  -0.003208
 362   3   5.839070  10.112496   0.391232  -0.000095   0.007265  -0.013010
 363   9   5.551193  10.182575   0.374312  -0.000106   0.007265  -0.014560
 364  11   6.577853  10.087968   0.360931  -0.000123   0.007265  -0.016979
 365   3   5.835862  10.119210  -0.005413  -0.000095   0.007265  -0.013088
 366   9   5.548316  10.188598   0.018521  -0.000128   0.007265  -0.017657
 367  11   6.575032  10.093873   0.012091  -0.000126   0.007265  -0.017362
 368   9   5.054513  10.352402  -0.241683  -0.000517   0.065258  -0.007918
 369   9   4.576933  10.123415  -1.173776  -0.000957   0.144174  -0.006638
 370   9   3.579420   9.617914  -1.832887  -0.000688   0.144174  -0.004772
 371   9   2.435084   9.019260  -1.702116  -0.000706   0.144174  -0.004897
 372   3   5.252989  10.097255  -0.725502  -0.001031   0.143648  -0.007177
 373   3   4.389208   9.670608  -1.820622  -0.000570   0.143648  -0.003969
 374   3   3.122849   9.017781  -2.133001  -0.000442   0.143648  -0.003077
 375   3   2.121230   8.488966  -1.790385  -0.000256   0.079726  -0.003213
 376   9   2.124299   8.780180   1.952137  -0.000341   0.065200  -0.005235
 377   9   3.033175   9.246648   2.274278  -0.000771   0.144023  -0.005354
 378   9   4.154534   9.836440   1.996707  -0.000752   0.144023  -0.005220
 379   9   4.906432  10.248548   1.023483  -0.001067   0.144023  -0.007409
 380   3   2.529081   8.614133   2.335396  -0.000532   0.143547  -0.003707
 381   3   3.816462   9.281410   2.482061  -0.000485   0.143547  -0.003380
 382   3   4.923923   9.873728   1.742597  -0.000794   0.143547  -0.005529
 383   3   5.444638  10.166449   0.722233  -0.000466   0.079657  -0.005847
 384  11   7.098894  10.224784  -0.157919  -0.000362   0.053940  -0.006711
 385   3   5.994016  10.179050  -0.145679  -0.000220   0.076142  -0.002888
 386  11   7.101285  10.220476   0.472230  -0.000372   0.054242  -0.006865
 387   3   6.002468  10.160697   0.582012  -0.000176   0.076568  -0.002296
 388   4   5.683545  -1.718816   0.435045  -0.000108   0.006357  -0.016998
 389   6   6.131330  -1.777090   0.436033  -0.000088   0.006357  -0.013893
 390  12   6.412840  -1.861544   0.391440  -0.000108   0.006357  -0.016996
 391   4   5.676123  -1.703068  -0.455647  -0.000105   0.006357  -0.016573
 392   6   6.123812  -1.761139  -0.466154  -0.000077   0.006357  -0.012159
 393  12   6.406001  -1.847033  -0.429270  -0.000110   0.006357  -0.017378
 394   6   6.181568   2.626084   3.615751   0.001683   0.201856   0.008339
 395   6   6.102811   0.606795   3.313882   0.002400   0.413177   0.005809
 396   6   6.018683  -1.229226   1.648270  -0.001155   0.413177  -0.002794
 397   4   5.503861   1.867224   3.563080   0.003585   0.413177   0.008676
 398   4   5.408845  -0.438905   2.654755   0.000817   0.413177   0.001977
 399   4   5.349862  -1.604430   0.977577  -0.000785   0.201856  -0.003888
 400   6   5.981165  -1.594153  -0.993831  -0.000769   0.201787  -0.003808
 401   6   6.012520  -0.370708  -2.629213   0.000821   0.413023   0.001987
 402   6   6.093027   1.965135  -3.457534   0.003199   0.413023   0.007746
 403   4   5.343452  -1.146733  -1.650079  -0.001195   0.413023  -0.002892
 404   4   5.400325   0.746101  -3.250925   0.002529   0.413023   0.006124
 405   4   5.474602   2.774091  -3.483334   0.001452   0.201787   0.007197
 406   4   1.459928   0.490605  -1.769687  -0.000701   0.073898  -0.009487
 407   8   0.709513   0.865325  -1.541849  -0.001868   0.073898  -0.025276
 408  10   1.442033   0.239963  -1.603999  -0.000818   0.073898  -0.011066
 409   4   1.486690   0.429290   1.892574  -0.000793   0.073898  -0.010735
 410   8   0.733117   0.811242   1.688395  -0.001807   0.073898  -0.024452
 411  10   1.466315   0.184330   1.718868  -0.000737   0.073898  -0.009973
 412   8   0.355474   1.616654  -2.005724  -0.004704   0.269257  -0.017471
 413   4   1.472613   0.980455  -2.220160  -0.001847   0.378597  -0.004880
 414   8   0.342414   1.347021   2.048375  -0.004949   0.262988  -0.018819
 415   4   1.540872   1.062460   2.472051  -0.001634   0.369805  -0.004418
 416   4   5.313519  -1.722139  -0.381730  -0.000180   0.013826  -0.012994
 417  10   5.022611  -1.771551  -0.341543  -0.000190   0.013826  -0.013751
 418  12   6.054052  -1.766631  -0.343542  -0.000161   0.013826  -0.011635
 419   4   5.319854  -1.735229   0.367978  -0.000170   0.013826  -0.012297
 420  10   5.028294  -1.783294   0.331011  -0.000207   0.013826  -0.014940
 421  12   6.059623  -1.778143   0.315755  -0.000164   0.013826  -0.011878
 422  10   4.503616  -1.889036   0.620639  -0.000583   0.069419  -0.008396
 423  10   3.952895  -1.554369   1.552133  -0.001118   0.155186  -0.007204
 424  10   2.888920  -0.892601   2.100771  -0.000812   0.155186  -0.005231
 425  10   1.940079  -0.294575   1.942525  -0.000467   0.069419  -0.006732
 426   4   4.678918  -1.617362   1.124774  -0.001129   0.151096  -0.007469
 427   4   3.719981  -1.027621   2.170195  -0.000643   0.151096  -0.004258
 428   4   2.422299  -0.213798   2.288397  -0.000710   0.151096  -0.004698
 429  10   1.912059  -0.230881  -1.850352  -0.000470   0.069328  -0.006786
 430  10   2.857076  -0.822243  -2.042813  -0.000958   0.154934  -0.006183
 431  10   3.928127  -1.501299  -1.534546  -0.001080   0.154934  -0.006973
 432  10   4.493239  -1.867374  -0.625456  -0.000547   0.069328  -0.007890
 433   4   2.388574  -0.138063  -2.200431  -0.000762   0.150939  -0.005047
 434   4   3.686199  -0.954143  -2.129971  -0.000636   0.150939  -0.004214
 435   4   4.660580  -1.578537  -1.122252  -0.001116   0.150939  -0.007394
 436  12   6.564947  -1.965655   0.358206  -0.000091   0.009421  -0.009639
 437   4   5.467652  -1.816319   0.418951  -0.000045   0.013297  -0.003409
 438  12   6.557962  -1.953768  -0.391963  -0.000103   0.009683  -0.010602
 439   4   5.461015  -1.799906  -0.447532  -0.000055   0.013666  -0.004025
 440   5   6.583905   4.588858  -3.255375   0.000483   0.048113   0.010030
 441   6   6.549608   3.801762  -3.268793   0.000486   0.048113   0.010109
 442   7   6.783757   4.185868  -3.299784   0.000564   0.048113   0.011716
 443   5   6.638251   4.473148   3.437664   0.000500   0.048113   0.010392
 444   6   6.603955   3.686049   3.424423   0.000517   0.048113   0.010751
 445   7   6.838684   4.068920   3.464867   0.000543   0.048113   0.011293
 446   6   6.393070   3.642548  -3.371034   0.000085   0.005925   0.014401
 447   5   6.446378   4.764873  -3.353042   0.000093   0.005925   0.015737
 448   5  10.928753   7.334049  -0.361042  -0.000090   0.006543  -0.013815
 449   7  11.101601   6.917302  -0.363736  -0.000084   0.006543  -0.012884
 450  11  10.862824   7.619539  -0.313599  -0.000100   0.006543  -0.015236
 451   5  10.936420   7.318036   0.568759  -0.000102   0.006543  -0.015573
 452   7  11.109170   6.901492   0.554252  -0.000089   0.006543  -0.013613
 453  11  10.869798   7.604971   0.532267  -0.000101   0.006543  -0.015399
 454   7  11.173167   6.537087   1.084137  -0.000541   0.201128  -0.002691
 455   7  10.127435   5.951106   2.732479   0.001212   0.411600   0.002946
 456   7   8.082592   4.856176   3.594630   0.003486   0.411600   0.008470
 457   5  10.512001   6.906429   1.762658  -0.000999   0.411600  -0.002426
 458   5   8.874788   6.009626   3.387107   0.002325   0.411600   0.005649
 459   5   7.088798   5.063846   3.651111   0.001488   0.201128   0.007399
 460   7   7.332614   4.613695  -3.467918   0.001788   0.201097   0.008891
 461   7   9.122681   5.550165  -3.200605   0.002773   0.411529   0.006739
 462   7  10.786321   6.390767  -1.573455  -0.000774   0.411529  -0.001881
 463   5   7.723844   5.550369  -3.410139   0.003356   0.411529   0.008156
 464   5   9.782531   6.615327  -2.544345   0.000872   0.411529   0.002120
 465   5  10.855193   7.144366  -0.894409  -0.000650   0.201097  -0.003232
 466  11  10.748108   8.021103  -0.565958  -0.000476   0.070188  -0.006783
 467  11  10.148596   8.415101  -1.464047  -0.001042   0.157639  -0.006611
 468  11   9.047103   9.124709  -1.918429  -0.000846   0.157639  -0.005369
 469  11   7.946851   9.822413  -1.443087  -0.001014   0.157639  -0.006430
 470  11   7.349752  10.193265  -0.533607  -0.000461   0.070188  -0.006574
 471   5  10.545960   7.769217  -1.073991  -0.001024   0.152059  -0.006734
 472   5   9.527354   8.432046  -2.047980  -0.000675   0.152059  -0.004437
 473   5   8.215139   9.270788  -2.035489  -0.000702   0.152059  -0.004615
 474   5   7.199159   9.908426  -1.042131  -0.001068   0.152059  -0.007021
 475  11   7.361501  10.168640   0.898439  -0.000497   0.070191  -0.007079
 476  11   7.973360   9.766889   1.784741  -0.000990   0.157647  -0.006278
 477  11   9.081113   9.053536   2.217678  -0.000963   0.157647  -0.006109
 478  11  10.174818   8.360271   1.721072  -0.001011   0.157647  -0.006413
 479  11  10.759367   7.997578   0.800169  -0.000462   0.070191  -0.006587
 480   5   7.219200   9.866436   1.399284  -0.001005   0.152063  -0.006607
 481   5   8.251204   9.195280   2.353345  -0.000715   0.152063  -0.004701
 482   5   9.563255   8.356947   2.315398  -0.000673   0.152063  -0.004423
 483   5  10.565535   7.728301   1.302503  -0.001005   0.152063  -0.006612
 484   6  10.637441   0.571983   0.483003  -0.000111   0.006951  -0.015937
 485   7  10.845908   0.970876   0.481965  -0.000081   0.006951  -0.011715
 486  12  10.546531   0.293184   0.434219  -0.000105   0.006951  -0.015106
 487   6  10.628980   0.589363  -0.506373  -0.000125   0.006951  -0.017960
 488   7  10.837554   0.988036  -0.494891  -0.000090   0.006951  -0.013015
 489  12  10.538834   0.308995  -0.465864  -0.000099   0.006951  -0.014229
 490   7  10.920146   1.347557  -1.024286  -0.000507   0.199670  -0.002542
 491   7   9.896229   2.027484  -2.638814   0.001152   0.408482   0.002819
 492   7   7.946086   3.295226  -3.453077   0.003708   0.408482   0.009078
 493   6  10.215662   1.041097  -1.684580  -0.000818   0.408482  -0.002002
 494   6   8.634136   2.080275  -3.263230   0.002461   0.408482   0.006025
 495   6   6.940869   3.175238  -3.489753   0.001524   0.199670   0.007635
 496   7   7.349012   3.595085   3.623755   0.001553   0.199785   0.007772
 497   7   9.038886   2.508565   3.331347   0.002747   0.408737   0.006721
 498   7  10.594199   1.525094   1.690323  -0.000676   0.408737  -0.001654
 499   6   7.653523   2.630571   3.561633   0.003408   0.408737   0.008337
 500   6   9.590477   1.391881   2.671110   0.000971   0.408737   0.002375
 501   6  10.587345   0.768803   1.015897  -0.000611   0.199785  -0.003060
 502  12  10.398379  -0.098436   0.688358  -0.000483   0.070594  -0.006847
 503  12   9.769161  -0.446617   1.590943  -0.001060   0.158656  -0.006680
 504  12   8.606923  -1.063049   2.046140  -0.000876   0.158656  -0.005520
 505  12   7.444471  -1.658965   1.564914  -0.001051   0.158656  -0.006622
 506  12   6.814837  -1.967287   0.648234  -0.000506   0.070594  -0.007166
 507   6  10.220907   0.166477   1.200990  -0.001030   0.152853  -0.006739
 508   6   9.148794  -0.414455   2.179271  -0.000682   0.152853  -0.004460
 509   6   7.762723  -1.137304   2.163752  -0.000727   0.152853  -0.004756
 510   6   6.690156  -1.674844   1.161456  -0.001100   0.152853  -0.007196
 511  12   6.803611  -1.943528  -0.696259  -0.000526   0.070582  -0.007450
 512  12   7.417807  -1.602900  -1.611737  -0.001025   0.158621  -0.006459
 513  12   8.571996  -0.990136  -2.091064  -0.000989   0.158621  -0.006236
 514  12   9.741776  -0.389859  -1.634264  -0.001015   0.158621  -0.006401
 515  12  10.386265  -0.073490  -0.730987  -0.000462   0.070582  -0.006545
 516   6   6.670410  -1.633202  -1.196617  -0.001034   0.152832  -0.006767
 517   6   7.726015  -1.060396  -2.197008  -0.000739   0.152832  -0.004833
 518   6   9.111627  -0.337149  -2.210439  -0.000675   0.152832  -0.004416
 519   6  10.200209   0.209247  -1.230832  -0.001003   0.152832  -0.006560
 520   7  11.316011   6.598861   0.379849  -0.000113   0.010576  -0.010714
 521  11  10.983667   7.261765   0.358892  -0.000141   0.010576  -0.013298
 522  13  11.499957   6.370559   0.344872  -0.000142   0.010576  -0.013410
 523   7  11.311818   6.608824  -0.197643  -0.000111   0.010576  -0.010515
 524  11  10.979980   7.270527  -0.149011  -0.000138   0.010576  -0.013091
 525  13  11.496196   6.379498  -0.173236  -0.000119   0.010576  -0.011244
 526  11  10.888605   7.790175   0.468894  -0.000189   0.028685  -0.006605
 527   7  11.308620   6.764935   0.472735  -0.000085   0.040487  -0.002111
 528  11  10.887350   7.802038  -0.212000  -0.000219   0.029717  -0.007365
 529   7  11.298712   6.778386  -0.314538  -0.000088   0.041944  -0.002094
 530  12  10.549553   0.120759  -0.333329  -0.000407   0.065364  -0.006227
 531   7  11.061056   1.102860  -0.299922  -0.000301   0.092256  -0.003257
 532  12  10.561701   0.109957   0.231945  -0.000433   0.063998  -0.006762
 533   7  11.059622   1.092251   0.351524  -0.000227   0.090328  -0.002509
 534  13  11.851682   5.972172   0.613343  -0.000472   0.067039  -0.007043
 535  13  11.833927   5.357934   1.531417  -0.000764   0.149253  -0.005119
 536  13  11.789207   4.150890   2.101346  -0.000696   0.149253  -0.004666
 537  13  11.733737   2.847252   1.816349  -0.000644   0.149253  -0.004315
 538  13  11.690538   1.988087   0.794711  -0.000969   0.149253  -0.006493
 539   7  11.531944   6.001457   1.107007  -0.000848   0.146441  -0.005789
 540   7  11.496270   4.923704   2.150183  -0.000447   0.146441  -0.003056
 541   7  11.436826   3.434098   2.319236  -0.000396   0.146441  -0.002704
 542   7  11.378285   2.150890   1.543999  -0.000672   0.146441  -0.004587
 543   7  11.345937   1.567030   0.474058  -0.000451   0.081903  -0.005509
 544  13  11.674657   1.830037  -0.389441  -0.000451   0.067032  -0.006733
 545  13  11.689495   2.380504  -1.347035  -0.000830   0.149234  -0.005564
 546  13  11.731875   3.545955  -1.997698  -0.000569   0.149234  -0.003811
 547  13  11.787296   4.865855  -1.802176  -0.000691   0.149234  -0.004629
 548  13  11.832762   5.792499  -0.841604  -0.000996   0.149234  -0.006671
 549   7  11.344446   1.793909  -0.875666  -0.000919   0.146428  -0.006276
 550   7  11.376562   2.798273  -1.989595  -0.000442   0.146428  -0.003021
 551   7  11.434588   4.272834  -2.259631  -0.000344   0.146428  -0.002349
 552   7  11.494444   5.605711  -1.573719  -0.000680   0.146428  -0.004644
 553   7  11.529370   6.261016  -0.546212  -0.000514   0.081894  -0.006273
 554  10   1.243996  -0.154404   1.511621  -0.001499   0.240226  -0.006241
 555  10   0.957319  -0.493487   0.414974  -0.004726   0.480680  -0.009831
 556  10   1.100914  -0.272316  -1.001063  -0.004193   0.480680  -0.008724
 557   8   0.030401   0.539000   1.126279  -0.008585   0.480680  -0.017859
 558   8  -0.133920   0.365318  -0.294119  -0.009076   0.480680  -0.018882
 559   8   0.136787   0.740991  -1.382872  -0.003649   0.240226  -0.015190
 560  11   6.920778  10.321159   0.152103  -0.000108   0.119948  -0.000903
 561   9   5.449848  10.392381   0.236246  -0.000152   0.119948  -0.001269
 562  12   6.381636  -2.033162   0.045965  -0.000530   0.227529  -0.002329
 563  10   4.907778  -1.974991  -0.074877  -0.000640   0.227529  -0.002813
 564  13  11.727193   6.372965   0.032393  -0.000247   0.174730  -0.001415
 565  11  11.045728   7.675044   0.163257  -0.000269   0.174730  -0.001537
 566  13  11.524510   1.462473   0.024964  -0.000109   0.082651  -0.001322
 567  12  10.730770   0.221587  -0.039858  -0.000051   0.082651  -0.000613
 =====================================================

              2467547  WORDS OF DYNAMIC MEMORY USED
 EXECUTION OF GAMESS TERMINATED NORMALLY Fri Nov 25 10:08:53 2016
 DDI: 263640 bytes (0.3 MB / 0 MWords) used by master data server.

 ----------------------------------------
 CPU timing information for all processes
 ========================================
 0: 304.576 + 0.112 = 304.688
 ----------------------------------------
 ddikick.x: exited gracefully.
