----- GAMESS execution script -----

          ******************************************************
          *         GAMESS VERSION =  5 DEC 2014 (R1)          *
          *             FROM IOWA STATE UNIVERSITY             *
          * M.W.SCHMIDT, K.K.BALDRIDGE, J.A.BOATZ, S.T.ELBERT, *
          *   M.S.GORDON, J.H.JENSEN, S.KOSEKI, N.MATSUNAGA,   *
          *          K.A.NGUYEN, S.J.SU, T.L.WINDUS,           *
          *       TOGETHER WITH M.DUPUIS, J.A.MONTGOMERY       *
          *         J.COMPUT.CHEM.  14, 1347-1363(1993)        *
          **************** 64 BIT LINUX VERSION ****************

 EXECUTION OF GAMESS BEGUN Sun Nov 27 10:57:29 2016

            ECHO OF THE FIRST FEW INPUT CARDS -
 INPUT CARD>! SELECT RESTRICTED HARTREE-FOCK AS DEFAULT                                     
 INPUT CARD>$contrl scftyp=rhf $end                                                         
 INPUT CARD>                                                                                
 INPUT CARD>! THEORY: HF OR DFT                                                             
 INPUT CARD> $contrl mplevl=0 $end                                                          
 INPUT CARD>                                                                                
 INPUT CARD> $system timlim=10000 mwords=20 $end                                            
 INPUT CARD> $SCF DIRSCF=.TRUE. $end                                                        
 INPUT CARD>                                                                                
 INPUT CARD>                                                                                
 INPUT CARD>! BASIS SETS                                                                    
 INPUT CARD>! 6-311G(d,p)                                                                   
 INPUT CARD> $BASIS GBASIS=N311 NGAUSS=6 NDFUNC=1 NPFUNC=1 $END                             
 INPUT CARD>                                                                                
 INPUT CARD>! One of the following                                                          
 INPUT CARD> $guess guess=HUCKEL $end                                                       
 INPUT CARD>                                                                                
 INPUT CARD> $statpt projct=.FALSE. $end                                                    
 INPUT CARD> $STATPT IFREEZ(1)=1,2,3 $END                                                   
 INPUT CARD>                                                                                
 INPUT CARD>! Optimize the geometry with COSMO effects                                      
 INPUT CARD> $statpt opttol=0.0005 nstep=50 $end                                            
 INPUT CARD> $contrl nzvar=1 $end                                                           
 INPUT CARD> $zmat dlc=.t. auto=.t. $end                                                    
 INPUT CARD> $contrl runtyp=OPTIMIZE maxit=200 $end                                         
 INPUT CARD>                                                                                
 INPUT CARD>! Run COSMO on perfect conductor                                                
 INPUT CARD> $COSGMS PRFCND=.TRUE. $end                                                     
 INPUT CARD>                                                                                
 INPUT CARD>! Specifying RSOLV                                                              
 INPUT CARD> $COSGMS COSRAD = 1.4 $end                                                      
 INPUT CARD>                                                                                
 INPUT CARD>! available memory                                                              
 INPUT CARD> $SYSTEM MWORDS=40 $END                                                         
 INPUT CARD>                                                                                
 INPUT CARD> $DATA                                                                          
 INPUT CARD>Propene, ID: C115071                                                            
 INPUT CARD>C1                                                                              
 INPUT CARD>C      6.0      0.6941000000    0.9985000000    0.8681000000                    
 INPUT CARD>C      6.0      1.7568000000    1.9782000000    1.1864000000                    
 INPUT CARD>C      6.0      3.0508000000    1.6797000000    1.1820000000                    
 INPUT CARD>H      1.0      0.0000000000    0.8944000000    1.7128000000                    
 INPUT CARD>H      1.0      0.1099000000    1.3323000000    0.0000000000                    
 INPUT CARD>H      1.0      1.0889000000    0.0000000000    0.6381000000                    
 INPUT CARD>H      1.0      1.4145000000    2.9905000000    1.4321000000                    
 INPUT CARD>H      1.0      3.8210000000    2.4077000000    1.4170000000                    
 INPUT CARD>H      1.0      3.4325000000    0.6904000000    0.9445000000                    
 INPUT CARD> $END                                                                           
 INPUT CARD>                                                                                
 INPUT CARD>                                                                                
   40000000 WORDS OF MEMORY AVAILABLE

     BASIS OPTIONS
     -------------
     GBASIS=N311         IGAUSS=       6      POLAR=POPN311 
     NDFUNC=       1     NFFUNC=       0     DIFFSP=       F
     NPFUNC=       1      DIFFS=       F     BASNAM=        


     RUN TITLE
     ---------
 Propene, ID: C115071                                                            

 THE POINT GROUP OF THE MOLECULE IS C1      
 THE ORDER OF THE PRINCIPAL AXIS IS     0

 ATOM      ATOMIC                      COORDINATES (BOHR)
           CHARGE         X                   Y                   Z
 C           6.0     1.3116588081        1.8868913987        1.6404711299
 C           6.0     3.3198706152        3.7382559489        2.2419709118
 C           6.0     5.7651760433        3.1741727416        2.2336561175
 H           1.0     0.0000000000        1.6901709234        3.2367226718
 H           1.0     0.2076808861        2.5176819334        0.0000000000
 H           1.0     2.0577226280        0.0000000000        1.2058341528
 H           1.0     2.6730174096        5.6512255663        2.7062765870
 H           1.0     7.2206429991        4.5498932606        2.6777417246
 H           1.0     6.4864844529        1.3046668219        1.7848461954

          INTERNUCLEAR DISTANCES (ANGS.)




     $CONTRL OPTIONS
     ---------------
 SCFTYP=RHF          RUNTYP=OPTIMIZE     EXETYP=RUN     
 MPLEVL=       0     CITYP =NONE         CCTYP =NONE         VBTYP =NONE    
 DFTTYP=NONE         TDDFT =NONE    
 MULT  =       1     ICHARG=       0     NZVAR =       1     COORD =UNIQUE  
 PP    =NONE         RELWFN=NONE         LOCAL =NONE         NUMGRD=       F
 ISPHER=      -1     NOSYM =       0     MAXIT =     200     UNITS =ANGS    
 PLTORB=       F     MOLPLT=       F     AIMPAC=       F     FRIEND=        
 NPRINT=       7     IREST =       0     GEOM  =INPUT   
 NORMF =       0     NORMP =       0     ITOL  =      20     ICUT  =       9
 INTTYP=BEST         GRDTYP=BEST         QMTTOL= 1.0E-06

     $SYSTEM OPTIONS
     ---------------
  REPLICATED MEMORY=    40000000 WORDS (ON EVERY NODE).
 DISTRIBUTED MEMDDI=           0 MILLION WORDS IN AGGREGATE,
 MEMDDI DISTRIBUTED OVER   1 PROCESSORS IS           0 WORDS/PROCESSOR.
 TOTAL MEMORY REQUESTED ON EACH PROCESSOR=    40000000 WORDS.
 TIMLIM=       10000.00 MINUTES, OR       6.9 DAYS.
 PARALL= F  BALTYP=  DLB     KDIAG=    0  COREFL= F
 MXSEQ2=     300 MXSEQ3=     150  mem10=         0

     $COSGMS OPTIONS
     ---------------
     EPSI  =   INFTY     NSPA  =      92     COSRAD=    1.40
     DISEX =   10.00     OUTCHG=DBLCAV       COSBUG=       F
     COSWRT=       F     DCOSMO=       F

     SYMMETRY COORDINATES WILL NOT BE USED FOR 
     THE COSMO CALCULATION, EVEN IF SPECIFIED:
         -- SWITCHING TO C1 POINT GROUP --


     DEFINITION OF CAVITY
     ---------------------------
     ATOM         COORDINATES           RADIUS 
     1    1.3117    1.8869    1.6405    2.0000
     2    3.3199    3.7383    2.2420    2.0000
     3    5.7652    3.1742    2.2337    2.0000
     4    0.0000    1.6902    3.2367    1.3000
     5    0.2077    2.5177    0.0000    1.3000
     6    2.0577    0.0000    1.2058    1.3000
     7    2.6730    5.6512    2.7063    1.3000
     8    7.2206    4.5499    2.6777    1.3000
     9    6.4865    1.3047    1.7848    1.3000

          ----------------
          PROPERTIES INPUT
          ----------------

     MOMENTS            FIELD           POTENTIAL          DENSITY
 IEMOM =       1   IEFLD =       0   IEPOT =       0   IEDEN =       0
 WHERE =COMASS     WHERE =NUCLEI     WHERE =NUCLEI     WHERE =NUCLEI  
 OUTPUT=BOTH       OUTPUT=BOTH       OUTPUT=BOTH       OUTPUT=BOTH    
 IEMINT=       0   IEFINT=       0                     IEDINT=       0
                                                       MORB  =       0
          EXTRAPOLATION IN EFFECT
          SOSCF IN EFFECT
 ORBITAL PRINTING OPTION: NPREO=     1    93     2     1

     -------------------------------
     INTEGRAL TRANSFORMATION OPTIONS
     -------------------------------
     NWORD  =            0
     CUTOFF = 1.0E-09     MPTRAN =       0
     DIRTRF =       T     AOINTS =DUP     

          ----------------------
          INTEGRAL INPUT OPTIONS
          ----------------------
 NOPK  =       1 NORDER=       0 SCHWRZ=       T


 -----------------------------------------------
  STATISTICS ON AUTOMATIC COORDINATE GENERATION 
 -----------------------------------------------
  NUMBER OF USER SPECIFIED BONDS                             0
  NUMBER OF BONDS                                            8
  NUMBER OF ANGLES                                          12
  NUMBER OF TORSIONS                                        10
  NUMBER OF EXTRA COORD.                                     0
  NUMBER OF EXTRA COORD. FOR CONSTRAINTS                     0
  NUMBER OF CONSTRAINED COORD.                               0

  TOTAL NUMBER OF PRIMITIVES                                30
 -----------------------------------------------

   --- ENCODED Z MATRIX ---
 COORD  TYPE   I   J   K   L   M   N
    1      1    1   4
    2      1    1   5
    3      1    1   2
    4      1    1   6
    5      1    2   7
    6      1    2   3
    7      1    3   8
    8      1    3   9
    9      2    1   2   7
   10      2    1   2   3
   11      2    2   3   8
   12      2    2   1   4
   13      2    2   3   9
   14      2    2   1   6
   15      2    2   1   5
   16      2    3   2   7
   17      2    4   1   6
   18      2    4   1   5
   19      2    5   1   6
   20      2    8   3   9
   21      3    1   2   3   8
   22      3    1   2   3   9
   23      3    3   2   1   6
   24      3    3   2   1   5
   25      3    3   2   1   4
   26      3    4   1   2   7
   27      3    5   1   2   7
   28      3    6   1   2   7
   29      3    7   2   3   9
   30      3    7   2   3   8

          INDEP./SYM. INTERNAL COORDINATES
          --------------------------------
 CRD  1=  -0.2114 (  3) -0.1954 (  6)  0.3228 (  9) -0.6585 ( 10)  0.2190 ( 11)
          -0.2985 ( 13) -0.2814 ( 14)  0.3357 ( 16)
 CRD  2=  -0.5834 (  3) -0.1399 (  5) -0.3735 (  6) -0.1558 (  7) -0.1705 (  9)
          -0.2465 ( 11) -0.3164 ( 12)  0.1422 ( 14) -0.3130 ( 15)  0.1268 ( 17)
           0.2647 ( 18)  0.1255 ( 19)  0.1704 ( 20)
 CRD  3=  -0.1230 (  1)  0.1241 (  2) -0.5976 ( 12)  0.6037 ( 15)  0.2031 ( 17)
          -0.2009 ( 19)  0.2484 ( 21)  0.1059 ( 22) -0.1725 ( 24) -0.1741 ( 25)
           0.1459 ( 28)
 CRD  4=   0.1838 (  3) -0.4919 (  6) -0.1354 (  7)  0.4904 (  9) -0.3503 ( 11)
           0.1079 ( 12)  0.1108 ( 13)  0.1049 ( 15) -0.4800 ( 16)  0.2394 ( 20)
 CRD  5=   0.2579 (  3)  0.1873 (  4) -0.1920 (  6)  0.1442 (  7) -0.2104 (  8)
           0.2815 ( 11) -0.1943 ( 12) -0.3782 ( 13)  0.6075 ( 14) -0.1861 ( 15)
          -0.1892 ( 17)  0.1374 ( 18) -0.1926 ( 19)
 CRD  6=  -0.1587 ( 21) -0.4277 ( 22) -0.3316 ( 23) -0.3053 ( 24) -0.3048 ( 25)
          -0.2765 ( 26) -0.2770 ( 27) -0.3033 ( 28) -0.4574 ( 29) -0.1884 ( 30)
 CRD  7=  -0.1001 (  4) -0.5522 (  5) -0.1987 (  6)  0.2655 (  7) -0.2938 (  8)
          -0.1508 (  9)  0.2783 ( 10)  0.2465 ( 11) -0.3872 ( 13) -0.2754 ( 14)
          -0.1275 ( 16)  0.1026 ( 17) -0.1126 ( 18)  0.1051 ( 19)  0.1407 ( 20)
 CRD  8=   0.4411 (  1)  0.4411 (  2)  0.1171 (  3)  0.4758 (  4) -0.1319 (  7)
          -0.2131 (  8)  0.1028 (  9)  0.1242 ( 11) -0.1961 ( 12) -0.1653 ( 14)
          -0.1958 ( 15) -0.1053 ( 16)  0.1920 ( 17)  0.2105 ( 18)  0.1917 ( 19)
          -0.2013 ( 20)
 CRD  9=  -0.1759 (  1) -0.1756 (  2) -0.1788 (  4) -0.1061 (  6) -0.5034 (  7)
          -0.5375 (  8)  0.2408 ( 11)  0.2171 ( 13) -0.4579 ( 20)
 CRD 10=   0.1712 ( 12) -0.1728 ( 15) -0.2762 ( 17)  0.2740 ( 19)  0.5587 ( 21)
           0.2097 ( 22) -0.3071 ( 24) -0.3087 ( 25) -0.1711 ( 26) -0.1695 ( 27)
           0.4145 ( 30)
 CRD 11=  -0.3048 (  1) -0.2994 (  2)  0.5908 (  4)  0.1988 ( 17) -0.4063 ( 18)
           0.2023 ( 19) -0.2297 ( 24)  0.2288 ( 25)  0.2287 ( 26) -0.2299 ( 27)
 CRD 12=  -0.5511 (  1)  0.5553 (  2) -0.2700 ( 17)  0.2685 ( 19) -0.1833 ( 21)
           0.3114 ( 23)  0.2795 ( 28) -0.1499 ( 30)
 CRD 13=  -0.2476 (  1) -0.2457 (  2) -0.2006 (  3) -0.1011 (  4)  0.2126 (  6)
           0.4825 (  7)  0.3772 (  9)  0.1451 ( 11) -0.1768 ( 12)  0.1085 ( 13)
          -0.1018 ( 14) -0.1759 ( 15) -0.3819 ( 16)  0.1305 ( 17)  0.2259 ( 18)
           0.1293 ( 19) -0.2536 ( 20)
 CRD 14=   0.2390 (  4) -0.7027 (  5)  0.4954 (  8)  0.1436 (  9) -0.1445 ( 10)
           0.1314 ( 11)  0.1120 ( 13)  0.1586 ( 14) -0.1175 ( 17) -0.1191 ( 19)
          -0.2435 ( 20)
 CRD 15=  -0.1251 (  1)  0.1270 (  2) -0.2942 ( 21)  0.3435 ( 22) -0.1378 ( 23)
          -0.3048 ( 26) -0.3059 ( 27) -0.3974 ( 28)  0.6157 ( 29)
 CRD 16=   0.1936 (  1)  0.1934 (  2) -0.4052 (  3)  0.2109 (  4) -0.1873 (  6)
           0.4898 (  7) -0.2011 (  8)  0.2056 ( 12)  0.2818 ( 13)  0.1889 ( 14)
           0.2053 ( 15) -0.2171 ( 17) -0.2052 ( 18) -0.2169 ( 19) -0.1917 ( 20)
 CRD 17=   0.1064 (  1)  0.1024 (  2) -0.2600 (  4)  0.2620 (  5) -0.5305 (  6)
           0.4551 (  8)  0.1229 ( 10)  0.3399 ( 11)  0.1007 ( 17) -0.1479 ( 18)
           0.1035 ( 19) -0.3414 ( 20) -0.1107 ( 24)  0.1096 ( 25)  0.1098 ( 26)
          -0.1105 ( 27)
 CRD 18=  -0.1284 (  1) -0.1332 (  2)  0.5303 (  3) -0.1764 (  5) -0.2890 (  6)
           0.3257 (  7) -0.1547 (  8) -0.1794 (  9) -0.1745 ( 10) -0.2050 ( 11)
          -0.1004 ( 12)  0.3233 ( 13) -0.1373 ( 14)  0.3539 ( 16)  0.1002 ( 17)
           0.1565 ( 18)  0.1036 ( 19) -0.1184 ( 20)
 CRD 19=  -0.3798 (  1)  0.3821 (  2)  0.1388 ( 12) -0.1420 ( 15)  0.2681 ( 17)
          -0.2638 ( 19)  0.2865 ( 21) -0.1601 ( 22) -0.2257 ( 23)  0.2133 ( 24)
           0.2176 ( 25)  0.1317 ( 26)  0.1274 ( 27) -0.3116 ( 28)  0.3766 ( 30)
 CRD 20=   0.2029 (  1)  0.1963 (  2) -0.4043 (  4) -0.2205 (  5)  0.2115 (  6)
          -0.1233 (  8)  0.2315 (  9) -0.2696 ( 10) -0.1338 ( 11) -0.1388 ( 12)
           0.2555 ( 14) -0.1346 ( 15)  0.1399 ( 17) -0.2788 ( 18)  0.1444 ( 19)
          -0.2615 ( 24)  0.2585 ( 25)  0.2585 ( 26) -0.2615 ( 27)
 CRD 21=  -0.1219 (  1)  0.1233 (  2)  0.1390 ( 12) -0.1405 ( 15)  0.4700 ( 22)
          -0.4200 ( 23) -0.2130 ( 24) -0.2108 ( 25)  0.3053 ( 26)  0.3032 ( 27)
          -0.4749 ( 30)

 THE DETERMINANT OF THE G MATRIX IS 10**(    -6)


                     --------------------
                     INTERNAL COORDINATES
                     --------------------

                 - - ATOMS - -         COORDINATE      COORDINATE
 NO.   TYPE    I  J  K  L  M  N        (BOHR,RAD)       (ANG,DEG)
 ----------------------------------------------------------------
   1 STRETCH   1  4                     2.0753715       1.0982394
   2 STRETCH   1  5                     2.0755263       1.0983213
   3 STRETCH   1  2                     2.7968317       1.4800197
   4 STRETCH   1  6                     2.0750614       1.0980753
   5 STRETCH   2  7                     2.0720646       1.0964894
   6 STRETCH   2  3                     2.5095373       1.3279901
   7 STRETCH   3  8                     2.0513905       1.0855492
   8 STRETCH   3  9                     2.0534772       1.0866534
   9 BEND      1  2  7                  2.0210160     115.7956900
  10 BEND      1  2  3                  2.1533400     123.3772945
  11 BEND      2  3  8                  2.1410963     122.6757811
  12 BEND      2  1  4                  1.9295783     110.5566931
  13 BEND      2  3  9                  2.1503298     123.2048194
  14 BEND      2  1  6                  1.9701373     112.8805498
  15 BEND      2  1  5                  1.9291449     110.5318612
  16 BEND      3  2  7                  2.1088290     120.8270015
  17 BEND      4  1  6                  1.8777351     107.5862942
  18 BEND      4  1  5                  1.8760744     107.4911434
  19 BEND      5  1  6                  1.8776337     107.5804856
  20 BEND      8  3  9                  1.9917592     114.1193979
  21 TORSION   1  2  3  8               3.1411601     179.9752174
  22 TORSION   1  2  3  9              -0.0007056      -0.0404270
  23 TORSION   3  2  1  6               0.0093857       0.5377595
  24 TORSION   3  2  1  5              -2.0944247    -120.0016936
  25 TORSION   3  2  1  4               2.1136343     121.1023276
  26 TORSION   4  1  2  7              -1.0287056     -58.9404877
  27 TORSION   5  1  2  7               1.0464207      59.9554912
  28 TORSION   6  1  2  7              -3.1329542    -179.5050558
  29 TORSION   7  2  3  9              -3.1415147    -179.9955359
  30 TORSION   7  2  3  8               0.0003510       0.0201084

     ------------------------------------------
     THE POINT GROUP IS C1 , NAXIS= 1, ORDER= 1
     ------------------------------------------

     DIMENSIONS OF THE SYMMETRY SUBSPACES ARE
 A   =   93

 ..... DONE SETTING UP THE RUN .....
 STEP CPU TIME =     0.00 TOTAL CPU TIME =        0.0 (    0.0 MIN)
 TOTAL WALL CLOCK TIME=        0.0 SECONDS, CPU UTILIZATION IS   0.00%


          -----------------------------
          STATIONARY POINT LOCATION RUN
          -----------------------------

 OBTAINING INITIAL HESSIAN, HESS=GUESS   
 DIAGONAL GUESS HESSIAN IN INTERNAL COORDS IS
     1  0.3409     2  0.3408     3  0.4046     4  0.3410     5  0.3420
     6  0.5438     7  0.3494     8  0.3486     9  0.2267    10  0.2672
    11  0.2369    12  0.2266    13  0.2369    14  0.2266    15  0.2266
    16  0.2362    17  0.2026    18  0.2026    19  0.2026    20  0.2038
    21  0.2500    22  0.2500    23  0.2500    24  0.2500    25  0.2500
    26  0.2500    27  0.2500    28  0.2500    29  0.2500    30  0.2500
 TRANSFORMING HESSIAN TO SYMMETRY COORDINATES

          PARAMETERS CONTROLLING GEOMETRY SEARCH ARE
          METHOD =QA                  UPHESS =BFGS    
          NNEG   =         0          NFRZ   =         3
          NSTEP  =        50          IFOLOW =         1
          HESS   =GUESS               RESTAR =         F
          IHREP  =         0          HSSEND =         F
          NPRT   =         0          NPUN   =         0
          OPTTOL = 5.000E-04          RMIN   = 1.500E-03
          RMAX   = 1.000E-01          RLIM   = 7.000E-02
          DXMAX  = 3.000E-01          PURIFY =         F
          MOVIE  =         F          TRUPD  =         T
          TRMAX  = 5.000E-01          TRMIN  = 5.000E-02
          ITBMAT =         5          STPT   =         F
          STSTEP = 1.000E-02          PROJCT=          F
          FROZEN COORD(S)=   1   2   3


      ***** EQUILIBRIUM GEOMETRY LOCATED *****
            (SUBJECT TO   3 CONSTRAINT(S))
 COORDINATES OF ALL ATOMS ARE (ANGS)
   ATOM   CHARGE       X              Y              Z
 ------------------------------------------------------------
 C           6.0   0.6793610968   0.9927632018   0.8657470293
 C           6.0   1.7684796932   1.9746639856   1.1861418129
 C           6.0   3.0558307919   1.6869456207   1.1842139259
 H           1.0  -0.0064857843   0.8967471657   1.7034262625
 H           1.0   0.1021955042   1.3303385153   0.0088059346
 H           1.0   1.0917079840   0.0144496290   0.6417923204
 H           1.0   1.4486441047   2.9772574363   1.4304825115
 H           1.0   3.8021321058   2.4255038702   1.4203241027
 H           1.0   3.4051307974   0.6951408102   0.9443986401


                     --------------------
                     INTERNAL COORDINATES
                     --------------------

                 - - ATOMS - -         COORDINATE      COORDINATE
 NO.   TYPE    I  J  K  L  M  N        (BOHR,RAD)       (ANG,DEG)
 ----------------------------------------------------------------
   1 STRETCH   1  4                     2.0539083       1.0868816
   2 STRETCH   1  5                     2.0540072       1.0869339
   3 STRETCH   1  2                     2.8364537       1.5009868
   4 STRETCH   1  6                     2.0504033       1.0850268
   5 STRETCH   2  7                     2.0415958       1.0803661
   6 STRETCH   2  3                     2.4927616       1.3191127
   7 STRETCH   3  8                     2.0337016       1.0761886
   8 STRETCH   3  9                     2.0381014       1.0785169
   9 BEND      1  2  7                  2.0270016     116.1386376
  10 BEND      1  2  3                  2.1713924     124.4116197
  11 BEND      2  3  8                  2.1255839     121.7869871
  12 BEND      2  1  4                  1.9295917     110.5574626
  13 BEND      2  3  9                  2.1141111     121.1296422
  14 BEND      2  1  6                  1.9370683     110.9858389
  15 BEND      2  1  5                  1.9288125     110.5128141
  16 BEND      3  2  7                  2.0847910     119.4497255
  17 BEND      4  1  6                  1.8957210     108.6168115
  18 BEND      4  1  5                  1.8754860     107.4574336
  19 BEND      5  1  6                  1.8955757     108.6084856
  20 BEND      8  3  9                  2.0434903     117.0833702
  21 TORSION   1  2  3  8               3.1408444     179.9571261
  22 TORSION   1  2  3  9              -0.0008868      -0.0508076
  23 TORSION   3  2  1  6               0.0091072       0.5218061
  24 TORSION   3  2  1  5              -2.0950376    -120.0368114
  25 TORSION   3  2  1  4               2.1139547     121.1206811
  26 TORSION   4  1  2  7              -1.0284786     -58.9274816
  27 TORSION   5  1  2  7               1.0457145      59.9150259
  28 TORSION   6  1  2  7              -3.1333260    -179.5263565
  29 TORSION   7  2  3  9               3.1415725     179.9988453
  30 TORSION   7  2  3  8               0.0001183       0.0067790

          INTERNUCLEAR DISTANCES (ANGS.)


 =====================================================
   GAMESS/COSab RESULTS
 =====================================================

   Dielectric Constant                  = INFTY
   Basic Grid Size                      =                 1082
   Number of Segments                   =                   92
   Number of Segments located on spheres=                  172
   Number of Segments of the cavity     =                  357
   Solvent Radius (rsolv)               = 1.40
   Outlying Charge Error Method         = double cavity

 =====================================================

  Total solvated Energy (a.u.)          =  -117.1062095362
  Total Energy corrected (a.u.)         =  -117.1061985474

  Outlying charge effect (a.u.)         =     0.0000109888
  Outlying charge effect (kcal/mol)     =     0.0068955827

  Dielectric Energy (a.u.)              =    -0.0030301990
  Dielectric energy corr. (a.u.)        =    -0.0030192102

  Sum of polarization charges           =     0.0202495297
  Sum of polarization charges(cor.)     =    -0.0202495297

  Total surface area of cavity (A**2)   =   92.23
  Total volume of cavity (A**3)         =   74.73

 =====================================================
 NPS=                   357
NR.  ATOM  (X, Y, Z)(a.u.)                  CHARGE(e)  AREA(A**2) SIGMA(e/A**2)
   1   1   0.224445  -0.194983  -1.342716   0.001672   0.418105   0.003999
   2   1   2.359077  -0.087552   4.681069   0.000654   0.278737   0.002345
   3   1  -1.106696   4.674589   2.495011   0.000332   0.278737   0.001193
   4   1  -2.394513   1.492480   0.856876   0.001292   0.418105   0.003090
   5   1  -0.284770  -1.532624   2.088549   0.000999   0.371649   0.002687
   6   1   3.240185   0.926180  -1.455039   0.000251   0.139368   0.001804
   7   1   2.455882   2.496137  -1.903193   0.000502   0.185824   0.002700
   8   1   2.614331   1.384847  -1.867226   0.000652   0.325193   0.002005
   9   1   1.828184   0.554101  -1.862610   0.001450   0.371649   0.003903
  10   1  -0.619189  -1.077751   3.028112   0.001025   0.371649   0.002758
  11   1  -2.479353   1.660875   1.912679   0.000816   0.278737   0.002928
  12   1  -1.643558   4.000921   2.731304   0.000610   0.278737   0.002188
  13   1   1.322937  -0.182928   4.805141   0.000732   0.278737   0.002627
  14   1   0.938669   0.616632  -1.910675   0.000718   0.232280   0.003091
  15   1   1.326231  -0.279384  -1.468270   0.000918   0.278737   0.003294
  16   1   2.333696   0.612255   5.039666   0.000254   0.139368   0.001826
  17   1  -0.803386   4.419372   3.495946   0.000100   0.232280   0.000430
  18   1  -1.801758   4.056659   1.544184   0.000965   0.325193   0.002968
  19   1  -2.382932   2.749100   1.358503   0.001511   0.371649   0.004067
  20   1  -2.171344   0.363579   1.393938   0.000966   0.464561   0.002080
  21   1  -1.282635  -0.897747   1.696713   0.000793   0.464561   0.001708
  22   1   0.559175  -1.507361   3.156451   0.001380   0.371649   0.003714
  23   1   1.580393  -0.786715   4.301725   0.000733   0.232280   0.003156
  24   1   2.674229  -0.752890   3.968333   0.000600   0.278737   0.002151
  25   1  -1.045380   4.844849   1.423135   0.000371   0.325193   0.001140
  26   1  -1.845093   0.387019   0.127038   0.000638   0.371649   0.001718
  27   1  -0.944659  -0.112599  -0.679901   0.000897   0.418105   0.002145
  28   1  -0.187271  -0.944697  -0.404472   0.001076   0.464561   0.002315
  29   1  -0.443810  -1.403508   0.898375   0.000512   0.325193   0.001574
  30   1   1.995151   1.950913  -2.075137   0.000484   0.232280   0.002084
  31   1   2.882772   0.428572  -1.467597   0.000475   0.185824   0.002554
  32   1  -1.787619  -0.243747   2.233551   0.000411   0.278737   0.001474
  33   1  -2.175330   3.316942   2.128361   0.000988   0.278737   0.003546
  34   1   1.694818   0.709535   5.207372   0.000276   0.185824   0.001486
  35   1   0.561567  -0.984761   3.997881   0.000983   0.278737   0.003525
  36   1  -0.478419   5.101438   0.755314  -0.000023   0.139368  -0.000164
  37   1  -1.354578  -0.583484   0.507356   0.000526   0.418105   0.001258
  38   1   1.690936  -1.268454   3.692867   0.000756   0.232280   0.003253
  39   2   3.441900   1.725895   5.443284   0.001229   0.185824   0.006612
  40   2   1.362513   4.276870   5.414608   0.000210   0.232280   0.000903
  41   2   4.042047   5.411767   5.553733   0.001988   0.278737   0.007131
  42   2   2.953469   6.088348  -0.687500   0.001259   0.371649   0.003389
  43   2   2.338281   6.625320   0.027184   0.000563   0.278737   0.002021
  44   2   4.687752   7.200366   1.577795   0.000231   0.092912   0.002491
  45   2   4.183694   6.181956   4.993077   0.000608   0.278737   0.002181
  46   2   0.941724   5.124147   4.807393  -0.000070   0.278737  -0.000253
  47   2   2.076850   4.616639   5.691180   0.000751   0.325193   0.002308
  48   2   3.351194   4.882526   5.841403   0.001266   0.232280   0.005451
  49   2   4.321540   7.078172   0.783787   0.001213   0.278737   0.004353
  50   2   4.124715   6.508279  -0.200115   0.002177   0.371649   0.005857
  51   2   1.777714   5.989445  -0.354561   0.000427   0.278737   0.001531
  52   2   2.288382   3.446184   5.859879   0.000814   0.278737   0.002919
  53   2   2.881593   2.418532   5.755490   0.001254   0.232280   0.005400
  54   2   3.513119   2.886310   5.921220   0.002268   0.232280   0.009763
  55   2   3.886364   4.082211   5.965040   0.001789   0.278737   0.006418
  56   2   3.844239   5.356664  -1.133578   0.004230   0.511017   0.008278
  57   2   2.646129   5.173432  -1.182133   0.000701   0.325193   0.002157
  58   2   3.326918   6.942928   0.248698   0.001031   0.278737   0.003697
  59   2   2.581492   5.366830   5.562905   0.001164   0.371649   0.003132
  60   2   1.066513   6.220876   0.535606  -0.000073   0.278737  -0.000261
  61   2   3.607322   4.004962  -1.518719   0.002567   0.418105   0.006139
  62   2   3.023949   3.862357   6.005257   0.001329   0.278737   0.004767
  63   3   5.157853   1.053262   5.295179   0.003222   0.325193   0.009907
  64   3   6.514836   1.554353  -1.089029   0.001329   0.278737   0.004768
  65   3   5.716548   4.775591   5.667127   0.001880   0.325193   0.005780
  66   3   8.257676   2.078756   4.862510   0.001064   0.418105   0.002545
  67   3   9.190844   2.484935   0.781836   0.000398   0.278737   0.001429
  68   3   7.031431   5.239111  -0.677148   0.002336   0.371649   0.006285
  69   3   5.701142   1.366775  -1.073124   0.001323   0.278737   0.004746
  70   3   7.563707   5.730879   0.089202   0.001469   0.325193   0.004516
  71   3   9.492243   3.297901   1.565648   0.000224   0.371649   0.000604
  72   3   8.729204   3.108063   4.593403   0.000785   0.418105   0.001878
  73   3   6.519213   5.097746   5.413100   0.001438   0.278737   0.005158
  74   3   6.011778   6.958616   2.334866  -0.000063   0.092912  -0.000682
  75   3   5.395282   0.119118   4.411128   0.001957   0.325193   0.006018
  76   3   6.177085   0.178965   4.489265   0.001126   0.232280   0.004849
  77   3   5.649086   2.541697  -1.483844   0.003207   0.371649   0.008629
  78   3   5.929393   5.835363   4.930618   0.000862   0.185824   0.004641
  79   3   6.505535   4.035029   5.847886   0.002112   0.325193   0.006495
  80   3   7.609234   2.956896   5.534102   0.001948   0.464561   0.004193
  81   3   9.077300   2.120122   3.733463   0.000617   0.371649   0.001661
  82   3   9.426021   2.214331   2.302580   0.000439   0.371649   0.001182
  83   3   8.965535   3.468806   0.231916   0.001347   0.603929   0.002230
  84   3   8.043273   4.544175  -0.463661   0.001854   0.464561   0.003991
  85   3   6.306244   6.178863  -0.010615   0.003165   0.371649   0.008517
  86   3   6.143583   6.836086   1.322102   0.000482   0.185824   0.002596
  87   3   5.610699   3.368432   6.009417   0.004235   0.371649   0.011396
  88   3   5.230595   2.102272   5.816914   0.002852   0.371649   0.007675
  89   3   6.162261   1.162681   5.405288   0.002589   0.418105   0.006193
  90   3   7.314852   1.561172   5.281857   0.001825   0.464561   0.003929
  91   3   8.440376   1.240069   4.077525   0.000741   0.371649   0.001994
  92   3   7.637985   0.571307   4.229328   0.000611   0.232280   0.002631
  93   3   9.240653   1.887447   1.476136   0.000146   0.278737   0.000524
  94   3   8.570927   2.001200  -0.010952   0.000728   0.418105   0.001742
  95   3   7.499442   1.906776  -0.871540   0.001379   0.371649   0.003711
  96   3   6.744208   2.865046  -1.400845   0.002573   0.464561   0.005539
  97   3   6.854784   4.163787  -1.250018   0.003159   0.511017   0.006182
  98   3   5.921686   5.214498  -0.948905   0.003526   0.418105   0.008432
  99   3   8.662777   4.659024   0.293931   0.000582   0.278737   0.002088
 100   3   9.420591   2.781213   3.146805   0.000174   0.325193   0.000536
 101   3   7.508946   3.984321   5.500085   0.001401   0.325193   0.004310
 102   3   5.874107   6.337832   4.323996   0.000025   0.092912   0.000271
 103   3   6.652193   6.513004   0.670166   0.001105   0.232280   0.004759
 104   3   6.948940   0.592451   4.721638   0.001403   0.325193   0.004313
 105   3   5.619617   3.824983  -1.484290   0.004727   0.418105   0.011305
 106   3   6.417177   2.601048   5.915766   0.003061   0.464561   0.006589
 107   3   8.954410   1.290446   2.995065   0.000094   0.232280   0.000406
 108   3   7.985896   3.127378  -0.826647   0.001833   0.557473   0.003288
 109   4  -1.575749   1.398430   5.090622  -0.004047   0.608459  -0.006651
 110   4  -0.258041   2.281969   5.591718  -0.001614   0.353299  -0.004568
 111   4   0.035168   0.314328   5.250687  -0.000977   0.333671  -0.002929
 112   4  -1.488168  -0.101365   4.013560  -0.001126   0.353299  -0.003187
 113   4  -2.459984   1.765902   3.415721  -0.001089   0.372926  -0.002920
 114   4  -1.475875   3.342804   4.303637  -0.001143   0.353299  -0.003235
 115   4  -0.030745   1.306553   5.644750  -0.002240   0.490692  -0.004564
 116   4  -0.889671   0.090215   4.859502  -0.002160   0.490692  -0.004402
 117   4  -2.183833   0.750071   3.872659  -0.002323   0.510320  -0.004551
 118   4  -2.155370   2.458201   4.145913  -0.002275   0.490692  -0.004636
 119   4  -1.030891   2.827110   5.146437  -0.002224   0.490692  -0.004532
 120   5  -1.171841   3.289133  -1.873099  -0.003890   0.588831  -0.006606
 121   5   0.040687   1.708866  -2.299312  -0.001075   0.372926  -0.002883
 122   5   0.794977   3.474925  -2.162683  -0.001234   0.353299  -0.003494
 123   5  -0.627381   4.689358  -0.776850  -0.001457   0.353299  -0.004124
 124   5  -2.101320   3.349666  -0.252204  -0.001096   0.372926  -0.002939
 125   5  -1.725984   1.573398  -1.194733  -0.001333   0.412182  -0.003234
 126   5   0.136175   2.789765  -2.423808  -0.002371   0.490692  -0.004832
 127   5  -0.069903   4.234644  -1.716923  -0.002320   0.490692  -0.004729
 128   5  -1.486128   4.155545  -0.704819  -0.002124   0.471065  -0.004508
 129   5  -2.063423   2.572917  -0.952707  -0.002165   0.471065  -0.004596
 130   5  -0.979633   1.748615  -2.001762  -0.002234   0.490692  -0.004553
 131   6   2.407870  -2.293469   0.484667  -0.002270   0.372926  -0.006087
 132   6   3.217499  -0.899391  -0.747695  -0.001380   0.333671  -0.004137
 133   6   1.366183  -1.913147  -0.122908  -0.001314   0.372926  -0.003522
 134   6   1.434616  -2.259812   1.852538  -0.000934   0.294415  -0.003172
 135   6   3.102891  -1.724830   2.585324  -0.001306   0.314043  -0.004157
 136   6   3.319319  -1.753482   0.078941  -0.002659   0.412182  -0.006451
 137   6   2.201866  -1.452937  -0.742881  -0.001540   0.451437  -0.003412
 138   6   1.314981  -2.290745   0.893215  -0.001671   0.412182  -0.004054
 139   6   2.266349  -2.191837   2.246803  -0.001451   0.392554  -0.003695
 140   6   3.199121  -2.145603   1.364027  -0.002912   0.431809  -0.006743
 141   7   1.965748   7.905395   3.197851  -0.004863   0.608459  -0.007993
 142   7   1.098865   6.577747   4.266666  -0.001879   0.392554  -0.004786
 143   7   0.705564   6.917175   2.213810  -0.001874   0.333671  -0.005617
 144   7   2.441101   7.684693   1.395628  -0.001406   0.353299  -0.003979
 145   7   3.904029   7.772418   2.964216  -0.001849   0.353299  -0.005233
 146   7   3.019249   7.044498   4.689205  -0.001518   0.412182  -0.003683
 147   7   0.781191   6.996997   3.276519  -0.003094   0.471065  -0.006568
 148   7   1.489426   7.552941   1.828611  -0.002844   0.490692  -0.005795
 149   7   3.150937   7.992660   2.189377  -0.002996   0.510320  -0.005870
 150   7   3.342100   7.710823   3.853834  -0.003212   0.510320  -0.006295
 151   7   1.944974   7.101688   4.500393  -0.002896   0.471065  -0.006148
 152   8   8.854740   6.317215   3.175307  -0.004990   0.608459  -0.008201
 153   8   7.544641   6.187026   4.510110  -0.001920   0.412182  -0.004659
 154   8   7.180294   7.039654   2.633472  -0.001625   0.353299  -0.004599
 155   8   8.546052   6.120199   1.334499  -0.001546   0.353299  -0.004377
 156   8   9.629275   4.653462   2.448195  -0.001692   0.333671  -0.005071
 157   8   9.037539   4.572359   4.297413  -0.001365   0.333671  -0.004091
 158   8   7.488342   6.838119   3.611354  -0.002909   0.490692  -0.005929
 159   8   8.058109   6.775544   2.000046  -0.002843   0.490692  -0.005793
 160   8   9.305758   5.543719   1.899535  -0.003061   0.510320  -0.005998
 161   8   9.492213   4.982460   3.427422  -0.003152   0.490692  -0.006423
 162   8   8.484490   5.575812   4.517542  -0.003245   0.549575  -0.005905
 163   9   7.580492  -0.851907   1.603463  -0.003606   0.471065  -0.007654
 164   9   6.567186  -0.048688  -0.255355  -0.001962   0.392554  -0.004998
 165   9   7.037977  -0.690461   3.071056  -0.001645   0.392554  -0.004190
 166   9   8.603816   0.161245   1.832664  -0.001876   0.372926  -0.005031
 167   9   7.811166   0.438205  -0.052255  -0.001428   0.372926  -0.003830
 168   9   6.516919  -1.004945   0.976858  -0.003363   0.412182  -0.008160
 169   9   6.346518  -1.049027   2.451840  -0.002949   0.431809  -0.006829
 170   9   8.038899  -0.305346   2.701576  -0.002112   0.412182  -0.005125
 171   9   8.426675   0.214217   0.858013  -0.002335   0.412182  -0.005666
 172   9   7.372090  -0.484750   0.398175  -0.002547   0.372926  -0.006830
 173   1   3.216016   0.842367   4.856110   0.000338   0.046456   0.007284
 174   2   3.577851   1.140041   4.998287   0.000461   0.046456   0.009918
 175   3   4.000498   1.068761   4.965565   0.000701   0.046456   0.015091
 176   1   3.576997   2.499666  -1.449970   0.000334   0.046456   0.007195
 177   2   3.943447   2.818531  -1.388426   0.000541   0.046456   0.011636
 178   3   4.362018   2.728535  -1.349934   0.000788   0.046456   0.016961
 179   1  -0.235590   4.161649   4.244720  -0.000085   0.026255  -0.003233
 180   2   0.144092   4.460101   4.323217  -0.000076   0.026255  -0.002909
 181   4  -0.379275   3.930895   4.378922  -0.000128   0.026255  -0.004884
 182   1   1.519723   1.832815   5.414956   0.000001   0.026255   0.000038
 183   2   1.876908   2.161115   5.478455   0.000075   0.026255   0.002869
 184   4   1.218809   1.810662   5.444336  -0.000054   0.026255  -0.002071
 185   1   1.973118   3.634180  -1.646044  -0.000012   0.026315  -0.000440
 186   2   2.325118   3.941890  -1.501801   0.000046   0.026315   0.001765
 187   5   1.678669   3.638471  -1.718140  -0.000081   0.026315  -0.003062
 188   1   0.016474   5.176233   0.279291  -0.000083   0.026315  -0.003135
 189   2   0.393534   5.464193   0.398875  -0.000073   0.026315  -0.002790
 190   5  -0.102729   5.042411   0.034754  -0.000097   0.026315  -0.003669
 191   1  -0.017483   5.538736   1.481783  -0.000085   0.016280  -0.005222
 192   2   0.307120   5.891558   1.578362  -0.000105   0.016280  -0.006477
 193   7   0.425945   6.114716   1.739340  -0.000101   0.016280  -0.006193
 194   1  -0.129597   5.030506   3.420426  -0.000081   0.016280  -0.005005
 195   2   0.193422   5.376144   3.544405  -0.000103   0.016280  -0.006331
 196   7   0.322561   5.646059   3.527031  -0.000108   0.016280  -0.006655
 197   2   3.305578   3.356283  -1.485736   0.001026   0.278482   0.003685
 198   1   2.571904   3.149191  -1.643345   0.000287   0.278482   0.001032
 199   2   0.420845   5.773216   0.913236  -0.000285   0.168666  -0.001692
 200   1  -0.158194   5.329145   0.956237  -0.000203   0.168666  -0.001201
 201   2   0.181076   5.067908   3.889786  -0.000316   0.158899  -0.001987
 202   1  -0.282523   4.507007   3.898413  -0.000207   0.158899  -0.001306
 203   2   2.657225   1.832534   5.387914   0.000880   0.290463   0.003030
 204   1   2.389432   1.141193   5.130699   0.000401   0.290463   0.001381
 205   1   3.602623  -0.670693   3.294725  -0.000017   0.069058  -0.000241
 206   3   4.369806  -0.379616   3.361288   0.000161   0.069058   0.002329
 207   6   3.612402  -0.856881   3.054335  -0.000207   0.069058  -0.002992
 208   1   3.845217   0.360510  -0.763241  -0.000009   0.069058  -0.000136
 209   3   4.606437   0.626241  -0.596938   0.000106   0.069058   0.001531
 210   6   3.833318   0.082176  -0.641021  -0.000223   0.069058  -0.003224
 211   3   4.417329   0.435979   4.482247   0.003531   0.553390   0.006380
 212   1   3.412704  -0.149582   4.047908   0.000939   0.553390   0.001697
 213   3   4.837856   1.532111  -1.044990   0.002884   0.569509   0.005065
 214   1   3.627743   1.582975  -1.333198   0.001233   0.569509   0.002165
 215   4  -0.868422   3.736382   4.284374  -0.000229   0.068497  -0.003340
 216   4  -1.662978   3.401948   3.595502  -0.000522   0.151740  -0.003441
 217   4  -2.294066   2.409079   2.965004  -0.000368   0.151740  -0.002423
 218   4  -2.301124   1.083684   2.807314  -0.000498   0.151740  -0.003279
 219   4  -1.681288  -0.035972   3.186473  -0.000541   0.151740  -0.003564
 220   4  -0.686283  -0.495178   3.948498  -0.000416   0.151740  -0.002740
 221   4   0.279803  -0.107443   4.783918  -0.000426   0.151740  -0.002809
 222   4   0.824626   0.969768   5.353455  -0.000534   0.151740  -0.003516
 223   1  -1.027107   3.919545   3.740190  -0.000463   0.150481  -0.003078
 224   1  -1.993021   3.178776   2.864448  -0.000157   0.150481  -0.001046
 225   1  -2.371198   1.804929   2.397352  -0.000170   0.150481  -0.001130
 226   1  -2.008055   0.355946   2.528599  -0.000301   0.150481  -0.002000
 227   1  -1.051069  -0.579718   3.204886  -0.000278   0.150481  -0.001848
 228   1   0.111111  -0.622073   4.151562  -0.000151   0.150481  -0.001004
 229   1   1.006504   0.246082   4.984167  -0.000329   0.150481  -0.002187
 230   1   1.336381   1.349428   5.380713  -0.000085   0.083684  -0.001016
 231   5   1.391716   3.276793  -1.987975  -0.000186   0.068456  -0.002719
 232   5   1.092139   2.236067  -2.196189  -0.000433   0.151627  -0.002857
 233   5   0.235489   1.229545  -2.015724  -0.000440   0.151627  -0.002899
 234   5  -0.892664   0.892710  -1.388575  -0.000457   0.151627  -0.003014
 235   5  -1.834770   1.362175  -0.569099  -0.000497   0.151627  -0.003277
 236   5  -2.208733   2.447536   0.110347  -0.000381   0.151627  -0.002512
 237   5  -1.862884   3.708598   0.374194  -0.000487   0.151627  -0.003209
 238   5  -0.937490   4.633904   0.115434  -0.000596   0.151627  -0.003929
 239   1   1.693708   2.763885  -1.967899  -0.000378   0.150412  -0.002511
 240   1   1.045215   1.416062  -2.062087  -0.000169   0.150412  -0.001126
 241   1  -0.130934   0.620019  -1.583514  -0.000207   0.150412  -0.001375
 242   1  -1.357723   0.698613  -0.726276  -0.000303   0.150412  -0.002011
 243   1  -2.137596   1.619968   0.161951  -0.000248   0.150412  -0.001650
 244   1  -2.154256   3.010404   0.720925  -0.000201   0.150412  -0.001334
 245   1  -1.400946   4.305996   0.723939  -0.000287   0.150412  -0.001907
 246   1  -0.456823   4.978853   0.353114  -0.000183   0.083635  -0.002183
 247   6   3.058688  -1.284383   3.032945  -0.000181   0.071518  -0.002535
 248   6   1.994581  -1.697056   2.876392  -0.000413   0.160116  -0.002581
 249   6   0.942638  -1.939918   2.000440  -0.000542   0.160116  -0.003387
 250   6   0.590218  -1.782703   0.664797  -0.000557   0.160116  -0.003479
 251   6   1.094258  -1.295421  -0.535769  -0.000518   0.160116  -0.003233
 252   6   2.230304  -0.695060  -1.066641  -0.000409   0.160116  -0.002552
 253   6   3.293075  -0.288063  -0.887751  -0.000204   0.071518  -0.002857
 254   1   2.532592  -1.202721   3.326037  -0.000274   0.155524  -0.001760
 255   1   1.141740  -1.665937   2.788664  -0.000194   0.155524  -0.001247
 256   1   0.305217  -1.716954   1.471304  -0.000313   0.155524  -0.002011
 257   1   0.395531  -1.333053  -0.039415  -0.000328   0.155524  -0.002109
 258   1   1.372464  -0.685187  -1.070763  -0.000191   0.155524  -0.001228
 259   1   2.800984  -0.061854  -1.163476  -0.000260   0.155524  -0.001669
 260   7   0.372410   6.219164   2.156253  -0.001015   0.199588  -0.005085
 261   7   0.311385   5.942528   3.211479  -0.000987   0.199588  -0.004948
 262   1  -0.342760   5.223701   2.419564  -0.001170   0.547364  -0.002138
 263   2   4.924754   7.157971   2.470787  -0.000044   0.009815  -0.004517
 264   3   5.333585   7.027328   2.468744  -0.000009   0.009815  -0.000897
 265   7   4.664682   7.280126   2.555987  -0.000081   0.009815  -0.008278
 266   2   4.844036   6.787354   3.885864  -0.000028   0.009815  -0.002813
 267   3   5.253809   6.661037   3.867301  -0.000012   0.009815  -0.001262
 268   7   4.591207   6.942761   3.844102  -0.000045   0.009815  -0.004564
 269   3   4.841363   3.337980  -1.411096   0.002304   0.189570   0.012153
 270   3   5.259057   5.202495  -0.754256   0.005294   0.388498   0.013626
 271   3   5.590216   6.671251   1.184644   0.001497   0.388498   0.003853
 272   2   4.404044   4.205147  -1.211775   0.005026   0.388498   0.012937
 273   2   4.861109   6.241573   0.080626   0.003639   0.388498   0.009366
 274   2   5.050200   7.075395   1.911283   0.000103   0.189570   0.000544
 275   3   5.512775   6.303645   4.342803   0.000205   0.189753   0.001078
 276   3   5.152790   4.685214   5.500658   0.003713   0.388911   0.009547
 277   3   4.617247   2.288527   5.573461   0.005437   0.388911   0.013981
 278   2   4.780502   5.849139   4.834007   0.001192   0.388911   0.003065
 279   2   4.285379   3.627607   5.759134   0.004973   0.388911   0.012788
 280   2   3.852005   1.691151   5.369438   0.001921   0.189753   0.010123
 281   4   0.851714   2.103415   5.513582  -0.000589   0.205714  -0.002862
 282   4   0.017431   3.244929   5.029564  -0.002195   0.422397  -0.005195
 283   2   1.429009   3.193933   5.456184  -0.000013   0.562349  -0.000023
 284   2   0.481320   4.419717   4.758636  -0.000039   0.289912  -0.000136
 285   5   0.025440   4.955892  -0.414917  -0.000722   0.206115  -0.003502
 286   5   0.961537   4.289339  -1.374998  -0.002074   0.423289  -0.004899
 287   2   1.188990   5.370825  -0.395828  -0.000510   0.563386  -0.000905
 288   2   2.239822   4.477812  -1.394361   0.000469   0.290481   0.001615
 289   7   4.282582   7.497408   2.337385  -0.000335   0.071155  -0.004703
 290   7   3.560575   7.486557   1.436828  -0.000590   0.159643  -0.003696
 291   7   2.287229   7.198528   0.951915  -0.000725   0.159643  -0.004539
 292   7   1.057137   6.702597   1.376693  -0.000941   0.159643  -0.005896
 293   2   4.327773   7.294348   1.768074  -0.000511   0.154373  -0.003308
 294   2   3.125574   7.152158   0.777879  -0.000399   0.154373  -0.002586
 295   2   1.633471   6.684901   0.742037  -0.000564   0.154373  -0.003652
 296   2   0.628410   6.212243   1.365879  -0.000349   0.086932  -0.004015
 297   7   0.597168   5.950927   3.858898  -0.000382   0.071202  -0.005363
 298   7   1.420366   6.016738   4.666396  -0.000757   0.159772  -0.004741
 299   7   2.733329   6.357962   4.984894  -0.000582   0.159772  -0.003645
 300   7   3.888634   6.869690   4.397401  -0.000768   0.159772  -0.004807
 301   2   0.809184   5.561544   4.272484  -0.000794   0.154452  -0.005142
 302   2   2.115821   5.775069   5.106682  -0.000400   0.154452  -0.002588
 303   2   3.587073   6.283485   4.946342  -0.000293   0.154452  -0.001894
 304   2   4.495883   6.757983   4.188965  -0.000192   0.086989  -0.002203
 305   3   5.176300   0.479101  -0.419979  -0.000068   0.082274  -0.000826
 306   6   4.357376   0.011258  -0.347986  -0.000134   0.082274  -0.001628
 307   9   5.343083   0.263895  -0.289365  -0.000246   0.082274  -0.002986
 308   3   4.982580  -0.455635   3.163578  -0.000040   0.082274  -0.000486
 309   6   4.187713  -0.807402   2.790560  -0.000119   0.082274  -0.001445
 310   9   5.167306  -0.584266   2.962279  -0.000263   0.082274  -0.003198
 311   6   3.868222  -0.162835  -0.637355  -0.000026   0.043047  -0.000596
 312   3   5.071060   0.548044  -0.662490   0.000202   0.060862   0.003322
 313   6   3.686078  -1.093898   2.892962  -0.000047   0.053971  -0.000869
 314   3   4.819348  -0.487506   3.441895   0.000292   0.076305   0.003832
 315   7   4.487515   7.199444   3.358945  -0.001297   0.263786  -0.004916
 316   3   5.514670   6.920722   3.069690  -0.000198   0.372220  -0.000531
 317   8   7.954526   6.124304   0.930376  -0.000122   0.064808  -0.001881
 318   8   7.233928   6.674264   1.487747  -0.000424   0.142930  -0.002966
 319   8   6.632165   6.927004   2.599215  -0.000668   0.142930  -0.004670
 320   8   6.561081   6.600829   3.844171  -0.000661   0.142930  -0.004624
 321   8   7.047828   5.820328   4.747084  -0.000450   0.142930  -0.003147
 322   8   7.906485   4.883624   4.963072  -0.000351   0.142930  -0.002456
 323   8   8.809075   4.148507   4.409635  -0.000561   0.142930  -0.003925
 324   8   9.410839   3.895767   3.298167  -0.000690   0.142930  -0.004828
 325   8   9.481923   4.221942   2.053211  -0.000772   0.142930  -0.005400
 326   8   8.995176   5.002444   1.150298  -0.000541   0.142930  -0.003785
 327   8   8.322991   5.774548   0.859779  -0.000155   0.064808  -0.002388
 328   3   7.397103   6.244520   0.823738  -0.000105   0.142910  -0.000733
 329   3   6.508378   6.828114   1.807311  -0.000338   0.142910  -0.002367
 330   3   6.110880   6.784732   3.199411  -0.000615   0.142910  -0.004303
 331   3   6.356441   6.130942   4.468305  -0.000367   0.142910  -0.002571
 332   3   7.151264   5.116471   5.129316  -0.000043   0.142910  -0.000302
 333   3   8.191753   4.128812   4.929962  -0.000231   0.142910  -0.001620
 334   3   9.080478   3.545218   3.946389  -0.000508   0.142910  -0.003552
 335   3   9.477975   3.588600   2.554288  -0.000572   0.142910  -0.004004
 336   3   9.232415   4.242390   1.285395  -0.000475   0.142910  -0.003322
 337   3   8.437592   5.256861   0.624384  -0.000257   0.142910  -0.001802
 338   9   6.040124   0.412986  -0.465561  -0.000177   0.068535  -0.002576
 339   9   7.094463   0.783710  -0.463055  -0.000524   0.152675  -0.003434
 340   9   8.234478   1.019640   0.221704  -0.000662   0.152675  -0.004333
 341   9   8.779629   0.913934   1.452893  -0.000717   0.152675  -0.004694
 342   9   8.500055   0.511164   2.711386  -0.000781   0.152675  -0.005118
 343   9   7.513638  -0.018843   3.466544  -0.000590   0.152675  -0.003865
 344   9   6.236297  -0.452612   3.399957  -0.000464   0.152675  -0.003037
 345   3   6.293894   0.910297  -0.672200  -0.000258   0.149679  -0.001726
 346   3   7.715620   1.334292  -0.354887  -0.000314   0.149679  -0.002096
 347   3   8.716303   1.411621   0.782838  -0.000554   0.149679  -0.003701
 348   3   8.874007   1.109679   2.261257  -0.000604   0.149679  -0.004038
 349   3   8.122239   0.555779   3.457000  -0.000399   0.149679  -0.002662
 350   3   6.777977  -0.016529   3.865886  -0.000177   0.149679  -0.001184
 351   3   5.628549  -0.348861   3.566103   0.000009   0.083730   0.000108
 352   9   5.329595  -0.930819   2.683902  -0.000224   0.260544  -0.000861
 353   9   5.535243  -1.101347   1.495341  -0.001976   0.521256  -0.003791
 354   9   5.529848  -0.485138   0.150480  -0.001619   0.521256  -0.003106
 355   6   4.031708  -1.436447   2.053481  -0.001544   0.521256  -0.002962
 356   6   4.189067  -1.319401   0.587216  -0.001826   0.521256  -0.003503
 357   6   4.100039  -0.586159  -0.381534  -0.000313   0.260544  -0.001201
 =====================================================

              1135200  WORDS OF DYNAMIC MEMORY USED
 EXECUTION OF GAMESS TERMINATED NORMALLY Sun Nov 27 10:58:17 2016
 DDI: 263640 bytes (0.3 MB / 0 MWords) used by master data server.

 ----------------------------------------
 CPU timing information for all processes
 ========================================
 0: 47.968 + 0.48 = 48.16
 ----------------------------------------
 ddikick.x: exited gracefully.
