----- GAMESS execution script -----

          ******************************************************
          *         GAMESS VERSION =  5 DEC 2014 (R1)          *
          *             FROM IOWA STATE UNIVERSITY             *
          * M.W.SCHMIDT, K.K.BALDRIDGE, J.A.BOATZ, S.T.ELBERT, *
          *   M.S.GORDON, J.H.JENSEN, S.KOSEKI, N.MATSUNAGA,   *
          *          K.A.NGUYEN, S.J.SU, T.L.WINDUS,           *
          *       TOGETHER WITH M.DUPUIS, J.A.MONTGOMERY       *
          *         J.COMPUT.CHEM.  14, 1347-1363(1993)        *
          **************** 64 BIT LINUX VERSION ****************

 EXECUTION OF GAMESS BEGUN Sun Nov 27 10:49:53 2016

            ECHO OF THE FIRST FEW INPUT CARDS -
 INPUT CARD>! SELECT RESTRICTED HARTREE-FOCK AS DEFAULT                                     
 INPUT CARD>$contrl scftyp=rhf $end                                                         
 INPUT CARD>                                                                                
 INPUT CARD>! THEORY: HF OR DFT                                                             
 INPUT CARD> $contrl mplevl=0 $end                                                          
 INPUT CARD>                                                                                
 INPUT CARD> $system timlim=10000 mwords=20 $end                                            
 INPUT CARD> $SCF DIRSCF=.TRUE. $end                                                        
 INPUT CARD>                                                                                
 INPUT CARD>                                                                                
 INPUT CARD>! BASIS SETS                                                                    
 INPUT CARD>! 6-311G(d,p)                                                                   
 INPUT CARD> $BASIS GBASIS=N311 NGAUSS=6 NDFUNC=1 NPFUNC=1 $END                             
 INPUT CARD>                                                                                
 INPUT CARD>! One of the following                                                          
 INPUT CARD> $guess guess=HUCKEL $end                                                       
 INPUT CARD>                                                                                
 INPUT CARD> $statpt projct=.FALSE. $end                                                    
 INPUT CARD> $STATPT IFREEZ(1)=1,2,3 $END                                                   
 INPUT CARD>                                                                                
 INPUT CARD>! Optimize the geometry with COSMO effects                                      
 INPUT CARD> $statpt opttol=0.0005 nstep=50 $end                                            
 INPUT CARD> $contrl nzvar=1 $end                                                           
 INPUT CARD> $zmat dlc=.t. auto=.t. $end                                                    
 INPUT CARD> $contrl runtyp=OPTIMIZE maxit=200 $end                                         
 INPUT CARD>                                                                                
 INPUT CARD>! Run COSMO on perfect conductor                                                
 INPUT CARD> $COSGMS PRFCND=.TRUE. $end                                                     
 INPUT CARD>                                                                                
 INPUT CARD>! Specifying RSOLV                                                              
 INPUT CARD> $COSGMS COSRAD = 1.4 $end                                                      
 INPUT CARD>                                                                                
 INPUT CARD>! available memory                                                              
 INPUT CARD> $SYSTEM MWORDS=40 $END                                                         
 INPUT CARD>                                                                                
 INPUT CARD> $DATA                                                                          
 INPUT CARD>Propane, ID: C74986                                                             
 INPUT CARD>C1                                                                              
 INPUT CARD>C      6.0      3.3461000000    1.6436000000    1.3326000000                    
 INPUT CARD>C      6.0      2.0042000000    1.0740000000    0.9307000000                    
 INPUT CARD>C      6.0      0.9734000000    1.2486000000    2.0232000000                    
 INPUT CARD>H      1.0      3.7393000000    1.1540000000    2.2333000000                    
 INPUT CARD>H      1.0      3.2805000000    2.7182000000    1.5491000000                    
 INPUT CARD>H      1.0      4.0907000000    1.5138000000    0.5370000000                    
 INPUT CARD>H      1.0      1.6524000000    1.5612000000    0.0000000000                    
 INPUT CARD>H      1.0      2.1104000000    0.0000000000    0.6811000000                    
 INPUT CARD>H      1.0      0.0000000000    0.8391000000    1.7246000000                    
 INPUT CARD>H      1.0      0.8224000000    2.3078000000    2.2707000000                    
 INPUT CARD>H      1.0      1.2746000000    0.7385000000    2.9479000000                    
 INPUT CARD> $END                                                                           
   40000000 WORDS OF MEMORY AVAILABLE

     BASIS OPTIONS
     -------------
     GBASIS=N311         IGAUSS=       6      POLAR=POPN311 
     NDFUNC=       1     NFFUNC=       0     DIFFSP=       F
     NPFUNC=       1      DIFFS=       F     BASNAM=        


     RUN TITLE
     ---------
 Propane, ID: C74986                                                             

 THE POINT GROUP OF THE MOLECULE IS C1      
 THE ORDER OF THE PRINCIPAL AXIS IS     0

 ATOM      ATOMIC                      COORDINATES (BOHR)
           CHARGE         X                   Y                   Z
 C           6.0     6.3232121275        3.1059536334        2.5182488512
 C           6.0     3.7873888246        2.0295657108        1.7587679768
 C           6.0     1.8394592764        2.3595118683        3.8232936184
 H           1.0     7.0662523859        2.1807437898        4.2203250484
 H           1.0     6.1992461027        5.1366531798        2.9273745276
 H           1.0     7.7303020980        2.8606672002        1.0147828554
 H           1.0     3.1225832221        2.9502402120        0.0000000000
 H           1.0     3.9880777245        0.0000000000        1.2870923702
 H           1.0     0.0000000000        1.5856690763        3.2590214384
 H           1.0     1.5541106523        4.3611096345        4.2910008003
 H           1.0     2.4086447440        1.3955626419        5.5707232392

          INTERNUCLEAR DISTANCES (ANGS.)




     $CONTRL OPTIONS
     ---------------
 SCFTYP=RHF          RUNTYP=OPTIMIZE     EXETYP=RUN     
 MPLEVL=       0     CITYP =NONE         CCTYP =NONE         VBTYP =NONE    
 DFTTYP=NONE         TDDFT =NONE    
 MULT  =       1     ICHARG=       0     NZVAR =       1     COORD =UNIQUE  
 PP    =NONE         RELWFN=NONE         LOCAL =NONE         NUMGRD=       F
 ISPHER=      -1     NOSYM =       0     MAXIT =     200     UNITS =ANGS    
 PLTORB=       F     MOLPLT=       F     AIMPAC=       F     FRIEND=        
 NPRINT=       7     IREST =       0     GEOM  =INPUT   
 NORMF =       0     NORMP =       0     ITOL  =      20     ICUT  =       9
 INTTYP=BEST         GRDTYP=BEST         QMTTOL= 1.0E-06

     $SYSTEM OPTIONS
     ---------------
  REPLICATED MEMORY=    40000000 WORDS (ON EVERY NODE).
 DISTRIBUTED MEMDDI=           0 MILLION WORDS IN AGGREGATE,
 MEMDDI DISTRIBUTED OVER   1 PROCESSORS IS           0 WORDS/PROCESSOR.
 TOTAL MEMORY REQUESTED ON EACH PROCESSOR=    40000000 WORDS.
 TIMLIM=       10000.00 MINUTES, OR       6.9 DAYS.
 PARALL= F  BALTYP=  DLB     KDIAG=    0  COREFL= F
 MXSEQ2=     300 MXSEQ3=     150  mem10=         0

     $COSGMS OPTIONS
     ---------------
     EPSI  =   INFTY     NSPA  =      92     COSRAD=    1.40
     DISEX =   10.00     OUTCHG=DBLCAV       COSBUG=       F
     COSWRT=       F     DCOSMO=       F

     SYMMETRY COORDINATES WILL NOT BE USED FOR 
     THE COSMO CALCULATION, EVEN IF SPECIFIED:
         -- SWITCHING TO C1 POINT GROUP --


     DEFINITION OF CAVITY
     ---------------------------
     ATOM         COORDINATES           RADIUS 
     1    6.3232    3.1060    2.5182    2.0000
     2    3.7874    2.0296    1.7588    2.0000
     3    1.8395    2.3595    3.8233    2.0000
     4    7.0663    2.1807    4.2203    1.3000
     5    6.1992    5.1367    2.9274    1.3000
     6    7.7303    2.8607    1.0148    1.3000
     7    3.1226    2.9502    0.0000    1.3000
     8    3.9881    0.0000    1.2871    1.3000
     9    0.0000    1.5857    3.2590    1.3000
    10    1.5541    4.3611    4.2910    1.3000
    11    2.4086    1.3956    5.5707    1.3000

          ----------------
          PROPERTIES INPUT
          ----------------

     MOMENTS            FIELD           POTENTIAL          DENSITY
 IEMOM =       1   IEFLD =       0   IEPOT =       0   IEDEN =       0
 WHERE =COMASS     WHERE =NUCLEI     WHERE =NUCLEI     WHERE =NUCLEI  
 OUTPUT=BOTH       OUTPUT=BOTH       OUTPUT=BOTH       OUTPUT=BOTH    
 IEMINT=       0   IEFINT=       0                     IEDINT=       0
                                                       MORB  =       0
          EXTRAPOLATION IN EFFECT
          SOSCF IN EFFECT
 ORBITAL PRINTING OPTION: NPREO=     1   105     2     1

     -------------------------------
     INTEGRAL TRANSFORMATION OPTIONS
     -------------------------------
     NWORD  =            0
     CUTOFF = 1.0E-09     MPTRAN =       0
     DIRTRF =       T     AOINTS =DUP     

          ----------------------
          INTEGRAL INPUT OPTIONS
          ----------------------
 NOPK  =       1 NORDER=       0 SCHWRZ=       T


 -----------------------------------------------
  STATISTICS ON AUTOMATIC COORDINATE GENERATION 
 -----------------------------------------------
  NUMBER OF USER SPECIFIED BONDS                             0
  NUMBER OF BONDS                                           10
  NUMBER OF ANGLES                                          18
  NUMBER OF TORSIONS                                        18
  NUMBER OF EXTRA COORD.                                     0
  NUMBER OF EXTRA COORD. FOR CONSTRAINTS                     0
  NUMBER OF CONSTRAINED COORD.                               0

  TOTAL NUMBER OF PRIMITIVES                                46
 -----------------------------------------------

   --- ENCODED Z MATRIX ---
 COORD  TYPE   I   J   K   L   M   N
    1      1    1   5
    2      1    1   4
    3      1    1   2
    4      1    1   6
    5      1    2   7
    6      1    2   8
    7      1    2   3
    8      1    3  11
    9      1    3  10
   10      1    3   9
   11      2    1   2   7
   12      2    1   2   8
   13      2    1   2   3
   14      2    2   3   9
   15      2    2   3  11
   16      2    2   3  10
   17      2    2   1   5
   18      2    2   1   6
   19      2    2   1   4
   20      2    3   2   8
   21      2    3   2   7
   22      2    4   1   6
   23      2    4   1   5
   24      2    5   1   6
   25      2    7   2   8
   26      2    9   3  10
   27      2    9   3  11
   28      2   10   3  11
   29      3    1   2   3   9
   30      3    1   2   3  10
   31      3    1   2   3  11
   32      3    3   2   1   5
   33      3    3   2   1   6
   34      3    3   2   1   4
   35      3    4   1   2   8
   36      3    4   1   2   7
   37      3    5   1   2   7
   38      3    5   1   2   8
   39      3    6   1   2   7
   40      3    6   1   2   8
   41      3    7   2   3   9
   42      3    7   2   3  10
   43      3    7   2   3  11
   44      3    8   2   3   9
   45      3    8   2   3  10
   46      3    8   2   3  11

          INDEP./SYM. INTERNAL COORDINATES
          --------------------------------
 CRD  1=   0.1901 (  3)  0.1901 (  7) -0.2247 ( 11) -0.2249 ( 12)  0.7187 ( 13)
          -0.1420 ( 14)  0.1373 ( 15)  0.1392 ( 16)  0.1381 ( 17) -0.1420 ( 18)
           0.1383 ( 19) -0.2249 ( 20) -0.2245 ( 21)  0.1406 ( 25)
 CRD  2=   0.4962 (  3)  0.4962 (  7) -0.1013 ( 13)  0.3782 ( 14)  0.3782 ( 18)
          -0.1917 ( 22) -0.1917 ( 24) -0.1911 ( 26) -0.1923 ( 27)
 CRD  3=   0.4069 ( 15) -0.4040 ( 16) -0.4055 ( 17)  0.4050 ( 19) -0.1336 ( 22)
           0.1338 ( 24)  0.1344 ( 26) -0.1333 ( 27) -0.2423 ( 29) -0.1360 ( 30)
          -0.1368 ( 31)  0.1364 ( 32)  0.2423 ( 33)  0.1364 ( 34)
 CRD  4=  -0.2865 ( 11)  0.2865 ( 12) -0.3158 ( 15)  0.3138 ( 16) -0.3152 ( 17)
           0.3148 ( 19) -0.2864 ( 20)  0.2864 ( 21) -0.1232 ( 29) -0.2120 ( 30)
          -0.2114 ( 31) -0.2116 ( 32) -0.1231 ( 33) -0.2117 ( 34)
 CRD  5=   0.4933 (  3) -0.4933 (  7)  0.1462 ( 11)  0.1465 ( 12) -0.2063 ( 15)
          -0.2078 ( 16)  0.2068 ( 17)  0.2073 ( 19) -0.1464 ( 20) -0.1463 ( 21)
          -0.1149 ( 22) -0.2205 ( 23) -0.1147 ( 24)  0.1153 ( 26)  0.1145 ( 27)
           0.2205 ( 28)
 CRD  6=   0.1255 (  4) -0.1256 ( 10)  0.1042 ( 11)  0.1042 ( 12) -0.5122 ( 14)
           0.2119 ( 15)  0.2168 ( 16) -0.2138 ( 17)  0.5121 ( 18) -0.2146 ( 19)
          -0.1041 ( 20) -0.1042 ( 21) -0.1306 ( 22)  0.1710 ( 23) -0.1310 ( 24)
           0.1298 ( 26)  0.1318 ( 27) -0.1711 ( 28)
 CRD  7=   0.1604 (  1) -0.1603 (  2)  0.1609 (  8) -0.1597 (  9) -0.2567 ( 11)
           0.2568 ( 12)  0.3084 ( 15) -0.3061 ( 16)  0.3075 ( 17) -0.3072 ( 19)
          -0.2567 ( 20)  0.2568 ( 21)  0.1663 ( 22) -0.1662 ( 24)  0.1668 ( 26)
          -0.1657 ( 27) -0.1536 ( 29) -0.1558 ( 30) -0.1559 ( 31) -0.1559 ( 32)
          -0.1537 ( 33) -0.1559 ( 34)
 CRD  8=   0.1699 (  3) -0.1494 (  4)  0.1999 (  5)  0.2001 (  6)  0.1698 (  7)
          -0.1493 ( 10)  0.1139 ( 11)  0.1139 ( 12) -0.2838 ( 13) -0.3323 ( 14)
           0.2545 ( 15)  0.2585 ( 16)  0.2562 ( 17) -0.3326 ( 18)  0.2569 ( 19)
           0.1139 ( 20)  0.1138 ( 21) -0.2611 ( 23) -0.1611 ( 25) -0.2610 ( 28)
 CRD  9=   0.1568 (  1) -0.1567 (  2) -0.4758 (  5)  0.4755 (  6) -0.1572 (  8)
           0.1562 (  9) -0.1460 ( 15)  0.1450 ( 16)  0.1456 ( 17) -0.1454 ( 19)
           0.1142 ( 22) -0.1141 ( 24) -0.1145 ( 26)  0.1137 ( 27) -0.2399 ( 29)
          -0.1936 ( 30) -0.1939 ( 31)  0.1938 ( 32)  0.2399 ( 33)  0.1937 ( 34)
 CRD 10=  -0.3569 (  1) -0.3568 (  2) -0.1130 (  3) -0.3294 (  4)  0.1136 (  7)
           0.3582 (  8)  0.3584 (  9)  0.3310 ( 10) -0.1408 ( 14) -0.1286 ( 15)
          -0.1286 ( 16)  0.1281 ( 17)  0.1402 ( 18)  0.1281 ( 19) -0.1454 ( 22)
          -0.1343 ( 23) -0.1455 ( 24)  0.1460 ( 26)  0.1460 ( 27)  0.1348 ( 28)
 CRD 11=  -0.3541 (  1) -0.3540 (  2) -0.1326 (  3) -0.3517 (  4) -0.1321 (  7)
          -0.3524 (  8) -0.3525 (  9) -0.3503 ( 10)  0.1335 ( 14)  0.1218 ( 15)
           0.1217 ( 16)  0.1223 ( 17)  0.1341 ( 18)  0.1223 ( 19) -0.1378 ( 22)
          -0.1307 ( 23) -0.1378 ( 24) -0.1372 ( 26) -0.1372 ( 27) -0.1301 ( 28)
 CRD 12=  -0.1927 (  1) -0.1992 (  2)  0.4321 (  4) -0.2236 (  5) -0.2238 (  6)
          -0.1966 (  8) -0.2012 (  9)  0.4382 ( 10)  0.1081 ( 22) -0.2295 ( 23)
           0.1116 ( 24)  0.1102 ( 26)  0.1126 ( 27) -0.2327 ( 28) -0.1185 ( 30)
           0.1197 ( 31)  0.1180 ( 32) -0.1169 ( 34) -0.1441 ( 35)  0.1454 ( 37)
          -0.1460 ( 42)  0.1467 ( 46)
 CRD 13=  -0.3829 (  1)  0.3951 (  2) -0.4010 (  8)  0.3830 (  9)  0.1956 ( 22)
          -0.2018 ( 24)  0.2050 ( 26) -0.1957 ( 27)  0.1526 ( 29)  0.1512 ( 33)
           0.1833 ( 39)  0.1825 ( 40)  0.1842 ( 41)  0.1839 ( 44)
 CRD 14=  -0.2360 (  1) -0.2151 (  2)  0.4661 (  4)  0.2073 (  8)  0.2386 (  9)
          -0.4601 ( 10)  0.1216 ( 22) -0.2361 ( 23)  0.1110 ( 24) -0.1067 ( 26)
          -0.1229 ( 27)  0.2330 ( 28)  0.1226 ( 30) -0.1277 ( 31)  0.1250 ( 32)
          -0.1285 ( 34) -0.1190 ( 35) -0.1357 ( 36)  0.1177 ( 37)  0.1344 ( 38)
           0.1147 ( 42) -0.1356 ( 43)  0.1322 ( 45) -0.1181 ( 46)
 CRD 15=  -0.3869 (  1)  0.3837 (  2)  0.3835 (  8) -0.3808 (  9)  0.2131 ( 22)
          -0.2114 ( 24) -0.2113 ( 26)  0.2100 ( 27) -0.1845 ( 29)  0.1858 ( 33)
           0.1501 ( 39)  0.1499 ( 40) -0.1484 ( 41) -0.1481 ( 44)
 CRD 16=  -0.1276 (  1) -0.1277 (  2)  0.1373 (  4)  0.5720 (  5)  0.5723 (  6)
          -0.1267 (  8) -0.1284 (  9)  0.1371 ( 10)  0.2314 ( 25) -0.1455 ( 36)
           0.1455 ( 38)  0.1457 ( 43) -0.1451 ( 45)
 CRD 17=  -0.1738 ( 11)  0.1738 ( 12) -0.1738 ( 20)  0.1738 ( 21)  0.1061 ( 29)
           0.1648 ( 30)  0.1642 ( 31)  0.1645 ( 32)  0.1060 ( 33)  0.1646 ( 34)
           0.2644 ( 35)  0.2645 ( 36)  0.2644 ( 37)  0.2643 ( 38)  0.2058 ( 39)
           0.2057 ( 40)  0.2059 ( 41)  0.2647 ( 42)  0.2640 ( 43)  0.2060 ( 44)
           0.2647 ( 45)  0.2641 ( 46)
 CRD 18=  -0.3657 (  5)  0.3653 (  6)  0.1974 ( 29)  0.1543 ( 30)  0.1546 ( 31)
          -0.1545 ( 32) -0.1974 ( 33) -0.1545 ( 34) -0.1918 ( 35) -0.1918 ( 36)
          -0.1919 ( 37) -0.1919 ( 38) -0.2348 ( 39) -0.2348 ( 40)  0.2347 ( 41)
           0.1917 ( 42)  0.1920 ( 43)  0.2348 ( 44)  0.1917 ( 45)  0.1920 ( 46)
 CRD 19=  -0.1396 (  1) -0.1394 (  2) -0.2855 (  4)  0.1400 (  8)  0.1391 (  9)
           0.2856 ( 10)  0.2044 ( 11)  0.2045 ( 12)  0.2053 ( 14)  0.1556 ( 15)
           0.1553 ( 16) -0.1553 ( 17) -0.2053 ( 18) -0.1554 ( 19) -0.2045 ( 20)
          -0.2045 ( 21)  0.2228 ( 22)  0.1079 ( 23)  0.2229 ( 24) -0.2226 ( 26)
          -0.2233 ( 27) -0.1079 ( 28) -0.1550 ( 36)  0.1550 ( 38) -0.1175 ( 39)
           0.1174 ( 40) -0.1172 ( 41) -0.1551 ( 43)  0.1177 ( 44)  0.1548 ( 45)
 CRD 20=  -0.2152 (  1) -0.2151 (  2)  0.3119 (  3) -0.1537 (  4)  0.3120 (  7)
          -0.2148 (  8) -0.2154 (  9) -0.1535 ( 10) -0.1818 ( 14) -0.1953 ( 15)
          -0.1954 ( 16) -0.1954 ( 17) -0.1818 ( 18) -0.1954 ( 19)  0.1896 ( 22)
           0.2350 ( 23)  0.1897 ( 24) -0.1458 ( 25)  0.1898 ( 26)  0.1893 ( 27)
           0.2349 ( 28)
 CRD 21=  -0.2245 (  1)  0.2244 (  2) -0.3038 (  5)  0.3040 (  6)  0.2253 (  8)
          -0.2237 (  9) -0.1689 ( 22)  0.1685 ( 24)  0.1691 ( 26) -0.1683 ( 27)
           0.1653 ( 29) -0.1652 ( 33)  0.2246 ( 35)  0.2247 ( 36)  0.2245 ( 37)
           0.2244 ( 38) -0.2253 ( 42) -0.2239 ( 43) -0.2252 ( 45) -0.2239 ( 46)
 CRD 22=   0.1900 (  1)  0.1902 (  2) -0.4225 (  3) -0.1063 (  4)  0.4223 (  7)
          -0.1892 (  8) -0.1912 (  9)  0.1066 ( 10)  0.1407 ( 11)  0.1408 ( 12)
          -0.1236 ( 14)  0.1236 ( 18) -0.1407 ( 20) -0.1407 ( 21) -0.2521 ( 23)
           0.2522 ( 28)  0.1037 ( 30) -0.1044 ( 31)  0.1039 ( 32) -0.1039 ( 34)
          -0.1847 ( 36)  0.1847 ( 38) -0.1852 ( 43)  0.1845 ( 45)
 CRD 23=   0.1004 (  2)  0.1927 (  3) -0.2996 (  4) -0.1670 (  5) -0.1670 (  6)
           0.1931 (  7)  0.1012 (  9) -0.2996 ( 10)  0.1376 ( 22) -0.1605 ( 23)
           0.1382 ( 24)  0.2614 ( 25)  0.1371 ( 26)  0.1389 ( 27) -0.1604 ( 28)
          -0.1445 ( 30)  0.1453 ( 31)  0.1450 ( 32) -0.1448 ( 34) -0.2621 ( 36)
           0.2625 ( 38) -0.1177 ( 39)  0.1172 ( 40)  0.1164 ( 41)  0.2626 ( 43)
          -0.1183 ( 44) -0.2618 ( 45)
 CRD 24=   0.2632 (  1) -0.2628 (  2)  0.2638 (  8) -0.2621 (  9) -0.1236 ( 15)
           0.1229 ( 16) -0.1234 ( 17)  0.1232 ( 19)  0.1967 ( 22) -0.1963 ( 24)
           0.1971 ( 26) -0.1959 ( 27)  0.2917 ( 29)  0.2917 ( 33)  0.2444 ( 39)
           0.2444 ( 40)  0.2444 ( 41)  0.2443 ( 44)
 CRD 25=   0.2313 (  3) -0.2565 (  4) -0.2312 (  7)  0.2564 ( 10) -0.1710 ( 11)
          -0.1710 ( 12) -0.1282 ( 14)  0.1032 ( 15)  0.1046 ( 16) -0.1037 ( 17)
           0.1282 ( 18) -0.1041 ( 19)  0.1710 ( 20)  0.1709 ( 21)  0.1153 ( 22)
          -0.1457 ( 23)  0.1158 ( 24) -0.1147 ( 26) -0.1162 ( 27)  0.1456 ( 28)
           0.1634 ( 30) -0.1644 ( 31)  0.1641 ( 32) -0.1639 ( 34) -0.2621 ( 35)
           0.2622 ( 37)  0.2617 ( 42) -0.2626 ( 46)
 CRD 26=   0.1809 (  3)  0.1427 (  4) -0.1845 (  5) -0.1852 (  6)  0.1809 (  7)
           0.1427 ( 10) -0.2549 ( 13) -0.1715 ( 14) -0.1715 ( 18)  0.1331 ( 23)
           0.2757 ( 25)  0.1331 ( 28)  0.1268 ( 30) -0.1284 ( 31) -0.1273 ( 32)
           0.1280 ( 34)  0.2955 ( 35) -0.2956 ( 37) -0.1681 ( 39)  0.1677 ( 40)
           0.1692 ( 41)  0.2951 ( 42) -0.1667 ( 44) -0.2960 ( 46)
 CRD 27=   0.1438 (  1) -0.1439 (  2) -0.2100 (  5)  0.2094 (  6) -0.1445 (  8)
           0.1433 (  9)  0.1574 ( 11) -0.1574 ( 12)  0.1458 ( 15) -0.1447 ( 16)
          -0.1452 ( 17)  0.1453 ( 19) -0.1574 ( 20)  0.1574 ( 21)  0.1052 ( 22)
          -0.1052 ( 24) -0.1056 ( 26)  0.1048 ( 27)  0.2803 ( 30)  0.2784 ( 31)
          -0.2794 ( 32) -0.2793 ( 34)  0.2631 ( 39)  0.2637 ( 40) -0.2631 ( 41)
          -0.2638 ( 44)

 THE DETERMINANT OF THE G MATRIX IS 10**(    -5)


                     --------------------
                     INTERNAL COORDINATES
                     --------------------

                 - - ATOMS - -         COORDINATE      COORDINATE
 NO.   TYPE    I  J  K  L  M  N        (BOHR,RAD)       (ANG,DEG)
 ----------------------------------------------------------------
   1 STRETCH   1  5                     2.0752089       1.0981533
   2 STRETCH   1  4                     2.0748941       1.0979867
   3 STRETCH   1  2                     2.8575902       1.5121717
   4 STRETCH   1  6                     2.0737593       1.0973862
   5 STRETCH   2  7                     2.0935312       1.1078491
   6 STRETCH   2  8                     2.0932967       1.1077250
   7 STRETCH   2  3                     2.8575444       1.5121475
   8 STRETCH   3 11                     2.0752543       1.0981774
   9 STRETCH   3 10                     2.0752271       1.0981630
  10 STRETCH   3  9                     2.0738482       1.0974333
  11 BEND      1  2  7                  1.9170988     109.8416699
  12 BEND      1  2  8                  1.9177329     109.8779989
  13 BEND      1  2  3                  1.9491703     111.6792306
  14 BEND      2  3  9                  1.9443974     111.4057644
  15 BEND      2  3 11                  1.9473888     111.5771587
  16 BEND      2  3 10                  1.9475795     111.5880880
  17 BEND      2  1  5                  1.9476375     111.5914111
  18 BEND      2  1  6                  1.9442988     111.4001179
  19 BEND      2  1  4                  1.9474873     111.5828044
  20 BEND      3  2  8                  1.9178177     109.8828596
  21 BEND      3  2  7                  1.9174026     109.8590757
  22 BEND      4  1  6                  1.8744412     107.3975693
  23 BEND      4  1  5                  1.8713092     107.2181192
  24 BEND      5  1  6                  1.8746599     107.4100981
  25 BEND      7  2  8                  1.8416255     105.5173665
  26 BEND      9  3 10                  1.8747187     107.4134689
  27 BEND      9  3 11                  1.8745016     107.4010289
  28 BEND     10  3 11                  1.8712521     107.2148488
  29 TORSION   1  2  3  9               3.1357304     179.6641193
  30 TORSION   1  2  3 10               1.0404098      59.6110925
  31 TORSION   1  2  3 11              -1.0525407     -60.3061422
  32 TORSION   3  2  1  5              -1.0471266     -59.9959328
  33 TORSION   3  2  1  6               3.1408409     179.9569287
  34 TORSION   3  2  1  4               1.0460039      59.9316066
  35 TORSION   4  1  2  8              -1.0868210     -62.2702549
  36 TORSION   4  1  2  7              -3.1053262    -177.9220846
  37 TORSION   5  1  2  7               1.0847287      62.1503760
  38 TORSION   5  1  2  8               3.1032339     177.8022057
  39 TORSION   6  1  2  7              -1.0104891     -57.8967625
  40 TORSION   6  1  2  8               1.0080161      57.7550672
  41 TORSION   7  2  3  9               1.0040497      57.5278117
  42 TORSION   7  2  3 10              -1.0912709     -62.5252152
  43 TORSION   7  2  3 11               3.0989639     177.5575502
  44 TORSION   8  2  3  9              -1.0146788     -58.1368102
  45 TORSION   8  2  3 10              -3.1099994    -178.1898371
  46 TORSION   8  2  3 11               1.0802354      61.8929283

     ------------------------------------------
     THE POINT GROUP IS C1 , NAXIS= 1, ORDER= 1
     ------------------------------------------

     DIMENSIONS OF THE SYMMETRY SUBSPACES ARE
 A   =  105

 ..... DONE SETTING UP THE RUN .....
 STEP CPU TIME =     0.00 TOTAL CPU TIME =        0.0 (    0.0 MIN)
 TOTAL WALL CLOCK TIME=        0.0 SECONDS, CPU UTILIZATION IS   0.00%


          -----------------------------
          STATIONARY POINT LOCATION RUN
          -----------------------------

 OBTAINING INITIAL HESSIAN, HESS=GUESS   
 DIAGONAL GUESS HESSIAN IN INTERNAL COORDS IS
     1  0.3409     2  0.3410     3  0.3801     4  0.3414     5  0.3346
     6  0.3346     7  0.3801     8  0.3409     9  0.3409    10  0.3414
    11  0.2241    12  0.2241    13  0.2510    14  0.2247    15  0.2247
    16  0.2247    17  0.2247    18  0.2247    19  0.2247    20  0.2241
    21  0.2241    22  0.2026    23  0.2026    24  0.2026    25  0.2016
    26  0.2026    27  0.2026    28  0.2026    29  0.2500    30  0.2500
    31  0.2500    32  0.2500    33  0.2500    34  0.2500    35  0.2500
    36  0.2500    37  0.2500    38  0.2500    39  0.2500    40  0.2500
    41  0.2500    42  0.2500    43  0.2500    44  0.2500    45  0.2500
    46  0.2500
 TRANSFORMING HESSIAN TO SYMMETRY COORDINATES

          PARAMETERS CONTROLLING GEOMETRY SEARCH ARE
          METHOD =QA                  UPHESS =BFGS    
          NNEG   =         0          NFRZ   =         3
          NSTEP  =        50          IFOLOW =         1
          HESS   =GUESS               RESTAR =         F
          IHREP  =         0          HSSEND =         F
          NPRT   =         0          NPUN   =         0
          OPTTOL = 5.000E-04          RMIN   = 1.500E-03
          RMAX   = 1.000E-01          RLIM   = 7.000E-02
          DXMAX  = 3.000E-01          PURIFY =         F
          MOVIE  =         F          TRUPD  =         T
          TRMAX  = 5.000E-01          TRMIN  = 5.000E-02
          ITBMAT =         5          STPT   =         F
          STSTEP = 1.000E-02          PROJCT=          F
          FROZEN COORD(S)=   1   2   3


      ***** EQUILIBRIUM GEOMETRY LOCATED *****
            (SUBJECT TO   3 CONSTRAINT(S))
 COORDINATES OF ALL ATOMS ARE (ANGS)
   ATOM   CHARGE       X              Y              Z
 ------------------------------------------------------------
 C           6.0   3.3587357972   1.6462016116   1.3303090363
 C           6.0   2.0034527894   1.0724092951   0.9271636416
 C           6.0   0.9613448357   1.2471372387   2.0280986097
 H           1.0   3.7315339178   1.1544794462   2.2258523239
 H           1.0   3.2752993959   2.7089149166   1.5457330643
 H           1.0   4.0941723483   1.5171263797   0.5420824853
 H           1.0   1.6577123906   1.5589971836   0.0175201980
 H           1.0   2.1105571312   0.0157595859   0.6909325508
 H           1.0  -0.0008640742   0.8411845795   1.7311366769
 H           1.0   0.8270408406   2.3002909922   2.2638621193
 H           1.0   1.2768314614   0.7412270708   2.9376386011


                     --------------------
                     INTERNAL COORDINATES
                     --------------------

                 - - ATOMS - -         COORDINATE      COORDINATE
 NO.   TYPE    I  J  K  L  M  N        (BOHR,RAD)       (ANG,DEG)
 ----------------------------------------------------------------
   1 STRETCH   1  5                     2.0551400       1.0875333
   2 STRETCH   1  4                     2.0551732       1.0875509
   3 STRETCH   1  2                     2.8836475       1.5259606
   4 STRETCH   1  6                     2.0517486       1.0857387
   5 STRETCH   2  7                     2.0560318       1.0880052
   6 STRETCH   2  8                     2.0560575       1.0880189
   7 STRETCH   2  3                     2.8836603       1.5259674
   8 STRETCH   3 11                     2.0551497       1.0875385
   9 STRETCH   3 10                     2.0551627       1.0875453
  10 STRETCH   3  9                     2.0517499       1.0857394
  11 BEND      1  2  7                  1.9123437     109.5692215
  12 BEND      1  2  8                  1.9125195     109.5792950
  13 BEND      1  2  3                  1.9528985     111.8928406
  14 BEND      2  3  9                  1.9445105     111.4122426
  15 BEND      2  3 11                  1.9305134     110.6102691
  16 BEND      2  3 10                  1.9300979     110.5864666
  17 BEND      2  1  5                  1.9301096     110.5871341
  18 BEND      2  1  6                  1.9445344     111.4136154
  19 BEND      2  1  4                  1.9304838     110.6085735
  20 BEND      3  2  8                  1.9124791     109.5769815
  21 BEND      3  2  7                  1.9123707     109.5707676
  22 BEND      4  1  6                  1.8879548     108.1718402
  23 BEND      4  1  5                  1.8807392     107.7584181
  24 BEND      5  1  6                  1.8880337     108.1763626
  25 BEND      7  2  8                  1.8588534     106.5044562
  26 BEND      9  3 10                  1.8880118     108.1751097
  27 BEND      9  3 11                  1.8879893     108.1738169
  28 BEND     10  3 11                  1.8807330     107.7580632
  29 TORSION   1  2  3  9               3.1362420     179.6934292
  30 TORSION   1  2  3 10               1.0358394      59.3492285
  31 TORSION   1  2  3 11              -1.0462891     -59.9479485
  32 TORSION   3  2  1  5              -1.0418780     -59.6952119
  33 TORSION   3  2  1  6               3.1408534     179.9576419
  34 TORSION   3  2  1  4               1.0402467      59.6017479
  35 TORSION   4  1  2  8              -1.0846833     -62.1477779
  36 TORSION   4  1  2  7              -3.1182677    -178.6635770
  37 TORSION   5  1  2  7               1.0827929      62.0394632
  38 TORSION   5  1  2  8               3.1163772     178.5552623
  39 TORSION   6  1  2  7              -1.0176610     -58.3076830
  40 TORSION   6  1  2  8               1.0159233      58.2081161
  41 TORSION   7  2  3  9               1.0115866      57.9596429
  42 TORSION   7  2  3 10              -1.0888159     -62.3845578
  43 TORSION   7  2  3 11               3.1122408     178.3182651
  44 TORSION   8  2  3  9              -1.0219900     -58.5557153
  45 TORSION   8  2  3 10              -3.1223926    -178.8999160
  46 TORSION   8  2  3 11               1.0786642      61.8029069

          INTERNUCLEAR DISTANCES (ANGS.)


 =====================================================
   GAMESS/COSab RESULTS
 =====================================================

   Dielectric Constant                  = INFTY
   Basic Grid Size                      =                 1082
   Number of Segments                   =                   92
   Number of Segments located on spheres=                  166
   Number of Segments of the cavity     =                  408
   Solvent Radius (rsolv)               = 1.40
   Outlying Charge Error Method         = double cavity

 =====================================================

  Total solvated Energy (a.u.)          =  -118.2967460115
  Total Energy corrected (a.u.)         =  -118.2966772386

  Outlying charge effect (a.u.)         =     0.0000687729
  Outlying charge effect (kcal/mol)     =     0.0431557076

  Dielectric Energy (a.u.)              =    -0.0008080150
  Dielectric energy corr. (a.u.)        =    -0.0007392421

  Sum of polarization charges           =     0.0234505042
  Sum of polarization charges(cor.)     =    -0.0234505042

  Total surface area of cavity (A**2)   =   96.10
  Total volume of cavity (A**3)         =   79.97

 =====================================================
 NPS=                   408
NR.  ATOM  (X, Y, Z)(a.u.)                  CHARGE(e)  AREA(A**2) SIGMA(e/A**2)
   1   1   9.494024   1.024699   2.343562   0.001134   0.232280   0.004884
   2   1   9.406033   4.735688   4.026232   0.000980   0.371649   0.002636
   3   1   6.129479   4.906684   5.832333   0.001768   0.371649   0.004757
   4   1   6.536372   5.012833  -0.746603   0.001460   0.418105   0.003493
   5   1   7.511268   5.346462  -0.302304   0.000737   0.185824   0.003965
   6   1   5.728272   5.703320  -0.165732   0.000594   0.232280   0.002559
   7   1   6.245187   6.066860   0.161048   0.000839   0.232280   0.003610
   8   1   6.562513   4.126851   6.147865   0.001281   0.278737   0.004595
   9   1   9.264032   3.901936   4.783260   0.001343   0.418105   0.003211
  10   1   9.225716   0.729696   3.086488   0.001767   0.371649   0.004755
  11   1   7.113359  -0.484015   3.393651   0.000578   0.232280   0.002489
  12   1   8.497301   5.687651   0.775795   0.001916   0.371649   0.005157
  13   1   8.022629   6.164104   1.046064   0.001105   0.232280   0.004756
  14   1   7.792874  -0.372005   2.261705   0.001047   0.325193   0.003221
  15   1   8.706019   0.195746   2.042924   0.001409   0.325193   0.004333
  16   1   9.954428   2.063666   2.931992   0.002545   0.511017   0.004980
  17   1   9.940953   3.577710   3.586528   0.001288   0.418105   0.003081
  18   1   8.522781   5.182843   4.806847   0.001698   0.418105   0.004061
  19   1   7.320330   5.039401   5.615171   0.001761   0.325193   0.005414
  20   1   7.453219   0.229519   0.332488   0.000197   0.092912   0.002123
  21   1   9.516246   5.023587   1.750866   0.001414   0.371649   0.003805
  22   1   9.725847   4.764495   2.879711   0.001298   0.464561   0.002793
  23   1   8.975459   5.620612   3.551762   0.001007   0.325193   0.003096
  24   1   6.448149   4.114878  -1.128342   0.000397   0.185824   0.002135
  25   1   7.181030   5.948609   0.161037   0.001751   0.371649   0.004711
  26   1   5.148668   6.115474   0.559341   0.000376   0.139368   0.002697
  27   1   8.178055   4.544863   5.493087   0.001453   0.325193   0.004469
  28   1   9.858263   2.649416   3.834150   0.001046   0.278737   0.003751
  29   1   8.236143  -0.119803   3.041690   0.000832   0.232280   0.003581
  30   1   8.952401   5.834839   2.237128   0.001706   0.418105   0.004079
  31   1   7.975287  -0.004437   1.125330   0.000984   0.325193   0.003025
  32   1  10.099289   3.561527   2.466862   0.001156   0.371649   0.003111
  33   2   5.477378   1.220700  -1.530301   0.000770   0.278737   0.002762
  34   2   2.109822  -0.035037  -0.935784   0.001510   0.325193   0.004644
  35   2   4.892682  -0.923541   3.839286   0.000166   0.092912   0.001790
  36   2   5.281268  -1.048144   3.362865   0.000063   0.046456   0.001355
  37   2   2.217884   0.762660  -1.446031   0.001299   0.278737   0.004661
  38   2   4.848479   1.922714  -1.873463   0.000798   0.278737   0.002865
  39   2   2.629676   5.516197   0.874819   0.000258   0.139368   0.001853
  40   2   4.664313   0.563023  -1.619992   0.001595   0.371649   0.004290
  41   2   3.189758   0.190272  -1.497052   0.001772   0.325193   0.005450
  42   2   1.125161   0.619541  -0.533665   0.001483   0.464561   0.003192
  43   2   5.560891   0.153043  -1.009063   0.000805   0.278737   0.002888
  44   2   1.423615  -0.420582   0.104343   0.001020   0.325193   0.003136
  45   2   4.561875  -1.106308   3.718662   0.000093   0.046456   0.001997
  46   2   0.782203   1.664750  -0.513022   0.000432   0.185824   0.002323
  47   2   3.869530   0.830197  -1.832053   0.001329   0.278737   0.004767
  48   2   3.161428   5.608374   0.720223   0.000099   0.046456   0.002126
  49   3   0.391574  -0.631585   5.655540   0.001139   0.232280   0.004903
  50   3  -1.012468   3.154406   6.208256   0.000973   0.371649   0.002618
  51   3  -0.947555   4.721473   2.807207   0.001804   0.371649   0.004853
  52   3   3.588381   3.479335   6.976610   0.000564   0.139368   0.004045
  53   3  -0.400739   2.469675   0.774028   0.000144   0.092912   0.001549
  54   3  -1.439192   3.918176   2.716526   0.001233   0.278737   0.004423
  55   3  -1.600980   2.572035   5.431792   0.001323   0.418105   0.003164
  56   3  -0.120158  -0.676480   4.986907   0.001763   0.371649   0.004743
  57   3   0.661038  -1.055509   2.690046   0.000594   0.232280   0.002557
  58   3   2.166204   3.678587   7.356020   0.001707   0.325193   0.005249
  59   3   2.265328   4.361417   7.004972   0.001096   0.232280   0.004718
  60   3   1.304933  -1.387761   3.799369   0.001026   0.325193   0.003154
  61   3   1.041956  -1.200341   4.848062   0.001409   0.325193   0.004333
  62   3  -0.344702   0.292930   6.146299   0.002547   0.511017   0.004985
  63   3  -0.900964   1.824207   6.404543   0.001294   0.418105   0.003094
  64   3  -1.248494   4.004166   5.307345   0.001698   0.418105   0.004062
  65   3  -1.351519   4.415888   3.914605   0.001758   0.325193   0.005407
  66   3  -0.770875   4.101111   1.700415   0.001164   0.325193   0.003579
  67   3  -0.312175   3.803267   1.064916   0.000392   0.139368   0.002814
  68   3   3.149124  -1.086550   4.640385   0.000166   0.092912   0.001788
  69   3   0.907052   2.953028   7.452125   0.001403   0.371649   0.003776
  70   3  -0.177156   2.859289   7.003730   0.001305   0.464561   0.002809
  71   3  -0.383875   4.024065   6.413616   0.001009   0.325193   0.003102
  72   3  -0.164697   5.069739   2.101063   0.000974   0.278737   0.003494
  73   3   0.918515   5.339237   1.691930   0.000375   0.185824   0.002018
  74   3   3.310895   4.263357   6.733652   0.001750   0.371649   0.004710
  75   3  -0.760817   3.268593   1.223086   0.000392   0.139368   0.002813
  76   3  -1.674095   3.655633   4.474177   0.001431   0.325193   0.004401
  77   3  -1.077472   1.038198   5.874524   0.001043   0.278737   0.003741
  78   3   0.408590  -1.150117   3.891916   0.000829   0.232280   0.003570
  79   3   0.768483   3.980284   7.080579   0.001720   0.418105   0.004114
  80   3   2.200892  -1.322450   4.607281   0.000992   0.325193   0.003051
  81   3  -0.008711   1.545028   7.040882   0.001161   0.371649   0.003124
  82   3   0.129820   4.766161   1.459061   0.000683   0.232280   0.002941
  83   4   8.230558   1.229604   6.139829  -0.002454   0.490692  -0.005002
  84   4   8.853356   0.554806   4.583129  -0.000608   0.353299  -0.001721
  85   4   7.103838  -0.165469   4.929722  -0.001043   0.353299  -0.002953
  86   4   7.356581   2.912690   6.531696  -0.000754   0.392554  -0.001921
  87   4   9.132908   2.366607   5.498123  -0.000746   0.372926  -0.002001
  88   4   8.085108   0.112265   5.033627  -0.001291   0.412182  -0.003133
  89   4   7.190059   0.501018   5.992707  -0.002440   0.471065  -0.005180
  90   4   7.121596   1.836063   6.637467  -0.002167   0.451437  -0.004800
  91   4   8.396186   2.668615   6.203751  -0.001208   0.431809  -0.002797
  92   4   9.143966   1.350573   5.189252  -0.001332   0.451437  -0.002950
  93   5   6.336994   7.571112   2.888782  -0.002176   0.451437  -0.004820
  94   5   5.945104   7.127185   1.527073  -0.000785   0.392554  -0.002001
  95   5   7.706313   7.047079   2.790301  -0.000858   0.392554  -0.002185
  96   5   6.924813   6.551834   4.776172  -0.000734   0.392554  -0.001869
  97   5   5.759934   6.547279   4.873191  -0.001258   0.392554  -0.003204
  98   5   5.033157   7.162905   2.199148  -0.001979   0.490692  -0.004034
  99   5   7.009967   7.201519   1.908395  -0.000897   0.392554  -0.002286
 100   5   7.470343   7.002214   3.842031  -0.001446   0.471065  -0.003069
 101   5   6.181662   7.276482   4.096094  -0.001633   0.353299  -0.004621
 102   5   5.268955   7.316646   3.519940  -0.002160   0.392554  -0.005503
 103   6   9.438966   2.524814  -0.713702  -0.003275   0.588831  -0.005561
 104   6   8.793979   4.448225  -0.530362  -0.000630   0.372926  -0.001690
 105   6   7.677995   3.152554  -1.414898  -0.000876   0.353299  -0.002479
 106   6   8.285791   1.073574  -0.562307  -0.000983   0.353299  -0.002782
 107   6   9.762185   1.492975   0.811334  -0.000695   0.372926  -0.001864
 108   6  10.097412   3.510881   0.804562  -0.000855   0.412182  -0.002075
 109   6   8.515720   3.616711  -1.181606  -0.001840   0.490692  -0.003749
 110   6   8.170720   2.033445  -1.245454  -0.001867   0.490692  -0.003805
 111   6   9.168579   1.205051  -0.081692  -0.001603   0.471065  -0.003403
 112   6  10.117993   2.451087   0.585718  -0.001646   0.471065  -0.003495
 113   6   9.631128   3.946819  -0.107344  -0.001712   0.490692  -0.003488
 114   7   2.334403   3.973612  -2.050663  -0.002700   0.569203  -0.004743
 115   7   3.597432   4.882132  -1.405891  -0.000870   0.333671  -0.002608
 116   7   2.067849   5.108756  -0.440319  -0.000638   0.353299  -0.001806
 117   7   0.985822   3.212479  -1.131094  -0.000912   0.372926  -0.002446
 118   7   2.309379   2.106994  -2.124050  -0.000456   0.372926  -0.001222
 119   7   4.128292   3.070207  -2.209290  -0.000525   0.353299  -0.001486
 120   7   2.800554   5.140212  -1.020725  -0.001283   0.431809  -0.002971
 121   7   1.431266   4.330442  -1.073233  -0.001397   0.471065  -0.002966
 122   7   1.522574   2.755455  -1.812565  -0.001140   0.431809  -0.002640
 123   7   3.076043   2.757148  -2.415610  -0.001266   0.471065  -0.002687
 124   7   3.802049   4.088917  -2.035920  -0.001321   0.490692  -0.002693
 125   8   4.225516  -2.338010   0.695409  -0.002700   0.569203  -0.004744
 126   8   3.401255  -2.198434   2.157426  -0.000870   0.333671  -0.002609
 127   8   5.175991  -1.839455   2.368983  -0.000638   0.353299  -0.001806
 128   8   5.658010  -1.376430   0.178758  -0.000912   0.372926  -0.002446
 129   8   3.925540  -1.247727  -0.791727  -0.000456   0.372926  -0.001223
 130   8   2.355975  -1.615316   0.490783  -0.000522   0.353299  -0.001478
 131   8   4.310292  -2.188595   2.310808  -0.001284   0.431809  -0.002973
 132   8   5.440631  -1.949608   1.215978  -0.001398   0.471065  -0.002968
 133   8   4.864072  -1.533753  -0.374675  -0.001140   0.431809  -0.002641
 134   8   3.220684  -1.750239  -0.203390  -0.001266   0.471065  -0.002687
 135   8   2.879764  -2.162143   1.265952  -0.001321   0.490692  -0.002693
 136   9  -2.207425   0.743199   2.598203  -0.003275   0.588831  -0.005562
 137   9  -1.242841  -0.411550   3.971250  -0.000631   0.372926  -0.001691
 138   9  -0.693987  -0.470917   2.126848  -0.000873   0.353299  -0.002471
 139   9  -1.311949   1.570005   1.193445  -0.000983   0.353299  -0.002782
 140   9  -2.176320   2.606265   2.749580  -0.000696   0.372926  -0.001865
 141   9  -2.172635   1.406601   4.406432  -0.000855   0.412182  -0.002074
 142   9  -1.326139  -0.442542   2.882645  -0.001838   0.490692  -0.003746
 143   9  -1.275049   0.432235   1.518098  -0.001867   0.490692  -0.003804
 144   9  -1.958293   2.001671   1.844210  -0.001604   0.471065  -0.003405
 145   9  -2.430181   1.897808   3.476988  -0.001645   0.471065  -0.003493
 146   9  -1.965224   0.360174   4.088613  -0.001714   0.490692  -0.003494
 147  10   0.944995   6.648655   4.874148  -0.002250   0.451437  -0.004984
 148  10   2.523436   5.870376   5.948855  -0.000957   0.353299  -0.002708
 149  10   0.898313   5.566493   6.304414  -0.000675   0.353299  -0.001909
 150  10  -0.414974   5.775183   4.566527  -0.000677   0.372926  -0.001815
 151  10   0.753604   6.230809   2.924886  -0.000721   0.372926  -0.001933
 152  10   2.071824   6.694533   4.792644  -0.002228   0.412182  -0.005405
 153  10   1.672680   6.069717   6.025927  -0.001336   0.392554  -0.003403
 154  10   0.128635   5.855052   5.583268  -0.001454   0.471065  -0.003087
 155  10   0.141349   6.305558   3.856115  -0.001531   0.471065  -0.003250
 156  10   1.584313   6.675845   3.496574  -0.002142   0.471065  -0.004547
 157  11   2.741909   0.284574   7.714916  -0.002250   0.451437  -0.004983
 158  11   3.527449   2.173777   7.599544  -0.000809   0.353299  -0.002291
 159  11   3.437928  -0.772800   6.061429  -0.001078   0.353299  -0.003051
 160  11   1.580656  -0.565081   6.767157  -0.000670   0.372926  -0.001796
 161  11   1.426424   1.198442   7.792128  -0.000831   0.412182  -0.002017
 162  11   3.697676   1.066532   7.618381  -0.002092   0.431809  -0.004844
 163  11   3.767715  -0.056449   6.992224  -0.002263   0.431809  -0.005241
 164  11   2.607059  -0.807222   6.610786  -0.001383   0.431809  -0.003203
 165  11   1.549272   0.146604   7.479172  -0.001354   0.431809  -0.003135
 166  11   2.453277   1.792125   7.976262  -0.001346   0.510320  -0.002637
 167   1   6.307504  -0.385787   3.966854  -0.000008   0.026456  -0.000286
 168   2   5.856669  -0.534479   3.818023   0.000024   0.026456   0.000904
 169   4   6.450997  -0.293963   4.217985  -0.000040   0.026456  -0.001529
 170   1   4.416055   6.065639   1.142908   0.000015   0.026483   0.000554
 171   2   3.987531   5.840836   1.027395   0.000037   0.026483   0.001410
 172   5   4.531725   6.251622   1.352948  -0.000024   0.026483  -0.000902
 173   1   6.373952   3.145356  -1.272096   0.000018   0.025209   0.000728
 174   2   5.924301   2.952033  -1.361085   0.000047   0.025209   0.001863
 175   6   6.668616   3.077140  -1.279557  -0.000010   0.025209  -0.000413
 176   1   7.146579   0.510854  -0.119819   0.000026   0.025209   0.001042
 177   2   6.686581   0.352809  -0.224238   0.000082   0.025209   0.003236
 178   6   7.371733   0.679650  -0.230944  -0.000009   0.025209  -0.000374
 179   1   4.282786   5.670861   0.442351   0.000087   0.027816   0.003125
 180   2   3.832019   5.521528   0.293823   0.000041   0.027816   0.001478
 181   7   3.699626   5.428321   0.036847   0.000005   0.027816   0.000178
 182   1   5.752653   3.432747  -1.313536   0.000058   0.027816   0.002095
 183   2   5.321253   3.253926  -1.485199   0.000030   0.027816   0.001090
 184   7   5.055468   3.363830  -1.582827   0.000009   0.027816   0.000321
 185   1   6.749104   0.037904   0.168337   0.000092   0.027804   0.003324
 186   2   6.328165  -0.176547   0.012221   0.000041   0.027804   0.001473
 187   8   6.168316  -0.427768   0.072142   0.000008   0.027804   0.000280
 188   1   6.154825  -0.705520   3.224298   0.000053   0.027804   0.001919
 189   2   5.726055  -0.929767   3.108453   0.000026   0.027804   0.000919
 190   8   5.620139  -1.113520   2.891034  -0.000000   0.027804  -0.000005
 191   2   5.724023  -0.830684   3.411244   0.000154   0.083993   0.001833
 192   1   6.319189  -0.534849   3.688908   0.000129   0.083993   0.001535
 193   2   3.778778   5.697934   0.658570   0.000169   0.082432   0.002046
 194   1   4.449803   5.938782   0.759478   0.000190   0.082432   0.002300
 195   2   5.521833   3.094956  -1.496407   0.000127   0.055286   0.002299
 196   1   6.182311   3.302588  -1.312765   0.000117   0.055286   0.002112
 197   2   6.427622   0.039257  -0.192303   0.000158   0.054357   0.002900
 198   1   7.064443   0.264721   0.045484   0.000140   0.054357   0.002585
 199   1   5.617475   3.228134   6.258968   0.000161   0.065389   0.002462
 200   3   4.810266   3.079871   6.406848   0.000212   0.065389   0.003236
 201   4   5.806767   2.995726   6.315332  -0.000068   0.065389  -0.001047
 202   1   4.506666   5.119213   5.461575   0.000209   0.065524   0.003195
 203   3   3.729860   5.042961   5.755189   0.000168   0.065524   0.002571
 204  10   3.535232   5.261150   5.668357  -0.000062   0.065524  -0.000950
 205   3   4.185447   3.912512   6.360059   0.001370   0.577798   0.002372
 206   1   5.207061   4.466367   5.872888   0.001451   0.577798   0.002511
 207   4   6.973344  -0.272308   4.323730  -0.000092   0.067166  -0.001366
 208   4   7.987760  -0.029848   4.034588  -0.000214   0.148144  -0.001445
 209   4   9.010233   0.789343   4.058756  -0.000168   0.148144  -0.001134
 210   4   9.426876   1.943353   4.518949  -0.000153   0.148144  -0.001034
 211   4   9.075299   2.982400   5.235805  -0.000231   0.148144  -0.001559
 212   4   8.092532   3.501510   5.929925  -0.000121   0.148144  -0.000818
 213   4   6.861613   3.298356   6.330771  -0.000246   0.148144  -0.001659
 214   1   7.242545  -0.282238   3.798240  -0.000136   0.148185  -0.000919
 215   1   8.574451   0.299827   3.563404   0.000041   0.148185   0.000278
 216   1   9.425491   1.466705   3.849837   0.000160   0.148185   0.001077
 217   1   9.463969   2.763599   4.545901  -0.000003   0.148185  -0.000019
 218   1   8.674887   3.685036   5.380301   0.000010   0.148185   0.000069
 219   1   7.365794   3.871881   6.027823   0.000179   0.148185   0.001209
 220   1   6.262037   3.488578   6.276823   0.000064   0.082059   0.000782
 221   1   4.930471   5.366388   5.289345   0.000114   0.088981   0.001280
 222   5   4.973393   5.631105   5.140686  -0.000040   0.088981  -0.000452
 223  10   3.931985   5.413904   5.367248   0.000154   0.088981   0.001732
 224   5   5.697396   5.820450   5.224939  -0.000044   0.067106  -0.000654
 225   5   6.767857   5.926946   5.114205  -0.000146   0.147986  -0.000990
 226   5   7.813029   6.161643   4.361255  -0.000187   0.147986  -0.001266
 227   5   8.191255   6.439145   3.138823  -0.000236   0.147986  -0.001597
 228   5   7.755370   6.651478   1.922551  -0.000129   0.147986  -0.000872
 229   5   6.674974   6.716025   1.185679  -0.000163   0.147986  -0.001099
 230   5   5.370442   6.607671   1.214921  -0.000337   0.147986  -0.002280
 231   1   6.143868   5.476248   5.399906   0.000007   0.148076   0.000046
 232   1   7.533819   5.674497   4.960294   0.000054   0.148076   0.000363
 233   1   8.375492   5.977367   3.792225   0.000023   0.148076   0.000157
 234   1   8.341398   6.267012   2.350189   0.000086   0.148076   0.000578
 235   1   7.444802   6.430735   1.195270   0.000151   0.148076   0.001021
 236   1   6.034564   6.404832   0.776840   0.000004   0.148076   0.000027
 237   1   4.876142   6.263073   1.027460  -0.000007   0.081985  -0.000091
 238   6   7.100836   3.401142  -1.287010  -0.000090   0.069523  -0.001299
 239   6   7.664279   4.292533  -0.907264  -0.000249   0.154606  -0.001612
 240   6   8.623384   4.798138  -0.095184  -0.000194   0.154606  -0.001255
 241   6   9.546894   4.433270   0.826225  -0.000197   0.154606  -0.001273
 242   6  10.046814   3.351224   1.469847  -0.000279   0.154606  -0.001804
 243   6   9.913109   2.006601   1.565275  -0.000157   0.154606  -0.001015
 244   6   9.201954   0.964323   1.072418  -0.000224   0.154606  -0.001449
 245   6   8.212128   0.662285   0.198340  -0.000353   0.154606  -0.002281
 246   1   6.922453   3.934972  -1.079971  -0.000145   0.152159  -0.000956
 247   1   7.843196   4.926014  -0.383172   0.000091   0.152159   0.000601
 248   1   8.960907   5.009570   0.646003   0.000182   0.152159   0.001195
 249   1   9.805999   4.150536   1.575163  -0.000017   0.152159  -0.000111
 250   1  10.023421   2.709819   2.013938   0.000028   0.152159   0.000186
 251   1   9.521827   1.292713   1.777984   0.000166   0.152159   0.001090
 252   1   8.511952   0.494591   0.966433  -0.000024   0.152159  -0.000155
 253   1   7.605208   0.463243   0.125548  -0.000010   0.084937  -0.000123
 254   7   3.835176   5.286188  -0.412268  -0.000172   0.214659  -0.000800
 255   7   4.577688   4.269921  -1.306859  -0.001105   0.441718  -0.002502
 256   1   5.079600   5.269199  -0.306497   0.000865   0.585796   0.001477
 257   1   5.853021   3.987407  -1.223499   0.000702   0.302397   0.002321
 258   8   6.158763  -0.781294   0.411297  -0.000193   0.214580  -0.000900
 259   8   5.940726  -1.191592   1.883250  -0.001139   0.441539  -0.002580
 260   1   7.011236  -0.370900   1.226677   0.000915   0.585593   0.001563
 261   1   6.623698  -0.730424   2.900056   0.000728   0.302285   0.002408
 262   1   4.899311   5.333771   5.518938   0.000059   0.007095   0.008347
 263   2   1.940157   5.206582   0.844427   0.000020   0.027814   0.000701
 264   3   1.613534   5.226511   1.219226   0.000054   0.027814   0.001924
 265   7   1.939230   5.135261   0.549190  -0.000004   0.027814  -0.000143
 266   2   0.499688   2.451518  -0.081820   0.000034   0.027814   0.001227
 267   3   0.191798   2.507277   0.305025   0.000095   0.027814   0.003420
 268   7   0.627786   2.626972  -0.294092   0.000006   0.027814   0.000213
 269   2   1.506313  -0.978989   1.415438   0.000031   0.027808   0.001123
 270   3   1.187971  -0.887602   1.786735   0.000058   0.027808   0.002070
 271   8   1.740381  -1.164659   1.360726   0.000010   0.027808   0.000360
 272   2   3.832619  -1.244916   3.659645   0.000040   0.027808   0.001435
 273   3   3.484021  -1.150070   4.001753   0.000086   0.027808   0.003099
 274   8   3.858313  -1.406766   3.403912   0.000004   0.027808   0.000153
 275   2   0.174720   2.016805   0.310049   0.000082   0.025211   0.003251
 276   3  -0.195313   2.073946   0.637606   0.000019   0.025211   0.000769
 277   9  -0.414675   1.920656   0.778731  -0.000011   0.025211  -0.000450
 278   2   0.927109  -0.590259   1.435997   0.000048   0.025211   0.001887
 279   3   0.567286  -0.568501   1.778835   0.000013   0.025211   0.000501
 280   9   0.279318  -0.484066   1.817291  -0.000015   0.025211  -0.000590
 281   2   2.119744   5.535332   1.588730   0.000023   0.026485   0.000879
 282   3   1.771183   5.630862   1.930629   0.000001   0.026485   0.000031
 283  10   1.733677   5.790379   2.186040  -0.000036   0.026485  -0.001361
 284   2   3.967109  -0.858121   4.352202   0.000038   0.026452   0.001423
 285   3   3.640607  -0.838919   4.727093   0.000006   0.026452   0.000225
 286  11   3.630104  -0.773917   5.023317  -0.000028   0.026452  -0.001045
 287   3   0.761365  -0.731795   1.819606   0.000111   0.058011   0.001917
 288   2   1.286634  -0.853438   1.347574   0.000134   0.058011   0.002309
 289   3   3.470100  -1.046618   4.433567   0.000164   0.080313   0.002044
 290   2   4.023161  -1.085023   3.974632   0.000162   0.080313   0.002019
 291   3   1.642952   5.508754   1.663658   0.000137   0.086118   0.001594
 292   2   2.059293   5.380521   1.089564   0.000141   0.086118   0.001637
 293   3  -0.105177   2.330024   0.513430   0.000140   0.051573   0.002713
 294   2   0.376174   2.186756   0.003258   0.000134   0.051573   0.002594
 295   2   4.997678  -0.290686   4.585548   0.000027   0.168751   0.000160
 296   4   5.620668  -0.002540   4.911867  -0.000136   0.168751  -0.000808
 297  11   4.583501  -0.177149   5.212612  -0.000185   0.168751  -0.001096
 298   4   6.319396  -0.176240   4.676453  -0.000245   0.139885  -0.001750
 299   2   5.495926  -0.622969   4.041503   0.000336   0.197152   0.001702
 300   2   3.198636   5.834023   1.916228   0.000025   0.168698   0.000146
 301   5   3.804695   6.180955   2.215908  -0.000185   0.168698  -0.001095
 302  10   2.770377   6.008321   2.519295  -0.000140   0.168698  -0.000828
 303   5   4.450859   6.427425   1.664409  -0.000212   0.142122  -0.001495
 304   2   3.520069   5.888666   1.311769   0.000320   0.200304   0.001596
 305   6   7.429520   0.972711  -0.569786  -0.000238   0.197170  -0.001207
 306   6   7.057026   2.194138  -1.181562  -0.001055   0.403083  -0.002617
 307   2   6.250843   1.001922  -0.950070   0.000793   0.540545   0.001467
 308   2   5.838366   2.452759  -1.513988   0.000662   0.277672   0.002386
 309   7   2.317768   5.257988   0.170085  -0.000083   0.071341  -0.001162
 310   7   3.162492   5.398616  -0.075755  -0.000075   0.071341  -0.001049
 311   2   2.844948   5.388240   0.441613  -0.000210   0.155553  -0.001347
 312   7   4.670918   3.107960  -1.874404  -0.000065   0.070376  -0.000921
 313   7   3.995687   2.227604  -2.088682  -0.000201   0.156681  -0.001281
 314   7   2.775944   1.631711  -1.943835  -0.000102   0.156681  -0.000654
 315   7   1.548627   1.820371  -1.376435  -0.000195   0.156681  -0.001247
 316   7   0.858592   2.473523  -0.764779  -0.000065   0.070376  -0.000919
 317   2   4.747043   2.512010  -1.819900  -0.000078   0.153882  -0.000507
 318   2   3.610879   1.488599  -1.935508   0.000200   0.153882   0.001302
 319   2   2.156930   1.246637  -1.512318   0.000149   0.153882   0.000966
 320   2   1.004683   1.889216  -0.730639  -0.000058   0.153882  -0.000374
 321   8   5.164181  -1.420739   2.899707  -0.000081   0.071420  -0.001127
 322   8   4.318578  -1.561481   3.145877  -0.000077   0.071420  -0.001075
 323   2   4.780479  -1.207186   3.319425  -0.000194   0.155689  -0.001248
 324   8   1.963910  -1.293408   0.879216  -0.000060   0.070387  -0.000855
 325   8   2.383273  -1.024142  -0.135106  -0.000182   0.156709  -0.001164
 326   8   3.472261  -0.740861  -0.908520  -0.000119   0.156709  -0.000759
 327   8   4.830638  -0.616864  -0.847308  -0.000183   0.156709  -0.001165
 328   8   5.776544  -0.658931  -0.230289  -0.000067   0.070387  -0.000945
 329   2   1.814799  -0.871730   0.474334  -0.000122   0.153902  -0.000790
 330   2   2.673064  -0.512189  -0.744806   0.000169   0.153902   0.001099
 331   2   4.127216  -0.270197  -1.167975   0.000178   0.153902   0.001158
 332   2   5.557518  -0.248888  -0.614826  -0.000070   0.153902  -0.000458
 333   9  -0.532305   1.488255   0.835791  -0.000236   0.197184  -0.001198
 334   9  -0.190617   0.201246   1.317493  -0.001055   0.403111  -0.002616
 335   2   0.447859   0.986343   0.268226   0.000757   0.540579   0.001401
 336   2   0.878646  -0.412479   0.939895   0.000644   0.277691   0.002317
 337  10   2.018933   6.047306   2.483499  -0.000242   0.137691  -0.001757
 338   2   2.510682   5.702316   1.524771   0.000325   0.194066   0.001675
 339  11   3.836995  -0.653989   5.305693  -0.000244   0.144293  -0.001693
 340   2   4.507508  -0.740663   4.397532   0.000311   0.203358   0.001527
 341   3   4.398290   2.862269   6.638993   0.000109   0.089018   0.001226
 342   4   5.363040   2.733298   6.394497   0.000156   0.089018   0.001753
 343  11   4.351368   2.591214   6.774423  -0.000048   0.089018  -0.000534
 344   3   4.497158   3.053714   6.730809   0.000059   0.007145   0.008238
 345   7   0.689376   3.104974  -0.383352  -0.000193   0.214646  -0.000897
 346   7   1.302129   4.457917   0.038730  -0.001145   0.441687  -0.002593
 347   3   0.223239   3.617557   0.655895   0.000943   0.585761   0.001609
 348   3   1.067377   5.067223   1.173121   0.000665   0.302378   0.002200
 349   8   3.564287  -1.643464   3.091385  -0.000173   0.214604  -0.000807
 350   8   2.420320  -1.587173   2.056377  -0.001098   0.441593  -0.002487
 351   3   2.434960  -1.351544   3.537952   0.000897   0.585655   0.001532
 352   3   1.212337  -1.143945   2.296006   0.000741   0.302319   0.002451
 353   9  -0.074931  -0.620139   2.201787  -0.000094   0.069520  -0.001348
 354   9  -0.336110  -0.788800   3.278601  -0.000230   0.154600  -0.001485
 355   9  -0.886759  -0.322137   4.424865  -0.000211   0.154600  -0.001365
 356   9  -1.506268   0.761750   4.950513  -0.000199   0.154600  -0.001290
 357   9  -1.934372   2.007505   4.634713  -0.000278   0.154600  -0.001799
 358   9  -1.991218   2.891767   3.610137  -0.000146   0.154600  -0.000943
 359   9  -1.652925   3.043046   2.307225  -0.000249   0.154600  -0.001608
 360   9  -1.061614   2.397787   1.273349  -0.000340   0.154600  -0.002197
 361   3   0.243016  -0.820691   2.669052  -0.000156   0.152154  -0.001025
 362   3  -0.232598  -0.749418   4.112681   0.000012   0.152154   0.000077
 363   3  -0.927320   0.171142   5.105294   0.000137   0.152154   0.000902
 364   3  -1.549288   1.554250   5.229881  -0.000048   0.152154  -0.000315
 365   3  -1.837203   2.818841   4.434100   0.000032   0.152154   0.000213
 366   3  -1.670107   3.433642   3.052271   0.000113   0.152154   0.000746
 367   3  -1.118202   3.140366   1.664921  -0.000053   0.152154  -0.000349
 368   3  -0.550794   2.366475   0.884330   0.000010   0.084934   0.000117
 369  10   1.284586   5.943165   2.429690  -0.000112   0.067125  -0.001668
 370  10   0.283861   5.736160   2.784361  -0.000267   0.148035  -0.001807
 371  10  -0.531522   5.414360   3.757416  -0.000111   0.148035  -0.000748
 372  10  -0.588251   5.121646   5.032696  -0.000205   0.148035  -0.001387
 373  10   0.135758   4.971972   6.113737  -0.000233   0.148035  -0.001575
 374  10   1.358649   5.023604   6.579690  -0.000151   0.148035  -0.001022
 375  10   2.604352   5.256444   6.249160  -0.000144   0.148035  -0.000973
 376   3   0.861393   5.589379   2.219318  -0.000118   0.148110  -0.000794
 377   3  -0.363834   5.265680   2.967393   0.000048   0.148110   0.000326
 378   3  -0.879539   4.902301   4.296897   0.000065   0.148110   0.000442
 379   3  -0.484958   4.640704   5.690257   0.000056   0.148110   0.000375
 380   3   0.666299   4.582729   6.605039   0.000056   0.148110   0.000378
 381   3   2.126049   4.750946   6.685118   0.000171   0.148110   0.001152
 382   3   3.175748   4.999381   6.173269   0.000140   0.082008   0.001703
 383  11   3.733385   2.655603   7.201589  -0.000050   0.067148  -0.000740
 384  11   2.715642   2.680191   7.568284  -0.000091   0.148097  -0.000611
 385  11   1.532405   2.127297   7.671173  -0.000204   0.148097  -0.001375
 386  11   0.825460   1.077598   7.332517  -0.000239   0.148097  -0.001613
 387  11   0.870212  -0.059974   6.684247  -0.000128   0.148097  -0.000861
 388  11   1.649227  -0.842254   5.978910  -0.000182   0.148097  -0.001231
 389  11   2.859023  -0.964489   5.491285  -0.000318   0.148097  -0.002148
 390   3   3.319771   3.076264   7.177355   0.000148   0.148150   0.000997
 391   3   1.911290   2.843514   7.536446   0.000174   0.148150   0.001174
 392   3   0.793532   1.895822   7.397026   0.000001   0.148150   0.000006
 393   3   0.401945   0.602381   6.813408   0.000077   0.148150   0.000517
 394   3   0.889079  -0.532922   6.012954   0.000196   0.148150   0.001326
 395   3   2.065160  -1.067806   5.307496   0.000006   0.148150   0.000044
 396   3   3.205180  -0.975293   4.963522  -0.000011   0.082036  -0.000140
 397  11   4.532225  -0.226870   5.853097   0.000003   0.250960   0.000010
 398  11   4.639157   0.533218   6.663173  -0.000507   0.501751  -0.001011
 399  11   4.533833   1.832976   7.054579  -0.000053   0.501751  -0.000105
 400   4   6.060125   0.291343   5.751870  -0.000394   0.501751  -0.000786
 401   4   6.100824   1.402610   6.537422  -0.000440   0.501751  -0.000877
 402   4   5.944020   2.503139   6.635618   0.000265   0.250960   0.001056
 403  10   3.431607   5.835462   5.510318   0.000228   0.251540   0.000907
 404  10   3.075805   6.469233   4.657934  -0.000443   0.502920  -0.000881
 405  10   2.680170   6.545113   3.352298  -0.000427   0.502920  -0.000848
 406   5   4.771008   6.347056   4.769719  -0.000084   0.502920  -0.000168
 407   5   4.336148   6.869222   3.584304  -0.000575   0.502920  -0.001143
 408   5   4.051198   6.696863   2.514765   0.000018   0.251540   0.000071
 =====================================================

              1113798  WORDS OF DYNAMIC MEMORY USED
 EXECUTION OF GAMESS TERMINATED NORMALLY Sun Nov 27 10:51:41 2016
 DDI: 263640 bytes (0.3 MB / 0 MWords) used by master data server.

 ----------------------------------------
 CPU timing information for all processes
 ========================================
 0: 107.460 + 0.84 = 107.544
 ----------------------------------------
 ddikick.x: exited gracefully.
