----- GAMESS execution script -----

          ******************************************************
          *         GAMESS VERSION =  5 DEC 2014 (R1)          *
          *             FROM IOWA STATE UNIVERSITY             *
          * M.W.SCHMIDT, K.K.BALDRIDGE, J.A.BOATZ, S.T.ELBERT, *
          *   M.S.GORDON, J.H.JENSEN, S.KOSEKI, N.MATSUNAGA,   *
          *          K.A.NGUYEN, S.J.SU, T.L.WINDUS,           *
          *       TOGETHER WITH M.DUPUIS, J.A.MONTGOMERY       *
          *         J.COMPUT.CHEM.  14, 1347-1363(1993)        *
          **************** 64 BIT LINUX VERSION ****************

 EXECUTION OF GAMESS BEGUN Sun Nov 27 12:24:18 2016

            ECHO OF THE FIRST FEW INPUT CARDS -
 INPUT CARD>! SELECT RESTRICTED HARTREE-FOCK AS DEFAULT                                     
 INPUT CARD>$contrl scftyp=rhf $end                                                         
 INPUT CARD>                                                                                
 INPUT CARD>! THEORY: HF OR DFT                                                             
 INPUT CARD> $contrl mplevl=0 $end                                                          
 INPUT CARD>                                                                                
 INPUT CARD> $system timlim=10000 mwords=20 $end                                            
 INPUT CARD> $SCF DIRSCF=.TRUE. $end                                                        
 INPUT CARD>                                                                                
 INPUT CARD>                                                                                
 INPUT CARD>! BASIS SETS                                                                    
 INPUT CARD>! 6-311G(d,p)                                                                   
 INPUT CARD> $BASIS GBASIS=N311 NGAUSS=6 NDFUNC=1 NPFUNC=1 $END                             
 INPUT CARD>                                                                                
 INPUT CARD>! One of the following                                                          
 INPUT CARD> $guess guess=HUCKEL $end                                                       
 INPUT CARD>                                                                                
 INPUT CARD> $statpt projct=.FALSE. $end                                                    
 INPUT CARD> $STATPT IFREEZ(1)=1,2,3 $END                                                   
 INPUT CARD>                                                                                
 INPUT CARD>! Optimize the geometry with COSMO effects                                      
 INPUT CARD> $statpt opttol=0.0005 nstep=50 $end                                            
 INPUT CARD> $contrl nzvar=1 $end                                                           
 INPUT CARD> $zmat dlc=.t. auto=.t. $end                                                    
 INPUT CARD> $contrl runtyp=OPTIMIZE maxit=200 $end                                         
 INPUT CARD>                                                                                
 INPUT CARD>! Run COSMO on perfect conductor                                                
 INPUT CARD> $COSGMS PRFCND=.TRUE. $end                                                     
 INPUT CARD>                                                                                
 INPUT CARD>! Specifying RSOLV                                                              
 INPUT CARD> $COSGMS COSRAD = 1.4 $end                                                      
 INPUT CARD>                                                                                
 INPUT CARD>! available memory                                                              
 INPUT CARD> $SYSTEM MWORDS=40 $END                                                         
 INPUT CARD>                                                                                
 INPUT CARD> $DATA                                                                          
 INPUT CARD>file:/home/renata/GUILHERME/SALICYLIC_ACID1.mol                                 
 INPUT CARD>C1                                                                              
 INPUT CARD>C      6.0     -1.3690000000   -0.0693000000    0.0123000000                    
 INPUT CARD>C      6.0     -0.7309000000    1.1734000000   -0.0314000000                    
 INPUT CARD>C      6.0     -0.6130000000   -1.2379000000    0.0206000000                    
 INPUT CARD>C      6.0      0.7791000000   -1.1694000000   -0.0070000000                    
 INPUT CARD>C      6.0      1.4189000000    0.0751000000   -0.0554000000                    
 INPUT CARD>O      8.0      2.7845000000    0.1067000000   -0.0837000000                    
 INPUT CARD>C      6.0      0.6715000000    1.2612000000   -0.0734000000                    
 INPUT CARD>C      6.0      1.3394000000    2.5924000000   -0.1600000000                    
 INPUT CARD>O      8.0      2.5244000000    2.8473000000   -0.2574000000                    
 INPUT CARD>O      8.0      0.4491000000    3.6078000000   -0.1401000000                    
 INPUT CARD>H      1.0     -2.4546000000   -0.1207000000    0.0351000000                    
 INPUT CARD>H      1.0     -1.3429000000    2.0723000000   -0.0387000000                    
   40000000 WORDS OF MEMORY AVAILABLE

     BASIS OPTIONS
     -------------
     GBASIS=N311         IGAUSS=       6      POLAR=POPN311 
     NDFUNC=       1     NFFUNC=       0     DIFFSP=       F
     NPFUNC=       1      DIFFS=       F     BASNAM=        


     RUN TITLE
     ---------
 file:/home/renata/GUILHERME/SALICYLIC_ACID1.mol                                 

 THE POINT GROUP OF THE MOLECULE IS C1      
 THE ORDER OF THE PRINCIPAL AXIS IS     0

 ATOM      ATOMIC                      COORDINATES (BOHR)
           CHARGE         X                   Y                   Z
 C           6.0    -2.5870348772       -0.1309580109        0.0232436296
 C           6.0    -1.3812007244        2.2174044740       -0.0593373960
 C           6.0    -1.1584020305       -2.3392918002        0.0389283553
 C           6.0     1.4722855170       -2.2098455700       -0.0132280819
 C           6.0     2.6813322040        0.1419184217       -0.1046908197
 O           8.0     5.2619420128        0.2016337629       -0.1581700652
 C           6.0     1.2689510008        2.3833224157       -0.1387058875
 C           6.0     2.5310989880        4.8989256506       -0.3023561580
 O           8.0     4.7704242834        5.3806168048       -0.4864154692
 O           8.0     0.8486759411        6.8177534185       -0.2647506109
 H           1.0    -4.6385214095       -0.2280899267        0.0663293822
 H           1.0    -2.5377130289        3.9160791644       -0.0731323957
 H           1.0    -2.0970289286       -4.1676016933        0.0935414364
 H           1.0     2.5532087820       -3.9536847115        0.0181413695
 H           1.0     5.9301491221       -1.5019542150       -0.2847817063
 H           1.0     1.9335676306        8.3115818118       -0.4249993746

          INTERNUCLEAR DISTANCES (ANGS.)




     $CONTRL OPTIONS
     ---------------
 SCFTYP=RHF          RUNTYP=OPTIMIZE     EXETYP=RUN     
 MPLEVL=       0     CITYP =NONE         CCTYP =NONE         VBTYP =NONE    
 DFTTYP=NONE         TDDFT =NONE    
 MULT  =       1     ICHARG=       0     NZVAR =       1     COORD =UNIQUE  
 PP    =NONE         RELWFN=NONE         LOCAL =NONE         NUMGRD=       F
 ISPHER=      -1     NOSYM =       0     MAXIT =     200     UNITS =ANGS    
 PLTORB=       F     MOLPLT=       F     AIMPAC=       F     FRIEND=        
 NPRINT=       7     IREST =       0     GEOM  =INPUT   
 NORMF =       0     NORMP =       0     ITOL  =      20     ICUT  =       9
 INTTYP=BEST         GRDTYP=BEST         QMTTOL= 1.0E-06

     $SYSTEM OPTIONS
     ---------------
  REPLICATED MEMORY=    40000000 WORDS (ON EVERY NODE).
 DISTRIBUTED MEMDDI=           0 MILLION WORDS IN AGGREGATE,
 MEMDDI DISTRIBUTED OVER   1 PROCESSORS IS           0 WORDS/PROCESSOR.
 TOTAL MEMORY REQUESTED ON EACH PROCESSOR=    40000000 WORDS.
 TIMLIM=       10000.00 MINUTES, OR       6.9 DAYS.
 PARALL= F  BALTYP=  DLB     KDIAG=    0  COREFL= F
 MXSEQ2=     300 MXSEQ3=     150  mem10=         0

     $COSGMS OPTIONS
     ---------------
     EPSI  =   INFTY     NSPA  =      92     COSRAD=    1.40
     DISEX =   10.00     OUTCHG=DBLCAV       COSBUG=       F
     COSWRT=       F     DCOSMO=       F

     SYMMETRY COORDINATES WILL NOT BE USED FOR 
     THE COSMO CALCULATION, EVEN IF SPECIFIED:
         -- SWITCHING TO C1 POINT GROUP --


     DEFINITION OF CAVITY
     ---------------------------
     ATOM         COORDINATES           RADIUS 
     1   -2.5870   -0.1310    0.0232    2.0000
     2   -1.3812    2.2174   -0.0593    2.0000
     3   -1.1584   -2.3393    0.0389    2.0000
     4    1.4723   -2.2098   -0.0132    2.0000
     5    2.6813    0.1419   -0.1047    2.0000
     6    5.2619    0.2016   -0.1582    1.7200
     7    1.2690    2.3833   -0.1387    2.0000
     8    2.5311    4.8989   -0.3024    2.0000
     9    4.7704    5.3806   -0.4864    1.7200
    10    0.8487    6.8178   -0.2648    1.7200
    11   -4.6385   -0.2281    0.0663    1.3000
    12   -2.5377    3.9161   -0.0731    1.3000
    13   -2.0970   -4.1676    0.0935    1.3000
    14    2.5532   -3.9537    0.0181    1.3000
    15    5.9301   -1.5020   -0.2848    1.3000
    16    1.9336    8.3116   -0.4250    1.3000

          ----------------
          PROPERTIES INPUT
          ----------------

     MOMENTS            FIELD           POTENTIAL          DENSITY
 IEMOM =       1   IEFLD =       0   IEPOT =       0   IEDEN =       0
 WHERE =COMASS     WHERE =NUCLEI     WHERE =NUCLEI     WHERE =NUCLEI  
 OUTPUT=BOTH       OUTPUT=BOTH       OUTPUT=BOTH       OUTPUT=BOTH    
 IEMINT=       0   IEFINT=       0                     IEDINT=       0
                                                       MORB  =       0
          EXTRAPOLATION IN EFFECT
          SOSCF IN EFFECT
 ORBITAL PRINTING OPTION: NPREO=     1   226     2     1

     -------------------------------
     INTEGRAL TRANSFORMATION OPTIONS
     -------------------------------
     NWORD  =            0
     CUTOFF = 1.0E-09     MPTRAN =       0
     DIRTRF =       T     AOINTS =DUP     

          ----------------------
          INTEGRAL INPUT OPTIONS
          ----------------------
 NOPK  =       1 NORDER=       0 SCHWRZ=       T


 -----------------------------------------------
  STATISTICS ON AUTOMATIC COORDINATE GENERATION 
 -----------------------------------------------
  NUMBER OF USER SPECIFIED BONDS                             0
  NUMBER OF BONDS                                           16
  NUMBER OF ANGLES                                          23
  NUMBER OF TORSIONS                                        32
  NUMBER OF EXTRA COORD.                                     0
  NUMBER OF EXTRA COORD. FOR CONSTRAINTS                     0
  NUMBER OF CONSTRAINED COORD.                               0

  TOTAL NUMBER OF PRIMITIVES                                71
 -----------------------------------------------

   --- ENCODED Z MATRIX ---
 COORD  TYPE   I   J   K   L   M   N
    1      1    1  11
    2      1    1   2
    3      1    1   3
    4      1    2   7
    5      1    2  12
    6      1    3  13
    7      1    3   4
    8      1    4  14
    9      1    4   5
   10      1    5   7
   11      1    5   6
   12      1    6  15
   13      1    7   8
   14      1    8  10
   15      1    8   9
   16      1   10  16
   17      2    1   2  12
   18      2    1   3   4
   19      2    1   3  13
   20      2    1   2   7
   21      2    2   1   3
   22      2    2   1  11
   23      2    2   7   8
   24      2    2   7   5
   25      2    3   4  14
   26      2    3   4   5
   27      2    3   1  11
   28      2    4   5   7
   29      2    4   3  13
   30      2    4   5   6
   31      2    5   4  14
   32      2    5   6  15
   33      2    5   7   8
   34      2    6   5   7
   35      2    7   8   9
   36      2    7   8  10
   37      2    7   2  12
   38      2    8  10  16
   39      2    9   8  10
   40      3    1   2   7   8
   41      3    1   3   4   5
   42      3    1   2   7   5
   43      3    1   3   4  14
   44      3    2   7   5   6
   45      3    2   7   5   4
   46      3    2   7   8   9
   47      3    2   7   8  10
   48      3    2   1   3   4
   49      3    2   1   3  13
   50      3    3   4   5   7
   51      3    3   1   2  12
   52      3    3   1   2   7
   53      3    3   4   5   6
   54      3    4   3   1  11
   55      3    4   5   6  15
   56      3    4   5   7   8
   57      3    5   4   3  13
   58      3    5   7   8   9
   59      3    5   7   8  10
   60      3    5   7   2  12
   61      3    6   5   7   8
   62      3    6   5   4  14
   63      3    7   8  10  16
   64      3    7   5   6  15
   65      3    7   5   4  14
   66      3    7   2   1  11
   67      3    8   7   2  12
   68      3    9   8  10  16
   69      3   11   1   3  13
   70      3   11   1   2  12
   71      3   13   3   4  14

          INDEP./SYM. INTERNAL COORDINATES
          --------------------------------
 CRD  1=  -0.1256 (  2) -0.1302 (  4)  0.1576 ( 10) -0.5467 ( 23) -0.1082 ( 28)
          -0.1017 ( 30)  0.5414 ( 33)  0.2099 ( 34)  0.2529 ( 35) -0.3713 ( 36)
           0.1478 ( 38)  0.1183 ( 39)
 CRD  2=  -0.1366 (  2) -0.1415 (  4)  0.1857 (  7)  0.1215 (  9) -0.2107 ( 10)
           0.1484 ( 11) -0.2991 ( 13) -0.1176 ( 23)  0.2415 ( 24) -0.1347 ( 28)
           0.5180 ( 30)  0.3096 ( 32) -0.1239 ( 33) -0.3833 ( 34) -0.2022 ( 36)
           0.1756 ( 39)
 CRD  3=   0.1086 (  7)  0.3993 (  9)  0.2782 ( 10)  0.2124 ( 11)  0.4360 ( 13)
           0.1448 ( 14)  0.1313 ( 16) -0.1049 ( 17)  0.1416 ( 20) -0.1489 ( 24)
          -0.1586 ( 25)  0.2247 ( 30)  0.1370 ( 31)  0.3028 ( 32)  0.1667 ( 33)
          -0.1862 ( 34)  0.2264 ( 36) -0.2504 ( 39)
 CRD  4=  -0.3018 ( 40) -0.1624 ( 42)  0.1147 ( 44)  0.2170 ( 45) -0.2914 ( 47)
           0.1495 ( 48)  0.1382 ( 49) -0.1061 ( 55)  0.3578 ( 56) -0.4343 ( 59)
          -0.1078 ( 60)  0.2555 ( 61)  0.3756 ( 63) -0.1616 ( 65) -0.2471 ( 67)
 CRD  5=   0.1151 (  2) -0.2906 (  4)  0.1147 (  6)  0.1643 (  9) -0.2839 ( 10)
          -0.4024 ( 11) -0.2241 ( 12)  0.1496 ( 13)  0.1139 ( 17) -0.1974 ( 18)
           0.1149 ( 19)  0.1113 ( 21) -0.1725 ( 24)  0.2692 ( 28) -0.3007 ( 32)
           0.1215 ( 33) -0.3413 ( 34) -0.1865 ( 37)  0.1133 ( 38)
 CRD  6=  -0.1324 (  2) -0.2374 (  4) -0.2981 ( 14) -0.2110 ( 15) -0.1181 ( 22)
          -0.1768 ( 23)  0.1331 ( 33)  0.1198 ( 35)  0.2965 ( 36) -0.6292 ( 38)
          -0.4162 ( 39)
 CRD  7=  -0.1350 (  2)  0.1900 (  3) -0.3270 (  4)  0.1339 (  8)  0.1742 ( 10)
          -0.1244 ( 13)  0.3324 ( 14) -0.1995 ( 15)  0.1467 ( 16)  0.1371 ( 17)
          -0.1906 ( 22) -0.1283 ( 23)  0.1074 ( 24)  0.1212 ( 25) -0.1717 ( 26)
           0.1004 ( 27) -0.4722 ( 35)  0.3415 ( 36)  0.2589 ( 38)  0.1308 ( 39)
 CRD  8=  -0.1085 (  2) -0.1085 (  3)  0.1428 ( 42) -0.3098 ( 44) -0.1649 ( 45)
          -0.2388 ( 46) -0.3324 ( 47) -0.1066 ( 48)  0.1947 ( 53)  0.1690 ( 55)
          -0.1102 ( 56) -0.2946 ( 58) -0.3883 ( 59) -0.2551 ( 61)  0.1792 ( 62)
           0.1809 ( 63)  0.3110 ( 64)
 CRD  9=  -0.2626 (  1) -0.3363 (  2) -0.4563 (  3) -0.2053 (  6) -0.2992 (  7)
          -0.1739 ( 17)  0.1042 ( 18) -0.2073 ( 19)  0.1765 ( 21) -0.1627 ( 25)
          -0.1226 ( 26) -0.1974 ( 27)  0.1031 ( 29)  0.2853 ( 31)  0.2618 ( 37)
           0.1024 ( 59)
 CRD 10=  -0.3064 (  2) -0.1445 (  5)  0.4041 (  7) -0.3415 ( 17) -0.1353 ( 18)
          -0.2113 ( 19)  0.1560 ( 20) -0.2475 ( 22)  0.1111 ( 23)  0.3190 ( 25)
           0.1956 ( 27)  0.3466 ( 29) -0.3001 ( 31)  0.1856 ( 37)
 CRD 11=  -0.1302 (  2)  0.3812 (  3)  0.1929 (  4)  0.2170 (  5)  0.2069 (  8)
           0.2048 ( 10)  0.1169 ( 15) -0.1614 ( 17)  0.1996 ( 19) -0.1673 ( 20)
           0.1235 ( 21) -0.3417 ( 22) -0.1714 ( 26)  0.2183 ( 27)  0.1284 ( 28)
          -0.2621 ( 29)  0.2015 ( 31)  0.1720 ( 35) -0.1800 ( 36)  0.3286 ( 37)
 CRD 12=  -0.2273 (  2) -0.2735 (  5) -0.2325 (  7) -0.2674 (  8) -0.1921 ( 10)
          -0.2335 ( 17) -0.1129 ( 18)  0.3451 ( 19)  0.2529 ( 20) -0.1454 ( 21)
          -0.2011 ( 22) -0.2752 ( 25)  0.2520 ( 26)  0.3466 ( 27) -0.1467 ( 28)
          -0.2322 ( 29)
 CRD 13=   0.3178 ( 40)  0.1635 ( 41)  0.1680 ( 42)  0.1757 ( 44) -0.3169 ( 46)
          -0.2431 ( 47) -0.2481 ( 50) -0.2529 ( 52) -0.3394 ( 53)  0.1255 ( 54)
          -0.1668 ( 55)  0.2276 ( 57) -0.1633 ( 58) -0.2150 ( 62) -0.2583 ( 64)
          -0.1238 ( 65) -0.2932 ( 66)  0.1089 ( 67)  0.1058 ( 71)
 CRD 14=  -0.3642 (  1)  0.1961 (  5)  0.3563 (  6) -0.1101 (  7) -0.2482 (  8)
           0.1664 ( 11)  0.1223 ( 12) -0.1307 ( 13) -0.3508 ( 18)  0.1801 ( 19)
          -0.1502 ( 20)  0.3398 ( 21) -0.1656 ( 22)  0.1814 ( 26) -0.1742 ( 27)
           0.1707 ( 29) -0.1489 ( 31)  0.2503 ( 32)
 CRD 15=   0.1256 (  2)  0.1417 (  4)  0.2529 (  6)  0.2029 (  7)  0.4260 (  9)
          -0.2460 ( 13) -0.2769 ( 25)  0.1110 ( 26) -0.1756 ( 28)  0.1659 ( 31)
          -0.5324 ( 32)  0.1555 ( 34) -0.1878 ( 35) -0.1180 ( 38)  0.1594 ( 39)
 CRD 16=  -0.2423 ( 41) -0.1974 ( 42) -0.3046 ( 43)  0.1493 ( 44) -0.3439 ( 46)
          -0.2240 ( 47)  0.1891 ( 50)  0.2883 ( 51)  0.1461 ( 52)  0.2197 ( 54)
          -0.1747 ( 56) -0.1361 ( 58) -0.3425 ( 60)  0.1358 ( 62) -0.1985 ( 63)
          -0.1656 ( 64)  0.2526 ( 65) -0.1400 ( 67)  0.1450 ( 70) -0.1611 ( 71)
 CRD 17=  -0.1475 (  4) -0.2860 (  5)  0.2238 (  8)  0.1105 (  9)  0.1158 ( 10)
           0.1652 ( 12)  0.1001 ( 14)  0.3471 ( 15) -0.3186 ( 16)  0.1266 ( 20)
           0.1330 ( 23) -0.1680 ( 24)  0.1277 ( 28) -0.1589 ( 30)  0.2189 ( 32)
          -0.2315 ( 35) -0.1083 ( 36) -0.1034 ( 37) -0.4279 ( 38)  0.3396 ( 39)
 CRD 18=   0.1657 ( 41)  0.1379 ( 43) -0.1058 ( 45) -0.3007 ( 48) -0.3479 ( 49)
           0.2998 ( 51)  0.2337 ( 52) -0.1232 ( 53) -0.2219 ( 54) -0.1584 ( 55)
           0.2129 ( 57)  0.2622 ( 63) -0.3213 ( 64)  0.1551 ( 66) -0.1037 ( 67)
           0.1402 ( 68) -0.2691 ( 69)  0.2212 ( 70)  0.1851 ( 71)
 CRD 19=   0.1314 (  1)  0.1072 (  2) -0.2566 (  5)  0.2844 (  8)  0.1355 (  9)
           0.2015 ( 12) -0.2396 ( 13) -0.3977 ( 14) -0.4901 ( 15) -0.1300 ( 17)
           0.1427 ( 23) -0.1496 ( 24)  0.1421 ( 28) -0.1599 ( 30)  0.2157 ( 32)
           0.3173 ( 38)
 CRD 20=   0.3696 (  1)  0.1551 (  2)  0.1181 (  4)  0.1719 (  5) -0.2064 (  8)
          -0.1001 (  9) -0.3371 ( 11) -0.2323 ( 12) -0.1232 ( 13)  0.1364 ( 14)
          -0.2239 ( 15) -0.2784 ( 17) -0.1480 ( 23) -0.1158 ( 24)  0.1750 ( 32)
           0.2641 ( 33) -0.1630 ( 34) -0.1925 ( 35)  0.2682 ( 37) -0.1682 ( 38)
           0.1164 ( 39)  0.1038 ( 63)
 CRD 21=  -0.1341 ( 40)  0.2381 ( 43) -0.1566 ( 46) -0.2175 ( 54)  0.1426 ( 56)
          -0.2098 ( 58) -0.1305 ( 62) -0.5464 ( 63) -0.2438 ( 65)  0.2129 ( 66)
          -0.4428 ( 68) -0.1076 ( 69)  0.1553 ( 70)  0.1281 ( 71)
 CRD 22=   0.2351 (  1)  0.1643 (  2)  0.3279 (  5) -0.4384 (  6) -0.1340 (  7)
          -0.2581 (  8)  0.1475 (  9)  0.1685 ( 12) -0.1411 ( 14) -0.1182 ( 16)
           0.1304 ( 17) -0.2388 ( 19) -0.3372 ( 22)  0.1102 ( 23)  0.3008 ( 27)
           0.2798 ( 29) -0.1531 ( 37)
 CRD 23=  -0.3285 (  1)  0.1457 (  2) -0.1731 (  3)  0.1347 (  4)  0.1449 (  5)
          -0.4490 (  6)  0.2244 (  8)  0.1741 (  9)  0.1767 ( 11) -0.2012 ( 12)
          -0.1967 ( 15) -0.1597 ( 16)  0.2542 ( 19) -0.1077 ( 24)  0.2423 ( 25)
          -0.2166 ( 29) -0.3254 ( 31)  0.1190 ( 33)
 CRD 24=  -0.1010 ( 41)  0.1313 ( 43) -0.1503 ( 44)  0.2582 ( 49)  0.1336 ( 50)
          -0.1391 ( 51)  0.1912 ( 53) -0.1451 ( 54) -0.4989 ( 55) -0.3317 ( 57)
           0.1739 ( 60) -0.1534 ( 61) -0.4411 ( 64) -0.1036 ( 65)  0.1862 ( 66)
           0.1776 ( 67)
 CRD 25=  -0.1692 (  3)  0.3318 (  5)  0.3333 (  8) -0.3792 ( 10) -0.1329 ( 11)
           0.3977 ( 12) -0.1958 ( 13)  0.2340 ( 14)  0.1390 ( 15)  0.4557 ( 16)
           0.1026 ( 32) -0.1512 ( 38)
 CRD 26=  -0.3010 (  1) -0.1320 (  3)  0.2270 (  4)  0.1978 (  5)  0.1755 (  6)
           0.2213 (  7)  0.1699 (  8) -0.1593 (  9) -0.4022 ( 11)  0.1600 ( 13)
          -0.1799 ( 15) -0.4012 ( 16)  0.1265 ( 17) -0.1102 ( 21) -0.2125 ( 25)
           0.1681 ( 27)  0.1643 ( 31)  0.2350 ( 32)  0.1009 ( 34) -0.1993 ( 37)
 CRD 27=   0.1043 (  1) -0.1801 ( 10)  0.5969 ( 12)  0.1661 ( 13)  0.1742 ( 14)
          -0.1197 ( 15) -0.4977 ( 16)  0.1196 ( 22) -0.1252 ( 27)  0.1446 ( 30)
          -0.2637 ( 32) -0.1653 ( 34)  0.1012 ( 36)  0.1361 ( 37) -0.1160 ( 39)
 CRD 28=   0.3496 (  1) -0.2050 (  3) -0.2606 (  4)  0.2713 (  5)  0.1973 (  6)
          -0.1845 (  7)  0.3787 (  8) -0.1073 (  9) -0.1693 ( 10)  0.3116 ( 11)
          -0.3955 ( 12) -0.2667 ( 16)  0.1275 ( 34)  0.1199 ( 38) -0.1448 ( 39)
 CRD 29=   0.1268 (  1) -0.1631 (  2) -0.2060 (  3) -0.1432 (  4)  0.2966 (  5)
           0.2041 (  6) -0.1102 (  9)  0.1635 ( 10)  0.1476 ( 12)  0.2673 ( 13)
          -0.5388 ( 14)  0.1038 ( 15)  0.2256 ( 16)  0.1009 ( 20) -0.1492 ( 29)
           0.1446 ( 30) -0.1336 ( 32) -0.1051 ( 34) -0.2687 ( 35)  0.2734 ( 39)
 CRD 30=  -0.1724 (  2)  0.2814 (  4)  0.2221 (  6) -0.2894 (  7)  0.1019 (  8)
          -0.1445 ( 10)  0.2885 ( 11)  0.2091 ( 13)  0.1977 ( 14) -0.4460 ( 15)
           0.1868 ( 16)  0.1669 ( 17) -0.1646 ( 19) -0.1076 ( 24)  0.1112 ( 28)
          -0.1064 ( 34) -0.2117 ( 36) -0.1380 ( 37) -0.2654 ( 38)  0.2080 ( 39)
 CRD 31=   0.1283 ( 43)  0.1401 ( 44)  0.1226 ( 45) -0.2985 ( 46)  0.1238 ( 47)
           0.2047 ( 49) -0.1362 ( 54)  0.2377 ( 55) -0.1803 ( 57) -0.1364 ( 58)
           0.2859 ( 59) -0.1743 ( 60) -0.2237 ( 62)  0.1257 ( 63)  0.2204 ( 64)
          -0.2065 ( 65)  0.1862 ( 66)  0.5020 ( 68)  0.2609 ( 70)
 CRD 32=  -0.4476 (  2)  0.3033 (  3)  0.1980 (  4)  0.1388 (  5) -0.2126 (  7)
          -0.1120 (  8)  0.4616 (  9) -0.2649 ( 10) -0.1351 ( 11) -0.1193 ( 14)
           0.1123 ( 15)  0.1802 ( 22)  0.1490 ( 25) -0.1983 ( 27) -0.1265 ( 30)
          -0.1123 ( 31)  0.1800 ( 32)  0.1774 ( 34)  0.1017 ( 36) -0.1467 ( 37)
 CRD 33=   0.2562 (  1) -0.2566 (  3)  0.2412 (  4) -0.2134 (  5)  0.1172 (  6)
          -0.2506 (  7)  0.1863 (  8)  0.1017 (  9)  0.2583 ( 10) -0.3038 ( 11)
           0.1151 ( 12) -0.1932 ( 13)  0.2596 ( 17) -0.1518 ( 20)  0.1778 ( 21)
          -0.2426 ( 22)  0.1291 ( 25)  0.1501 ( 26) -0.1928 ( 28)  0.2272 ( 30)
          -0.2792 ( 31) -0.1077 ( 37)
 CRD 34=  -0.1217 (  1)  0.1733 (  2)  0.2628 (  3)  0.1581 (  4) -0.2193 (  5)
          -0.1053 (  6) -0.2342 (  7)  0.2941 (  8) -0.1718 (  9) -0.1958 ( 10)
           0.1150 ( 13) -0.2946 ( 14)  0.1949 ( 15) -0.1706 ( 19) -0.1418 ( 20)
          -0.2704 ( 23) -0.1530 ( 25)  0.2029 ( 26)  0.2674 ( 29)  0.1720 ( 33)
          -0.2251 ( 35)  0.1725 ( 36)  0.1659 ( 37)
 CRD 35=   0.1086 (  6) -0.1482 ( 13)  0.2623 ( 43) -0.2281 ( 44)  0.1251 ( 47)
           0.2413 ( 51)  0.2367 ( 53)  0.2927 ( 54) -0.1838 ( 55)  0.1054 ( 59)
          -0.2447 ( 60) -0.2099 ( 61) -0.2679 ( 65) -0.2766 ( 66) -0.2624 ( 67)
           0.2517 ( 69)  0.3034 ( 71)
 CRD 36=   0.2365 (  1) -0.1196 (  2) -0.1181 (  4) -0.2828 (  6)  0.2002 (  7)
          -0.1550 ( 11)  0.3749 ( 13) -0.2376 ( 15) -0.2487 ( 18)  0.1993 ( 19)
          -0.1409 ( 20)  0.2221 ( 21)  0.1947 ( 24) -0.1372 ( 25)  0.1288 ( 26)
          -0.2005 ( 27) -0.1560 ( 28) -0.1706 ( 33)  0.1469 ( 34) -0.1528 ( 36)
          -0.1301 ( 38)  0.1424 ( 39)  0.1068 ( 54) -0.1017 ( 66)  0.1116 ( 71)
 CRD 37=  -0.1990 (  2)  0.3531 (  3) -0.1604 (  4)  0.2265 (  5) -0.1275 (  6)
          -0.1450 (  7)  0.2183 (  8) -0.2029 (  9)  0.3644 ( 10) -0.1507 ( 13)
           0.1112 ( 14) -0.1039 ( 17) -0.1314 ( 18)  0.2379 ( 20) -0.1017 ( 21)
           0.2062 ( 22)  0.2078 ( 23) -0.1346 ( 24) -0.1293 ( 25)  0.2275 ( 26)
          -0.1045 ( 27)  0.2045 ( 29)  0.1849 ( 30)  0.1250 ( 35) -0.1341 ( 37)
 CRD 38=  -0.1896 (  1)  0.2854 (  2) -0.3342 (  4)  0.1730 (  6) -0.3027 (  7)
           0.2892 (  9) -0.2103 ( 11)  0.2430 ( 13) -0.1255 ( 15) -0.1749 ( 17)
           0.1817 ( 18) -0.1806 ( 19) -0.1991 ( 21)  0.2001 ( 24)  0.1545 ( 25)
           0.1692 ( 27) -0.2143 ( 28) -0.1730 ( 31) -0.2001 ( 33)  0.1805 ( 34)
          -0.1094 ( 36)  0.1618 ( 37)
 CRD 39=   0.2256 ( 40)  0.1342 ( 42)  0.1278 ( 43) -0.1267 ( 45)  0.2682 ( 46)
          -0.2247 ( 47)  0.2535 ( 49)  0.2067 ( 51) -0.1359 ( 53)  0.1948 ( 55)
          -0.2194 ( 56) -0.2465 ( 57)  0.3625 ( 58) -0.1303 ( 59) -0.1237 ( 60)
          -0.2061 ( 62) -0.3435 ( 68)  0.2315 ( 69)  0.2286 ( 70) -0.1778 ( 71)
 CRD 40=  -0.1399 ( 40) -0.1262 ( 41) -0.1741 ( 42)  0.1871 ( 43)  0.1887 ( 44)
          -0.1115 ( 45) -0.1573 ( 48) -0.1411 ( 49)  0.2622 ( 50)  0.3099 ( 52)
           0.1843 ( 54)  0.2607 ( 55) -0.1460 ( 56) -0.1425 ( 57)  0.1969 ( 60)
           0.1542 ( 61) -0.3511 ( 62)  0.2311 ( 67)  0.2005 ( 69) -0.3943 ( 70)
           0.1709 ( 71)
 CRD 41=  -0.1478 ( 40)  0.3133 ( 41)  0.1258 ( 42) -0.1315 ( 45)  0.2219 ( 47)
          -0.3189 ( 48)  0.1658 ( 51) -0.1590 ( 53)  0.1445 ( 56) -0.1046 ( 57)
          -0.2886 ( 58)  0.2190 ( 61)  0.1080 ( 62) -0.1002 ( 63)  0.1808 ( 65)
          -0.1763 ( 66) -0.2167 ( 67)  0.1046 ( 68)  0.3740 ( 69) -0.1088 ( 70)
          -0.3661 ( 71)
 CRD 42=   0.2460 ( 41) -0.3178 ( 42)  0.3334 ( 45) -0.2087 ( 47) -0.2295 ( 48)
          -0.3013 ( 50)  0.2687 ( 52) -0.1670 ( 55)  0.2624 ( 58)  0.1165 ( 59)
          -0.2836 ( 61)  0.2296 ( 62)  0.1240 ( 64)  0.2715 ( 67)  0.1747 ( 69)
          -0.2035 ( 70) -0.1880 ( 71)

 THE DETERMINANT OF THE G MATRIX IS 10**(   -26)


                     --------------------
                     INTERNAL COORDINATES
                     --------------------

                 - - ATOMS - -         COORDINATE      COORDINATE
 NO.   TYPE    I  J  K  L  M  N        (BOHR,RAD)       (ANG,DEG)
 ----------------------------------------------------------------
   1 STRETCH   1 11                     2.0542366       1.0870553
   2 STRETCH   1  2                     2.6411479       1.3976354
   3 STRETCH   1  3                     2.6302045       1.3918444
   4 STRETCH   2  7                     2.6565264       1.4057733
   5 STRETCH   2 12                     2.0550442       1.0874826
   6 STRETCH   3 13                     2.0558989       1.0879349
   7 STRETCH   3  4                     2.6343868       1.3940575
   8 STRETCH   4 14                     2.0519147       1.0858266
   9 STRETCH   4  5                     2.6459314       1.4001667
  10 STRETCH   5  7                     2.6495036       1.4020570
  11 STRETCH   5  6                     2.5818546       1.3662587
  12 STRETCH   6 15                     1.8343236       0.9706823
  13 STRETCH   7  8                     2.8192301       1.4918725
  14 STRETCH   8 10                     2.5522268       1.3505803
  15 STRETCH   8  9                     2.2979299       1.2160122
  16 STRETCH  10 16                     1.8531576       0.9806488
  17 BEND      1  2 12                  2.0694353     118.5699096
  18 BEND      1  3  4                  2.0955821     120.0680075
  19 BEND      1  3 13                  2.0930513     119.9230066
  20 BEND      1  2  7                  2.1082246     120.7923730
  21 BEND      2  1  3                  2.0929313     119.9161276
  22 BEND      2  1 11                  2.0928295     119.9102952
  23 BEND      2  7  8                  2.0991158     120.2704758
  24 BEND      2  7  5                  2.0698269     118.5923451
  25 BEND      3  4 14                  2.0759999     118.9460303
  26 BEND      3  4  5                  2.0951603     120.0438417
  27 BEND      3  1 11                  2.0974141     120.1729786
  28 BEND      4  5  7                  2.1045594     120.5823691
  29 BEND      4  3 13                  2.0945516     120.0089663
  30 BEND      4  5  6                  2.0691712     118.5547784
  31 BEND      5  4 14                  2.1120252     121.0101279
  32 BEND      5  6 15                  1.9220269     110.1240292
  33 BEND      5  7  8                  2.1140845     121.1281207
  34 BEND      6  5  7                  2.1094545     120.8628385
  35 BEND      7  8  9                  2.2497360     128.9003797
  36 BEND      7  8 10                  1.9550650     112.0169716
  37 BEND      7  2 12                  2.1055053     120.6365669
  38 BEND      8 10 16                  1.7914399     102.6419473
  39 BEND      9  8 10                  2.0782683     119.0760025
  40 TORSION   1  2  7  8               3.1103788     178.2115772
  41 TORSION   1  3  4  5              -0.0101341      -0.5806409
  42 TORSION   1  2  7  5              -0.0123215      -0.7059680
  43 TORSION   1  3  4 14               3.1315200     179.4228786
  44 TORSION   2  7  5  6              -3.1323646    -179.4712689
  45 TORSION   2  7  5  4               0.0084649       0.4850043
  46 TORSION   2  7  8  9              -3.0861000    -176.8205076
  47 TORSION   2  7  8 10               0.0387287       2.2189935
  48 TORSION   2  1  3  4               0.0063161       0.3618844
  49 TORSION   2  1  3 13              -3.1361653    -179.6890354
  50 TORSION   3  4  5  7               0.0026391       0.1512113
  51 TORSION   3  1  2 12               3.1398633     179.9009137
  52 TORSION   3  1  2  7               0.0050384       0.2886763
  53 TORSION   3  4  5  6              -3.1396994    -179.8915218
  54 TORSION   4  3  1 11              -3.1401931    -179.9198140
  55 TORSION   4  5  6 15               0.0940755       5.3901286
  56 TORSION   4  5  7  8              -3.1140667    -178.4228763
  57 TORSION   5  4  3 13               3.1323480     179.4703230
  58 TORSION   5  7  8  9               0.0361139       2.0691722
  59 TORSION   5  7  8 10              -3.1222427    -178.8913267
  60 TORSION   5  7  2 12               3.1361791     179.6898243
  61 TORSION   6  5  7  8               0.0282892       1.6208506
  62 TORSION   6  5  4 14               0.0018306       0.1048848
  63 TORSION   7  8 10 16              -3.1181596    -178.6573835
  64 TORSION   7  5  6 15              -3.0482652    -174.6527289
  65 TORSION   7  5  4 14              -3.1390162    -179.8523821
  66 TORSION   7  2  1 11              -3.1316508    -179.4303712
  67 TORSION   8  7  2 12              -0.0243060      -1.3926305
  68 TORSION   9  8 10 16               0.0085057       0.4873406
  69 TORSION  11  1  3 13               0.0005108       0.0292661
  70 TORSION  11  1  2 12               0.0031742       0.1818662
  71 TORSION  13  3  4 14              -0.0091832      -0.5261575

     ------------------------------------------
     THE POINT GROUP IS C1 , NAXIS= 1, ORDER= 1
     ------------------------------------------

     DIMENSIONS OF THE SYMMETRY SUBSPACES ARE
 A   =  226

 ..... DONE SETTING UP THE RUN .....
 STEP CPU TIME =     0.01 TOTAL CPU TIME =        0.0 (    0.0 MIN)
 TOTAL WALL CLOCK TIME=        0.0 SECONDS, CPU UTILIZATION IS  50.00%


          -----------------------------
          STATIONARY POINT LOCATION RUN
          -----------------------------

 OBTAINING INITIAL HESSIAN, HESS=GUESS   
 DIAGONAL GUESS HESSIAN IN INTERNAL COORDS IS
     1  0.3484     2  0.4749     3  0.4803     4  0.4675     5  0.3481
     6  0.3478     7  0.4782     8  0.3492     9  0.4726    10  0.4709
    11  0.4076    12  0.3527    13  0.3954    14  0.4202    15  0.5459
    16  0.3459    17  0.2323    18  0.2689    19  0.2327    20  0.2676
    21  0.2686    22  0.2324    23  0.2603    24  0.2672    25  0.2327
    26  0.2683    27  0.2327    28  0.2676    29  0.2325    30  0.2566
    31  0.2323    32  0.2176    33  0.2606    34  0.2565    35  0.2610
    36  0.2511    37  0.2318    38  0.2179    39  0.2580    40  0.2500
    41  0.2500    42  0.2500    43  0.2500    44  0.2500    45  0.2500
    46  0.2500    47  0.2500    48  0.2500    49  0.2500    50  0.2500
    51  0.2500    52  0.2500    53  0.2500    54  0.2500    55  0.2500
    56  0.2500    57  0.2500    58  0.2500    59  0.2500    60  0.2500
    61  0.2500    62  0.2500    63  0.2500    64  0.2500    65  0.2500
    66  0.2500    67  0.2500    68  0.2500    69  0.2500    70  0.2500
    71  0.2500
 TRANSFORMING HESSIAN TO SYMMETRY COORDINATES

          PARAMETERS CONTROLLING GEOMETRY SEARCH ARE
          METHOD =QA                  UPHESS =BFGS    
          NNEG   =         0          NFRZ   =         3
          NSTEP  =        50          IFOLOW =         1
          HESS   =GUESS               RESTAR =         F
          IHREP  =         0          HSSEND =         F
          NPRT   =         0          NPUN   =         0
          OPTTOL = 5.000E-04          RMIN   = 1.500E-03
          RMAX   = 1.000E-01          RLIM   = 7.000E-02
          DXMAX  = 3.000E-01          PURIFY =         F
          MOVIE  =         F          TRUPD  =         T
          TRMAX  = 5.000E-01          TRMIN  = 5.000E-02
          ITBMAT =         5          STPT   =         F
          STSTEP = 1.000E-02          PROJCT=          F
          FROZEN COORD(S)=   1   2   3


      ***** EQUILIBRIUM GEOMETRY LOCATED *****
            (SUBJECT TO   3 CONSTRAINT(S))
 COORDINATES OF ALL ATOMS ARE (ANGS)
   ATOM   CHARGE       X              Y              Z
 ------------------------------------------------------------
 C           6.0  -1.3619780733  -0.0709356994   0.0110251745
 C           6.0  -0.7212552182   1.1496972905  -0.0589538143
 C           6.0  -0.6027762684  -1.2330236321   0.0443812968
 C           6.0   0.7738304916  -1.1633460165   0.0052594349
 C           6.0   1.4264065383   0.0708289654  -0.0662681205
 O           8.0   2.7635073251   0.1181805938  -0.0998965575
 C           6.0   0.6760146570   1.2618119972  -0.0999058409
 C           6.0   1.3290416553   2.6108703318  -0.1638332687
 O           8.0   2.5003928485   2.8121936537  -0.2418558774
 O           8.0   0.4760232334   3.6259756299  -0.1254237437
 H           1.0  -2.4347211242  -0.1258778361   0.0417267223
 H           1.0  -1.3172670168   2.0405177883  -0.0836644473
 H           1.0  -1.0863315328  -2.1943316989   0.1026511271
 H           1.0   1.3538544113  -2.0708471255   0.0310534023
 H           1.0   3.1330646881  -0.7512919236  -0.0671606444
 H           1.0   0.9662531345   4.4410269002  -0.1625000262


                     --------------------
                     INTERNAL COORDINATES
                     --------------------

                 - - ATOMS - -         COORDINATE      COORDINATE
 NO.   TYPE    I  J  K  L  M  N        (BOHR,RAD)       (ANG,DEG)
 ----------------------------------------------------------------
   1 STRETCH   1 11                     2.0306764       1.0745878
   2 STRETCH   1  2                     2.6084844       1.3803506
   3 STRETCH   1  3                     2.6238955       1.3885058
   4 STRETCH   2  7                     2.6500737       1.4023587
   5 STRETCH   2 12                     2.0259783       1.0721016
   6 STRETCH   3 13                     2.0364674       1.0776522
   7 STRETCH   3  4                     2.6057887       1.3789241
   8 STRETCH   4 14                     2.0358685       1.0773353
   9 STRETCH   4  5                     2.6416717       1.3979126
  10 STRETCH   5  7                     2.6608658       1.4080696
  11 STRETCH   5  6                     2.5291365       1.3383615
  12 STRETCH   6 15                     1.7863926       0.9453183
  13 STRETCH   7  8                     2.8348972       1.5001631
  14 STRETCH   8 10                     2.5066875       1.3264820
  15 STRETCH   8  9                     2.2508233       1.1910845
  16 STRETCH  10 16                     1.7987259       0.9518448
  17 BEND      1  2 12                  2.0690457     118.5475862
  18 BEND      1  3  4                  2.0977297     120.1910565
  19 BEND      1  3 13                  2.0973215     120.1676693
  20 BEND      1  2  7                  2.1349097     122.3213167
  21 BEND      2  1  3                  2.0800352     119.1772367
  22 BEND      2  1 11                  2.1060255     120.6663729
  23 BEND      2  7  8                  2.1023385     120.4551214
  24 BEND      2  7  5                  2.0518003     117.5594967
  25 BEND      3  4 14                  2.0877554     119.6195710
  26 BEND      3  4  5                  2.1084251     120.8038612
  27 BEND      3  1 11                  2.0971222     120.1562513
  28 BEND      4  5  7                  2.0934688     119.9469283
  29 BEND      4  3 13                  2.0881328     119.6411962
  30 BEND      4  5  6                  2.0931299     119.9275093
  31 BEND      5  4 14                  2.0870044     119.5765424
  32 BEND      5  6 15                  1.9360158     110.9255342
  33 BEND      5  7  8                  2.1290021     121.9828344
  34 BEND      6  5  7                  2.0965841     120.1254223
  35 BEND      7  8  9                  2.1930693     125.6536160
  36 BEND      7  8 10                  1.9899810     114.0175100
  37 BEND      7  2 12                  2.0792293     119.1310654
  38 BEND      8 10 16                  1.8996457     108.8416790
  39 BEND      9  8 10                  2.1001349     120.3288639
  40 TORSION   1  2  7  8              -3.1323307    -179.4693276
  41 TORSION   1  3  4  5               0.0016457       0.0942924
  42 TORSION   1  2  7  5              -0.0006727      -0.0385446
  43 TORSION   1  3  4 14              -3.1409634    -179.9639478
  44 TORSION   2  7  5  6              -3.1390948    -179.8568846
  45 TORSION   2  7  5  4               0.0001191       0.0068222
  46 TORSION   2  7  8  9              -3.1003062    -177.6344632
  47 TORSION   2  7  8 10               0.0419288       2.4023457
  48 TORSION   2  1  3  4              -0.0021529      -0.1233515
  49 TORSION   2  1  3 13               3.1376594     179.7746419
  50 TORSION   3  4  5  7              -0.0006172      -0.0353648
  51 TORSION   3  1  2 12              -3.1410431    -179.9685122
  52 TORSION   3  1  2  7               0.0016903       0.0968463
  53 TORSION   3  4  5  6               3.1386014     179.8286137
  54 TORSION   4  3  1 11              -3.1413931    -179.9885645
  55 TORSION   4  5  6 15              -0.0021099      -0.1208881
  56 TORSION   4  5  7  8               3.1316151     179.4283307
  57 TORSION   5  4  3 13              -3.1381760    -179.8042387
  58 TORSION   5  7  8  9               0.0516700       2.9604734
  59 TORSION   5  7  8 10              -3.0892802    -177.0027178
  60 TORSION   5  7  2 12              -3.1411182    -179.9728187
  61 TORSION   6  5  7  8              -0.0075987      -0.4353760
  62 TORSION   6  5  4 14              -0.0019752      -0.1131710
  63 TORSION   7  8 10 16               3.1330589     179.5110548
  64 TORSION   7  5  6 15               3.1371045     179.7428452
  65 TORSION   7  5  4 14              -3.1411938    -179.9771495
  66 TORSION   7  2  1 11               3.1409181     179.9613530
  67 TORSION   8  7  2 12               0.0104091       0.5963984
  68 TORSION   9  8 10 16              -0.0079289      -0.4542936
  69 TORSION  11  1  3 13              -0.0015808      -0.0905711
  70 TORSION  11  1  2 12              -0.0018152      -0.1040054
  71 TORSION  13  3  4 14               0.0024002       0.1375212

          INTERNUCLEAR DISTANCES (ANGS.)


 =====================================================
   GAMESS/COSab RESULTS
 =====================================================

   Dielectric Constant                  = INFTY
   Basic Grid Size                      =                 1082
   Number of Segments                   =                   92
   Number of Segments located on spheres=                  305
   Number of Segments of the cavity     =                  679
   Solvent Radius (rsolv)               = 1.40
   Outlying Charge Error Method         = double cavity

 =====================================================

  Total solvated Energy (a.u.)          =  -493.3247640067
  Total Energy corrected (a.u.)         =  -493.3248355855

  Outlying charge effect (a.u.)         =    -0.0000715788
  Outlying charge effect (kcal/mol)     =    -0.0449164192

  Dielectric Energy (a.u.)              =    -0.0282313573
  Dielectric energy corr. (a.u.)        =    -0.0283029361

  Sum of polarization charges           =     0.0174651784
  Sum of polarization charges(cor.)     =    -0.0174651784

  Total surface area of cavity (A**2)   =  159.80
  Total volume of cavity (A**3)         =  155.41

 =====================================================
 NPS=                   679
NR.  ATOM  (X, Y, Z)(a.u.)                  CHARGE(e)  AREA(A**2) SIGMA(e/A**2)
   1   1  -1.566508   0.012485   3.660637   0.000988   0.139368   0.007086
   2   1  -4.212037  -1.692266   3.049403   0.001214   0.325193   0.003733
   3   1  -4.679913   1.418345   2.748173   0.001121   0.278737   0.004021
   4   1  -4.295421  -0.460463  -3.327845   0.001665   0.371649   0.004479
   5   1  -5.188065  -0.523843  -2.680605   0.001039   0.371649   0.002796
   6   1  -5.394110   1.803793  -1.583738  -0.000070   0.092912  -0.000755
   7   1  -5.258995   1.632555   2.009005   0.000254   0.278737   0.000913
   8   1  -4.963053  -1.354308   2.682876   0.000523   0.278737   0.001877
   9   1  -5.239225  -2.722729  -0.670779  -0.000368   0.092912  -0.003958
  10   1  -4.925752  -2.239188   2.099480  -0.000099   0.185824  -0.000532
  11   1  -4.336829  -0.637890   3.325669   0.001341   0.325193   0.004123
  12   1  -4.406743   0.683654   3.223290   0.000969   0.232280   0.004172
  13   1  -5.197263   1.454177  -2.188022   0.000241   0.185824   0.001296
  14   1  -4.553570   0.755207  -3.073334   0.001872   0.418105   0.004477
  15   1  -4.505873  -1.706492  -2.821468   0.001373   0.371649   0.003695
  16   1  -5.066486  -2.436343  -1.643519   0.000439   0.185824   0.002360
  17   1  -3.333475  -0.844373   3.654355   0.002050   0.325193   0.006305
  18   1  -2.400186  -0.309599   3.792206   0.001308   0.232280   0.005632
  19   1  -2.492511   0.424171   3.757942   0.001983   0.232280   0.008538
  20   1  -3.543419   1.047336   3.477462   0.001434   0.278737   0.005144
  21   1  -3.353959   0.261819  -3.655970   0.003523   0.511017   0.006894
  22   1  -3.417067  -1.167039  -3.515562   0.002295   0.418105   0.005489
  23   1  -5.225515   0.678001  -2.546861   0.000517   0.232280   0.002225
  24   1  -4.972542   0.117216   2.930630   0.001062   0.325193   0.003264
  25   1  -5.101941  -2.577121   1.407902  -0.000022   0.092912  -0.000237
  26   1  -5.104966  -1.786890  -2.247519   0.000308   0.232280   0.001327
  27   1  -2.127502  -0.326100  -3.727271   0.003331   0.464561   0.007170
  28   1  -3.554058   0.174944   3.657828   0.001484   0.278737   0.005326
  29   2  -0.989459   1.135714  -3.726602   0.000519   0.092912   0.005591
  30   2  -1.328575   3.866777  -3.489702   0.000043   0.139368   0.000310
  31   2  -3.882057   2.940690  -2.822226   0.000404   0.278737   0.001451
  32   2  -2.217308   3.545078   3.304827   0.000411   0.325193   0.001265
  33   2  -2.597821   4.493702   2.603715  -0.000233   0.371649  -0.000627
  34   2  -4.768756   3.280141   1.096174  -0.000361   0.092912  -0.003883
  35   2  -4.395709   3.274757  -2.079158  -0.000148   0.278737  -0.000533
  36   2  -2.120623   3.867238  -3.403590   0.000118   0.278737   0.000422
  37   2  -3.132521   3.162247  -3.301014   0.000344   0.232280   0.001482
  38   2  -4.259692   3.303002   2.036955  -0.000163   0.232280  -0.000702
  39   2  -3.241626   3.219339   2.996524   0.000750   0.418105   0.001794
  40   2  -1.566528   4.219121   3.059486   0.000115   0.232280   0.000497
  41   2  -1.271723   3.055719  -3.785107   0.000824   0.325193   0.002534
  42   2  -1.000875   1.964711  -3.867729   0.000922   0.232280   0.003967
  43   2  -1.783283   1.784352  -3.847299   0.001255   0.232280   0.005402
  44   2  -2.909442   2.253482  -3.559041   0.000746   0.278737   0.002675
  45   2  -2.124689   2.490613   3.576802   0.001762   0.464561   0.003793
  46   2  -1.042718   3.301913   3.481130   0.000797   0.325193   0.002452
  47   2  -3.584421   3.805643   2.473663  -0.000133   0.232280  -0.000574
  48   2  -2.936450   4.041240  -2.995267  -0.000202   0.371649  -0.000545
  49   2  -0.920816   1.919051   3.633514   0.002171   0.464561   0.004674
  50   2  -2.217488   2.784036  -3.741867   0.000569   0.278737   0.002041
  51   3  -0.577196  -1.374725   3.697157   0.000710   0.139368   0.005093
  52   3  -0.487675  -4.568542   3.058638   0.000497   0.278737   0.001784
  53   3  -3.386181  -3.382377   2.934752   0.000211   0.278737   0.000755
  54   3  -1.883728  -3.994309  -3.226735   0.000401   0.371649   0.001079
  55   3  -2.207919  -4.773496  -2.594111  -0.000060   0.325193  -0.000183
  56   3  -4.300313  -3.820893  -1.354324  -0.000239   0.092912  -0.002567
  57   3  -3.897373  -3.780520   2.222182  -0.000122   0.278737  -0.000437
  58   3  -1.125673  -5.004033   2.754843  -0.000135   0.278737  -0.000486
  59   3  -0.409984  -5.850941  -1.080702  -0.000241   0.092912  -0.002598
  60   3  -0.370362  -5.411992   2.132083  -0.000264   0.185824  -0.001420
  61   3  -1.403110  -4.103434   3.411001   0.000365   0.325193   0.001122
  62   3  -2.589004  -3.508666   3.369135   0.000220   0.232280   0.000946
  63   3  -3.931185  -3.824799  -1.978718  -0.000197   0.185824  -0.001061
  64   3  -3.052439  -3.614706  -2.911639   0.000649   0.418105   0.001552
  65   3  -0.881115  -4.794129  -2.770281   0.000524   0.371649   0.001411
  66   3  -0.487373  -5.512752  -1.847489   0.000298   0.185824   0.001606
  67   3  -0.709865  -3.334009   3.702182   0.001143   0.325193   0.003514
  68   3  -0.704038  -2.258060   3.837511   0.000775   0.232280   0.003336
  69   3  -1.387819  -1.974228   3.838305   0.001204   0.232280   0.005184
  70   3  -2.463410  -2.578092   3.615009   0.000653   0.278737   0.002344
  71   3  -2.060764  -2.819271  -3.548684   0.001556   0.511017   0.003045
  72   3  -0.845729  -3.582692  -3.469882   0.001162   0.418105   0.002779
  73   3  -3.290886  -4.235238  -2.370596  -0.000037   0.232280  -0.000160
  74   3  -2.393406  -4.281606   3.067580  -0.000068   0.325193  -0.000208
  75   3  -0.200717  -5.734179   1.431413  -0.000136   0.092912  -0.001466
  76   3  -1.201245  -5.365661  -2.166833  -0.000224   0.185824  -0.001207
  77   3  -0.947131  -2.046287  -3.680017   0.002348   0.464561   0.005054
  78   3  -1.702812  -3.019773   3.756856   0.000522   0.278737   0.001872
  79   4   1.118612  -1.235563   3.648501   0.000860   0.139368   0.006173
  80   4   3.643310  -2.867172   3.023299   0.000277   0.232280   0.001194
  81   4   1.363968  -4.674478   2.863655   0.000866   0.278737   0.003107
  82   4   2.336300  -3.681979  -3.354485   0.001456   0.371649   0.003918
  83   4   2.871734  -4.361037  -2.750634   0.000732   0.325193   0.002250
  84   4   1.048991  -5.673499  -1.417332  -0.000091   0.092912  -0.000978
  85   4   1.406835  -5.315662   2.146273   0.000160   0.278737   0.000573
  86   4   3.726134  -3.672246   2.653277   0.000021   0.185824   0.000112
  87   4   2.959094  -3.411028   3.261635   0.000947   0.278737   0.003399
  88   4   1.902692  -4.055526   3.272069   0.000848   0.232280   0.003650
  89   4   1.208624  -5.356890  -2.050115  -0.000029   0.185824  -0.000154
  90   4   1.429316  -4.492198  -2.993662   0.001734   0.418105   0.004148
  91   4   3.491076  -3.282980  -2.988733   0.000404   0.325193   0.001242
  92   4   2.731466  -2.352886   3.566584   0.001572   0.325193   0.004833
  93   4   1.818668  -1.797220   3.751115   0.001336   0.232280   0.005754
  94   4   1.225502  -2.239183   3.781754   0.001896   0.232280   0.008164
  95   4   1.181605  -3.471713   3.557362   0.001292   0.278737   0.004636
  96   4   1.221150  -3.231492  -3.617560   0.003286   0.511017   0.006431
  97   4   2.501552  -2.579023  -3.603827   0.001960   0.418105   0.004688
  98   4   1.867760  -5.016133  -2.476068   0.000340   0.232280   0.001466
  99   4   2.649974  -4.282596   2.930544   0.000745   0.325193   0.002291
 100   4   3.819838  -3.869372  -2.426077  -0.000282   0.139368  -0.002022
 101   4   1.120976  -1.878794  -3.740463   0.003155   0.464561   0.006791
 102   4   1.956883  -3.044961   3.660018   0.001404   0.278737   0.005036
 103   5   1.799998   0.163467   3.546480   0.000236   0.092912   0.002543
 104   5   3.890620   1.582824   3.154481  -0.000148   0.092912  -0.001594
 105   5   3.650716  -0.012062  -3.779068  -0.000134   0.139368  -0.000962
 106   5   4.030629   1.085632   3.280042  -0.000011   0.092912  -0.000113
 107   5   4.138610  -0.599831   3.289951  -0.000120   0.139368  -0.000862
 108   5   3.939701  -0.889395  -3.544176  -0.000333   0.232280  -0.001434
 109   5   3.387389   0.996153   3.488914  -0.000101   0.232280  -0.000437
 110   5   2.483563   0.648855   3.612969   0.000338   0.232280   0.001456
 111   5   2.707787  -0.163170   3.642516   0.000300   0.185824   0.001616
 112   5   3.655907  -0.730870   3.426414  -0.000057   0.185824  -0.000305
 113   5   3.069142  -0.662165  -3.800959  -0.000136   0.325193  -0.000418
 114   5   3.373198   0.835020  -3.776716  -0.000613   0.418105  -0.001466
 115   5   2.063211   0.002146  -3.849082   0.000921   0.464561   0.001982
 116   5   3.692985   0.196755   3.519682  -0.000605   0.278737  -0.002170
 117   6   8.343811   0.059206  -1.079714   0.000476   0.274871   0.001733
 118   6   7.226262  -0.407514   2.291280   0.001556   0.343589   0.004529
 119   6   5.794758  -1.233799  -3.037239   0.000386   0.240512   0.001604
 120   6   5.791748   1.544610   2.725758   0.002745   0.171795   0.015978
 121   6   5.564968   1.255912  -3.251625   0.002900   0.171795   0.016880
 122   6   8.451338  -0.062534   0.048092  -0.000427   0.274871  -0.001555
 123   6   8.069008  -0.174587   1.328595   0.000340   0.309230   0.001098
 124   6   6.386171  -0.713616   2.697756   0.000877   0.240512   0.003646
 125   6   5.736206  -1.136962   2.718122   0.000103   0.137436   0.000746
 126   6   6.926075  -0.795939  -2.762269   0.001017   0.309230   0.003287
 127   6   7.804438  -0.359190  -2.074993   0.000655   0.309230   0.002119
 128   6   7.431793   1.358995  -2.284727   0.004553   0.309230   0.014723
 129   6   8.012852   0.717640  -1.780330   0.002710   0.309230   0.008762
 130   6   8.412589   0.813244  -0.385199   0.001741   0.274871   0.006334
 131   6   8.159103   1.576662   0.140170   0.004531   0.343589   0.013187
 132   6   7.667783   1.512713   1.520498   0.004425   0.309230   0.014311
 133   6   7.533894   0.650087   2.055977   0.003910   0.377948   0.010345
 134   6   6.521616   0.352948   2.787716   0.003760   0.343589   0.010943
 135   6   5.726478   0.856921   2.959068   0.002989   0.240512   0.012427
 136   6   5.578689  -0.538096  -3.328506   0.001949   0.240512   0.008103
 137   6   6.375862  -0.107329  -3.209474   0.002735   0.274871   0.009951
 138   6   6.492318   1.043027  -3.066241   0.005138   0.343589   0.014954
 139   6   8.116280   1.387670  -1.101871   0.002765   0.240512   0.011495
 140   6   6.754728   1.438636   2.407226   0.004313   0.274871   0.015693
 141   6   5.580330   0.464675  -3.410307   0.002099   0.206154   0.010182
 142   6   8.245201   0.756267   0.880126   0.002592   0.377948   0.006859
 143   6   5.616850  -0.198488   3.009810   0.001415   0.206154   0.006862
 144   6   7.285228   0.391473  -2.694902   0.003522   0.343589   0.010250
 145   7   2.219718   2.324169  -3.848418   0.000405   0.139368   0.002908
 146   7   0.798681   2.955378  -3.894073   0.001047   0.232280   0.004507
 147   7   1.530289   2.534619  -3.956795   0.000992   0.185824   0.005338
 148   7   1.419370   1.806938  -3.921167   0.000905   0.139368   0.006496
 149   7   1.039279   1.932557   3.555971   0.002374   0.371649   0.006387
 150   7   0.857825   3.288780   3.456797   0.000852   0.185824   0.004583
 151   7   1.966778   2.683521   3.515214   0.002026   0.418105   0.004846
 152   7   0.712520   1.777567  -3.876174   0.001564   0.232280   0.006735
 153   8   0.870601   5.065021  -3.711714  -0.001368   0.185824  -0.007361
 154   8   3.653367   3.840813  -3.742628  -0.000407   0.185824  -0.002191
 155   8   3.287956   7.297486  -3.154676  -0.000398   0.092912  -0.004285
 156   8   3.854956   5.335182   3.200159  -0.000472   0.185824  -0.002542
 157   8   1.270495   5.269186   3.244515  -0.001432   0.232280  -0.006165
 158   8   3.383122   4.583246  -3.970417  -0.000554   0.185824  -0.002979
 159   8   3.235782   6.379478  -3.725698  -0.000670   0.232280  -0.002884
 160   8   3.575535   7.361553   2.384527  -0.000303   0.092912  -0.003259
 161   8   3.798692   6.303857   2.969198  -0.000253   0.139368  -0.001818
 162   8   2.723916   4.177512  -4.006498  -0.001346   0.232280  -0.005795
 163   8   1.915009   4.665302  -4.032000  -0.002110   0.278737  -0.007569
 164   8   1.679650   5.621457  -3.931665  -0.002799   0.371649  -0.007532
 165   8   2.489813   6.599144  -3.702304  -0.001319   0.278737  -0.004732
 166   8   2.192068   5.945205   3.317988  -0.002373   0.371649  -0.006386
 167   8   3.229362   5.735664   3.313394  -0.001845   0.325193  -0.005672
 168   8   3.618524   4.260151   3.240754  -0.002444   0.464561  -0.005261
 169   8   2.300798   4.834554   3.462677  -0.003272   0.418105  -0.007827
 170   8   3.006645   5.418508  -4.024989  -0.002348   0.418105  -0.005617
 171   8   3.143925   6.811156   2.909097  -0.001714   0.278737  -0.006150
 172   9   7.900581   5.947451  -0.739497   0.005078   0.377948   0.013435
 173   9   6.577693   4.273537  -2.916558   0.003638   0.206154   0.017649
 174   9   6.384876   5.707159   2.309777   0.004494   0.343589   0.013078
 175   9   5.974267   8.273220   0.041771   0.005015   0.274871   0.018244
 176   9   5.690698   7.037745  -3.038099   0.004284   0.309230   0.013854
 177   9   7.726803   5.168872  -1.695188   0.004696   0.343589   0.013668
 178   9   7.233904   4.380513  -2.300514   0.003807   0.274871   0.013850
 179   9   7.962216   5.025236  -0.413612   0.003391   0.240512   0.014098
 180   9   7.814787   4.549735   0.201491   0.002901   0.206154   0.014072
 181   9   7.774424   5.825343   0.545363   0.005524   0.412307   0.013397
 182   9   7.188568   6.016797   1.543515   0.004994   0.377948   0.013214
 183   9   7.562088   6.886923  -0.250410   0.004788   0.343589   0.013934
 184   9   6.877898   7.724822  -0.111751   0.005382   0.343589   0.015663
 185   9   7.512974   6.541065  -1.591575   0.006082   0.446666   0.013616
 186   9   6.774778   6.889189  -2.427564   0.005812   0.412307   0.014096
 187   9   6.829647   4.786263   1.962985   0.004327   0.309230   0.013992
 188   9   6.286681   6.886283   1.920939   0.005752   0.412307   0.013952
 189   9   6.236515   7.718108   1.124655   0.005316   0.343589   0.015473
 190   9   5.994966   8.258363  -0.990310   0.004839   0.274871   0.017604
 191   9   5.988573   7.765333  -2.177660   0.004804   0.309230   0.015534
 192   9   6.098575   6.097807  -3.296791   0.005868   0.446666   0.013138
 193   9   6.410349   4.989499  -3.217284   0.003634   0.274871   0.013221
 194   9   5.408706   4.446438   2.599771   0.001435   0.103077   0.013919
 195   9   5.617214   5.153519   2.664312   0.002177   0.240512   0.009051
 196   9   5.424102   6.341786   2.546326   0.004721   0.377948   0.012490
 197   9   5.516233   8.066670   1.080182   0.003354   0.206154   0.016269
 198   9   4.890251   7.549691  -2.810828   0.004178   0.309230   0.013511
 199   9   4.911496   6.491175  -3.481080   0.002697   0.274871   0.009811
 200   9   5.471819   4.247909  -3.435266   0.003904   0.309230   0.012625
 201   9   7.786933   4.447829  -1.119462   0.004449   0.240512   0.018498
 202   9   7.513007   4.798967   1.132429   0.006047   0.377948   0.015999
 203   9   7.130555   7.060118   0.858361   0.005923   0.412307   0.014366
 204   9   6.818041   7.654750  -1.297446   0.006983   0.446666   0.015632
 205   9   7.133561   5.600376  -2.620809   0.005585   0.412307   0.013546
 206   9   6.102780   4.515111   2.376302   0.002253   0.137436   0.016392
 207   9   5.215730   7.418374   1.971268   0.003583   0.274871   0.013035
 208   9   5.359156   8.154374  -1.904953   0.003297   0.206154   0.015992
 209   9   5.257404   5.236347  -3.662532   0.004624   0.377948   0.012235
 210  10  -1.286313   7.111471  -2.628534   0.003752   0.240512   0.015598
 211  10  -1.886224   7.796340   1.145881   0.002766   0.206154   0.013415
 212  10  -0.889934   9.459654  -0.987350   0.000166   0.274871   0.000605
 213  10   0.508346   8.893891   2.261507   0.001087   0.343589   0.003163
 214  10   1.283324   8.150845  -3.191789   0.000382   0.240512   0.001588
 215  10  -1.334581   7.231700   2.093025   0.003615   0.240512   0.015030
 216  10  -0.475829   6.647071   2.700813   0.001583   0.137436   0.011517
 217  10  -0.517077   6.559626  -3.147735   0.001645   0.137436   0.011969
 218  10  -0.731045   9.640227   0.126417  -0.000777   0.274871  -0.002825
 219  10  -0.276996   9.421268   1.369122  -0.000018   0.309230  -0.000057
 220  10   1.289918   8.400624   2.593933   0.000519   0.240512   0.002160
 221  10   2.012305   8.122502   2.540116  -0.000048   0.137436  -0.000350
 222  10   0.441274   8.779105  -2.814089   0.000521   0.309230   0.001686
 223  10  -0.347639   9.248295  -2.044611   0.000238   0.309230   0.000771
 224  10  -1.706372   7.777565  -1.945022   0.004012   0.309230   0.012973
 225  10  -1.350099   8.729557  -1.643725   0.002885   0.377948   0.007634
 226  10  -1.601257   8.928059  -0.267370   0.003226   0.481025   0.006707
 227  10  -1.989516   8.174820   0.447272   0.002881   0.240512   0.011978
 228  10  -1.335462   8.129399   1.747364   0.002982   0.274871   0.010848
 229  10  -0.547665   8.518842   2.148793   0.003250   0.377948   0.008599
 230  10   0.363003   7.887211   2.796995   0.003165   0.343589   0.009211
 231  10   0.342419   6.886796   2.965008   0.003492   0.309230   0.011293
 232  10   0.982496   7.454278  -3.430009   0.001151   0.206154   0.005583
 233  10   0.159891   7.921117  -3.216073   0.002333   0.274871   0.008487
 234  10  -0.658210   7.380594  -3.040358   0.002809   0.240512   0.011678
 235  10  -2.088269   8.025892  -0.746635   0.003887   0.309230   0.012570
 236  10  -0.617296   7.409701   2.583054   0.002949   0.240512   0.012263
 237  10   0.142642   6.937542  -3.396837   0.001965   0.206154   0.009534
 238  10  -1.217192   8.986184   0.999768   0.002490   0.412307   0.006039
 239  10   1.364572   7.557777   2.901512   0.001077   0.171795   0.006268
 240  10  -0.762705   8.354272  -2.591803   0.003426   0.377948   0.009065
 241  11  -7.051081  -0.416064   0.094924  -0.005778   0.608459  -0.009496
 242  11  -6.256337  -1.353112   1.511021  -0.002490   0.412182  -0.006040
 243  11  -6.199570  -2.019950  -0.472310  -0.002329   0.353299  -0.006593
 244  11  -6.353024  -0.286407  -1.642483  -0.001867   0.353299  -0.005284
 245  11  -6.390412   1.395878  -0.325849  -0.002529   0.333671  -0.007580
 246  11  -6.249078   0.856068   1.535593  -0.001676   0.333671  -0.005024
 247  11  -6.474856  -1.768581   0.503803  -0.003890   0.490692  -0.007928
 248  11  -6.550192  -1.164655  -1.094466  -0.003501   0.490692  -0.007136
 249  11  -6.635672   0.587955  -1.022523  -0.003637   0.510320  -0.007127
 250  11  -6.688520   0.959505   0.572273  -0.003761   0.490692  -0.007666
 251  11  -6.544020  -0.271816   1.581678  -0.003994   0.549575  -0.007267
 252  12  -4.155636   5.623664  -0.523911  -0.005163   0.471065  -0.010960
 253  12  -3.550239   5.227949   1.581815  -0.002470   0.294415  -0.008391
 254  12  -4.828948   4.493348   0.235445  -0.003463   0.372926  -0.009287
 255  12  -4.336485   4.693085  -1.544557  -0.002581   0.372926  -0.006920
 256  12  -3.970412   5.656749   0.615690  -0.003820   0.372926  -0.010242
 257  12  -4.399038   4.709895   1.129859  -0.002341   0.333671  -0.007017
 258  12  -4.811012   4.450152  -0.698167  -0.002744   0.314043  -0.008737
 259  12  -3.608172   5.304876  -1.796396  -0.003254   0.353299  -0.009212
 260  13  -3.198126  -6.311799   0.383031  -0.006307   0.608459  -0.010365
 261  13  -3.848159  -5.250297  -1.068579  -0.002687   0.392554  -0.006844
 262  13  -4.278321  -4.854527   0.956455  -0.002737   0.353299  -0.007747
 263  13  -2.667625  -5.633292   2.050626  -0.002268   0.353299  -0.006420
 264  13  -1.261496  -6.429690   0.637518  -0.003134   0.353299  -0.008871
 265  13  -2.037631  -6.127905  -1.258486  -0.002587   0.412182  -0.006276
 266  13  -4.233507  -5.260298  -0.005370  -0.004346   0.490692  -0.008856
 267  13  -3.590328  -5.487263   1.562964  -0.003976   0.490692  -0.008104
 268  13  -2.029737  -6.278791   1.414090  -0.004111   0.510320  -0.008056
 269  13  -1.817871  -6.551539  -0.249374  -0.004530   0.510320  -0.008877
 270  13  -3.103804  -5.950230  -1.101342  -0.003912   0.471065  -0.008305
 271  14   3.500963  -6.169995  -0.174148  -0.004648   0.471065  -0.009868
 272  14   4.010394  -5.015173   1.705750  -0.002882   0.392554  -0.007343
 273  14   3.340696  -5.540902  -1.606899  -0.002601   0.392554  -0.006625
 274  14   2.086603  -6.320761  -0.071052  -0.003237   0.353299  -0.009164
 275  14   2.826229  -5.663579   1.761640  -0.002216   0.372926  -0.005941
 276  14   4.434438  -5.484040   0.278986  -0.004478   0.412182  -0.010865
 277  14   4.194096  -5.272126  -1.171490  -0.004250   0.431809  -0.009843
 278  14   2.529628  -6.105409  -1.049966  -0.003122   0.412182  -0.007574
 279  14   2.377233  -6.216072   0.895174  -0.003515   0.412182  -0.008529
 280  14   3.667216  -5.866014   1.055042  -0.003481   0.372926  -0.009336
 281  15   6.969127  -3.638734  -0.018486  -0.010299   0.451437  -0.022814
 282  15   7.709278  -2.047718   1.435605  -0.007754   0.451437  -0.017176
 283  15   8.173442  -1.932352  -0.961862  -0.007325   0.412182  -0.017771
 284  15   6.385438  -2.681527  -2.182857  -0.007150   0.392554  -0.018214
 285  15   6.305819  -2.948749   1.756919  -0.005652   0.255160  -0.022152
 286  15   7.934864  -2.788420   0.196557  -0.009680   0.471065  -0.020550
 287  15   7.537671  -2.971731  -1.132671  -0.008324   0.412182  -0.020195
 288  15   6.645096  -3.448219  -1.308209  -0.007227   0.333671  -0.021659
 289  15   7.058059  -3.198384   1.129166  -0.009207   0.431809  -0.021323
 290  15   8.322014  -1.709484   0.302606  -0.006847   0.412182  -0.016612
 291  15   7.437213  -2.118626  -1.928747  -0.005048   0.333671  -0.015128
 292  15   6.673259  -2.221273   2.069943  -0.004155   0.294415  -0.014113
 293  16   2.970712  10.557546  -0.498026  -0.010467   0.471065  -0.022219
 294  16   1.438647  10.247626   1.255899  -0.008096   0.451437  -0.017935
 295  16   0.804424  10.487637  -1.082469  -0.007726   0.431809  -0.017892
 296  16   2.500919   9.452921  -2.417698  -0.009482   0.490692  -0.019324
 297  16   3.178879   9.441452   1.454740  -0.006954   0.333671  -0.020840
 298  16   1.776425  10.838225  -0.083025  -0.009136   0.431809  -0.021158
 299  16   2.081868  10.554703  -1.444510  -0.009365   0.451437  -0.020746
 300  16   3.332418   9.904225  -1.523579  -0.009862   0.451437  -0.021846
 301  16   3.651315   9.951112   0.215753  -0.008740   0.392554  -0.022264
 302  16   2.626066  10.404843   0.852520  -0.009415   0.451437  -0.020856
 303  16   0.703177  10.515982   0.207223  -0.007111   0.412182  -0.017251
 304  16   1.354739   9.967292  -2.132608  -0.005987   0.372926  -0.016055
 305  16   2.299253   9.538354   1.813690  -0.004857   0.314043  -0.015465
 306   1  -0.783765   0.092978   3.356991   0.000398   0.048250   0.008252
 307   2  -0.585910   0.493065   3.298760   0.000309   0.048250   0.006410
 308   3  -0.546929  -0.292170   3.332600   0.000316   0.048250   0.006547
 309   1  -0.948014  -0.208465  -3.405112   0.000377   0.048250   0.007822
 310   2  -0.748435   0.194786  -3.392346   0.000315   0.048250   0.006532
 311   3  -0.709443  -0.590428  -3.358072   0.000312   0.048250   0.006459
 312   1  -5.141507   2.659423  -0.777746  -0.000147   0.010534  -0.013935
 313   2  -4.969054   3.073102  -0.809628  -0.000197   0.010534  -0.018654
 314  12  -4.913082   3.358541  -0.756399  -0.000153   0.010534  -0.014492
 315   1  -5.104995   2.724704   0.695293  -0.000129   0.010534  -0.012246
 316   2  -4.932083   3.139203   0.681912  -0.000141   0.010534  -0.013377
 317  12  -4.879437   3.418695   0.600955  -0.000153   0.010534  -0.014524
 318   2  -1.183600   0.767448  -3.613191   0.001136   0.191148   0.005943
 319   2  -2.897311   1.679306  -3.398352   0.001800   0.389729   0.004617
 320   2  -4.512940   2.611874  -1.924218  -0.001095   0.389729  -0.002810
 321   1  -2.145320   0.546563  -3.550549   0.002717   0.389729   0.006971
 322   1  -4.121743   1.627595  -2.790197   0.001034   0.389729   0.002653
 323   1  -5.180794   2.270066  -1.280201  -0.000604   0.191148  -0.003159
 324   2  -4.819350   2.951735   1.198554  -0.000734   0.191024  -0.003840
 325   2  -3.686605   2.443491   2.704694   0.000610   0.389456   0.001566
 326   2  -1.674187   1.430459   3.460068   0.002341   0.389456   0.006010
 327   1  -4.720306   2.207292   1.841134  -0.000772   0.389456  -0.001983
 328   1  -3.033239   1.405957   3.310253   0.002297   0.389456   0.005898
 329   1  -1.310153   0.513594   3.521318   0.001325   0.191024   0.006934
 330   3  -0.945846  -0.923576   3.576352   0.001238   0.206978   0.005982
 331   3  -2.682499  -2.064220   3.364408   0.001273   0.424623   0.002999
 332   3  -4.276276  -3.152477   1.725957  -0.002025   0.424623  -0.004768
 333   1  -1.973521  -0.820887   3.539730   0.002807   0.424623   0.006612
 334   1  -3.964928  -2.145693   2.710189   0.000010   0.424623   0.000025
 335   1  -4.979107  -2.856539   1.028496  -0.000975   0.206978  -0.004710
 336   3  -4.668397  -3.474896  -0.581460  -0.001109   0.207857  -0.005333
 337   3  -3.743368  -2.922204  -2.379873  -0.000195   0.426607  -0.000457
 338   3  -1.793088  -1.678244  -3.430427   0.002205   0.426607   0.005168
 339   1  -4.711289  -2.748979  -1.319347  -0.001840   0.426607  -0.004312
 340   1  -3.202800  -1.815699  -3.138178   0.001697   0.426607   0.003978
 341   1  -1.474990  -0.698469  -3.540554   0.001203   0.207857   0.005788
 342   1  -5.382783   2.401138   0.276450  -0.000140   0.010635  -0.013208
 343  11  -5.566419   2.169029   0.261403  -0.000134   0.010635  -0.012630
 344  12  -5.060089   3.056651   0.203707  -0.000206   0.010635  -0.019343
 345   1  -5.398233   2.375181  -0.309694  -0.000133   0.010635  -0.012469
 346  11  -5.580283   2.145737  -0.264569  -0.000167   0.010635  -0.015699
 347  12  -5.073688   3.033804  -0.312207  -0.000206   0.010635  -0.019406
 348   1  -5.111656  -2.952821   0.004307  -0.000126   0.007912  -0.015927
 349  11  -5.316504  -2.739476   0.021860  -0.000120   0.007912  -0.015219
 350  13  -4.713456  -3.581916   0.049099  -0.000172   0.007912  -0.021686
 351   1  -5.100437  -2.932919   0.431792  -0.000127   0.007912  -0.015998
 352  11  -5.306443  -2.721627   0.405251  -0.000141   0.007912  -0.017792
 353  13  -4.703596  -3.564423   0.424827  -0.000188   0.007912  -0.023704
 354  11  -5.931414   1.740431  -0.513033  -0.000541   0.066609  -0.008126
 355  11  -5.924795   1.110821  -1.408272  -0.000874   0.147872  -0.005913
 356  11  -5.878655  -0.094735  -1.953407  -0.000812   0.147872  -0.005491
 357  11  -5.804242  -1.383495  -1.659757  -0.000780   0.147872  -0.005272
 358  11  -5.731754  -2.232442  -0.646494  -0.001110   0.147872  -0.007506
 359   1  -5.620043   1.763908  -1.010400  -0.001023   0.145925  -0.007008
 360   1  -5.593209   0.674323  -2.022452  -0.000565   0.145925  -0.003873
 361   1  -5.521770  -0.803801  -2.171481  -0.000539   0.145925  -0.003694
 362   1  -5.434717  -2.070599  -1.397009  -0.000829   0.145925  -0.005681
 363   1  -5.374787  -2.648847  -0.338071  -0.000513   0.081377  -0.006310
 364  11  -5.687499  -2.359848   0.671496  -0.000531   0.066506  -0.007989
 365  11  -5.691951  -1.761681   1.586168  -0.000988   0.147597  -0.006695
 366  11  -5.735843  -0.577289   2.171953  -0.000703   0.147597  -0.004766
 367  11  -5.809330   0.719396   1.924844  -0.000779   0.147597  -0.005281
 368  11  -5.882678   1.603722   0.944822  -0.001118   0.147597  -0.007573
 369   1  -5.346660  -2.366749   1.149167  -0.001051   0.145746  -0.007211
 370   1  -5.370615  -1.313709   2.196387  -0.000608   0.145746  -0.004173
 371   1  -5.440162   0.156336   2.397054  -0.000484   0.145746  -0.003320
 372   1  -5.527162   1.448592   1.669975  -0.000786   0.145746  -0.005395
 373   1  -5.588355   2.064708   0.634713  -0.000604   0.081252  -0.007433
 374  12  -4.952933   3.548057  -0.590647  -0.000665   0.081417  -0.008172
 375   1  -5.368794   2.532265  -0.527762  -0.000424   0.114969  -0.003684
 376  12  -4.945031   3.589769   0.343278  -0.000669   0.079790  -0.008385
 377   1  -5.327347   2.579632   0.548133  -0.000379   0.112673  -0.003363
 378  13  -4.566529  -4.085944   0.483991  -0.000126   0.008738  -0.014365
 379   1  -5.083433  -3.099799   0.477535  -0.000082   0.012329  -0.006639
 380  13  -4.579139  -4.106606   0.043094  -0.000118   0.007314  -0.016119
 381   1  -5.096472  -3.123398  -0.030142  -0.000071   0.010321  -0.006906
 382   2  -0.394397   0.019828  -3.303583   0.000280   0.101586   0.002760
 383   3  -0.349289  -0.766250  -3.327806   0.000466   0.101586   0.004586
 384   4   0.102586  -0.746884  -3.321624   0.000375   0.101586   0.003688
 385   2  -0.224161   0.310573   3.204987   0.000289   0.101586   0.002850
 386   3  -0.176019  -0.470323   3.296768   0.000463   0.101586   0.004553
 387   4   0.274873  -0.452638   3.265318   0.000386   0.101586   0.003804
 388   3  -0.383751  -0.448363   3.435687   0.000054   0.007640   0.007055
 389   2  -0.445129   0.671240   3.388524   0.000083   0.007640   0.010887
 390   2  -0.021837   0.259289  -3.322263   0.000203   0.103790   0.001960
 391   4   0.470372  -0.510580  -3.340316   0.000275   0.103790   0.002649
 392   5   0.680224  -0.104832  -3.381865   0.000204   0.103790   0.001970
 393   2   0.145318   0.547955   3.183216   0.000210   0.103790   0.002025
 394   4   0.639554  -0.218411   3.244090   0.000294   0.103790   0.002834
 395   5   0.850337   0.188944   3.238751   0.000194   0.103790   0.001867
 396   4   0.322751  -0.706605  -3.474358   0.000071   0.010997   0.006451
 397   2  -0.377502   0.390238  -3.505007   0.000094   0.010997   0.008554
 398   4   0.506865  -0.396681   3.401916   0.000068   0.009881   0.006910
 399   2  -0.205063   0.692634   3.371902   0.000084   0.009881   0.008545
 400   2  -0.023899   0.685459  -3.437424   0.000257   0.050672   0.005081
 401   5   0.684070   0.329869  -3.439681   0.000166   0.050672   0.003281
 402   7   0.430279   0.709861  -3.486119   0.000265   0.050672   0.005238
 403   2   0.148501   0.983264   3.260235   0.000261   0.050672   0.005153
 404   5   0.856461   0.627661   3.257669   0.000157   0.050672   0.003094
 405   7   0.604522   1.010852   3.283190   0.000218   0.050672   0.004305
 406   5   0.938676   0.413479   3.366739   0.000072   0.013845   0.005178
 407   2  -0.075551   0.911277   3.368546   0.000119   0.013845   0.008587
 408   5   0.756669   0.097901  -3.530824   0.000073   0.013659   0.005341
 409   2  -0.248344   0.614049  -3.530041   0.000114   0.013659   0.008355
 410   2  -0.252179   3.744673  -3.490080  -0.000022   0.052211  -0.000422
 411   7   0.199697   3.792576  -3.542256  -0.000135   0.052211  -0.002580
 412   8   0.425312   4.226575  -3.521967  -0.000391   0.052211  -0.007491
 413   2  -0.077637   3.971829   3.087240  -0.000024   0.052211  -0.000467
 414   7   0.376279   4.022389   3.111979  -0.000138   0.052211  -0.002650
 415   8   0.599708   4.453542   3.049894  -0.000385   0.052211  -0.007373
 416   7   0.305035   3.314574   3.333730   0.000739   0.209375   0.003527
 417   7   0.436121   1.714324   3.425336   0.001033   0.209375   0.004933
 418   2  -0.283501   2.459087   3.348398   0.001788   0.429395   0.004164
 419   7   0.252010   1.412990  -3.681594   0.001237   0.214986   0.005756
 420   7   0.119282   3.056631  -3.710412   0.000739   0.214986   0.003437
 421   2  -0.465728   2.183476  -3.623825   0.001878   0.442111   0.004248
 422   2  -0.628833   4.671773  -3.134698  -0.000375   0.106003  -0.003542
 423   8   0.031448   5.169912  -3.231041  -0.000530   0.106003  -0.004996
 424  10  -0.211187   5.524177  -3.117050   0.000248   0.106003   0.002339
 425   2  -0.338431   4.690935   2.809786  -0.000224   0.106003  -0.002118
 426   8   0.327941   5.189477   2.838106  -0.000451   0.106003  -0.004254
 427  10   0.075238   5.543077   2.746031   0.000432   0.106003   0.004076
 428   8   0.331205   4.677353  -3.551332  -0.000700   0.199813  -0.003505
 429   2  -0.712161   4.102586  -3.455066   0.000016   0.199813   0.000082
 430   8   0.513253   4.897024   3.068459  -0.000316   0.126682  -0.002494
 431   2  -0.400092   4.138505   3.146458   0.000165   0.126682   0.001304
 432   2  -2.263508   5.130253  -2.416869  -0.000346   0.078394  -0.004417
 433  10  -1.766316   5.931276  -2.316380   0.000843   0.078394   0.010754
 434  12  -2.427228   5.304105  -2.237321  -0.000414   0.078394  -0.005285
 435   2  -2.266939   5.251239   2.028365  -0.000323   0.078394  -0.004126
 436  10  -1.769559   6.045631   1.885221   0.000766   0.078394   0.009772
 437  12  -2.430375   5.415060   1.839373  -0.000392   0.078394  -0.004999
 438  10  -0.848982   5.946498  -2.943262   0.003407   0.445939   0.007639
 439   2  -1.735952   4.874639  -2.906506  -0.000228   0.496261  -0.000460
 440  10  -0.977320   6.151856   2.395247   0.005164   0.545905   0.009459
 441   2  -1.315859   4.822211   2.707021  -0.000061   0.607419  -0.000100
 442  12  -3.029259   4.898670  -2.306522  -0.000564   0.076674  -0.007361
 443  12  -4.026799   4.241624  -1.932788  -0.001478   0.176498  -0.008374
 444  12  -4.770172   3.768921  -1.043732  -0.000643   0.076674  -0.008382
 445   2  -3.280191   4.336695  -2.439627  -0.001208   0.162325  -0.007444
 446   2  -4.487978   3.552914  -1.563546  -0.001497   0.162325  -0.009225
 447  12  -4.730324   3.847658   0.834000  -0.000639   0.073585  -0.008688
 448  12  -3.987814   4.366486   1.628946  -0.001393   0.167516  -0.008316
 449  12  -3.022082   5.021001   1.931296  -0.000567   0.073585  -0.007704
 450   2  -4.441647   3.664628   1.346905  -0.001327   0.157378  -0.008430
 451   2  -3.256036   4.478991   2.108487  -0.001093   0.157378  -0.006946
 452   3  -0.100752  -5.904036   0.752767  -0.000084   0.007371  -0.011438
 453   4   0.343124  -5.841123   0.731598  -0.000155   0.007371  -0.021060
 454  13  -0.381949  -5.997040   0.717022  -0.000169   0.007371  -0.022868
 455   3   0.353554  -5.887256  -0.317467  -0.000155   0.007420  -0.020846
 456   4   0.801649  -5.905594  -0.335023  -0.000091   0.007420  -0.012257
 457  14   1.090574  -5.965520  -0.292083  -0.000175   0.007420  -0.023525
 458   4   0.534133  -1.282101   3.550853   0.001359   0.198144   0.006858
 459   4   0.631348  -3.293446   3.389076   0.002043   0.405237   0.005041
 460   4   0.686638  -5.230888   1.883579  -0.001615   0.405237  -0.003984
 461   3  -0.069924  -2.090278   3.563457   0.002339   0.405237   0.005772
 462   3   0.027650  -4.430070   2.829217   0.000064   0.405237   0.000157
 463   3   0.048092  -5.710876   1.267088  -0.000999   0.198144  -0.005040
 464   4   0.636079  -5.774815  -0.864525  -0.001038   0.198399  -0.005231
 465   4   0.531144  -4.639698  -2.535203   0.000464   0.405803   0.001143
 466   4   0.389774  -2.372799  -3.472010   0.002634   0.405803   0.006492
 467   3  -0.045849  -5.418967  -1.518762  -0.001805   0.405803  -0.004449
 468   3  -0.184229  -3.623585  -3.190253   0.001479   0.405803   0.003645
 469   3  -0.294593  -1.632324  -3.526951   0.001063   0.198399   0.005356
 470   3  -0.000446  -5.931266  -0.271569  -0.000267   0.018105  -0.014750
 471  13  -0.281992  -6.006627  -0.209755  -0.000244   0.018105  -0.013474
 472  14   0.738386  -5.911287  -0.233110  -0.000244   0.018105  -0.013449
 473  13  -0.782636  -6.085429   0.995891  -0.000678   0.072506  -0.009347
 474  13  -1.433709  -5.703030   1.901755  -0.001350   0.163730  -0.008243
 475  13  -2.636229  -5.072740   2.320984  -0.001327   0.163730  -0.008106
 476  13  -3.818136  -4.511839   1.766403  -0.001401   0.163730  -0.008558
 477  13  -4.429341  -4.263640   0.788886  -0.000619   0.072506  -0.008544
 478   3  -0.667981  -5.744802   1.490874  -0.001333   0.156316  -0.008525
 479   3  -1.778503  -5.127711   2.455860  -0.001074   0.156316  -0.006872
 480   3  -3.203869  -4.415640   2.374949  -0.001083   0.156316  -0.006931
 481   3  -4.270921  -3.944877   1.286353  -0.001425   0.156316  -0.009119
 482  13  -4.458081  -4.312512  -0.256007  -0.000648   0.072558  -0.008937
 483  13  -3.900266  -4.652658  -1.238703  -0.001428   0.163875  -0.008714
 484  13  -2.748098  -5.266360  -1.802136  -0.001217   0.163875  -0.007424
 485  13  -1.522382  -5.857980  -1.390812  -0.001316   0.163875  -0.008031
 486  13  -0.822346  -6.155424  -0.488580  -0.000624   0.072558  -0.008602
 487   3  -4.327802  -4.042061  -0.789232  -0.001394   0.156402  -0.008916
 488   3  -3.319913  -4.615535  -1.886353  -0.001105   0.156402  -0.007064
 489   3  -1.898336  -5.336116  -1.977289  -0.001033   0.156402  -0.006603
 490   3  -0.735366  -5.863026  -1.019034  -0.001340   0.156402  -0.008566
 491   4   4.169506  -1.960983   2.788038  -0.000397   0.044161  -0.008992
 492   5   4.401687  -1.569053   2.799366  -0.000454   0.044161  -0.010281
 493   6   4.822117  -1.495386   2.672583  -0.000448   0.044161  -0.010152
 494   4   4.035538  -2.219952  -2.902283  -0.000381   0.044161  -0.008628
 495   5   4.266092  -1.831166  -2.960035  -0.000454   0.044161  -0.010272
 496   6   4.691855  -1.747192  -2.860348  -0.000480   0.044161  -0.010861
 497   5   3.695904  -1.703882  -3.275663  -0.000591   0.187137  -0.003159
 498   5   2.039773  -0.847188  -3.603400   0.000705   0.380468   0.001854
 499   4   2.764305  -1.959226  -3.416093   0.000396   0.380468   0.001042
 500   4   1.093373  -1.085541  -3.585705   0.000851   0.187137   0.004545
 501   5   1.578402  -0.193055   3.473656   0.000615   0.186226   0.003304
 502   5   3.233395  -1.078118   3.301578  -0.000433   0.378494  -0.001143
 503   4   1.911165  -1.107855   3.489952   0.001609   0.378494   0.004252
 504   4   3.543787  -1.990164   3.161281  -0.000076   0.186226  -0.000407
 505   4   4.582396  -2.295929   2.457181  -0.001178   0.074368  -0.015837
 506   6   5.250423  -1.841987   2.395819  -0.001018   0.074368  -0.013690
 507  15   5.386173  -2.103759   2.259671  -0.001301   0.074368  -0.017500
 508   4   4.469866  -2.532489  -2.554498  -0.001158   0.074368  -0.015572
 509   6   5.139009  -2.076200  -2.566125  -0.001006   0.074368  -0.013521
 510  15   5.281274  -2.324278  -2.412154  -0.001564   0.074368  -0.021035
 511   6   5.120008  -1.604159   2.651794  -0.000318   0.087084  -0.003651
 512   4   4.225906  -2.334312   2.797670  -0.000243   0.096124  -0.002531
 513   6   5.027751  -1.908561  -2.803011  -0.000362   0.090341  -0.004005
 514   4   4.062365  -2.549011  -2.912686  -0.000201   0.099719  -0.002012
 515   4   0.699587  -5.851254   0.692943  -0.000275   0.018154  -0.015123
 516  13  -0.037350  -5.911297   0.656129  -0.000238   0.018154  -0.013099
 517  14   0.987515  -5.902399   0.636691  -0.000251   0.018154  -0.013851
 518   4   4.365149  -3.827824  -1.886602  -0.000886   0.072615  -0.012199
 519  14   4.399346  -4.064739  -1.704306  -0.000823   0.072615  -0.011335
 520  15   5.118023  -3.481419  -1.701307  -0.001945   0.072615  -0.026786
 521   4   4.452897  -3.664015   1.903824  -0.000791   0.072615  -0.010897
 522  14   4.479109  -3.915835   1.741251  -0.000960   0.072615  -0.013222
 523  15   5.195715  -3.336382   1.654775  -0.001969   0.072615  -0.027119
 524  14   4.018709  -4.354035   1.985535  -0.000518   0.065668  -0.007882
 525  14   3.123656  -4.920825   2.171215  -0.000977   0.145101  -0.006730
 526  14   2.098446  -5.588745   1.725647  -0.001100   0.145101  -0.007581
 527  14   1.526207  -5.977890   0.902266  -0.000611   0.065668  -0.009311
 528   4   3.557140  -4.249580   2.327165  -0.000799   0.144545  -0.005530
 529   4   2.325492  -5.038102   2.280662  -0.000737   0.144545  -0.005100
 530   4   1.368408  -5.675530   1.375917  -0.001262   0.144545  -0.008734
 531  14   1.488597  -6.042928  -0.540395  -0.000661   0.065929  -0.010019
 532  14   2.019028  -5.729098  -1.426782  -0.001162   0.145796  -0.007969
 533  14   3.023078  -5.103136  -1.981655  -0.001007   0.145796  -0.006904
 534  14   3.928155  -4.522016  -1.888580  -0.000460   0.065929  -0.006973
 535   4   1.306759  -5.783360  -1.031773  -0.001182   0.145007  -0.008153
 536   4   2.218727  -5.229145  -2.040355  -0.000770   0.145007  -0.005307
 537   4   3.449354  -4.447585  -2.215846  -0.000822   0.145007  -0.005670
 538  15   5.560678  -2.601566   2.059905  -0.004507   0.250958  -0.017958
 539   4   4.453354  -3.174212   2.319926  -0.002062   0.352726  -0.005847
 540  15   5.499417  -2.974345  -2.056653  -0.004831   0.246171  -0.019623
 541   4   4.315085  -3.221335  -2.452365  -0.001903   0.346013  -0.005501
 542   5   4.215805   1.831475  -3.210217   0.000063   0.107730   0.000583
 543   6   4.652537   1.806964  -3.111649   0.000851   0.107730   0.007903
 544   8   4.159546   2.669471  -3.172557   0.000090   0.107730   0.000837
 545   5   4.357231   2.065496   2.741449   0.000050   0.107730   0.000463
 546   6   4.788841   2.032511   2.624508   0.000804   0.107730   0.007466
 547   8   4.297686   2.898055   2.640854  -0.000076   0.107730  -0.000704
 548   6   5.067088   1.288178   2.889078   0.001345   0.152683   0.008810
 549   6   5.125262  -0.323053   2.933591   0.000946   0.318215   0.002973
 550   5   4.469098   0.667029   3.084418   0.000592   0.319401   0.001854
 551   5   4.525759  -0.995168   2.997019  -0.000568   0.162917  -0.003484
 552   6   5.004416  -1.204213  -3.110979  -0.000131   0.154673  -0.000849
 553   6   4.941490   0.411054  -3.338695   0.002605   0.322787   0.008070
 554   5   4.353838  -0.643789  -3.342903  -0.000283   0.323511  -0.000873
 555   5   4.291801   1.037794  -3.441911   0.000423   0.165041   0.002563
 556   5   3.411973   2.261360   3.052466  -0.000143   0.051361  -0.002775
 557   7   3.180657   2.657064   3.080469  -0.000169   0.051361  -0.003283
 558   8   3.378983   3.100166   3.017691  -0.000316   0.051361  -0.006146
 559   5   3.299743   2.006078  -3.481862  -0.000126   0.051361  -0.002449
 560   7   3.067073   2.398703  -3.532694  -0.000141   0.051361  -0.002741
 561   8   3.266842   2.845086  -3.511504  -0.000289   0.051361  -0.005618
 562   7   2.524908   1.887025  -3.707082   0.000400   0.219591   0.001822
 563   7   1.106465   0.993956  -3.684376   0.001068   0.219591   0.004862
 564   5   2.166224   0.885534  -3.625116   0.000414   0.452345   0.000915
 565   7   1.276722   1.301944   3.421565   0.000844   0.213866   0.003947
 566   7   2.658107   2.169205   3.311792   0.000227   0.213866   0.001060
 567   5   2.315722   1.176194   3.330406   0.000420   0.439279   0.000956
 568   8   3.773693   3.303022   3.024116  -0.000376   0.187678  -0.002002
 569   5   3.945508   2.109856   3.021068  -0.000044   0.187678  -0.000232
 570   8   3.763309   3.051486  -3.514360  -0.000194   0.175049  -0.001111
 571   5   3.689884   1.849244  -3.508927  -0.000001   0.175049  -0.000008
 572   6   5.209141   2.653078   2.374671   0.001780   0.111749   0.015926
 573   8   4.763097   3.532286   2.508077   0.000538   0.111749   0.004812
 574   9   5.132383   3.632312   2.400595   0.001271   0.111749   0.011372
 575   6   4.905000   2.340261  -2.998252   0.001528   0.111749   0.013673
 576   8   4.441034   3.201035  -3.181450   0.000487   0.111749   0.004360
 577   9   4.819402   3.310403  -3.128481   0.001537   0.111749   0.013756
 578   8   4.480695   3.365469   2.790730   0.000145   0.114480   0.001264
 579   6   5.206388   2.143005   2.661585   0.000915   0.102523   0.008929
 580   8   4.269813   3.085687  -3.386728   0.000056   0.035673   0.001581
 581   6   4.934032   1.835590  -3.213950   0.000205   0.031947   0.006406
 582   9   5.712836   3.688965   2.391831   0.003800   0.301095   0.012621
 583   9   6.914786   3.762112   1.552145   0.011074   0.602329   0.018385
 584   9   7.665816   3.749648  -0.076472   0.011886   0.602329   0.019733
 585   9   7.275612   3.619553  -1.822156   0.011596   0.602329   0.019251
 586   9   5.905512   3.425617  -2.963124   0.009685   0.602329   0.016080
 587   6   6.328246   2.327829   2.175304   0.010231   0.602329   0.016985
 588   6   7.560028   2.379500   0.872753   0.011206   0.602329   0.018604
 589   6   7.750557   2.304224  -0.908995   0.011168   0.602329   0.018541
 590   6   6.821055   2.133125  -2.433247   0.010926   0.602329   0.018139
 591   6   5.532795   1.971206  -3.118285   0.003919   0.301095   0.013015
 592  15   5.945415  -2.158015  -2.468418  -0.001120   0.081139  -0.013805
 593  15   7.028108  -1.688814  -2.228738  -0.002585   0.175270  -0.014751
 594  15   8.019187  -1.230981  -1.256964  -0.003050   0.175270  -0.017404
 595  15   8.266818  -1.071818   0.174658  -0.002927   0.175270  -0.016700
 596  15   7.672076  -1.274908   1.494215  -0.002804   0.175270  -0.015999
 597  15   6.472551  -1.759119   2.174564  -0.002724   0.175270  -0.015539
 598   6   6.224349  -1.592541  -2.611899  -0.001821   0.174261  -0.010449
 599   6   7.552819  -1.004378  -1.987211  -0.001826   0.174261  -0.010477
 600   6   8.259176  -0.652546  -0.616709  -0.002330   0.174261  -0.013372
 601   6   8.061241  -0.677594   0.952111  -0.002111   0.174261  -0.012116
 602   6   7.038086  -1.069518   2.092529  -0.001771   0.174261  -0.010166
 603   6   5.896858  -1.540860   2.456636  -0.000928   0.092902  -0.009985
 604   8   2.768633   3.459084  -3.768317  -0.001236   0.240826  -0.005133
 605   8   1.217638   4.209561  -3.774427  -0.001642   0.240826  -0.006819
 606   7   1.688851   3.206181  -3.683177  -0.001741   0.495927  -0.003511
 607   8   1.390541   4.459208   3.260844  -0.001427   0.234575  -0.006085
 608   8   2.902840   3.726312   3.242679  -0.001309   0.234575  -0.005580
 609   7   1.839940   3.460426   3.226265  -0.001747   0.481675  -0.003627
 610   8   3.497295   7.679495  -2.754713  -0.000385   0.066494  -0.005785
 611   9   3.886393   7.667005  -2.690109   0.000262   0.066494   0.003942
 612  16   3.261940   8.216756  -2.508622  -0.001154   0.066494  -0.017358
 613   8   3.799114   7.735942   1.921850  -0.000373   0.066494  -0.005612
 614   9   4.176701   7.721299   1.808092   0.000227   0.066494   0.003421
 615  16   3.533250   8.267497   1.695205  -0.001214   0.066494  -0.018253
 616   9   4.586248   7.127225   2.213757   0.001241   0.164306   0.007555
 617   9   4.932522   5.275748   2.634796   0.003149   0.357398   0.008811
 618   8   4.181943   6.374662   2.581947   0.000846   0.341724   0.002475
 619   8   4.532628   4.428158   2.824004   0.000587   0.175320   0.003347
 620   9   4.706124   4.220442  -3.486829   0.001619   0.177566   0.009115
 621   9   4.365126   6.255790  -3.354236   0.003702   0.393159   0.009416
 622   8   4.022815   4.910447  -3.584893   0.001068   0.370412   0.002882
 623   8   3.689926   6.987713  -3.222412   0.000265   0.189468   0.001398
 624   8   3.003158   7.796926   2.226022  -0.000562   0.036848  -0.015251
 625  10   2.689221   8.104759   2.189328  -0.000592   0.036848  -0.016069
 626  16   2.797669   8.364258   2.025005  -0.000707   0.036848  -0.019177
 627   8   2.704302   7.741425  -2.945611  -0.000533   0.036848  -0.014451
 628  10   2.396300   8.050360  -2.879596  -0.000591   0.036848  -0.016041
 629  16   2.522631   8.313180  -2.734446  -0.000793   0.036848  -0.021509
 630  10   2.048818   7.693153  -3.163894  -0.000745   0.160092  -0.004654
 631  10   0.753822   6.613110  -3.379655   0.001177   0.335980   0.003504
 632   8   1.973233   6.831743  -3.428217  -0.001882   0.334560  -0.005626
 633   8   0.629189   5.705134  -3.502508  -0.000415   0.170823  -0.002432
 634  10   0.568368   6.218351   2.936307   0.000834   0.163805   0.005094
 635  10   1.882724   7.331184   2.715298  -0.000429   0.344729  -0.001244
 636   8   1.479523   6.173617   3.002343  -0.000928   0.342268  -0.002710
 637   8   2.813428   7.308959   2.620569  -0.001017   0.174785  -0.005820
 638  16   3.042155   8.540577   1.927121  -0.001272   0.099572  -0.012775
 639   8   3.454297   7.760171   2.155265  -0.000698   0.121649  -0.005740
 640  16   2.861489   8.508062  -2.634087  -0.001281   0.092484  -0.013849
 641   8   3.061651   7.686046  -2.971437  -0.000670   0.112989  -0.005932
 642  16   3.626473   8.772346   1.478051  -0.003309   0.220119  -0.015032
 643  16   4.072067   9.247667   0.336083  -0.007909   0.445097  -0.017769
 644  16   3.969446   9.228475  -1.253977  -0.008023   0.445097  -0.018025
 645  16   3.381516   8.726533  -2.317448  -0.003216   0.220119  -0.014611
 646   9   4.783230   8.217718   1.148159   0.003801   0.533858   0.007119
 647   9   5.112386   8.609093  -0.521808   0.005280   0.533858   0.009891
 648   9   4.571938   8.178202  -2.125727   0.003247   0.533858   0.006082
 649  12  -2.725512   5.712749   1.628022  -0.000790   0.224358  -0.003523
 650  12  -3.163062   6.179081   0.543176  -0.002662   0.452371  -0.005884
 651  12  -3.161882   6.137469  -0.985732  -0.002759   0.452371  -0.006099
 652  12  -2.722678   5.612837  -2.042931  -0.000838   0.224358  -0.003737
 653  10  -2.055359   6.911262   1.343071   0.005915   0.547945   0.010795
 654  10  -2.423610   7.285785  -0.251395   0.005997   0.547945   0.010945
 655  10  -2.052915   6.825103  -1.822559   0.006074   0.547945   0.011085
 656  16   2.195456   8.755994  -2.706488  -0.001084   0.083214  -0.013023
 657  16   1.189836   9.375302  -2.388680  -0.002907   0.180019  -0.016146
 658  16   0.324125   9.944308  -1.326770  -0.003147   0.180019  -0.017483
 659  16   0.202380  10.084488   0.145102  -0.003236   0.180019  -0.017973
 660  16   0.874689   9.738172   1.421403  -0.003142   0.180019  -0.017454
 661  16   2.064461   9.047835   1.977061  -0.003031   0.180019  -0.016838
 662  10   1.555175   8.646535  -2.788015  -0.002094   0.178619  -0.011721
 663  10   0.344798   9.407719  -2.058676  -0.002133   0.178619  -0.011940
 664  10  -0.219177   9.812763  -0.611534  -0.002605   0.178619  -0.014585
 665  10   0.095272   9.695031   0.958056  -0.002409   0.178619  -0.013485
 666  10   1.158779   9.102958   2.004360  -0.002105   0.178619  -0.011784
 667  10   2.265207   8.448325   2.242894  -0.001034   0.095278  -0.010849
 668  12  -5.133245   3.447179  -0.122922  -0.000521   0.176493  -0.002949
 669  11  -5.799927   2.153969   0.057162  -0.000374   0.176493  -0.002119
 670  13  -4.732648  -3.988252   0.295300  -0.000365   0.130092  -0.002802
 671  11  -5.543228  -2.751462   0.182232  -0.000209   0.130092  -0.001609
 672  14   1.096555  -6.114535   0.289186  -0.001322   0.298158  -0.004435
 673  13  -0.370236  -6.196740   0.155868  -0.001251   0.298158  -0.004196
 674  15   5.755147  -3.488353   1.478564  -0.003951   0.241439  -0.016364
 675  15   6.019171  -3.927628   0.359632  -0.009670   0.483334  -0.020007
 676  15   5.825032  -3.775631  -1.115133  -0.009410   0.483334  -0.019468
 677  14   4.816161  -4.467105   1.122601  -0.005236   0.483334  -0.010833
 678  14   4.942279  -4.746085  -0.340953  -0.005537   0.483334  -0.011457
 679  14   4.625978  -4.404401  -1.480201  -0.001797   0.241439  -0.007444
 =====================================================

              4235353  WORDS OF DYNAMIC MEMORY USED
 EXECUTION OF GAMESS TERMINATED NORMALLY Sun Nov 27 12:52:58 2016
 DDI: 263640 bytes (0.3 MB / 0 MWords) used by master data server.

 ----------------------------------------
 CPU timing information for all processes
 ========================================
 0: 1719.56 + 0.576 = 1719.632
 ----------------------------------------
 ddikick.x: exited gracefully.
