----- GAMESS execution script -----

          ******************************************************
          *         GAMESS VERSION =  5 DEC 2014 (R1)          *
          *             FROM IOWA STATE UNIVERSITY             *
          * M.W.SCHMIDT, K.K.BALDRIDGE, J.A.BOATZ, S.T.ELBERT, *
          *   M.S.GORDON, J.H.JENSEN, S.KOSEKI, N.MATSUNAGA,   *
          *          K.A.NGUYEN, S.J.SU, T.L.WINDUS,           *
          *       TOGETHER WITH M.DUPUIS, J.A.MONTGOMERY       *
          *         J.COMPUT.CHEM.  14, 1347-1363(1993)        *
          **************** 64 BIT LINUX VERSION ****************

 EXECUTION OF GAMESS BEGUN Sun Nov 27 12:29:36 2016

            ECHO OF THE FIRST FEW INPUT CARDS -
 INPUT CARD>! SELECT RESTRICTED HARTREE-FOCK AS DEFAULT                                     
 INPUT CARD>$contrl scftyp=rhf $end                                                         
 INPUT CARD>                                                                                
 INPUT CARD>! THEORY: HF OR DFT                                                             
 INPUT CARD> $contrl mplevl=0 $end                                                          
 INPUT CARD>                                                                                
 INPUT CARD> $system timlim=10000 mwords=20 $end                                            
 INPUT CARD> $SCF DIRSCF=.TRUE. $end                                                        
 INPUT CARD>                                                                                
 INPUT CARD>                                                                                
 INPUT CARD>! BASIS SETS                                                                    
 INPUT CARD>! 6-311G(d,p)                                                                   
 INPUT CARD> $BASIS GBASIS=N311 NGAUSS=6 NDFUNC=1 NPFUNC=1 $END                             
 INPUT CARD>                                                                                
 INPUT CARD>! One of the following                                                          
 INPUT CARD> $guess guess=HUCKEL $end                                                       
 INPUT CARD>                                                                                
 INPUT CARD> $statpt projct=.FALSE. $end                                                    
 INPUT CARD> $STATPT IFREEZ(1)=1,2,3 $END                                                   
 INPUT CARD>                                                                                
 INPUT CARD>! Optimize the geometry with COSMO effects                                      
 INPUT CARD> $statpt opttol=0.0005 nstep=50 $end                                            
 INPUT CARD> $contrl nzvar=1 $end                                                           
 INPUT CARD> $zmat dlc=.t. auto=.t. $end                                                    
 INPUT CARD> $contrl runtyp=OPTIMIZE maxit=200 $end                                         
 INPUT CARD>                                                                                
 INPUT CARD>! Run COSMO on perfect conductor                                                
 INPUT CARD> $COSGMS PRFCND=.TRUE. $end                                                     
 INPUT CARD>                                                                                
 INPUT CARD>! Specifying RSOLV                                                              
 INPUT CARD> $COSGMS COSRAD = 1.4 $end                                                      
 INPUT CARD>                                                                                
 INPUT CARD>! available memory                                                              
 INPUT CARD> $SYSTEM MWORDS=40 $END                                                         
 INPUT CARD>                                                                                
 INPUT CARD> $DATA                                                                          
 INPUT CARD>http://cactus.nci.nih.gov/chemical/structure/SEC-BUTANOL/file?format=sdf&get3d=T
 INPUT CARD>C1                                                                              
 INPUT CARD>C      6.0     -0.4407000000    0.0113000000   -0.3367000000                    
 INPUT CARD>C      6.0     -1.7137000000    0.7924000000   -0.0048000000                    
 INPUT CARD>C      6.0      0.7644000000    0.7052000000    0.3014000000                    
 INPUT CARD>C      6.0      2.0494000000   -0.0031000000   -0.1324000000                    
 INPUT CARD>O      8.0     -0.5507000000   -1.3184000000    0.1750000000                    
 INPUT CARD>H      1.0     -0.3084000000   -0.0252000000   -1.4180000000                    
 INPUT CARD>H      1.0     -1.8460000000    0.8290000000    1.0766000000                    
 INPUT CARD>H      1.0     -1.6297000000    1.8067000000   -0.3950000000                    
 INPUT CARD>H      1.0     -2.5722000000    0.2981000000   -0.4594000000                    
 INPUT CARD>H      1.0      0.7968000000    1.7461000000   -0.0205000000                    
 INPUT CARD>H      1.0      0.6751000000    0.6632000000    1.3869000000                    
 INPUT CARD>H      1.0      2.0170000000   -1.0439000000    0.1895000000                    
   40000000 WORDS OF MEMORY AVAILABLE

     BASIS OPTIONS
     -------------
     GBASIS=N311         IGAUSS=       6      POLAR=POPN311 
     NDFUNC=       1     NFFUNC=       0     DIFFSP=       F
     NPFUNC=       1      DIFFS=       F     BASNAM=        


     RUN TITLE
     ---------
 http://cactus.nci.nih.gov/chemical/structure/SEC-BUTANOL/file?format=sdf&get3d=T

 THE POINT GROUP OF THE MOLECULE IS C1      
 THE ORDER OF THE PRINCIPAL AXIS IS     0

 ATOM      ATOMIC                      COORDINATES (BOHR)
           CHARGE         X                   Y                   Z
 C           6.0    -0.8328022428        0.0213539037       -0.6362707401
 C           6.0    -3.2384234252        1.4974188727       -0.0090706847
 C           6.0     1.4445065450        1.3326347665        0.5695634127
 C           6.0     3.8728044392       -0.0058581506       -0.2501997208
 O           8.0    -1.0406721014       -2.4914147422        0.3307020479
 H           1.0    -0.5827914946       -0.0476210949       -2.6796314506
 H           1.0    -3.4884341733        1.5665828438        2.0344789984
 H           1.0    -3.0796864422        3.4141679420       -0.7464417652
 H           1.0    -4.8607531856        0.5633273169       -0.8681401188
 H           1.0     1.5057336670        3.2996505472       -0.0387393827
 H           1.0     1.2757540143        1.2532662751        2.6208609724
 H           1.0     3.8115773172       -1.9726849586        0.3581030747
 H           1.0     4.0415569699        0.0735103409       -2.3014972804
 H           1.0     5.4951341997        0.9284223778        0.6088697132
 H           1.0    -2.4471951541       -3.4368446539       -0.3530008145

          INTERNUCLEAR DISTANCES (ANGS.)




     $CONTRL OPTIONS
     ---------------
 SCFTYP=RHF          RUNTYP=OPTIMIZE     EXETYP=RUN     
 MPLEVL=       0     CITYP =NONE         CCTYP =NONE         VBTYP =NONE    
 DFTTYP=NONE         TDDFT =NONE    
 MULT  =       1     ICHARG=       0     NZVAR =       1     COORD =UNIQUE  
 PP    =NONE         RELWFN=NONE         LOCAL =NONE         NUMGRD=       F
 ISPHER=      -1     NOSYM =       0     MAXIT =     200     UNITS =ANGS    
 PLTORB=       F     MOLPLT=       F     AIMPAC=       F     FRIEND=        
 NPRINT=       7     IREST =       0     GEOM  =INPUT   
 NORMF =       0     NORMP =       0     ITOL  =      20     ICUT  =       9
 INTTYP=BEST         GRDTYP=BEST         QMTTOL= 1.0E-06

     $SYSTEM OPTIONS
     ---------------
  REPLICATED MEMORY=    40000000 WORDS (ON EVERY NODE).
 DISTRIBUTED MEMDDI=           0 MILLION WORDS IN AGGREGATE,
 MEMDDI DISTRIBUTED OVER   1 PROCESSORS IS           0 WORDS/PROCESSOR.
 TOTAL MEMORY REQUESTED ON EACH PROCESSOR=    40000000 WORDS.
 TIMLIM=       10000.00 MINUTES, OR       6.9 DAYS.
 PARALL= F  BALTYP=  DLB     KDIAG=    0  COREFL= F
 MXSEQ2=     300 MXSEQ3=     150  mem10=         0

     $COSGMS OPTIONS
     ---------------
     EPSI  =   INFTY     NSPA  =      92     COSRAD=    1.40
     DISEX =   10.00     OUTCHG=DBLCAV       COSBUG=       F
     COSWRT=       F     DCOSMO=       F

     SYMMETRY COORDINATES WILL NOT BE USED FOR 
     THE COSMO CALCULATION, EVEN IF SPECIFIED:
         -- SWITCHING TO C1 POINT GROUP --


     DEFINITION OF CAVITY
     ---------------------------
     ATOM         COORDINATES           RADIUS 
     1   -0.8328    0.0214   -0.6363    2.0000
     2   -3.2384    1.4974   -0.0091    2.0000
     3    1.4445    1.3326    0.5696    2.0000
     4    3.8728   -0.0059   -0.2502    2.0000
     5   -1.0407   -2.4914    0.3307    1.7200
     6   -0.5828   -0.0476   -2.6796    1.3000
     7   -3.4884    1.5666    2.0345    1.3000
     8   -3.0797    3.4142   -0.7464    1.3000
     9   -4.8608    0.5633   -0.8681    1.3000
    10    1.5057    3.2997   -0.0387    1.3000
    11    1.2758    1.2533    2.6209    1.3000
    12    3.8116   -1.9727    0.3581    1.3000
    13    4.0416    0.0735   -2.3015    1.3000
    14    5.4951    0.9284    0.6089    1.3000
    15   -2.4472   -3.4368   -0.3530    1.3000

          ----------------
          PROPERTIES INPUT
          ----------------

     MOMENTS            FIELD           POTENTIAL          DENSITY
 IEMOM =       1   IEFLD =       0   IEPOT =       0   IEDEN =       0
 WHERE =COMASS     WHERE =NUCLEI     WHERE =NUCLEI     WHERE =NUCLEI  
 OUTPUT=BOTH       OUTPUT=BOTH       OUTPUT=BOTH       OUTPUT=BOTH    
 IEMINT=       0   IEFINT=       0                     IEDINT=       0
                                                       MORB  =       0
          EXTRAPOLATION IN EFFECT
          SOSCF IN EFFECT
 ORBITAL PRINTING OPTION: NPREO=     1   155     2     1

     -------------------------------
     INTEGRAL TRANSFORMATION OPTIONS
     -------------------------------
     NWORD  =            0
     CUTOFF = 1.0E-09     MPTRAN =       0
     DIRTRF =       T     AOINTS =DUP     

          ----------------------
          INTEGRAL INPUT OPTIONS
          ----------------------
 NOPK  =       1 NORDER=       0 SCHWRZ=       T


 -----------------------------------------------
  STATISTICS ON AUTOMATIC COORDINATE GENERATION 
 -----------------------------------------------
  NUMBER OF USER SPECIFIED BONDS                             0
  NUMBER OF BONDS                                           14
  NUMBER OF ANGLES                                          25
  NUMBER OF TORSIONS                                        30
  NUMBER OF EXTRA COORD.                                     0
  NUMBER OF EXTRA COORD. FOR CONSTRAINTS                     0
  NUMBER OF CONSTRAINED COORD.                               0

  TOTAL NUMBER OF PRIMITIVES                                69
 -----------------------------------------------

   --- ENCODED Z MATRIX ---
 COORD  TYPE   I   J   K   L   M   N
    1      1    1   2
    2      1    1   5
    3      1    1   3
    4      1    1   6
    5      1    2   7
    6      1    2   9
    7      1    2   8
    8      1    3   4
    9      1    3  11
   10      1    3  10
   11      1    4  14
   12      1    4  13
   13      1    4  12
   14      1    5  15
   15      2    1   2   7
   16      2    1   5  15
   17      2    1   3   4
   18      2    1   3  11
   19      2    1   2   8
   20      2    1   3  10
   21      2    1   2   9
   22      2    2   1   6
   23      2    2   1   3
   24      2    2   1   5
   25      2    3   1   5
   26      2    3   4  12
   27      2    3   4  13
   28      2    3   1   6
   29      2    3   4  14
   30      2    4   3  10
   31      2    4   3  11
   32      2    5   1   6
   33      2    7   2   8
   34      2    7   2   9
   35      2    8   2   9
   36      2   10   3  11
   37      2   12   4  13
   38      2   12   4  14
   39      2   13   4  14
   40      3    1   3   4  12
   41      3    1   3   4  14
   42      3    1   3   4  13
   43      3    2   1   3   4
   44      3    2   1   3  11
   45      3    2   1   3  10
   46      3    2   1   5  15
   47      3    3   1   2   9
   48      3    3   1   2   7
   49      3    3   1   5  15
   50      3    3   1   2   8
   51      3    4   3   1   6
   52      3    4   3   1   5
   53      3    5   1   3  11
   54      3    5   1   2   7
   55      3    5   1   2   9
   56      3    5   1   3  10
   57      3    5   1   2   8
   58      3    6   1   3  11
   59      3    6   1   5  15
   60      3    6   1   2   7
   61      3    6   1   2   9
   62      3    6   1   3  10
   63      3    6   1   2   8
   64      3   10   3   4  14
   65      3   10   3   4  13
   66      3   10   3   4  12
   67      3   11   3   4  14
   68      3   11   3   4  13
   69      3   11   3   4  12

          INDEP./SYM. INTERNAL COORDINATES
          --------------------------------
 CRD  1=  -0.6337 ( 17)  0.1897 ( 18)  0.2174 ( 20) -0.1066 ( 21) -0.1148 ( 22)
           0.4042 ( 23) -0.2431 ( 25) -0.1078 ( 28)  0.1341 ( 29)  0.1767 ( 30)
           0.1681 ( 31) -0.1181 ( 36) -0.1294 ( 46)  0.1935 ( 49)
 CRD  2=   0.2132 (  1)  0.3268 (  3)  0.2877 (  8) -0.1116 ( 16)  0.2982 ( 17)
           0.1718 ( 19) -0.1048 ( 21) -0.1051 ( 22)  0.4787 ( 23) -0.3191 ( 24)
           0.1045 ( 27) -0.1417 ( 28) -0.1217 ( 30) -0.1186 ( 31)  0.1254 ( 32)
          -0.2446 ( 46)  0.1229 ( 49) -0.1026 ( 60)
 CRD  3=  -0.2784 (  1) -0.1715 (  2) -0.1180 (  8) -0.1966 ( 15) -0.3415 ( 16)
          -0.1477 ( 17)  0.1498 ( 18) -0.1176 ( 21)  0.1997 ( 22) -0.3465 ( 24)
           0.3671 ( 25) -0.1691 ( 26) -0.1257 ( 28)  0.1424 ( 30) -0.2456 ( 43)
          -0.1764 ( 44) -0.1925 ( 45) -0.1295 ( 48) -0.1133 ( 50) -0.1065 ( 51)
           0.1574 ( 55)
 CRD  4=  -0.2534 (  1)  0.1737 ( 15) -0.1005 ( 16) -0.2387 ( 19) -0.1406 ( 21)
          -0.1067 ( 24)  0.1957 ( 25)  0.2499 ( 26) -0.3257 ( 27) -0.1833 ( 30)
           0.1971 ( 31)  0.1193 ( 35) -0.1334 ( 41)  0.3378 ( 43)  0.1253 ( 44)
           0.1134 ( 45) -0.1347 ( 46) -0.1577 ( 47) -0.1000 ( 48)  0.2094 ( 51)
           0.3359 ( 52)  0.1234 ( 53)  0.1115 ( 56)  0.1154 ( 57)
 CRD  5=   0.3610 (  1)  0.1500 (  2)  0.2501 (  3)  0.1229 (  8)  0.1172 ( 14)
           0.2157 ( 15) -0.1303 ( 17)  0.2676 ( 18) -0.1443 ( 20)  0.1903 ( 21)
          -0.1042 ( 23)  0.1047 ( 24)  0.2032 ( 25) -0.1363 ( 28)  0.1789 ( 29)
           0.1247 ( 30) -0.1413 ( 32) -0.1590 ( 34) -0.1862 ( 40) -0.2003 ( 41)
          -0.2155 ( 42) -0.2035 ( 47) -0.1496 ( 48)  0.1564 ( 49) -0.1750 ( 50)
          -0.1330 ( 52) -0.1332 ( 53) -0.1484 ( 56)
 CRD  6=   0.3437 (  2)  0.4833 (  3)  0.1812 ( 14) -0.2856 ( 15)  0.3690 ( 16)
           0.2035 ( 20)  0.1230 ( 21) -0.2313 ( 26)  0.2589 ( 29)  0.1247 ( 37)
           0.1313 ( 40)  0.1214 ( 41) -0.1018 ( 49)
 CRD  7=  -0.1017 (  1) -0.1552 (  2)  0.5775 (  8) -0.1447 ( 15) -0.1595 ( 16)
          -0.1416 ( 18)  0.1412 ( 21)  0.1045 ( 26)  0.4425 ( 29)  0.1256 ( 30)
           0.1991 ( 31) -0.2416 ( 38) -0.2024 ( 39) -0.1065 ( 44)  0.1107 ( 56)
 CRD  8=  -0.2233 (  1)  0.3789 ( 15) -0.4164 ( 19) -0.1733 ( 21) -0.1256 ( 22)
          -0.4074 ( 26)  0.4184 ( 27)  0.2284 ( 35)  0.1163 ( 38) -0.1806 ( 39)
           0.1134 ( 41) -0.1081 ( 51)
 CRD  9=  -0.1090 (  1)  0.3234 (  2) -0.2519 (  3) -0.1241 (  6)  0.2381 (  8)
           0.1329 ( 14)  0.4197 ( 16)  0.2926 ( 19) -0.1353 ( 20) -0.4117 ( 21)
           0.1489 ( 27) -0.1233 ( 28) -0.1187 ( 33)  0.1675 ( 34) -0.1189 ( 37)
          -0.1228 ( 47) -0.1603 ( 48) -0.1170 ( 50) -0.1021 ( 54)
 CRD 10=   0.2064 (  1) -0.1399 (  6) -0.1114 (  8)  0.3040 ( 15) -0.1683 ( 16)
          -0.1617 ( 18)  0.2926 ( 19) -0.3862 ( 21) -0.1341 ( 23) -0.1912 ( 26)
          -0.2448 ( 27)  0.1118 ( 28)  0.3224 ( 29) -0.1482 ( 32) -0.2618 ( 33)
           0.1841 ( 37)  0.1156 ( 40)  0.1119 ( 50)  0.1053 ( 55)  0.1212 ( 57)
 CRD 11=   0.2682 (  1) -0.1478 (  3)  0.1361 ( 12)  0.1099 ( 15) -0.1385 ( 17)
          -0.2179 ( 18)  0.2747 ( 20)  0.1887 ( 21)  0.2579 ( 22) -0.1507 ( 24)
           0.1746 ( 25)  0.2630 ( 27) -0.1897 ( 28) -0.1926 ( 29) -0.1690 ( 30)
           0.2940 ( 31) -0.1536 ( 34) -0.1091 ( 37)  0.1136 ( 38)  0.1662 ( 40)
           0.1608 ( 41)  0.1778 ( 42) -0.1196 ( 44) -0.1012 ( 45)  0.1875 ( 51)
           0.1346 ( 52) -0.1232 ( 59)
 CRD 12=   0.3244 (  3)  0.1490 (  8)  0.1419 (  9)  0.1829 ( 10) -0.1152 ( 11)
           0.1013 ( 14) -0.1033 ( 16) -0.2014 ( 17)  0.1083 ( 19)  0.1710 ( 20)
          -0.2026 ( 21) -0.1332 ( 23)  0.1223 ( 24)  0.3227 ( 26)  0.1589 ( 27)
           0.2095 ( 28) -0.3155 ( 29) -0.1814 ( 32) -0.1318 ( 36) -0.2157 ( 37)
           0.1314 ( 47)  0.1232 ( 48)  0.1371 ( 50)  0.1506 ( 54)  0.1588 ( 55)
           0.1645 ( 57)  0.1627 ( 59)
 CRD 13=  -0.1793 (  4) -0.1663 (  5)  0.1537 (  7)  0.2366 (  9) -0.2398 ( 10)
           0.1587 ( 12) -0.1554 ( 13) -0.2603 ( 15) -0.2148 ( 16)  0.2958 ( 19)
          -0.1037 ( 22)  0.1193 ( 24) -0.2942 ( 26)  0.2937 ( 27)  0.1326 ( 34)
          -0.1732 ( 35)  0.1603 ( 38) -0.1540 ( 39) -0.1100 ( 41)  0.2710 ( 43)
           0.1686 ( 44)  0.1665 ( 45)  0.1687 ( 51)  0.1367 ( 52)
 CRD 14=   0.6697 (  4) -0.1177 (  6) -0.1264 (  7)  0.2986 (  9)  0.1776 ( 15)
           0.1338 ( 18) -0.1014 ( 23)  0.1033 ( 30) -0.1190 ( 33) -0.1108 ( 34)
          -0.2470 ( 49)  0.1749 ( 52)  0.1561 ( 53)  0.1932 ( 56) -0.1067 ( 59)
 CRD 15=   0.1244 (  1)  0.1880 (  4)  0.4874 (  5)  0.4057 (  6)  0.3907 (  7)
           0.1635 (  9) -0.1629 ( 10) -0.1235 ( 13) -0.1345 ( 15) -0.1599 ( 19)
          -0.1993 ( 21) -0.1339 ( 30)  0.1417 ( 33)  0.1613 ( 34)  0.1908 ( 35)
          -0.1205 ( 45) -0.1120 ( 56)
 CRD 16=  -0.1792 (  8) -0.4839 ( 11) -0.5048 ( 12) -0.5020 ( 13)  0.1697 ( 26)
           0.1681 ( 27)  0.1841 ( 29) -0.1663 ( 37) -0.1784 ( 38) -0.1772 ( 39)
 CRD 17=  -0.1669 (  1) -0.1701 (  2)  0.1244 (  3) -0.1645 (  5) -0.2317 (  6)
          -0.2811 (  7)  0.1990 (  9) -0.1325 ( 10) -0.1644 ( 14) -0.1030 ( 18)
           0.1398 ( 20) -0.2526 ( 30)  0.1803 ( 31) -0.1660 ( 44) -0.1968 ( 45)
          -0.1044 ( 47) -0.1050 ( 48) -0.1150 ( 50) -0.2276 ( 53) -0.1191 ( 54)
          -0.1185 ( 55) -0.2584 ( 56) -0.1291 ( 57) -0.1788 ( 58) -0.1495 ( 60)
          -0.1489 ( 61) -0.2096 ( 62) -0.1595 ( 63) -0.1214 ( 64) -0.1130 ( 65)
          -0.1161 ( 66)
 CRD 18=   0.1146 (  3)  0.1389 (  6)  0.1342 (  7)  0.4850 ( 10) -0.2950 ( 14)
          -0.2051 ( 16)  0.1011 ( 19)  0.1342 ( 44) -0.2124 ( 47) -0.1819 ( 48)
          -0.1354 ( 49) -0.2357 ( 50) -0.1781 ( 54) -0.2086 ( 55) -0.2320 ( 57)
          -0.1879 ( 60) -0.2185 ( 61) -0.2418 ( 63)
 CRD 19=  -0.2150 (  9) -0.1720 ( 10)  0.6142 ( 11) -0.3074 ( 12) -0.2578 ( 13)
          -0.3239 ( 37)  0.1694 ( 38)  0.1413 ( 39)  0.1752 ( 40) -0.1544 ( 42)
          -0.1794 ( 65)  0.1501 ( 66) -0.1345 ( 68)  0.1950 ( 69)
 CRD 20=  -0.5603 (  6)  0.4895 (  7) -0.2076 ( 12)  0.1270 ( 13)  0.2869 ( 33)
          -0.2468 ( 34)  0.1106 ( 38) -0.2127 ( 48) -0.2121 ( 54) -0.2258 ( 60)
 CRD 21=  -0.1594 (  6)  0.1731 (  7)  0.4903 ( 12) -0.5511 ( 13) -0.2676 ( 38)
           0.2972 ( 39)  0.2178 ( 41)  0.2102 ( 64) -0.1038 ( 65)  0.2047 ( 67)
          -0.1093 ( 68)
 CRD 22=  -0.6180 (  5)  0.2387 (  6)  0.3684 (  7) -0.1201 ( 33) -0.2165 ( 34)
           0.3397 ( 35)  0.2230 ( 47) -0.1336 ( 50)  0.2111 ( 55) -0.1456 ( 57)
           0.2162 ( 61) -0.1404 ( 63)
 CRD 23=   0.1138 (  3) -0.6163 (  9) -0.4904 ( 10) -0.1754 ( 11)  0.1681 ( 12)
           0.1313 ( 13) -0.2267 ( 36)  0.1149 ( 45)  0.1104 ( 56) -0.1558 ( 66)
           0.1096 ( 67)  0.1574 ( 68)
 CRD 24=   0.4049 (  2)  0.2569 (  4) -0.1945 (  9)  0.2064 ( 10) -0.3550 ( 16)
          -0.1446 ( 18) -0.1532 ( 22)  0.1184 ( 32) -0.1327 ( 40) -0.1197 ( 41)
          -0.1385 ( 42) -0.1204 ( 51) -0.1402 ( 58) -0.1203 ( 62) -0.2021 ( 64)
          -0.2209 ( 65) -0.2151 ( 66) -0.2409 ( 67) -0.2597 ( 68) -0.2539 ( 69)
 CRD 25=  -0.4773 (  2) -0.2489 (  9)  0.2483 ( 10)  0.3894 ( 16)  0.1099 ( 22)
          -0.1341 ( 40) -0.1491 ( 41) -0.1323 ( 42)  0.1525 ( 51)  0.1146 ( 53)
           0.1099 ( 56)  0.1921 ( 58)  0.1873 ( 62) -0.2211 ( 64) -0.2042 ( 65)
          -0.2060 ( 66) -0.1986 ( 67) -0.1818 ( 68) -0.1836 ( 69)
 CRD 26=   0.1073 (  2)  0.3192 (  4) -0.1368 (  5) -0.1880 (  6) -0.1313 (  9)
           0.1161 ( 11) -0.3360 ( 14) -0.1508 ( 15) -0.1344 ( 21)  0.1487 ( 22)
          -0.1905 ( 28) -0.1407 ( 30) -0.1297 ( 31)  0.1604 ( 34)  0.1376 ( 35)
          -0.1143 ( 39)  0.1247 ( 44)  0.3154 ( 46)  0.3668 ( 49)  0.1421 ( 51)
           0.2116 ( 58)  0.1175 ( 59)  0.1318 ( 60)  0.1100 ( 61)  0.1031 ( 68)
 CRD 27=  -0.1876 (  2) -0.1094 (  3)  0.2695 (  4)  0.7764 ( 14) -0.1283 ( 16)
          -0.1109 ( 25)  0.1241 ( 49) -0.1152 ( 54) -0.1261 ( 55) -0.1136 ( 57)
          -0.1395 ( 60) -0.1505 ( 61) -0.1379 ( 63)
 CRD 28=   0.1207 (  3)  0.1182 (  4)  0.3085 (  8) -0.2927 ( 11) -0.1982 ( 12)
          -0.2375 ( 13) -0.1234 ( 18) -0.1379 ( 20) -0.2512 ( 26) -0.2403 ( 27)
          -0.2734 ( 29)  0.1191 ( 30)  0.1427 ( 31)  0.2147 ( 37)  0.2913 ( 38)
           0.2589 ( 39)  0.1103 ( 45)  0.1063 ( 46)  0.1795 ( 49) -0.1227 ( 53)
           0.1346 ( 59)  0.1219 ( 62)  0.1036 ( 66)
 CRD 29=   0.4442 (  1) -0.1722 (  4) -0.1794 (  5) -0.2265 (  6) -0.2377 (  7)
          -0.2022 ( 15) -0.2464 ( 19) -0.2519 ( 21)  0.2264 ( 33)  0.2161 ( 34)
           0.2580 ( 35) -0.2075 ( 46) -0.2414 ( 49) -0.3243 ( 59)
 CRD 30=   0.1967 (  1)  0.1726 (  4) -0.1819 (  5)  0.1102 (  6) -0.3300 (  8)
          -0.1368 (  9)  0.2019 ( 12)  0.1263 ( 13) -0.1607 ( 14)  0.1827 ( 16)
          -0.1576 ( 18) -0.1783 ( 20) -0.1153 ( 22)  0.1285 ( 25)  0.1070 ( 27)
           0.1062 ( 28)  0.1393 ( 31) -0.1058 ( 32)  0.1839 ( 33)  0.1202 ( 36)
          -0.2239 ( 37)  0.1067 ( 55)  0.2298 ( 57)  0.1716 ( 59) -0.1560 ( 60)
          -0.1265 ( 61)  0.1594 ( 64)  0.1159 ( 65)  0.2671 ( 66) -0.1235 ( 67)
          -0.1670 ( 68)
 CRD 31=   0.2540 (  2) -0.1870 (  4)  0.1747 (  5) -0.1431 (  7)  0.1665 (  9)
          -0.2520 ( 10)  0.2000 ( 13) -0.1196 ( 18)  0.1140 ( 30) -0.1282 ( 34)
           0.1209 ( 35) -0.1040 ( 37)  0.1217 ( 39)  0.2095 ( 46)  0.1651 ( 49)
           0.1841 ( 53) -0.1254 ( 54)  0.1836 ( 56) -0.1507 ( 57)  0.2069 ( 58)
           0.2023 ( 59) -0.1782 ( 60)  0.2064 ( 62) -0.2035 ( 63) -0.1277 ( 65)
          -0.2685 ( 68) -0.1631 ( 69)
 CRD 32=   0.1114 (  2) -0.3206 (  3)  0.1398 (  4) -0.1856 (  5)  0.2862 (  6)
           0.1977 (  8)  0.1088 (  9)  0.1274 ( 11) -0.2265 ( 12)  0.1361 ( 20)
           0.1195 ( 25) -0.1880 ( 32)  0.2170 ( 33) -0.1539 ( 35)  0.1618 ( 37)
          -0.1163 ( 38)  0.1145 ( 41) -0.1681 ( 48)  0.1316 ( 50)  0.2608 ( 57)
           0.1483 ( 58) -0.2644 ( 60) -0.1718 ( 61) -0.2191 ( 66) -0.1143 ( 69)
 CRD 33=   0.1628 (  2) -0.1198 (  3) -0.1086 (  4)  0.1818 (  5)  0.1039 (  6)
          -0.3039 (  7)  0.1598 ( 10)  0.1877 ( 12) -0.2834 ( 13)  0.1346 ( 18)
           0.1461 ( 28) -0.2268 ( 34)  0.1553 ( 35)  0.1497 ( 38) -0.2208 ( 39)
          -0.2572 ( 41)  0.2617 ( 47) -0.1555 ( 54)  0.1771 ( 55) -0.2285 ( 60)
           0.1042 ( 61) -0.1081 ( 63) -0.1690 ( 64)  0.1466 ( 65) -0.1067 ( 67)
           0.2088 ( 68)  0.1063 ( 69)
 CRD 34=  -0.2409 (  1)  0.2743 (  8) -0.1520 (  9) -0.1090 ( 10) -0.2818 ( 11)
           0.1502 ( 12)  0.1189 ( 22)  0.1110 ( 24) -0.1228 ( 30) -0.1399 ( 31)
          -0.1342 ( 32)  0.2190 ( 36) -0.1518 ( 37)  0.1854 ( 38)  0.1504 ( 40)
          -0.1331 ( 42)  0.1259 ( 44) -0.1538 ( 45) -0.1609 ( 46) -0.1575 ( 49)
           0.1003 ( 51) -0.1030 ( 52) -0.2448 ( 56)  0.2381 ( 58) -0.2924 ( 59)
           0.2238 ( 66) -0.1671 ( 68)  0.1164 ( 69)
 CRD 35=  -0.2989 (  1)  0.2998 (  3) -0.2059 (  8)  0.1932 ( 11) -0.1572 ( 18)
          -0.1605 ( 20)  0.1834 ( 22)  0.1192 ( 24) -0.1201 ( 25)  0.1017 ( 26)
          -0.1518 ( 28) -0.1016 ( 29)  0.1671 ( 30)  0.1325 ( 31)  0.1145 ( 37)
          -0.1116 ( 39) -0.1107 ( 40)  0.1328 ( 42) -0.1010 ( 44)  0.1449 ( 51)
          -0.1427 ( 52) -0.2152 ( 53) -0.2897 ( 59)  0.2577 ( 62)  0.2206 ( 65)
          -0.1301 ( 67) -0.2157 ( 69)
 CRD 36=  -0.1208 (  2)  0.2393 (  6) -0.1667 (  7) -0.1226 (  8)  0.1418 ( 10)
          -0.1335 ( 11)  0.1554 ( 13)  0.1208 ( 17)  0.1229 ( 19) -0.1653 ( 21)
           0.1144 ( 24) -0.1258 ( 28)  0.1215 ( 29)  0.1320 ( 32)  0.1812 ( 33)
          -0.1342 ( 34) -0.1751 ( 36) -0.1247 ( 37)  0.1000 ( 39) -0.1450 ( 42)
           0.1153 ( 45)  0.1610 ( 46) -0.2023 ( 48)  0.1261 ( 50) -0.1019 ( 53)
          -0.2905 ( 54) -0.1370 ( 58)  0.2103 ( 61)  0.3045 ( 63) -0.2177 ( 65)
           0.1914 ( 67)  0.1960 ( 69)
 CRD 37=  -0.1308 (  4) -0.2293 (  5)  0.1691 (  7)  0.1681 (  9)  0.2266 ( 12)
          -0.1562 ( 13)  0.1445 ( 15) -0.1127 ( 19)  0.1267 ( 22) -0.1150 ( 24)
           0.1033 ( 26) -0.1516 ( 27)  0.1096 ( 30) -0.1348 ( 31)  0.1327 ( 34)
          -0.1740 ( 35)  0.1701 ( 38) -0.1250 ( 39)  0.1742 ( 40) -0.1325 ( 41)
          -0.2390 ( 43) -0.1045 ( 44)  0.1710 ( 46) -0.1457 ( 47)  0.1587 ( 50)
          -0.2569 ( 55)  0.1253 ( 56) -0.2206 ( 61)  0.1052 ( 62) -0.2943 ( 64)
          -0.1841 ( 67)  0.1226 ( 69)
 CRD 38=   0.1398 (  1) -0.1271 (  2)  0.2405 (  3) -0.1388 (  4)  0.1091 (  6)
           0.1465 (  8) -0.1324 (  9) -0.1511 ( 10) -0.2101 ( 17) -0.1254 ( 21)
          -0.2117 ( 23) -0.1221 ( 29)  0.1913 ( 32)  0.1020 ( 33)  0.2298 ( 36)
           0.1348 ( 44) -0.1480 ( 45)  0.1964 ( 46)  0.1056 ( 50) -0.1448 ( 51)
           0.1062 ( 52)  0.2619 ( 53) -0.1904 ( 54) -0.1218 ( 55)  0.1083 ( 61)
          -0.2719 ( 62)  0.2208 ( 63)  0.1185 ( 64)  0.2172 ( 65) -0.1496 ( 67)
          -0.2145 ( 69)
 CRD 39=  -0.1880 (  2)  0.1705 (  4)  0.1854 (  9) -0.1745 ( 10) -0.1065 ( 15)
          -0.1561 ( 18)  0.1064 ( 19)  0.1501 ( 20) -0.1263 ( 22)  0.1145 ( 24)
           0.1451 ( 25)  0.1048 ( 26) -0.1056 ( 27) -0.1529 ( 28)  0.1277 ( 30)
          -0.1205 ( 31)  0.2321 ( 40)  0.2296 ( 42)  0.2395 ( 44)  0.2536 ( 45)
          -0.1047 ( 46) -0.2316 ( 48) -0.2344 ( 50) -0.2523 ( 51) -0.2234 ( 52)
           0.1643 ( 55)  0.1908 ( 61) -0.1857 ( 64) -0.1797 ( 67)

 THE DETERMINANT OF THE G MATRIX IS 10**(   -12)


                     --------------------
                     INTERNAL COORDINATES
                     --------------------

                 - - ATOMS - -         COORDINATE      COORDINATE
 NO.   TYPE    I  J  K  L  M  N        (BOHR,RAD)       (ANG,DEG)
 ----------------------------------------------------------------
   1 STRETCH   1  2                     2.8912214       1.5299686
   2 STRETCH   1  5                     2.7004171       1.4289993
   3 STRETCH   1  3                     2.8913023       1.5300114
   4 STRETCH   1  6                     2.0597538       1.0899749
   5 STRETCH   2  7                     2.0599477       1.0900774
   6 STRETCH   2  9                     2.0597284       1.0899614
   7 STRETCH   2  8                     2.0598157       1.0900076
   8 STRETCH   3  4                     2.8914020       1.5300642
   9 STRETCH   3 11                     2.0597569       1.0899765
  10 STRETCH   3 10                     2.0598379       1.0900193
  11 STRETCH   4 14                     2.0598141       1.0900068
  12 STRETCH   4 13                     2.0597569       1.0899765
  13 STRETCH   4 12                     2.0596574       1.0899239
  14 STRETCH   5 15                     1.8274557       0.9670480
  15 BEND      1  2  7                  1.9106299     109.4710293
  16 BEND      1  5 15                  1.9896081     113.9961446
  17 BEND      1  3  4                  1.9105960     109.4690874
  18 BEND      1  3 11                  1.9106372     109.4714457
  19 BEND      1  2  8                  1.9105937     109.4689578
  20 BEND      1  3 10                  1.9106379     109.4714887
  21 BEND      1  2  9                  1.9106473     109.4720269
  22 BEND      2  1  6                  1.9105924     109.4688794
  23 BEND      2  1  3                  1.9106386     109.4715282
  24 BEND      2  1  5                  1.9106288     109.4709641
  25 BEND      3  1  5                  1.9105988     109.4692471
  26 BEND      3  4 12                  1.9106586     109.4726763
  27 BEND      3  4 13                  1.9106208     109.4705094
  28 BEND      3  1  6                  1.9106198     109.4704491
  29 BEND      3  4 14                  1.9105421     109.4660003
  30 BEND      4  3 10                  1.9106727     109.4734824
  31 BEND      4  3 11                  1.9106208     109.4705094
  32 BEND      5  1  6                  1.9107211     109.4762559
  33 BEND      7  2  8                  1.9105331     109.4654861
  34 BEND      7  2  9                  1.9106947     109.4747407
  35 BEND      8  2  9                  1.9107006     109.4750826
  36 BEND     10  3 11                  1.9106348     109.4713102
  37 BEND     12  4 13                  1.9106620     109.4728702
  38 BEND     12  4 14                  1.9106717     109.4734229
  39 BEND     13  4 14                  1.9106441     109.4718446
  40 TORSION   1  3  4 12              -1.0472152     -60.0010100
  41 TORSION   1  3  4 14               3.1415682     179.9985983
  42 TORSION   1  3  4 13               1.0472231      60.0014661
  43 TORSION   2  1  3  4              -3.0543516    -175.0014574
  44 TORSION   2  1  3 11               1.1344742      65.0005821
  45 TORSION   2  1  3 10              -0.9599281     -54.9998295
  46 TORSION   2  1  5 15               1.0471952      59.9998635
  47 TORSION   3  1  2  9               3.1415586     179.9980486
  48 TORSION   3  1  2  7              -1.0471498     -59.9972636
  49 TORSION   3  1  5 15               3.1415730     179.9988746
  50 TORSION   3  1  2  8               1.0470965      59.9942107
  51 TORSION   4  3  1  6              -0.9600115     -55.0046089
  52 TORSION   4  3  1  5               1.1344619      64.9998769
  53 TORSION   5  1  3 11              -0.9598976     -54.9980836
  54 TORSION   5  1  2  7               1.0472037      60.0003507
  55 TORSION   5  1  2  9              -1.0472732     -60.0043372
  56 TORSION   5  1  3 10              -3.0542999    -174.9984952
  57 TORSION   5  1  2  8               3.1414500     179.9918249
  58 TORSION   6  1  3 11              -3.0543710    -175.0025694
  59 TORSION   6  1  5 15              -1.0472010     -60.0001955
  60 TORSION   6  1  2  7              -3.1415067    -179.9950733
  61 TORSION   6  1  2  9               1.0472017      60.0002388
  62 TORSION   6  1  3 10               1.1344120      64.9970189
  63 TORSION   6  1  2  8              -1.0472604     -60.0035991
  64 TORSION  10  3  4 14               1.0471660      59.9981913
  65 TORSION  10  3  4 13              -1.0471791     -59.9989408
  66 TORSION  10  3  4 12               3.1415679     179.9985830
  67 TORSION  11  3  4 14              -1.0472476     -60.0028678
  68 TORSION  11  3  4 13               3.1415927     180.0000000
  69 TORSION  11  3  4 12               1.0471543      59.9975239

     ------------------------------------------
     THE POINT GROUP IS C1 , NAXIS= 1, ORDER= 1
     ------------------------------------------

     DIMENSIONS OF THE SYMMETRY SUBSPACES ARE
 A   =  155

 ..... DONE SETTING UP THE RUN .....
 STEP CPU TIME =     0.00 TOTAL CPU TIME =        0.0 (    0.0 MIN)
 TOTAL WALL CLOCK TIME=        0.0 SECONDS, CPU UTILIZATION IS   0.00%


          -----------------------------
          STATIONARY POINT LOCATION RUN
          -----------------------------

 OBTAINING INITIAL HESSIAN, HESS=GUESS   
 DIAGONAL GUESS HESSIAN IN INTERNAL COORDS IS
     1  0.3672     2  0.3608     3  0.3672     4  0.3464     5  0.3463
     6  0.3464     7  0.3464     8  0.3671     9  0.3464    10  0.3464
    11  0.3464    12  0.3464    13  0.3464    14  0.3552    15  0.2241
    16  0.2143    17  0.2485    18  0.2241    19  0.2241    20  0.2241
    21  0.2241    22  0.2241    23  0.2485    24  0.2430    25  0.2430
    26  0.2241    27  0.2241    28  0.2241    29  0.2241    30  0.2241
    31  0.2241    32  0.2194    33  0.2034    34  0.2034    35  0.2034
    36  0.2034    37  0.2034    38  0.2034    39  0.2034    40  0.2500
    41  0.2500    42  0.2500    43  0.2500    44  0.2500    45  0.2500
    46  0.2500    47  0.2500    48  0.2500    49  0.2500    50  0.2500
    51  0.2500    52  0.2500    53  0.2500    54  0.2500    55  0.2500
    56  0.2500    57  0.2500    58  0.2500    59  0.2500    60  0.2500
    61  0.2500    62  0.2500    63  0.2500    64  0.2500    65  0.2500
    66  0.2500    67  0.2500    68  0.2500    69  0.2500
 TRANSFORMING HESSIAN TO SYMMETRY COORDINATES

          PARAMETERS CONTROLLING GEOMETRY SEARCH ARE
          METHOD =QA                  UPHESS =BFGS    
          NNEG   =         0          NFRZ   =         3
          NSTEP  =        50          IFOLOW =         1
          HESS   =GUESS               RESTAR =         F
          IHREP  =         0          HSSEND =         F
          NPRT   =         0          NPUN   =         0
          OPTTOL = 5.000E-04          RMIN   = 1.500E-03
          RMAX   = 1.000E-01          RLIM   = 7.000E-02
          DXMAX  = 3.000E-01          PURIFY =         F
          MOVIE  =         F          TRUPD  =         T
          TRMAX  = 5.000E-01          TRMIN  = 5.000E-02
          ITBMAT =         5          STPT   =         F
          STSTEP = 1.000E-02          PROJCT=          F
          FROZEN COORD(S)=   1   2   3


      ***** EQUILIBRIUM GEOMETRY LOCATED *****
            (SUBJECT TO   3 CONSTRAINT(S))
 COORDINATES OF ALL ATOMS ARE (ANGS)
   ATOM   CHARGE       X              Y              Z
 ------------------------------------------------------------
 C           6.0  -0.4642787593   0.0229579681  -0.3268895361
 C           6.0  -1.7304458515   0.7950286109   0.0037922927
 C           6.0   0.7615746744   0.6855892362   0.2788206220
 C           6.0   2.0533008277  -0.0193163024  -0.1150033305
 O           8.0  -0.5255429806  -1.3018734722   0.1717632798
 H           1.0  -0.3402097189  -0.0164651423  -1.4079886987
 H           1.0  -1.8510069829   0.8680788787   1.0812429884
 H           1.0  -1.6689418517   1.7992518230  -0.4058965955
 H           1.0  -2.6076984942   0.3090781922  -0.4117673953
 H           1.0   0.7850029363   1.7218867472  -0.0488668492
 H           1.0   0.6500078832   0.6973966871   1.3618373802
 H           1.0   2.0448523341  -1.0454763118   0.2346704937
 H           1.0   2.1599125192  -0.0332983768  -1.1971510321
 H           1.0   2.9200977025   0.4808311503   0.3044902701
 H           1.0  -1.1397439508  -1.8015926704  -0.3390103289


                     --------------------
                     INTERNAL COORDINATES
                     --------------------

                 - - ATOMS - -         COORDINATE      COORDINATE
 NO.   TYPE    I  J  K  L  M  N        (BOHR,RAD)       (ANG,DEG)
 ----------------------------------------------------------------
   1 STRETCH   1  2                     2.8712785       1.5194152
   2 STRETCH   1  5                     2.6775399       1.4168932
   3 STRETCH   1  3                     2.8713151       1.5194346
   4 STRETCH   1  6                     2.0577395       1.0889090
   5 STRETCH   2  7                     2.0534387       1.0866330
   6 STRETCH   2  9                     2.0513843       1.0855459
   7 STRETCH   2  8                     2.0528479       1.0863204
   8 STRETCH   3  4                     2.8786833       1.5233337
   9 STRETCH   3 11                     2.0575566       1.0888121
  10 STRETCH   3 10                     2.0543681       1.0871249
  11 STRETCH   4 14                     2.0505566       1.0851079
  12 STRETCH   4 13                     2.0550327       1.0874765
  13 STRETCH   4 12                     2.0487171       1.0841345
  14 STRETCH   5 15                     1.7806111       0.9422589
  15 BEND      1  2  7                  1.9202829     110.0241029
  16 BEND      1  5 15                  1.9105910     109.4688003
  17 BEND      1  3  4                  1.9597899     112.2876883
  18 BEND      1  3 11                  1.8950285     108.5771325
  19 BEND      1  2  8                  1.9182195     109.9058840
  20 BEND      1  3 10                  1.8890833     108.2365008
  21 BEND      1  2  9                  1.9418992     111.2626307
  22 BEND      2  1  6                  1.9064871     109.2336645
  23 BEND      2  1  3                  1.9433043     111.3431337
  24 BEND      2  1  5                  1.9417400     111.2535094
  25 BEND      3  1  5                  1.8779604     107.5992060
  26 BEND      3  4 12                  1.9262341     110.3650832
  27 BEND      3  4 13                  1.9244642     110.2636740
  28 BEND      3  1  6                  1.8961539     108.6416150
  29 BEND      3  4 14                  1.9434953     111.3540780
  30 BEND      4  3 10                  1.9229316     110.1758673
  31 BEND      4  3 11                  1.9273612     110.4296635
  32 BEND      5  1  6                  1.8970372     108.6922273
  33 BEND      7  2  8                  1.8945036     108.5470614
  34 BEND      7  2  9                  1.8965370     108.6635663
  35 BEND      8  2  9                  1.8914702     108.3732594
  36 BEND     10  3 11                  1.8667919     106.9592985
  37 BEND     12  4 13                  1.8855171     108.0321740
  38 BEND     12  4 14                  1.8942115     108.5303246
  39 BEND     13  4 14                  1.8884213     108.1985726
  40 TORSION   1  3  4 12              -1.0621124     -60.8545584
  41 TORSION   1  3  4 14               3.1161218     178.5406257
  42 TORSION   1  3  4 13               1.0196482      58.4215393
  43 TORSION   2  1  3  4              -3.0762770    -176.2576890
  44 TORSION   2  1  3 11               1.0707350      61.3485982
  45 TORSION   2  1  3 10              -0.9498095     -54.4200751
  46 TORSION   2  1  5 15               1.2506279      71.6556976
  47 TORSION   3  1  2  9              -3.1205634    -178.7951136
  48 TORSION   3  1  2  7              -1.0177214     -58.3111388
  49 TORSION   3  1  5 15              -2.8995426    -166.1315517
  50 TORSION   3  1  2  8               1.0674973      61.1630872
  51 TORSION   4  3  1  6              -0.9760078     -55.9211298
  52 TORSION   4  3  1  5               1.0748624      61.5850764
  53 TORSION   5  1  3 11              -1.0613109     -60.8086365
  54 TORSION   5  1  2  7               1.0770114      61.7082077
  55 TORSION   5  1  2  9              -1.0258307     -58.7757671
  56 TORSION   5  1  3 10              -3.0818554    -176.5773098
  57 TORSION   5  1  2  8              -3.1209553    -178.8175663
  58 TORSION   6  1  3 11              -3.1121811    -178.3148426
  59 TORSION   6  1  5 15              -0.8492459     -48.6582063
  60 TORSION   6  1  2  7              -3.1118895    -178.2981329
  61 TORSION   6  1  2  9               1.0684538      61.2178923
  62 TORSION   6  1  3 10               1.1504597      65.9164840
  63 TORSION   6  1  2  8              -1.0266709     -58.8239069
  64 TORSION  10  3  4 14               1.0090629      57.8150438
  65 TORSION  10  3  4 13              -1.0874107     -62.3040427
  66 TORSION  10  3  4 12               3.1140140     178.4198597
  67 TORSION  11  3  4 14              -1.0493138     -60.1212546
  68 TORSION  11  3  4 13               3.1373979     179.7596590
  69 TORSION  11  3  4 12               1.0556373      60.4835613

          INTERNUCLEAR DISTANCES (ANGS.)


 =====================================================
   GAMESS/COSab RESULTS
 =====================================================

   Dielectric Constant                  = INFTY
   Basic Grid Size                      =                 1082
   Number of Segments                   =                   92
   Number of Segments located on spheres=                  210
   Number of Segments of the cavity     =                  533
   Solvent Radius (rsolv)               = 1.40
   Outlying Charge Error Method         = double cavity

 =====================================================

  Total solvated Energy (a.u.)          =  -232.2269886160
  Total Energy corrected (a.u.)         =  -232.2269264069

  Outlying charge effect (a.u.)         =     0.0000622091
  Outlying charge effect (kcal/mol)     =     0.0390368225

  Dielectric Energy (a.u.)              =    -0.0094652483
  Dielectric energy corr. (a.u.)        =    -0.0094030393

  Sum of polarization charges           =     0.0229746871
  Sum of polarization charges(cor.)     =    -0.0229746871

  Total surface area of cavity (A**2)   =  124.48
  Total volume of cavity (A**3)         =  112.80

 =====================================================
 NPS=                   533
NR.  ATOM  (X, Y, Z)(a.u.)                  CHARGE(e)  AREA(A**2) SIGMA(e/A**2)
   1   1  -0.856775   2.612291  -3.389837  -0.000328   0.139368  -0.002356
   2   1  -3.203684  -1.506871  -3.161197  -0.000271   0.046456  -0.005833
   3   1  -2.997710  -1.076894  -3.538928  -0.000134   0.092912  -0.001446
   4   1   0.586673  -2.505582  -2.993385   0.000054   0.046456   0.001170
   5   1  -0.298874   2.613880  -3.327379  -0.000061   0.046456  -0.001323
   6   2  -5.963340   3.367671  -1.877304   0.001885   0.418105   0.004508
   7   2  -4.480973   4.756494   1.500040   0.001674   0.418105   0.004003
   8   2  -6.836157   1.569137   1.257282   0.001307   0.371649   0.003516
   9   2  -4.262689   0.604482  -3.527346   0.000526   0.278737   0.001887
  10   2  -3.109912   2.799840  -3.538991   0.000484   0.232280   0.002085
  11   2  -3.926184   2.012343  -3.679802   0.000780   0.325193   0.002398
  12   2  -5.027471   2.509570  -3.183661   0.001276   0.325193   0.003925
  13   2  -6.330904   1.459644   2.223850   0.001374   0.371649   0.003698
  14   2  -4.298937   4.299362   2.331502   0.001058   0.278737   0.003795
  15   2  -4.750470  -0.793458   2.619021   0.000760   0.278737   0.002725
  16   2  -5.106965   3.325818  -2.746949   0.000848   0.232280   0.003652
  17   2  -5.810620   2.531784  -2.594793   0.001080   0.278737   0.003875
  18   2  -2.303858   4.544752   2.030685   0.000532   0.139368   0.003815
  19   2  -3.238007   4.754323   1.932797   0.001564   0.325193   0.004810
  20   2  -5.554813   3.971711   1.729539   0.001287   0.464561   0.002771
  21   2  -6.515885   2.751102   1.486895   0.001149   0.464561   0.002474
  22   2  -6.484415   0.415454   1.671741   0.001490   0.325193   0.004583
  23   2  -5.349192  -0.896961   2.057692   0.000824   0.232280   0.003547
  24   2  -5.455058  -1.287317   1.321574   0.000451   0.139368   0.003236
  25   2  -5.484791   4.517855   0.542088   0.000985   0.418105   0.002357
  26   2  -6.050549   3.969457  -0.675986   0.001131   0.418105   0.002704
  27   2  -6.633566   2.987137  -0.868406   0.001365   0.464561   0.002939
  28   2  -6.932324   2.368276   0.356945   0.000785   0.325193   0.002412
  29   2  -4.025507   2.898638  -3.422710   0.000627   0.232280   0.002699
  30   2  -4.796473   1.517530  -3.450310   0.000843   0.278737   0.003024
  31   2  -5.920638   3.048260   2.213737   0.000674   0.278737   0.002417
  32   2  -2.650550   4.258185   2.518332   0.000522   0.139368   0.003743
  33   2  -5.820528   0.024114   2.372356   0.001186   0.278737   0.004256
  34   2  -2.424483   4.899826   1.430744   0.000573   0.185824   0.003082
  35   2  -6.375737   3.589046   0.540905   0.000879   0.464561   0.001891
  36   2  -5.992689  -0.613996   1.553950   0.000994   0.232280   0.004277
  37   3   2.407206   3.950416   3.036665   0.001564   0.371649   0.004209
  38   3   2.031714   4.578582   2.303119   0.001195   0.278737   0.004287
  39   3   2.066600   3.030414  -2.771720   0.000146   0.139368   0.001049
  40   3   0.093717   4.114871   2.654237   0.000680   0.185824   0.003658
  41   3   1.066211   4.258672   2.843184   0.001870   0.371649   0.005032
  42   3   3.183342   4.147078   2.290696   0.000949   0.325193   0.002919
  43   3   3.855366   3.872043   1.871512   0.000258   0.139368   0.001853
  44   3   3.383403   2.951509   3.312943   0.000449   0.185824   0.002418
  45   3   3.796193   2.332110   3.293529   0.000062   0.046456   0.001327
  46   3   3.627511   4.291850   1.246394   0.000275   0.185824   0.001479
  47   3   0.382756   4.556931   2.118053   0.000458   0.139368   0.003287
  48   3   1.508566   3.025297  -2.832785   0.000017   0.046456   0.000372
  49   3   3.639645   3.392506   2.773001   0.000500   0.232280   0.002152
  50   4   6.985458   0.785242  -2.208836   0.002216   0.418105   0.005301
  51   4   4.554013  -0.517297   3.470371   0.000807   0.278737   0.002894
  52   4   5.398112  -2.717897  -2.405971   0.001512   0.325193   0.004649
  53   4   7.244387  -1.472508   0.733559   0.001551   0.371649   0.004172
  54   4   5.200180   3.489263  -0.550189   0.000680   0.278737   0.002438
  55   4   4.317768   2.740623  -2.743248   0.000719   0.232280   0.003094
  56   4   5.049422   3.113278  -1.948207   0.001042   0.325193   0.003205
  57   4   6.129227   2.385409  -2.050437   0.001544   0.325193   0.004748
  58   4   6.612261  -2.283271   1.113828   0.001712   0.371649   0.004607
  59   4   4.922473  -3.325195  -1.760800   0.001281   0.278737   0.004595
  60   4   4.614695  -1.548341   3.167809   0.000992   0.278737   0.003558
  61   4   6.246288   1.664115  -2.624311   0.001082   0.232280   0.004656
  62   4   6.829337   1.777838  -1.732182   0.001277   0.278737   0.004581
  63   4   3.254647  -2.791713  -2.727652   0.001380   0.278737   0.004953
  64   4   4.363534  -2.929422  -2.600931   0.001442   0.278737   0.005172
  65   4   6.198154  -2.736764  -1.490016   0.001581   0.464561   0.003402
  66   4   7.035587  -2.114555  -0.313587   0.001438   0.464561   0.003095
  67   4   6.586337  -1.465383   2.000610   0.002014   0.371649   0.005420
  68   4   5.384289  -0.936240   3.131169   0.000931   0.232280   0.004009
  69   4   5.086645   0.257470   3.352314   0.001023   0.325193   0.003146
  70   4   6.341357  -1.848534  -2.440676   0.001341   0.418105   0.003207
  71   4   6.989236  -0.557971  -2.302023   0.001516   0.418105   0.003626
  72   4   7.475176  -0.045986  -1.383535   0.001665   0.464561   0.003583
  73   4   7.544246  -0.957827  -0.316996   0.000990   0.325193   0.003044
  74   4   5.216678   2.528954  -2.649686   0.000855   0.232280   0.003681
  75   4   5.708700   3.097441  -1.275204   0.000860   0.232280   0.003704
  76   4   6.391652  -2.854331  -0.408454   0.000893   0.278737   0.003203
  77   4   3.621149  -3.316734  -2.076680   0.000862   0.185824   0.004638
  78   4   3.748957  -1.514902   3.258512   0.000606   0.232280   0.002611
  79   4   5.703440  -1.805671   2.580893   0.001556   0.325193   0.004785
  80   4   4.828444   1.213541   3.221060   0.000154   0.092912   0.001660
  81   4   7.112790  -1.555549  -1.452991   0.001179   0.464561   0.002537
  82   4   6.002322  -0.710156   2.836683   0.001051   0.232280   0.004523
  83   5  -0.480366  -3.634740   3.311576   0.004412   0.240512   0.018345
  84   5  -0.735613  -5.679413   0.691772   0.001805   0.274871   0.006568
  85   5  -3.315089  -3.917942   2.070461   0.003221   0.309230   0.010417
  86   5   0.149399  -4.437659  -1.988163   0.001826   0.206154   0.008857
  87   5   0.314612  -3.055768   3.240013   0.005573   0.240512   0.023171
  88   5   0.511156  -3.916589   2.810670   0.006147   0.309230   0.019877
  89   5  -0.896858  -2.814866   3.554071   0.006740   0.343589   0.019617
  90   5  -1.429755  -2.161025   3.531534   0.004824   0.206154   0.023400
  91   5  -1.686304  -5.485663   1.289247   0.000797   0.274871   0.002900
  92   5  -2.697485  -4.786103   1.824547   0.001781   0.309230   0.005760
  93   5  -3.775657  -3.304843   1.776736   0.002074   0.206154   0.010060
  94   5   0.042010  -3.655893  -2.515020   0.000646   0.103077   0.006267
  95   5   0.181453  -5.047462  -1.253679   0.002324   0.240512   0.009664
  96   5  -0.242392  -5.545422  -0.369868   0.001693   0.274871   0.006160
  97   5   0.799004  -5.126682   0.817151   0.003912   0.206154   0.018974
  98   5   0.176868  -5.469321   0.699783   0.003388   0.274871   0.012325
  99   5  -0.608668  -5.342508   1.776818   0.005561   0.481025   0.011560
 100   5  -0.391414  -4.587558   2.707193   0.006239   0.377948   0.016508
 101   5  -1.430686  -4.001234   3.152717   0.007176   0.412307   0.017404
 102   5  -2.512038  -3.909898   2.805689   0.005742   0.377948   0.015193
 103   5  -3.166617  -2.904785   2.700072   0.005698   0.309230   0.018427
 104   5   0.517889  -3.812199  -2.215782   0.001101   0.103077   0.010684
 105   5   0.818164  -4.504550  -1.437333   0.003881   0.206154   0.018826
 106   5   0.570820  -4.795192   1.957493   0.007397   0.377948   0.019573
 107   5  -2.191168  -2.833125   3.322963   0.007469   0.377948   0.019763
 108   5  -1.729893  -4.906977   2.333313   0.004574   0.412307   0.011094
 109   5   0.710530  -5.152626  -0.317965   0.005585   0.343589   0.016256
 110   6  -0.631587  -0.115427  -5.115893  -0.002068   0.412182  -0.005018
 111   6  -0.940324   1.548030  -4.518933  -0.001112   0.392554  -0.002833
 112   6  -2.122657  -0.304123  -4.602594  -0.001096   0.314043  -0.003489
 113   6  -0.644335  -1.821092  -4.343300  -0.001126   0.333671  -0.003376
 114   6   0.071607   1.309155  -4.591596  -0.002388   0.490692  -0.004866
 115   6  -1.505902   0.607673  -4.870308  -0.001627   0.412182  -0.003946
 116   6  -1.208375  -0.936414  -4.873358  -0.001252   0.294415  -0.004253
 117   6   0.142381  -1.431604  -4.520040  -0.001953   0.431809  -0.004524
 118   6   0.317114  -0.080102  -4.921493  -0.002058   0.353299  -0.005826
 119   6  -1.817299  -1.361938  -4.359184  -0.000867   0.274788  -0.003157
 120   7  -4.268517   1.780927   4.371661  -0.002780   0.510320  -0.005448
 121   7  -4.281576   0.089025   3.779368  -0.001036   0.333671  -0.003106
 122   7  -5.392274   1.875483   3.589589  -0.001125   0.412182  -0.002729
 123   7  -3.987882   3.424455   3.659491  -0.000912   0.353299  -0.002582
 124   7  -2.905861   3.401044   3.650984  -0.000830   0.294415  -0.002820
 125   7  -3.376103   0.570217   4.251174  -0.002222   0.431809  -0.005147
 126   7  -5.040145   0.801208   3.761469  -0.001235   0.431809  -0.002860
 127   7  -4.864225   2.894341   3.654437  -0.001271   0.412182  -0.003084
 128   7  -3.262415   2.660753   4.265540  -0.001988   0.392554  -0.005064
 129   7  -3.054868   1.596309   4.459214  -0.001944   0.333671  -0.005827
 130   8  -3.549261   5.647494  -1.676929  -0.002777   0.471065  -0.005895
 131   8  -4.249940   4.560402  -2.634473  -0.001108   0.392554  -0.002824
 132   8  -2.317238   4.391228  -2.853365  -0.001541   0.372926  -0.004132
 133   8  -2.866472   5.644765   0.188984  -0.001451   0.431809  -0.003361
 134   8  -4.701997   5.306903  -0.816168  -0.001072   0.372926  -0.002875
 135   8  -3.303160   4.609288  -2.900248  -0.001540   0.412182  -0.003736
 136   8  -2.374454   5.306742  -2.105797  -0.002671   0.431809  -0.006185
 137   8  -2.508267   5.765506  -0.919109  -0.002583   0.431809  -0.005981
 138   8  -3.910600   5.676641  -0.238111  -0.001462   0.412182  -0.003548
 139   8  -4.659347   5.037941  -1.809152  -0.001289   0.372926  -0.003456
 140   9  -6.937675  -0.160102  -1.978892  -0.003053   0.529948  -0.005760
 141   9  -5.887721   0.369269  -3.029255  -0.001112   0.412182  -0.002698
 142   9  -7.128662   1.339894  -1.565666  -0.001124   0.392554  -0.002864
 143   9  -7.106806  -0.021435   0.181320  -0.000791   0.353299  -0.002240
 144   9  -6.476077  -1.188841  -0.074714  -0.001531   0.431809  -0.003545
 145   9  -5.701775  -0.687910  -2.732136  -0.002447   0.490692  -0.004987
 146   9  -6.594818   1.069106  -2.516237  -0.001284   0.412182  -0.003115
 147   9  -7.382078   0.687445  -0.744739  -0.001775   0.471065  -0.003768
 148   9  -7.088866  -0.584267  -0.775633  -0.001785   0.353299  -0.005052
 149   9  -6.352713  -1.254918  -1.567368  -0.002745   0.431809  -0.006358
 150  10   1.875699   5.615025  -0.645788  -0.002396   0.451437  -0.005307
 151  10   2.133516   4.423353  -2.152664  -0.001090   0.392554  -0.002777
 152  10   3.172086   5.029860  -0.264244  -0.001163   0.353299  -0.003293
 153  10   1.803078   5.390664   1.076893  -0.000525   0.294415  -0.001782
 154  10   1.181150   4.724688  -2.036698  -0.002247   0.490692  -0.004579
 155  10   2.757738   4.963729  -1.312087  -0.001708   0.471065  -0.003625
 156  10   2.572543   5.377266   0.490963  -0.001211   0.412182  -0.002938
 157  10   0.875486   5.509342   0.668186  -0.001875   0.490692  -0.003821
 158  10   0.906432   5.528615  -0.818842  -0.002365   0.392554  -0.006026
 159  11   1.221162   1.265955   5.029590  -0.002271   0.471065  -0.004821
 160  11   2.196472   0.370359   4.622898  -0.000867   0.294415  -0.002944
 161  11   0.823800  -0.012838   4.598510  -0.001206   0.294415  -0.004095
 162  11   0.784311   3.090751   4.215113  -0.000698   0.353299  -0.001975
 163  11   2.650462   2.281421   4.329705  -0.000652   0.333671  -0.001953
 164  11   1.637046  -0.275560   4.398060  -0.000872   0.274788  -0.003173
 165  11   0.204171   0.696104   4.718170  -0.001987   0.353299  -0.005623
 166  11   0.331115   2.149029   4.704067  -0.002039   0.431809  -0.004723
 167  11   1.688536   2.683360   4.563173  -0.001331   0.451437  -0.002949
 168  11   2.451078   1.354966   4.703908  -0.001405   0.451437  -0.003112
 169  12   4.042025  -4.229451   1.404655  -0.002759   0.471065  -0.005856
 170  12   4.459153  -2.922192   2.630978  -0.000513   0.314043  -0.001632
 171  12   5.524494  -3.671571   1.077823  -0.001052   0.431809  -0.002437
 172  12   4.118351  -4.132187  -0.705392  -0.000808   0.353299  -0.002288
 173  12   3.648821  -3.424834   2.415419  -0.001562   0.392554  -0.003979
 174  12   5.046741  -3.481442   1.982725  -0.001289   0.431809  -0.002985
 175  12   5.092918  -4.077108   0.112929  -0.001397   0.490692  -0.002847
 176  12   3.861127  -4.425029   0.254637  -0.001748   0.353299  -0.004947
 177  13   4.844322  -0.139095  -4.596314  -0.002343   0.471065  -0.004974
 178  13   5.550225   1.127045  -3.831491  -0.000663   0.372926  -0.001778
 179  13   3.732087   1.597890  -4.038417  -0.001167   0.372926  -0.003129
 180  13   3.801961  -1.753716  -4.022438  -0.000982   0.392554  -0.002501
 181  13   5.831896  -0.878084  -3.781265  -0.000750   0.372926  -0.002011
 182  13   4.695090   1.329459  -4.191044  -0.001190   0.392554  -0.003032
 183  13   3.731127   0.495523  -4.628807  -0.002288   0.431809  -0.005298
 184  13   3.736102  -0.804992  -4.578551  -0.002159   0.431809  -0.005000
 185  13   4.964491  -1.564673  -3.994477  -0.001213   0.471065  -0.002576
 186  13   5.884932   0.141054  -3.918098  -0.000941   0.372926  -0.002523
 187  14   7.524378   2.018120   1.458190  -0.003447   0.608459  -0.005665
 188  14   6.188146   2.971813   1.728458  -0.001227   0.353299  -0.003472
 189  14   6.845252   2.834969  -0.175057  -0.000643   0.333671  -0.001926
 190  14   7.867223   1.109919  -0.114943  -0.000747   0.353299  -0.002116
 191  14   7.495833   0.119698   1.800796  -0.000715   0.372926  -0.001918
 192  14   6.198383   1.275412   2.907338  -0.000668   0.353299  -0.001890
 193  14   6.520992   3.140258   0.797463  -0.001657   0.490692  -0.003377
 194  14   7.568601   2.117210  -0.033041  -0.001662   0.490692  -0.003387
 195  14   7.941967   0.679509   0.903835  -0.001784   0.510320  -0.003495
 196  14   7.138658   0.889215   2.421696  -0.001767   0.490692  -0.003601
 197  14   6.381130   2.240852   2.450403  -0.001815   0.490692  -0.003698
 198  15  -3.645520  -4.892443  -1.903940  -0.007840   0.431809  -0.018156
 199  15  -3.824806  -4.916100   0.338121  -0.005217   0.392554  -0.013291
 200  15  -2.089074  -5.852150  -0.840521  -0.006448   0.451437  -0.014283
 201  15  -1.501113  -4.516161  -2.731880  -0.006242   0.451437  -0.013828
 202  15  -3.403439  -3.579290  -2.748470  -0.006451   0.333671  -0.019335
 203  15  -3.463094  -5.472056  -0.855374  -0.007818   0.451437  -0.017318
 204  15  -2.567146  -5.349466  -2.083335  -0.008065   0.471065  -0.017120
 205  15  -2.590205  -4.214642  -2.918426  -0.008030   0.451437  -0.017787
 206  15  -4.123912  -3.962347  -1.998061  -0.007089   0.353299  -0.020066
 207  15  -4.417877  -4.327813  -0.878550  -0.007872   0.431809  -0.018230
 208  15  -2.884711  -5.610154   0.156865  -0.005040   0.392554  -0.012839
 209  15  -1.414567  -5.440876  -1.799005  -0.004506   0.372926  -0.012083
 210  15  -4.349506  -4.088852   0.222901  -0.005013   0.333671  -0.015023
 211   1  -1.371287   2.390825  -3.548624  -0.000088   0.028218  -0.003104
 212   2  -1.787648   2.618657  -3.406642  -0.000083   0.028218  -0.002956
 213   6  -1.293388   2.175972  -3.749365  -0.000160   0.028218  -0.005677
 214   1  -3.106405  -0.413217  -3.645513  -0.000081   0.028218  -0.002865
 215   2  -3.500499  -0.149401  -3.502287  -0.000043   0.028218  -0.001511
 216   6  -2.873295  -0.377241  -3.837587  -0.000098   0.028218  -0.003490
 217   1  -1.535983   2.857484  -3.215703  -0.000095   0.027207  -0.003505
 218   2  -1.942644   3.131015  -3.143566  -0.000086   0.027207  -0.003179
 219   8  -2.014842   3.407843  -3.044034  -0.000118   0.027207  -0.004332
 220   1  -3.696811  -0.686304  -3.192902  -0.000098   0.025360  -0.003880
 221   2  -4.126696  -0.450922  -3.121225  -0.000084   0.025360  -0.003302
 222   9  -4.409654  -0.498266  -3.025424  -0.000088   0.025360  -0.003482
 223   2  -1.937185   2.968826  -3.278139  -0.000012   0.033640  -0.000344
 224   1  -1.367399   2.580848  -3.453469  -0.000026   0.033640  -0.000768
 225   2  -3.906094  -0.229088  -3.350605  -0.000020   0.077808  -0.000259
 226   1  -3.347804  -0.664586  -3.459001  -0.000093   0.077808  -0.001201
 227   1   0.435966   2.324686  -3.341310  -0.000140   0.028904  -0.004854
 228   3   0.829816   2.517011  -3.110351  -0.000106   0.028904  -0.003652
 229   6   0.391693   2.114308  -3.556544  -0.000146   0.028904  -0.005057
 230   1   0.383988   2.968683  -2.840465  -0.000120   0.029227  -0.004120
 231   3   0.785367   3.208444  -2.676538  -0.000094   0.029227  -0.003226
 232  10   0.834564   3.475957  -2.542169  -0.000098   0.029227  -0.003356
 233   3   0.929509   2.903980  -2.911850  -0.000058   0.081655  -0.000707
 234   1   0.299037   2.662508  -3.153090  -0.000163   0.081655  -0.002000
 235   1   1.000950  -2.603211  -2.664349   0.000562   0.113874   0.004938
 236   4   1.826098  -2.569582  -2.539705   0.000772   0.113874   0.006782
 237   5   0.928986  -2.994670  -2.403041   0.001225   0.113874   0.010758
 238   1   1.024679  -2.097881  -3.146447  -0.000028   0.068429  -0.000405
 239   4   1.847265  -2.055700  -3.018548   0.000170   0.068429   0.002486
 240   6   0.947254  -1.920777  -3.383575  -0.000177   0.068429  -0.002592
 241   4   2.264939  -2.430141  -2.881655   0.000346   0.090571   0.003821
 242   1   1.084264  -2.362433  -3.026332   0.000229   0.090571   0.002523
 243   1  -0.248850  -2.644590  -3.202368  -0.000009   0.005974  -0.001443
 244   5  -0.296960  -3.019972  -2.920094   0.000005   0.005974   0.000801
 245   6  -0.254230  -2.436887  -3.423829  -0.000038   0.005974  -0.006386
 246   5   0.042562  -3.322529  -2.647888   0.000693   0.139212   0.004979
 247   1   0.292971  -2.731361  -2.944289   0.000472   0.152309   0.003096
 248   1  -2.348621  -2.012492  -3.445613  -0.000316   0.032520  -0.009705
 249   6  -2.164511  -1.868774  -3.640172  -0.000274   0.032520  -0.008435
 250  15  -2.483919  -2.602807  -3.165917  -0.000682   0.032520  -0.020982
 251   6  -2.292572  -1.172812  -3.993170  -0.000588   0.119272  -0.004932
 252   1  -2.685689  -1.053809  -3.703229  -0.000625   0.145717  -0.004288
 253   6  -0.578509   2.016075  -3.912730  -0.000661   0.125420  -0.005269
 254   1  -0.334641   2.284387  -3.555130  -0.000709   0.153228  -0.004630
 255   6   0.271307  -2.065910  -3.666367  -0.000277   0.082062  -0.003373
 256   1   0.152177  -2.370055  -3.329554  -0.000196   0.100256  -0.001950
 257   1  -0.512566   3.344879  -2.581709  -0.000636   0.163427  -0.003892
 258   8  -1.058823   3.829742  -2.395681  -0.000655   0.163427  -0.004009
 259  10  -0.024561   3.797720  -2.246269  -0.000630   0.163427  -0.003855
 260   8  -1.733046   3.819494  -2.784624  -0.000608   0.164657  -0.003693
 261   1  -1.077182   2.982459  -3.154269  -0.000255   0.232110  -0.001100
 262   1  -3.588996  -1.620407  -2.766701  -0.001297   0.146394  -0.008857
 263   9  -4.268146  -1.353986  -2.557575  -0.000959   0.146394  -0.006550
 264  15  -3.653594  -2.248325  -2.537414  -0.002542   0.146394  -0.017362
 265   9  -4.620851  -0.721072  -2.910906  -0.000391   0.118404  -0.003303
 266   1  -3.603632  -1.158707  -3.137287  -0.000223   0.166902  -0.001334
 267  10   0.725142   3.752447  -2.440613  -0.000276   0.103552  -0.002665
 268   1  -0.052708   3.103348  -2.889970  -0.000151   0.146141  -0.001031
 269  15  -3.185498  -2.811061  -2.873706  -0.003156   0.195723  -0.016125
 270   1  -2.837584  -1.984875  -3.241937  -0.001653   0.239118  -0.006912
 271   2  -1.781756   3.570818   2.850440   0.000061   0.066028   0.000927
 272   3  -0.960111   3.477509   2.881725   0.000123   0.066028   0.001863
 273   7  -1.928992   3.410977   3.063944  -0.000106   0.066028  -0.001601
 274   2  -1.063503   4.555981   1.355199   0.000088   0.068638   0.001279
 275   3  -0.245783   4.590804   1.478574   0.000043   0.068638   0.000628
 276  10  -0.124050   4.745795   1.245616  -0.000107   0.068638  -0.001565
 277   3  -0.405706   4.244828   2.169637   0.000788   0.449149   0.001755
 278   2  -1.615947   4.108509   2.303294   0.000919   0.449149   0.002045
 279   2  -3.851947  -0.948943   2.865821   0.000374   0.056569   0.006606
 280   5  -3.353645  -1.604605   2.775865   0.001133   0.056569   0.020026
 281   7  -3.824360  -0.721266   3.065139   0.000044   0.056569   0.000770
 282   2  -4.607920  -2.136571   0.996439   0.000295   0.073772   0.003994
 283   5  -4.184811  -2.847441   1.054586   0.000141   0.073772   0.001907
 284  15  -4.256814  -3.011814   0.785781  -0.000313   0.073772  -0.004243
 285   5  -3.491829  -2.276234   2.551679   0.003740   0.268969   0.013903
 286   5  -4.091217  -2.698284   1.582534   0.002223   0.268969   0.008264
 287   2  -4.453458  -1.503930   2.048266   0.002866   0.590826   0.004850
 288   6  -2.662162  -0.010976  -4.101223  -0.000706   0.217650  -0.003245
 289   6  -1.886543   1.354266  -4.122175  -0.002431   0.448630  -0.005420
 290   2  -3.295381   0.996816  -3.722889  -0.000242   0.593372  -0.000409
 291   2  -2.312776   2.482935  -3.609493   0.000096   0.306676   0.000313
 292   7  -2.581114   3.602127   3.204492  -0.000119   0.068317  -0.001747
 293   7  -3.654299   3.809223   3.070368  -0.000247   0.151282  -0.001633
 294   7  -4.904231   3.361867   2.960839  -0.000319   0.151282  -0.002107
 295   7  -5.638350   2.250347   2.954055  -0.000354   0.151282  -0.002341
 296   7  -5.559717   0.924252   3.052762  -0.000233   0.151282  -0.001538
 297   7  -4.700138  -0.080035   3.217033  -0.000284   0.151282  -0.001875
 298   2  -2.875143   3.937520   2.810731   0.000022   0.150136   0.000148
 299   2  -4.362361   3.908133   2.646313  -0.000004   0.150136  -0.000026
 300   2  -5.537897   2.984510   2.577398  -0.000120   0.150136  -0.000798
 301   2  -5.926268   1.540240   2.631862  -0.000031   0.150136  -0.000204
 302   2  -5.370384   0.159505   2.787675   0.000030   0.150136   0.000199
 303   2  -4.421432  -0.583606   2.944239   0.000028   0.083464   0.000331
 304   2  -1.581208   4.851046   0.847844  -0.000041   0.085103  -0.000481
 305   8  -1.659199   4.995505   0.589783  -0.000218   0.085103  -0.002565
 306  10  -0.628883   4.891133   0.702794  -0.000046   0.085103  -0.000540
 307   8  -2.482924   3.681291  -3.112109  -0.000172   0.070718  -0.002432
 308   8  -3.618025   3.758367  -3.093568  -0.000433   0.157786  -0.002743
 309   8  -4.755757   4.108179  -2.406883  -0.000379   0.157786  -0.002402
 310   8  -5.170496   4.624737  -1.202933  -0.000448   0.157786  -0.002841
 311   8  -4.682564   5.084253  -0.003305  -0.000453   0.157786  -0.002871
 312   8  -3.503349   5.287649   0.672283  -0.000297   0.157786  -0.001883
 313   8  -2.367450   5.221214   0.679947  -0.000202   0.070718  -0.002858
 314   2  -2.924133   3.290733  -3.247315  -0.000423   0.154294  -0.002744
 315   2  -4.414232   3.517515  -2.915099  -0.000146   0.154294  -0.000943
 316   2  -5.337515   4.032761  -1.790704  -0.000180   0.154294  -0.001166
 317   2  -5.293986   4.613249  -0.361253  -0.000221   0.154294  -0.001430
 318   2  -4.302503   5.007495   0.753971  -0.000152   0.154294  -0.000987
 319   2  -2.792609   5.044699   1.071819  -0.000148   0.154294  -0.000959
 320   2  -5.173619  -1.794432   0.491271  -0.000096   0.082943  -0.001156
 321   9  -5.360943  -1.747336   0.254994  -0.000225   0.082943  -0.002707
 322  15  -4.682810  -2.590909   0.253528  -0.000518   0.082943  -0.006244
 323   9  -5.932953  -1.293140   0.445545  -0.000165   0.069711  -0.002362
 324   9  -6.552657  -0.389929   0.697570  -0.000303   0.155135  -0.001953
 325   9  -7.046918   0.819572   0.326618  -0.000395   0.155135  -0.002549
 326   9  -7.049934   1.705455  -0.702943  -0.000416   0.155135  -0.002679
 327   9  -6.560428   1.893248  -1.955904  -0.000350   0.155135  -0.002255
 328   9  -5.785321   1.303568  -2.902624  -0.000365   0.155135  -0.002351
 329   9  -5.052259   0.185680  -3.142915  -0.000555   0.155135  -0.003578
 330   2  -5.946597  -0.930461   0.923906  -0.000185   0.152465  -0.001214
 331   2  -6.701350   0.394740   0.967563  -0.000116   0.152465  -0.000760
 332   2  -6.996683   1.639191   0.135797  -0.000150   0.152465  -0.000984
 333   2  -6.707756   2.276848  -1.219795  -0.000154   0.152465  -0.001012
 334   2  -5.956701   2.038167  -2.526187  -0.000074   0.152465  -0.000486
 335   2  -5.060998   1.024041  -3.231154  -0.000258   0.152465  -0.001693
 336   2  -4.463628  -0.063115  -3.220933  -0.000185   0.085167  -0.002176
 337  10  -0.084365   5.015167   0.986333  -0.000031   0.095488  -0.000328
 338   2  -1.473149   4.837431   1.252124   0.000361   0.135191   0.002674
 339  15  -4.440581  -3.166271   0.556535  -0.000582   0.105868  -0.005502
 340   2  -5.113843  -1.936610   0.826141   0.000361   0.149901   0.002408
 341   3   1.855339  -1.564901   3.046823   0.000551   0.115929   0.004753
 342   4   2.278510  -1.781000   2.890279   0.000454   0.115929   0.003919
 343   5   1.361327  -2.184676   2.872607   0.001721   0.115929   0.014841
 344   3   2.712425   3.219221  -2.476288  -0.000009   0.026965  -0.000320
 345   4   3.128071   2.964277  -2.570661   0.000030   0.026965   0.001117
 346  10   2.628912   3.484435  -2.355182  -0.000044   0.026965  -0.001635
 347   3   4.013475   4.062136   0.282394   0.000006   0.026965   0.000237
 348   4   4.412092   3.796159   0.151911   0.000064   0.026965   0.002356
 349  10   3.813288   4.251761   0.156110  -0.000031   0.026965  -0.001145
 350   3   3.706931   1.685811   3.534352   0.000016   0.026764   0.000588
 351   4   4.108675   1.444878   3.369398   0.000045   0.026764   0.001663
 352  11   3.475588   1.644680   3.727356  -0.000015   0.026764  -0.000554
 353   3   2.174120  -1.051507   3.406294   0.000042   0.026764   0.001562
 354   4   2.596025  -1.256436   3.243024   0.000105   0.026764   0.003931
 355  11   2.080367  -0.846929   3.610793  -0.000003   0.026764  -0.000122
 356   3   2.718962   2.510772  -2.936451   0.000002   0.026878   0.000086
 357   4   3.140836   2.305711  -3.099652  -0.000007   0.026878  -0.000257
 358  13   3.232817   2.100753  -3.303643  -0.000042   0.026878  -0.001567
 359   3   4.478616   3.716498   0.662326   0.000060   0.025226   0.002389
 360   4   4.919668   3.525049   0.538071   0.000018   0.025226   0.000710
 361  14   5.181215   3.432804   0.658231  -0.000012   0.025226  -0.000484
 362   3   4.289643   2.026009   3.068305   0.000039   0.025226   0.001527
 363   4   4.728141   1.811717   2.976560   0.000015   0.025226   0.000614
 364  14   5.006910   1.873531   2.877457  -0.000014   0.025226  -0.000539
 365   4   3.202383   2.578847  -2.931128   0.000140   0.088440   0.001580
 366   3   2.654572   2.979194  -2.690615   0.000090   0.088440   0.001013
 367   4   4.773375   3.657888   0.290315   0.000123   0.057048   0.002158
 368   3   4.182801   3.974424   0.540580   0.000114   0.057048   0.001995
 369   4   4.546541   1.637416   3.162747   0.000152   0.084008   0.001809
 370   3   3.911081   1.882768   3.393200   0.000151   0.084008   0.001793
 371   4   2.779723  -1.576344   3.119933   0.000143   0.038756   0.003681
 372   3   2.151382  -1.279025   3.280720   0.000107   0.038756   0.002763
 373   3   1.482548  -1.285017   3.332265   0.000203   0.059838   0.003395
 374   5   0.984243  -1.895257   3.146990   0.001059   0.059838   0.017697
 375  11   1.404800  -1.072899   3.537483   0.000044   0.059838   0.000732
 376   5   0.939588  -2.428292   3.100228   0.000978   0.043815   0.022326
 377   3   1.598599  -1.490473   3.295246   0.000202   0.048366   0.004172
 378   3   1.790153   1.962373  -3.256973  -0.000227   0.165040  -0.001377
 379   6   1.295518   1.554104  -3.642123  -0.000537   0.165040  -0.003251
 380  13   2.349696   1.546147  -3.552190  -0.000279   0.165040  -0.001688
 381   6   0.539492   1.886316  -3.774456  -0.000490   0.125710  -0.003897
 382   3   1.329152   2.422708  -3.200580  -0.000004   0.177346  -0.000020
 383   3  -0.482724   3.286925   3.199023   0.000024   0.088011   0.000268
 384   7  -1.452993   3.115523   3.266391   0.000055   0.088011   0.000625
 385  11  -0.406834   3.109823   3.438314  -0.000139   0.088011  -0.001574
 386   7  -2.007850   3.353961   3.319934   0.000030   0.040974   0.000734
 387   3  -0.577817   3.566136   3.132136   0.000234   0.058140   0.004030
 388  10   2.160397   3.746473  -2.402274  -0.000137   0.068609  -0.001996
 389  10   1.306637   3.736476  -2.494951  -0.000180   0.068609  -0.002621
 390   3   1.751981   3.348578  -2.576316  -0.000386   0.150701  -0.002563
 391  10   0.558592   4.978600   1.379633  -0.000074   0.079378  -0.000926
 392  10   1.817406   4.988383   1.500603  -0.000433   0.182119  -0.002380
 393  10   3.129394   4.731550   0.782230  -0.000585   0.182119  -0.003211
 394   3   0.981910   4.750630   1.802452  -0.000000   0.168817  -0.000002
 395   3   2.665290   4.639296   1.570766  -0.000224   0.168817  -0.001328
 396   3   3.680567   4.329952   0.665110  -0.000065   0.096978  -0.000668
 397  11   1.716636  -0.762223   3.829263  -0.000050   0.022540  -0.002225
 398   3   1.878711  -1.017044   3.510044   0.000020   0.027538   0.000712
 399  11   3.148797   2.003249   3.946645  -0.000087   0.066964  -0.001292
 400  11   2.524137   2.877830   3.872761  -0.000253   0.147498  -0.001715
 401  11   1.343870   3.418884   3.745278  -0.000125   0.147498  -0.000847
 402  11   0.276678   3.319877   3.636422  -0.000103   0.066964  -0.001534
 403   3   3.191484   2.483674   3.607112  -0.000152   0.147940  -0.001025
 404   3   2.118943   3.475633   3.485811   0.000101   0.147940   0.000681
 405   3   0.670026   3.639553   3.334765   0.000097   0.147940   0.000655
 406  13   3.033702   1.793524  -3.596670  -0.000247   0.130510  -0.001894
 407   3   2.323559   2.496122  -3.074731   0.000204   0.183987   0.001109
 408  14   5.344331   3.346633   1.071762  -0.000232   0.197433  -0.001177
 409  14   5.258413   2.591278   2.271280  -0.001085   0.403725  -0.002686
 410   3   4.289050   3.515692   1.695967   0.000557   0.541178   0.001029
 411   3   4.180962   2.536713   2.975910   0.000535   0.278064   0.001924
 412   4   2.820181  -3.562904  -1.375700   0.000451   0.087187   0.005177
 413   5   1.885466  -3.865534  -1.186911   0.002228   0.087187   0.025555
 414  12   2.866518  -3.725330  -1.121665   0.000238   0.087187   0.002726
 415   4   2.579862  -2.161396   2.731409   0.000179   0.087187   0.002052
 416   5   1.659799  -2.549474   2.669790   0.001516   0.087187   0.017388
 417  12   2.646670  -2.443207   2.635586   0.000085   0.087187   0.000976
 418   5   1.149140  -3.626827  -1.995749   0.006074   0.458071   0.013260
 419   4   2.567863  -3.264775  -2.029214   0.002832   0.511578   0.005536
 420   5   1.207414  -2.634760   2.965355   0.000721   0.041161   0.017521
 421   4   2.505947  -2.022458   2.970288   0.000148   0.045983   0.003218
 422   4   2.390252  -1.905235  -3.230366   0.000070   0.086992   0.000806
 423   6   1.474301  -1.665000  -3.482807   0.000020   0.086992   0.000235
 424  13   2.525495  -1.736707  -3.447775  -0.000122   0.086992  -0.001401
 425   6   0.928956  -1.857338  -3.645061  -0.000008   0.038285  -0.000209
 426   4   2.265714  -2.170168  -3.188545   0.000177   0.054286   0.003255
 427  10   3.686711   4.391158  -0.283645  -0.000363   0.209193  -0.001734
 428  10   3.125204   4.033446  -1.634151  -0.001457   0.429581  -0.003392
 429   4   4.393357   3.631031  -0.970994   0.000699   0.571669   0.001224
 430   4   3.638525   3.136463  -2.425843   0.000614   0.294681   0.002084
 431  11   2.275042  -0.515706   3.890110  -0.000230   0.207876  -0.001106
 432  11   3.049922   0.756004   4.009241  -0.001205   0.426581  -0.002824
 433   4   3.456455  -0.577640   3.501793   0.000892   0.568317   0.001569
 434   4   4.242493   0.928177   3.517915   0.000641   0.292797   0.002188
 435  12   3.599213  -3.785646  -1.192886   0.000019   0.071555   0.000269
 436  12   4.727433  -3.715709  -0.960394  -0.000181   0.160318  -0.001130
 437  12   5.723713  -3.409247  -0.036973  -0.000213   0.160318  -0.001326
 438  12   5.883772  -2.964242   1.272818  -0.000147   0.160318  -0.000916
 439  12   5.135987  -2.579824   2.382882  -0.000149   0.160318  -0.000930
 440  12   3.814973  -2.428009   2.796494  -0.000355   0.160318  -0.002213
 441   4   4.071017  -3.536563  -1.484187   0.000210   0.155486   0.001352
 442   4   5.490863  -3.335620  -0.860195   0.000020   0.155486   0.000130
 443   4   6.179845  -2.887873   0.470420  -0.000035   0.155486  -0.000226
 444   4   5.829660  -2.393678   1.912242   0.000120   0.155486   0.000774
 445   4   4.597008  -2.074174   2.820093  -0.000081   0.155486  -0.000524
 446   4   3.331741  -2.018060   2.954203   0.000043   0.087420   0.000495
 447  13   3.737636   2.023626  -3.508549  -0.000087   0.071942  -0.001212
 448  13   4.878862   1.893526  -3.394426  -0.000245   0.161003  -0.001523
 449  13   5.961326   1.024769  -3.276549  -0.000193   0.161003  -0.001200
 450  13   6.257568  -0.335531  -3.229785  -0.000255   0.161003  -0.001585
 451  13   5.635553  -1.581091  -3.274976  -0.000268   0.161003  -0.001662
 452  13   4.372512  -2.156764  -3.391982  -0.000122   0.161003  -0.000756
 453  13   3.234364  -2.002045  -3.506120  -0.000084   0.071942  -0.001162
 454   4   4.150599   2.269226  -3.133478  -0.000195   0.156527  -0.001243
 455   4   5.621181   1.757666  -2.981976   0.000063   0.156527   0.000405
 456   4   6.442464   0.429837  -2.883900   0.000027   0.156527   0.000175
 457   4   6.248404  -1.122451  -2.882964  -0.000021   0.156527  -0.000135
 458   4   5.125492  -2.207343  -2.979584   0.000022   0.156527   0.000143
 459   4   3.574210  -2.341305  -3.130696   0.000074   0.156527   0.000474
 460  14   5.465157   1.594222   2.933305  -0.000098   0.069353  -0.001416
 461  14   6.034701   0.631094   2.904747  -0.000280   0.154213  -0.001814
 462  14   6.848374  -0.213821   2.230801  -0.000130   0.154213  -0.000841
 463  14   7.501274  -0.359076   1.054887  -0.000253   0.154213  -0.001638
 464  14   7.719652   0.256233  -0.129957  -0.000285   0.154213  -0.001848
 465  14   7.411946   1.374119  -0.826950  -0.000202   0.154213  -0.001308
 466  14   6.707172   2.525873  -0.743856  -0.000209   0.154213  -0.001356
 467  14   5.900828   3.228589   0.084485  -0.000331   0.154213  -0.002146
 468   4   5.311286   1.029433   3.060338  -0.000143   0.151797  -0.000944
 469   4   6.170254  -0.178754   2.725912   0.000005   0.151797   0.000036
 470   4   7.040864  -0.766554   1.627771   0.000157   0.151797   0.001036
 471   4   7.558084  -0.487513   0.226342  -0.000019   0.151797  -0.000123
 472   4   7.505056   0.541372  -0.890783  -0.000029   0.151797  -0.000194
 473   4   6.904013   1.888710  -1.255215   0.000074   0.151797   0.000491
 474   4   6.006960   2.989589  -0.714155  -0.000065   0.151797  -0.000428
 475   4   5.305485   3.441139   0.196947  -0.000028   0.084730  -0.000330
 476   5  -0.569981  -3.287693  -2.829921  -0.000158   0.066494  -0.002380
 477   6  -0.539130  -2.654069  -3.269227  -0.000243   0.066494  -0.003659
 478  15  -0.860334  -3.425579  -2.859273  -0.000460   0.066494  -0.006922
 479   6  -0.279843  -2.396718  -3.602769  -0.000029   0.024749  -0.001170
 480   5  -0.359484  -3.270293  -2.908524   0.000087   0.030202   0.002897
 481   5  -1.358376  -0.848699   3.388270   0.003460   0.286613   0.012072
 482   7  -1.898191   0.031827   3.591252   0.000064   0.286613   0.000225
 483  11  -0.837618  -0.043786   3.717507   0.000034   0.286613   0.000118
 484   7  -3.599885  -0.576484   3.444618   0.000317   0.266111   0.001191
 485   7  -2.717467  -0.174408   3.771323   0.000005   0.266111   0.000017
 486   5  -2.452357  -1.657271   3.277769   0.009054   0.658690   0.013746
 487  11  -0.047869  -0.373816   4.072869  -0.000045   0.313674  -0.000144
 488  11   1.047532  -0.910575   3.892564   0.000256   0.313674   0.000816
 489   5  -0.159864  -1.819661   3.480144   0.010799   0.771318   0.014001
 490  12   2.727257  -2.908251   2.604291   0.000495   0.236699   0.002093
 491  12   2.841239  -3.858841   1.821409   0.000446   0.476285   0.000936
 492  12   2.924335  -4.343447   0.401277   0.000686   0.476285   0.001439
 493  12   2.926759  -4.071717  -0.805237   0.000767   0.236699   0.003240
 494   5   1.371281  -3.555448   2.486175   0.009704   0.583123   0.016642
 495   5   1.504612  -4.574631   1.192275   0.010393   0.583123   0.017823
 496   5   1.543652  -4.560692  -0.459686   0.010009   0.583123   0.017165
 497  15  -0.887361  -4.083517  -2.631005  -0.000484   0.081021  -0.005968
 498  15  -0.816305  -4.986339  -1.833164  -0.001486   0.175192  -0.008481
 499  15  -1.300884  -5.637226  -0.613658  -0.001810   0.175192  -0.010331
 500  15  -2.289162  -5.521267   0.461296  -0.001915   0.175192  -0.010929
 501  15  -3.383805  -4.685084   0.959515  -0.001701   0.175192  -0.009712
 502  15  -4.083781  -3.708469   0.845753  -0.000511   0.081021  -0.006313
 503   5  -0.423735  -4.284306  -2.228284  -0.000327   0.173868  -0.001883
 504   5  -0.578113  -5.315032  -1.034223  -0.000525   0.173868  -0.003017
 505   5  -1.418274  -5.620171   0.274605  -0.001103   0.173868  -0.006342
 506   5  -2.606434  -5.077041   1.171989  -0.001044   0.173868  -0.006006
 507   5  -3.664895  -3.904008   1.297138  -0.000658   0.173868  -0.003782
 508  13   2.584678  -1.577730  -3.880028   0.000192   0.252853   0.000758
 509  13   2.634533  -0.543276  -4.388610  -0.000723   0.505665  -0.001430
 510  13   2.631200   0.853989  -4.237534  -0.000740   0.505665  -0.001464
 511   6   1.104748  -1.185962  -4.228577  -0.000675   0.505665  -0.001335
 512   6   1.142079   0.178747  -4.562283  -0.001031   0.505665  -0.002039
 513   6   1.118417   1.272060  -4.194395  -0.000249   0.252853  -0.000986
 514  15  -2.294026  -3.094018  -3.234681  -0.002902   0.278813  -0.010408
 515  15  -1.292119  -3.468199  -3.110164  -0.001951   0.278813  -0.006998
 516   6  -1.314028  -2.199039  -3.775299  -0.002211   0.558824  -0.003956
 517  11  -0.449365   2.926198   3.890679   0.000214   0.279469   0.000764
 518  11  -0.583100   1.777074   4.383693  -0.000790   0.559073  -0.001412
 519  11  -0.658118   0.525201   4.290848  -0.000172   0.279469  -0.000617
 520   7  -2.005963   2.602382   3.945276  -0.000792   0.559073  -0.001416
 521   7  -2.136071   1.105927   4.194687  -0.001100   0.559073  -0.001968
 522  10   0.199746   4.386087  -2.142626  -0.000185   0.245400  -0.000753
 523  10   0.098523   5.122717  -1.287249  -0.001158   0.490762  -0.002360
 524  10  -0.091534   5.335455   0.065198  -0.000822   0.490762  -0.001675
 525   8  -1.307504   4.736278  -2.049171  -0.001196   0.490762  -0.002437
 526   8  -1.462317   5.392895  -0.842781  -0.001156   0.490762  -0.002356
 527   8  -1.627245   5.327184   0.276603  -0.000014   0.245400  -0.000058
 528  15  -4.755960  -3.174101  -0.003085  -0.001495   0.235234  -0.006355
 529  15  -4.754014  -3.209167  -1.059595  -0.004917   0.470283  -0.010456
 530  15  -4.224894  -2.880247  -2.193215  -0.005355   0.470283  -0.011388
 531   9  -5.659921  -1.931919  -0.448675  -0.001041   0.470283  -0.002214
 532   9  -5.447199  -1.827810  -1.720352  -0.001622   0.470283  -0.003450
 533   9  -4.874286  -1.457186  -2.527727  -0.000457   0.235234  -0.001942
 =====================================================


   1 warning(s) detected.
     A line exceeding 80 characters begins with "http://cactus.nci.ni".
 There may be a problem in your input file.

              2238104  WORDS OF DYNAMIC MEMORY USED
 EXECUTION OF GAMESS TERMINATED NORMALLY Sun Nov 27 12:44:57 2016
 DDI: 263640 bytes (0.3 MB / 0 MWords) used by master data server.

 ----------------------------------------
 CPU timing information for all processes
 ========================================
 0: 919.992 + 0.444 = 920.436
 ----------------------------------------
 ddikick.x: exited gracefully.
