----- GAMESS execution script -----

          ******************************************************
          *         GAMESS VERSION =  5 DEC 2014 (R1)          *
          *             FROM IOWA STATE UNIVERSITY             *
          * M.W.SCHMIDT, K.K.BALDRIDGE, J.A.BOATZ, S.T.ELBERT, *
          *   M.S.GORDON, J.H.JENSEN, S.KOSEKI, N.MATSUNAGA,   *
          *          K.A.NGUYEN, S.J.SU, T.L.WINDUS,           *
          *       TOGETHER WITH M.DUPUIS, J.A.MONTGOMERY       *
          *         J.COMPUT.CHEM.  14, 1347-1363(1993)        *
          **************** 64 BIT LINUX VERSION ****************

 EXECUTION OF GAMESS BEGUN Sun Nov 27 13:34:31 2016

            ECHO OF THE FIRST FEW INPUT CARDS -
 INPUT CARD>! SELECT RESTRICTED HARTREE-FOCK AS DEFAULT                                     
 INPUT CARD>$contrl scftyp=rhf $end                                                         
 INPUT CARD>                                                                                
 INPUT CARD>! THEORY: HF OR DFT                                                             
 INPUT CARD> $contrl mplevl=0 $end                                                          
 INPUT CARD>                                                                                
 INPUT CARD> $system timlim=10000 mwords=20 $end                                            
 INPUT CARD> $SCF DIRSCF=.TRUE. $end                                                        
 INPUT CARD>                                                                                
 INPUT CARD>                                                                                
 INPUT CARD>! BASIS SETS                                                                    
 INPUT CARD>! 6-311G(d,p)                                                                   
 INPUT CARD> $BASIS GBASIS=N311 NGAUSS=6 NDFUNC=1 NPFUNC=1 $END                             
 INPUT CARD>                                                                                
 INPUT CARD>! One of the following                                                          
 INPUT CARD> $guess guess=HUCKEL $end                                                       
 INPUT CARD>                                                                                
 INPUT CARD> $statpt projct=.FALSE. $end                                                    
 INPUT CARD> $STATPT IFREEZ(1)=1,2,3 $END                                                   
 INPUT CARD>                                                                                
 INPUT CARD>! Optimize the geometry with COSMO effects                                      
 INPUT CARD> $statpt opttol=0.0005 nstep=50 $end                                            
 INPUT CARD> $contrl nzvar=1 $end                                                           
 INPUT CARD> $zmat dlc=.t. auto=.t. $end                                                    
 INPUT CARD> $contrl runtyp=OPTIMIZE maxit=200 $end                                         
 INPUT CARD>                                                                                
 INPUT CARD>! Run COSMO on perfect conductor                                                
 INPUT CARD> $COSGMS PRFCND=.TRUE. $end                                                     
 INPUT CARD>                                                                                
 INPUT CARD>! Specifying RSOLV                                                              
 INPUT CARD> $COSGMS COSRAD = 1.4 $end                                                      
 INPUT CARD>                                                                                
 INPUT CARD>! available memory                                                              
 INPUT CARD> $SYSTEM MWORDS=40 $END                                                         
 INPUT CARD>                                                                                
 INPUT CARD> $DATA                                                                          
 INPUT CARD>Ethanol, 1,1-dimethyl-, ID: C75650                                              
 INPUT CARD>C1                                                                              
 INPUT CARD>C      6.0      0.7822000000    1.1607000000    2.6583000000                    
 INPUT CARD>C      6.0      1.7186000000    1.7789000000    1.6117000000                    
 INPUT CARD>C      6.0      2.8033000000    2.6096000000    2.3028000000                    
 INPUT CARD>C      6.0      2.3620000000    0.6673000000    0.7721000000                    
 INPUT CARD>O      8.0      1.0069000000    2.6876000000    0.7777000000                    
 INPUT CARD>H      1.0      0.0000000000    0.5464000000    2.1923000000                    
 INPUT CARD>H      1.0      1.3401000000    0.5157000000    3.3488000000                    
 INPUT CARD>H      1.0      0.2830000000    1.9344000000    3.2563000000                    
 INPUT CARD>H      1.0      3.4061000000    1.9807000000    2.9705000000                    
 INPUT CARD>H      1.0      3.4825000000    3.0710000000    1.5741000000                    
 INPUT CARD>H      1.0      2.3686000000    3.4173000000    2.9061000000                    
 INPUT CARD>H      1.0      3.0243000000    1.0804000000    0.0000000000                    
   40000000 WORDS OF MEMORY AVAILABLE

     BASIS OPTIONS
     -------------
     GBASIS=N311         IGAUSS=       6      POLAR=POPN311 
     NDFUNC=       1     NFFUNC=       0     DIFFSP=       F
     NPFUNC=       1      DIFFS=       F     BASNAM=        


     RUN TITLE
     ---------
 Ethanol, 1,1-dimethyl-, ID: C75650                                              

 THE POINT GROUP OF THE MOLECULE IS C1      
 THE ORDER OF THE PRINCIPAL AXIS IS     0

 ATOM      ATOMIC                      COORDINATES (BOHR)
           CHARGE         X                   Y                   Z
 C           6.0     1.4781436676        2.1934049539        5.0234585932
 C           6.0     3.2476830825        3.3616335596        3.0456713744
 C           6.0     5.2974688614        4.9314289376        4.3516610045
 C           6.0     4.4635327830        1.2610141516        1.4590574351
 O           8.0     1.9027650970        5.0788275646        1.4696399007
 H           1.0     0.0000000000        1.0325462797        4.1428462829
 H           1.0     2.5324217961        0.9745316919        6.3283143877
 H           1.0     0.5347924545        3.6554859506        6.1535147338
 H           1.0     6.4365956868        3.7429802639        5.6134310465
 H           1.0     6.5809707522        5.8033485083        2.9746176773
 H           1.0     4.4760049745        6.4577606178        5.4917326929
 H           1.0     5.7150983047        2.0416599571        0.0000000000
 H           1.0     5.5990691290        0.0000000000        2.6510965882
 H           1.0     3.0371676075        0.0965649980        0.5013443045
 H           1.0     0.6279559457        4.1233821052        0.6511995754

          INTERNUCLEAR DISTANCES (ANGS.)




     $CONTRL OPTIONS
     ---------------
 SCFTYP=RHF          RUNTYP=OPTIMIZE     EXETYP=RUN     
 MPLEVL=       0     CITYP =NONE         CCTYP =NONE         VBTYP =NONE    
 DFTTYP=NONE         TDDFT =NONE    
 MULT  =       1     ICHARG=       0     NZVAR =       1     COORD =UNIQUE  
 PP    =NONE         RELWFN=NONE         LOCAL =NONE         NUMGRD=       F
 ISPHER=      -1     NOSYM =       0     MAXIT =     200     UNITS =ANGS    
 PLTORB=       F     MOLPLT=       F     AIMPAC=       F     FRIEND=        
 NPRINT=       7     IREST =       0     GEOM  =INPUT   
 NORMF =       0     NORMP =       0     ITOL  =      20     ICUT  =       9
 INTTYP=BEST         GRDTYP=BEST         QMTTOL= 1.0E-06

     $SYSTEM OPTIONS
     ---------------
  REPLICATED MEMORY=    40000000 WORDS (ON EVERY NODE).
 DISTRIBUTED MEMDDI=           0 MILLION WORDS IN AGGREGATE,
 MEMDDI DISTRIBUTED OVER   1 PROCESSORS IS           0 WORDS/PROCESSOR.
 TOTAL MEMORY REQUESTED ON EACH PROCESSOR=    40000000 WORDS.
 TIMLIM=       10000.00 MINUTES, OR       6.9 DAYS.
 PARALL= F  BALTYP=  DLB     KDIAG=    0  COREFL= F
 MXSEQ2=     300 MXSEQ3=     150  mem10=         0

     $COSGMS OPTIONS
     ---------------
     EPSI  =   INFTY     NSPA  =      92     COSRAD=    1.40
     DISEX =   10.00     OUTCHG=DBLCAV       COSBUG=       F
     COSWRT=       F     DCOSMO=       F

     SYMMETRY COORDINATES WILL NOT BE USED FOR 
     THE COSMO CALCULATION, EVEN IF SPECIFIED:
         -- SWITCHING TO C1 POINT GROUP --


     DEFINITION OF CAVITY
     ---------------------------
     ATOM         COORDINATES           RADIUS 
     1    1.4781    2.1934    5.0235    2.0000
     2    3.2477    3.3616    3.0457    2.0000
     3    5.2975    4.9314    4.3517    2.0000
     4    4.4635    1.2610    1.4591    2.0000
     5    1.9028    5.0788    1.4696    1.7200
     6    0.0000    1.0325    4.1428    1.3000
     7    2.5324    0.9745    6.3283    1.3000
     8    0.5348    3.6555    6.1535    1.3000
     9    6.4366    3.7430    5.6134    1.3000
    10    6.5810    5.8033    2.9746    1.3000
    11    4.4760    6.4578    5.4917    1.3000
    12    5.7151    2.0417    0.0000    1.3000
    13    5.5991    0.0000    2.6511    1.3000
    14    3.0372    0.0966    0.5013    1.3000
    15    0.6280    4.1234    0.6512    1.3000

          ----------------
          PROPERTIES INPUT
          ----------------

     MOMENTS            FIELD           POTENTIAL          DENSITY
 IEMOM =       1   IEFLD =       0   IEPOT =       0   IEDEN =       0
 WHERE =COMASS     WHERE =NUCLEI     WHERE =NUCLEI     WHERE =NUCLEI  
 OUTPUT=BOTH       OUTPUT=BOTH       OUTPUT=BOTH       OUTPUT=BOTH    
 IEMINT=       0   IEFINT=       0                     IEDINT=       0
                                                       MORB  =       0
          EXTRAPOLATION IN EFFECT
          SOSCF IN EFFECT
 ORBITAL PRINTING OPTION: NPREO=     1   155     2     1

     -------------------------------
     INTEGRAL TRANSFORMATION OPTIONS
     -------------------------------
     NWORD  =            0
     CUTOFF = 1.0E-09     MPTRAN =       0
     DIRTRF =       T     AOINTS =DUP     

          ----------------------
          INTEGRAL INPUT OPTIONS
          ----------------------
 NOPK  =       1 NORDER=       0 SCHWRZ=       T


 -----------------------------------------------
  STATISTICS ON AUTOMATIC COORDINATE GENERATION 
 -----------------------------------------------
  NUMBER OF USER SPECIFIED BONDS                             0
  NUMBER OF BONDS                                           14
  NUMBER OF ANGLES                                          25
  NUMBER OF TORSIONS                                        30
  NUMBER OF EXTRA COORD.                                     0
  NUMBER OF EXTRA COORD. FOR CONSTRAINTS                     0
  NUMBER OF CONSTRAINED COORD.                               0

  TOTAL NUMBER OF PRIMITIVES                                69
 -----------------------------------------------

   --- ENCODED Z MATRIX ---
 COORD  TYPE   I   J   K   L   M   N
    1      1    1   7
    2      1    1   2
    3      1    1   8
    4      1    1   6
    5      1    2   4
    6      1    2   3
    7      1    2   5
    8      1    3  11
    9      1    3  10
   10      1    3   9
   11      1    4  14
   12      1    4  13
   13      1    4  12
   14      1    5  15
   15      2    1   2   5
   16      2    1   2   3
   17      2    1   2   4
   18      2    2   4  14
   19      2    2   4  13
   20      2    2   3   9
   21      2    2   3  10
   22      2    2   1   8
   23      2    2   5  15
   24      2    2   1   7
   25      2    2   3  11
   26      2    2   1   6
   27      2    2   4  12
   28      2    3   2   5
   29      2    3   2   4
   30      2    4   2   5
   31      2    6   1   7
   32      2    6   1   8
   33      2    7   1   8
   34      2    9   3  10
   35      2    9   3  11
   36      2   10   3  11
   37      2   12   4  13
   38      2   12   4  14
   39      2   13   4  14
   40      3    1   2   4  13
   41      3    1   2   4  14
   42      3    1   2   3   9
   43      3    1   2   3  10
   44      3    1   2   5  15
   45      3    1   2   4  12
   46      3    1   2   3  11
   47      3    3   2   1   6
   48      3    3   2   1   8
   49      3    3   2   4  12
   50      3    3   2   4  13
   51      3    3   2   1   7
   52      3    3   2   4  14
   53      3    3   2   5  15
   54      3    4   2   3  10
   55      3    4   2   1   6
   56      3    4   2   1   8
   57      3    4   2   3   9
   58      3    4   2   1   7
   59      3    4   2   3  11
   60      3    4   2   5  15
   61      3    5   2   3  10
   62      3    5   2   3   9
   63      3    5   2   1   6
   64      3    5   2   4  12
   65      3    5   2   4  13
   66      3    5   2   3  11
   67      3    5   2   4  14
   68      3    5   2   1   8
   69      3    5   2   1   7

          INDEP./SYM. INTERNAL COORDINATES
          --------------------------------
 CRD  1=  -0.1413 (  6) -0.1628 ( 15) -0.2391 ( 16)  0.4904 ( 17)  0.1418 ( 18)
          -0.1355 ( 20) -0.1669 ( 22) -0.1156 ( 23)  0.1431 ( 26) -0.1674 ( 27)
           0.2934 ( 28) -0.2397 ( 29) -0.1624 ( 30)  0.1507 ( 42)  0.1212 ( 43)
          -0.2000 ( 44)  0.1802 ( 46) -0.1424 ( 50)  0.1427 ( 51) -0.1802 ( 54)
          -0.1507 ( 57) -0.1212 ( 59)  0.2003 ( 60)
 CRD  2=   0.1329 (  2) -0.1330 (  5) -0.2346 ( 15)  0.4248 ( 16)  0.1103 ( 18)
          -0.1219 ( 19) -0.1822 ( 21)  0.1229 ( 24)  0.1825 ( 25) -0.1103 ( 26)
          -0.4244 ( 29)  0.2349 ( 30) -0.1675 ( 40) -0.1441 ( 41)  0.1691 ( 44)
           0.1111 ( 47)  0.1642 ( 48)  0.1642 ( 49)  0.1116 ( 52) -0.2128 ( 53)
          -0.1444 ( 55) -0.1673 ( 58)  0.1688 ( 60)
 CRD  3=  -0.1820 (  2) -0.1819 (  5) -0.4482 (  6)  0.2168 (  7)  0.1253 ( 15)
           0.1102 ( 18) -0.2546 ( 19) -0.2341 ( 20)  0.3186 ( 23) -0.2552 ( 24)
           0.1085 ( 26)  0.1253 ( 30)  0.1324 ( 34)  0.1325 ( 35)  0.1242 ( 40)
           0.1005 ( 41) -0.1100 ( 43)  0.1922 ( 45) -0.1001 ( 55) -0.1921 ( 56)
          -0.1248 ( 58)  0.1101 ( 59)  0.1109 ( 63) -0.1105 ( 67)
 CRD  4=  -0.4420 (  2) -0.4420 (  5) -0.2246 (  7) -0.1900 ( 18) -0.1018 ( 19)
          -0.1407 ( 20) -0.3872 ( 23) -0.1009 ( 24) -0.1904 ( 26)  0.1802 ( 28)
           0.1323 ( 31)  0.1214 ( 32)  0.1057 ( 33)  0.1058 ( 37)  0.1212 ( 38)
           0.1324 ( 39)  0.1265 ( 65) -0.1265 ( 69)
 CRD  5=  -0.4102 (  2)  0.4102 (  5) -0.2344 ( 15)  0.1691 ( 18) -0.1968 ( 22)
          -0.1676 ( 26)  0.1955 ( 27)  0.2344 ( 30)  0.1455 ( 32) -0.1455 ( 38)
           0.1310 ( 43)  0.1309 ( 46)  0.2060 ( 53)  0.1310 ( 54)  0.1309 ( 59)
          -0.1413 ( 61) -0.1853 ( 62)  0.1085 ( 64) -0.1414 ( 66)  0.1082 ( 68)
 CRD  6=  -0.5006 (  6) -0.2495 (  7) -0.1793 ( 14) -0.1064 ( 18)  0.1712 ( 19)
           0.2059 ( 20) -0.3040 ( 21) -0.1205 ( 22) -0.1629 ( 23)  0.1711 ( 24)
          -0.3033 ( 25) -0.1047 ( 26) -0.1187 ( 27) -0.1785 ( 28)  0.2399 ( 36)
           0.1083 ( 43) -0.1446 ( 47)  0.1103 ( 50) -0.1100 ( 51)  0.1445 ( 52)
          -0.1084 ( 59)
 CRD  7=   0.2459 (  2)  0.1032 (  3)  0.2462 (  5) -0.2499 (  6) -0.2589 (  7)
           0.1031 ( 13) -0.1230 ( 14) -0.3500 ( 20)  0.3731 ( 22) -0.3640 ( 23)
           0.3726 ( 27) -0.1421 ( 32) -0.1321 ( 33)  0.1348 ( 34)  0.1350 ( 35)
          -0.1310 ( 37) -0.1433 ( 38)
 CRD  8=   0.2440 (  2) -0.2437 (  5) -0.1051 (  8)  0.1049 (  9) -0.1155 ( 18)
          -0.3363 ( 19)  0.3830 ( 21) -0.2406 ( 22)  0.3338 ( 24) -0.3836 ( 25)
           0.1192 ( 26)  0.2396 ( 27) -0.1998 ( 31) -0.1554 ( 34)  0.1552 ( 35)
           0.1994 ( 39)
 CRD  9=  -0.1415 (  6)  0.2686 (  7)  0.1203 ( 14) -0.3753 ( 18)  0.3337 ( 19)
          -0.2721 ( 20)  0.3199 ( 23)  0.3364 ( 24) -0.3734 ( 26)  0.1331 ( 32)
          -0.1556 ( 33) -0.1563 ( 37)  0.1320 ( 38)  0.1029 ( 48) -0.1028 ( 49)
 CRD 10=   0.1006 (  3) -0.1088 (  8)  0.1086 (  9) -0.1010 ( 13)  0.3053 ( 18)
           0.3777 ( 21)  0.3836 ( 22) -0.3784 ( 25) -0.3079 ( 26) -0.3850 ( 27)
           0.1503 ( 31) -0.1354 ( 33) -0.1591 ( 34)  0.1588 ( 35)  0.1343 ( 37)
          -0.1509 ( 39)
 CRD 11=  -0.1416 (  1)  0.1344 (  4) -0.1353 ( 11)  0.1408 ( 12) -0.1258 ( 15)
           0.1109 ( 16) -0.3676 ( 18)  0.3866 ( 19)  0.2023 ( 21) -0.3887 ( 24)
          -0.2026 ( 25)  0.3652 ( 26) -0.1109 ( 29)  0.1258 ( 30) -0.1836 ( 32)
           0.1688 ( 33) -0.1700 ( 37)  0.1826 ( 38)
 CRD 12=   0.1125 (  3)  0.1604 (  7)  0.1812 ( 10)  0.1126 ( 13)  0.1673 ( 14)
           0.1282 ( 17) -0.1680 ( 18) -0.1509 ( 19)  0.4602 ( 20) -0.2258 ( 21)
           0.3066 ( 22) -0.1480 ( 24) -0.2246 ( 25) -0.1705 ( 26)  0.3069 ( 27)
           0.1589 ( 28)  0.1485 ( 31) -0.1136 ( 34) -0.1141 ( 35)  0.2164 ( 36)
           0.1487 ( 39)
 CRD 13=  -0.2123 ( 40) -0.1899 ( 41) -0.1868 ( 42) -0.1624 ( 43) -0.1867 ( 45)
          -0.1625 ( 46) -0.1898 ( 47) -0.1862 ( 48) -0.1865 ( 49) -0.2121 ( 50)
          -0.2119 ( 51) -0.1896 ( 52) -0.1625 ( 54) -0.1899 ( 55) -0.1864 ( 56)
          -0.1868 ( 57) -0.2121 ( 58) -0.1625 ( 59) -0.1661 ( 61) -0.1905 ( 62)
          -0.1880 ( 63) -0.1847 ( 64) -0.2104 ( 65) -0.1662 ( 66) -0.1879 ( 67)
          -0.1845 ( 68) -0.2101 ( 69)
 CRD 14=   0.1317 (  4) -0.1895 (  7)  0.1215 ( 10)  0.1328 ( 11) -0.3266 ( 14)
           0.1949 ( 23) -0.2118 ( 40) -0.2004 ( 41) -0.2355 ( 45)  0.1561 ( 47)
           0.1912 ( 48) -0.1911 ( 49) -0.1674 ( 50)  0.1677 ( 51) -0.1560 ( 52)
           0.2005 ( 55)  0.2357 ( 56)  0.2121 ( 58)  0.1835 ( 63) -0.2185 ( 64)
          -0.1948 ( 65) -0.1834 ( 67)  0.2187 ( 68)  0.1951 ( 69)
 CRD 15=  -0.1250 (  1)  0.1671 (  3)  0.1254 ( 12) -0.1663 ( 13) -0.1002 ( 40)
          -0.1321 ( 41)  0.2420 ( 42)  0.2430 ( 43) -0.1871 ( 44)  0.2431 ( 46)
          -0.1284 ( 47) -0.1285 ( 52) -0.2016 ( 53)  0.2430 ( 54) -0.1320 ( 55)
           0.2420 ( 57)  0.2431 ( 59) -0.1872 ( 60)  0.2624 ( 61)  0.2614 ( 62)
          -0.1402 ( 63) -0.1016 ( 64) -0.1083 ( 65)  0.2625 ( 66) -0.1402 ( 67)
          -0.1017 ( 68) -0.1079 ( 69)
 CRD 16=  -0.2357 (  1) -0.2497 (  3) -0.1901 (  4)  0.3334 (  8)  0.3334 (  9)
           0.4051 ( 10) -0.1910 ( 11) -0.2364 ( 12) -0.2507 ( 13)  0.1242 ( 18)
          -0.1217 ( 20) -0.1610 ( 21) -0.1610 ( 25)  0.1240 ( 26) -0.1203 ( 31)
          -0.1038 ( 32)  0.1437 ( 34)  0.1437 ( 35)  0.1839 ( 36) -0.1041 ( 38)
          -0.1208 ( 39)
 CRD 17=   0.3686 (  1)  0.3125 (  3)  0.3438 (  4) -0.3432 ( 11) -0.3683 ( 12)
          -0.3122 ( 13)  0.1313 ( 18)  0.1262 ( 19) -0.1637 ( 22) -0.1266 ( 24)
          -0.1314 ( 26)  0.1636 ( 27)  0.1305 ( 31)  0.1654 ( 32)  0.1537 ( 33)
          -0.1534 ( 37) -0.1654 ( 38) -0.1303 ( 39)
 CRD 18=  -0.2499 (  1) -0.2659 (  3) -0.2621 (  4) -0.1137 (  6) -0.3505 (  8)
          -0.3506 (  9) -0.3046 ( 10) -0.2618 ( 11) -0.2496 ( 12) -0.2655 ( 13)
           0.1081 ( 19)  0.1390 ( 20)  0.1181 ( 21)  0.1082 ( 24)  0.1181 ( 25)
          -0.1072 ( 31) -0.1060 ( 33) -0.1386 ( 34) -0.1386 ( 35) -0.1216 ( 36)
          -0.1059 ( 37) -0.1070 ( 39)
 CRD 19=   0.2694 (  3) -0.3691 (  4) -0.2874 (  8)  0.2918 (  9)  0.3784 ( 11)
          -0.2869 ( 13) -0.1446 ( 31)  0.1934 ( 33)  0.1449 ( 34) -0.1469 ( 35)
          -0.1986 ( 37)  0.1541 ( 39) -0.1432 ( 40) -0.1245 ( 42) -0.1389 ( 50)
          -0.1338 ( 51) -0.1250 ( 57) -0.1383 ( 58) -0.1284 ( 62) -0.1397 ( 65)
          -0.1343 ( 69)
 CRD 20=   0.2308 (  1) -0.2228 (  4)  0.4504 (  8) -0.4120 (  9)  0.2836 ( 11)
          -0.2089 ( 12) -0.1220 ( 32)  0.1186 ( 33) -0.2411 ( 34)  0.2227 ( 35)
          -0.1524 ( 37)  0.1082 ( 38)  0.1721 ( 42)  0.1024 ( 49)  0.1684 ( 57)
           0.1781 ( 62)
 CRD 21=  -0.3776 (  3)  0.3010 (  4)  0.1261 (  8)  0.2142 (  9) -0.3286 ( 10)
           0.2270 ( 11)  0.1097 ( 12) -0.3613 ( 13)  0.2108 ( 31) -0.1668 ( 33)
          -0.1054 ( 35)  0.1588 ( 36) -0.1272 ( 37)  0.2018 ( 39) -0.1114 ( 40)
           0.1131 ( 46) -0.1168 ( 50)  0.1326 ( 51)  0.1315 ( 58) -0.1220 ( 65)
           0.1411 ( 69)
 CRD 22=   0.3786 (  1) -0.2384 (  3) -0.1079 (  4) -0.1861 (  8) -0.1841 (  9)
           0.3670 ( 10) -0.1137 ( 11)  0.3773 ( 12) -0.2312 ( 13)  0.1207 ( 31)
          -0.1926 ( 32) -0.1827 ( 36) -0.1916 ( 38)  0.1167 ( 39)  0.1109 ( 43)
          -0.1092 ( 45) -0.1204 ( 47)  0.1185 ( 52) -0.1015 ( 55)  0.1083 ( 56)
          -0.1100 ( 59)  0.1024 ( 61) -0.1124 ( 63) -0.1017 ( 66)  0.1106 ( 67)
 CRD 23=   0.2330 (  1) -0.3307 (  4)  0.2017 (  8)  0.2080 (  9) -0.4004 ( 10)
          -0.3292 ( 11)  0.2211 ( 12) -0.1427 ( 32)  0.1827 ( 33) -0.1061 ( 34)
          -0.1096 ( 35)  0.2116 ( 36)  0.1821 ( 37) -0.1361 ( 38) -0.1088 ( 43)
          -0.1551 ( 45)  0.1255 ( 46)  0.1414 ( 48) -0.1395 ( 49) -0.1231 ( 54)
           0.1571 ( 56)  0.1112 ( 59) -0.1162 ( 61) -0.1293 ( 64)  0.1181 ( 66)
           0.1315 ( 68)
 CRD 24=   0.3618 (  1) -0.3360 (  3) -0.1827 (  8)  0.1793 (  9) -0.3727 ( 12)
           0.3332 ( 13)  0.1922 ( 31) -0.2068 ( 32)  0.1031 ( 34) -0.1013 ( 35)
           0.2130 ( 38) -0.1907 ( 39) -0.1662 ( 41) -0.1686 ( 47) -0.1697 ( 52)
          -0.1656 ( 55) -0.1560 ( 63) -0.1573 ( 67)
 CRD 25=  -0.1295 (  1) -0.1076 (  2) -0.1050 (  4) -0.1076 (  5) -0.5015 (  7)
          -0.1040 ( 11) -0.1303 ( 12)  0.1261 ( 14)  0.1251 ( 17)  0.5513 ( 23)
           0.1016 ( 31) -0.1786 ( 36)  0.1012 ( 39)  0.1540 ( 43) -0.1580 ( 47)
          -0.1180 ( 48)  0.1178 ( 49)  0.1195 ( 50) -0.1193 ( 51)  0.1580 ( 52)
          -0.1540 ( 59)
 CRD 26=   0.1305 (  2)  0.2256 (  3)  0.1207 (  4) -0.1305 (  5)  0.1682 (  8)
          -0.1682 (  9) -0.1213 ( 11) -0.2254 ( 13) -0.1222 ( 16)  0.1798 ( 22)
          -0.1798 ( 27)  0.1223 ( 29) -0.1696 ( 32) -0.1251 ( 33)  0.1373 ( 34)
          -0.1369 ( 35)  0.1245 ( 37)  0.1698 ( 38)  0.1299 ( 43)  0.2743 ( 44)
           0.1297 ( 46)  0.4526 ( 53)  0.1299 ( 54)  0.1297 ( 59)  0.2742 ( 60)
          -0.1201 ( 62)
 CRD 27=   0.1929 (  4) -0.1222 (  6) -0.1573 (  8) -0.1571 (  9) -0.1416 ( 10)
           0.1931 ( 11)  0.7229 ( 14)  0.1274 ( 18) -0.1200 ( 20) -0.1241 ( 21)
          -0.1242 ( 25)  0.1274 ( 26) -0.1073 ( 32)  0.1268 ( 34)  0.1270 ( 35)
           0.1376 ( 36) -0.1067 ( 38) -0.1023 ( 41) -0.1529 ( 45)  0.1019 ( 55)
           0.1531 ( 56)
 CRD 28=  -0.2800 (  1)  0.1826 (  2) -0.1027 (  4)  0.1825 (  5)  0.1137 (  6)
           0.4005 (  7) -0.2299 ( 10) -0.1015 ( 11) -0.2801 ( 12) -0.1334 ( 18)
          -0.1818 ( 19) -0.1266 ( 20) -0.1264 ( 22) -0.1208 ( 23) -0.1818 ( 24)
          -0.1338 ( 26) -0.1266 ( 27)  0.2174 ( 31)  0.1962 ( 33)  0.1492 ( 34)
           0.1494 ( 35)  0.1971 ( 37)  0.2165 ( 39)  0.1123 ( 43) -0.1002 ( 45)
          -0.1112 ( 47)  0.1110 ( 52) -0.1124 ( 59)
 CRD 29=  -0.1122 (  4) -0.3201 (  6)  0.2089 (  8)  0.2088 (  9)  0.1971 ( 10)
          -0.1122 ( 11)  0.4499 ( 14)  0.2045 ( 20)  0.2019 ( 21) -0.1912 ( 23)
           0.2019 ( 25) -0.1331 ( 28) -0.2131 ( 34) -0.2131 ( 35) -0.2201 ( 36)
           0.1386 ( 63) -0.1210 ( 64) -0.1655 ( 65) -0.1383 ( 67)  0.1208 ( 68)
           0.1653 ( 69)
 CRD 30=  -0.1453 (  1)  0.2710 (  2) -0.2003 (  3) -0.1049 (  4) -0.2711 (  5)
           0.1054 ( 11)  0.1448 ( 12)  0.2006 ( 13)  0.1036 ( 15)  0.1658 ( 18)
           0.1496 ( 19) -0.1330 ( 22) -0.1493 ( 24) -0.1658 ( 26)  0.1330 ( 27)
          -0.1036 ( 30)  0.1165 ( 31)  0.1624 ( 32)  0.1991 ( 33) -0.1989 ( 37)
          -0.1630 ( 38) -0.1164 ( 39)  0.3251 ( 44)  0.2732 ( 53)  0.3251 ( 60)
           0.1521 ( 61)  0.1221 ( 62) -0.1054 ( 65)  0.1521 ( 66) -0.1055 ( 69)
 CRD 31=  -0.2677 (  2)  0.1839 (  3)  0.1809 (  4) -0.2677 (  5) -0.2554 (  6)
           0.3830 (  7)  0.1771 (  8)  0.1776 (  9)  0.1826 ( 11)  0.1823 ( 13)
           0.1028 ( 18)  0.1057 ( 22)  0.1027 ( 26)  0.1056 ( 27) -0.2372 ( 32)
          -0.2314 ( 36) -0.2372 ( 38)  0.1260 ( 43) -0.1237 ( 45) -0.1284 ( 47)
           0.1280 ( 52)  0.1232 ( 56) -0.1261 ( 59)
 CRD 32=  -0.1350 (  1)  0.3272 (  2)  0.1208 (  3) -0.1887 (  4) -0.3235 (  5)
           0.1599 (  8) -0.1590 (  9)  0.1905 ( 11)  0.1352 ( 12) -0.1250 ( 13)
          -0.1319 ( 15) -0.1067 ( 22)  0.1064 ( 27)  0.1306 ( 30)  0.2201 ( 31)
           0.1170 ( 34) -0.1192 ( 35) -0.2219 ( 39)  0.1141 ( 40) -0.1112 ( 42)
          -0.2029 ( 44)  0.1075 ( 50)  0.1053 ( 51) -0.1007 ( 52) -0.1202 ( 53)
          -0.1111 ( 57)  0.1120 ( 58) -0.2039 ( 60) -0.1259 ( 61) -0.2732 ( 62)
           0.1936 ( 65) -0.1252 ( 66)  0.1888 ( 69)
 CRD 33=   0.1908 (  2) -0.2093 (  3)  0.1778 (  4)  0.1970 (  5) -0.3822 (  6)
           0.1664 ( 10)  0.1736 ( 11) -0.2086 ( 13) -0.1934 ( 14)  0.1957 ( 23)
           0.1465 ( 28)  0.2081 ( 33) -0.1237 ( 34) -0.1215 ( 35)  0.2073 ( 37)
           0.1363 ( 40)  0.1381 ( 50) -0.1398 ( 51) -0.1382 ( 58) -0.1079 ( 63)
           0.2772 ( 65)  0.1068 ( 67) -0.2805 ( 69)
 CRD 34=   0.1771 (  3) -0.1738 (  4) -0.2694 (  8)  0.2690 (  9)  0.1727 ( 11)
          -0.1781 ( 13) -0.1243 ( 21)  0.1245 ( 25)  0.1318 ( 31) -0.1308 ( 33)
          -0.2020 ( 34)  0.2018 ( 35)  0.1299 ( 37) -0.1326 ( 39)  0.1213 ( 40)
          -0.1024 ( 41)  0.2044 ( 42) -0.1330 ( 43)  0.1460 ( 44) -0.1325 ( 46)
          -0.1186 ( 47) -0.1147 ( 48) -0.1134 ( 49)  0.1037 ( 50)  0.1038 ( 51)
          -0.1200 ( 52)  0.1658 ( 53) -0.1330 ( 54) -0.1010 ( 55)  0.2044 ( 57)
           0.1213 ( 58) -0.1325 ( 59)  0.1460 ( 60) -0.1150 ( 61)  0.2224 ( 62)
          -0.1178 ( 63) -0.1126 ( 64)  0.1045 ( 65) -0.1145 ( 66) -0.1192 ( 67)
          -0.1139 ( 68)  0.1046 ( 69)
 CRD 35=  -0.2852 (  1)  0.2049 (  4) -0.2078 ( 11)  0.2787 ( 12)  0.1012 ( 18)
          -0.1243 ( 19)  0.1273 ( 24) -0.2077 ( 32)  0.1578 ( 33) -0.1599 ( 37)
           0.2029 ( 38) -0.1064 ( 43)  0.2710 ( 45) -0.1451 ( 47)  0.2119 ( 48)
           0.2130 ( 49) -0.1358 ( 52) -0.1052 ( 54)  0.2711 ( 56) -0.1293 ( 63)
           0.2271 ( 64) -0.1217 ( 67)  0.2276 ( 68)
 CRD 36=  -0.1548 (  1)  0.1763 (  3) -0.1564 (  8) -0.1603 (  9)  0.3239 ( 10)
          -0.1659 ( 12)  0.1778 ( 13) -0.1140 ( 17) -0.1444 ( 20)  0.1339 ( 31)
          -0.1130 ( 32) -0.1217 ( 34) -0.1246 ( 35)  0.2365 ( 36) -0.1211 ( 38)
           0.1352 ( 39)  0.1849 ( 41) -0.2346 ( 43)  0.1703 ( 46) -0.2146 ( 47)
           0.2198 ( 52) -0.1664 ( 54) -0.1818 ( 55)  0.2385 ( 59) -0.2011 ( 61)
          -0.1666 ( 63)  0.2038 ( 66)  0.1712 ( 67)
 CRD 37=   0.2243 (  2) -0.1507 (  3) -0.2233 (  5) -0.1499 (  8)  0.1500 (  9)
           0.1514 ( 13) -0.1503 ( 15) -0.1604 ( 16) -0.1442 ( 21)  0.1443 ( 25)
           0.1611 ( 29)  0.1498 ( 30) -0.1113 ( 34)  0.1112 ( 35) -0.1017 ( 40)
           0.1014 ( 41)  0.2651 ( 42) -0.1926 ( 44) -0.1032 ( 48) -0.1042 ( 49)
          -0.1983 ( 50) -0.1975 ( 51)  0.1013 ( 55)  0.2655 ( 57) -0.1005 ( 58)
          -0.1938 ( 60) -0.2345 ( 61)  0.1897 ( 63) -0.2346 ( 66)  0.1917 ( 67)
 CRD 38=   0.1325 (  2)  0.1095 (  3) -0.1698 (  4)  0.1341 (  5) -0.2636 (  6)
          -0.1689 ( 11)  0.1096 ( 13) -0.1879 ( 17)  0.1376 ( 18) -0.1238 ( 22)
           0.1367 ( 23)  0.1386 ( 26) -0.1242 ( 27)  0.1687 ( 28) -0.1079 ( 33)
          -0.1071 ( 37) -0.2614 ( 40)  0.1698 ( 44) -0.1205 ( 46) -0.2086 ( 50)
           0.2097 ( 51)  0.1202 ( 54)  0.2618 ( 58) -0.1685 ( 60) -0.1936 ( 63)
           0.2553 ( 64)  0.1939 ( 67) -0.2571 ( 68)
 CRD 39=  -0.1429 (  1) -0.2469 (  7) -0.1426 ( 10) -0.1429 ( 12)  0.1207 ( 15)
          -0.1166 ( 16) -0.1131 ( 17)  0.1375 ( 19)  0.1366 ( 20)  0.1375 ( 24)
           0.1106 ( 28) -0.1166 ( 29)  0.1207 ( 30)  0.1462 ( 40)  0.2599 ( 41)
          -0.1456 ( 42) -0.2582 ( 46)  0.2581 ( 48) -0.2587 ( 49) -0.1462 ( 50)
           0.1476 ( 51)  0.2580 ( 54) -0.2605 ( 55)  0.1458 ( 57) -0.1448 ( 58)
           0.1124 ( 61) -0.1051 ( 63) -0.1218 ( 64) -0.1125 ( 66)  0.1044 ( 67)
           0.1211 ( 68)

 THE DETERMINANT OF THE G MATRIX IS 10**(   -12)


                     --------------------
                     INTERNAL COORDINATES
                     --------------------

                 - - ATOMS - -         COORDINATE      COORDINATE
 NO.   TYPE    I  J  K  L  M  N        (BOHR,RAD)       (ANG,DEG)
 ----------------------------------------------------------------
   1 STRETCH   1  7                     2.0735966       1.0973002
   2 STRETCH   1  2                     2.8995983       1.5344014
   3 STRETCH   1  8                     2.0747576       1.0979145
   4 STRETCH   1  6                     2.0755673       1.0983430
   5 STRETCH   2  4                     2.8996959       1.5344531
   6 STRETCH   2  3                     2.8933524       1.5310963
   7 STRETCH   2  5                     2.6909914       1.4240114
   8 STRETCH   3 11                     2.0746698       1.0978681
   9 STRETCH   3 10                     2.0745769       1.0978189
  10 STRETCH   3  9                     2.0741465       1.0975912
  11 STRETCH   4 14                     2.0754936       1.0983040
  12 STRETCH   4 13                     2.0737784       1.0973963
  13 STRETCH   4 12                     2.0747705       1.0979214
  14 STRETCH   5 15                     1.7910497       0.9477827
  15 BEND      1  2  5                  1.9300462     110.5835018
  16 BEND      1  2  3                  1.9209645     110.0631590
  17 BEND      1  2  4                  1.9147770     109.7086420
  18 BEND      2  4 14                  1.9506226     111.7624425
  19 BEND      2  4 13                  1.9343358     110.8292778
  20 BEND      2  3  9                  1.9313523     110.6583344
  21 BEND      2  3 10                  1.9462781     111.5135215
  22 BEND      2  1  8                  1.9445070     111.4120447
  23 BEND      2  5 15                  1.8576609     106.4361301
  24 BEND      2  1  7                  1.9345273     110.8402487
  25 BEND      2  3 11                  1.9462408     111.5113843
  26 BEND      2  1  6                  1.9504033     111.7498769
  27 BEND      2  4 12                  1.9445938     111.4170186
  28 BEND      3  2  5                  1.8464864     105.7958777
  29 BEND      3  2  4                  1.9208666     110.0575513
  30 BEND      4  2  5                  1.9298407     110.5717265
  31 BEND      6  1  7                  1.8758154     107.4763071
  32 BEND      6  1  8                  1.8769773     107.5428762
  33 BEND      7  1  8                  1.8782734     107.6171410
  34 BEND      9  3 10                  1.8805553     107.7478799
  35 BEND      9  3 11                  1.8804282     107.7405979
  36 BEND     10  3 11                  1.8760301     107.4886065
  37 BEND     12  4 13                  1.8783351     107.6206753
  38 BEND     12  4 14                  1.8767068     107.5273764
  39 BEND     13  4 14                  1.8759031     107.4813278
  40 TORSION   1  2  4 13              -1.0695350     -61.2798389
  41 TORSION   1  2  4 14               1.0224881      58.5842547
  42 TORSION   1  2  3  9               1.0574216      60.5857946
  43 TORSION   1  2  3 10              -3.1327604    -179.4939464
  44 TORSION   1  2  5 15              -1.0623956     -60.8707868
  45 TORSION   1  2  4 12               3.1225638     178.9097298
  46 TORSION   1  2  3 11              -1.0353967     -59.3238583
  47 TORSION   3  2  1  6              -3.1279637    -179.2191157
  48 TORSION   3  2  1  8               1.0550112      60.4476901
  49 TORSION   3  2  4 12              -1.0444709     -59.8437752
  50 TORSION   3  2  4 13               1.0466156      59.9666562
  51 TORSION   3  2  1  7              -1.0360681     -59.3623311
  52 TORSION   3  2  4 14               3.1386387     179.8307498
  53 TORSION   3  2  5 15               3.1412610     179.9809949
  54 TORSION   4  2  3 10               1.0379787      59.4717978
  55 TORSION   4  2  1  6              -1.0118720     -57.9759959
  56 TORSION   4  2  1  8              -3.1120825    -178.3091900
  57 TORSION   4  2  3  9              -1.0550247     -60.4484613
  58 TORSION   4  2  1  7               1.0800235      61.8807887
  59 TORSION   4  2  3 11               3.1353424     179.6418858
  60 TORSION   4  2  5 15               1.0619587      60.8457501
  61 TORSION   5  2  3 10              -1.0472426     -60.0025788
  62 TORSION   5  2  3  9              -3.1402459    -179.9228378
  63 TORSION   5  2  1  6               1.1213337      64.2476907
  64 TORSION   5  2  4 12               0.9892357      56.6790304
  65 TORSION   5  2  4 13               3.0803222     176.4894618
  66 TORSION   5  2  3 11               1.0501211      60.1675093
  67 TORSION   5  2  4 14              -1.1108400     -63.6464446
  68 TORSION   5  2  1  8              -0.9788767     -56.0855034
  69 TORSION   5  2  1  7              -3.0699560    -175.8955247

     ------------------------------------------
     THE POINT GROUP IS C1 , NAXIS= 1, ORDER= 1
     ------------------------------------------

     DIMENSIONS OF THE SYMMETRY SUBSPACES ARE
 A   =  155

 ..... DONE SETTING UP THE RUN .....
 STEP CPU TIME =     0.01 TOTAL CPU TIME =        0.0 (    0.0 MIN)
 TOTAL WALL CLOCK TIME=        0.0 SECONDS, CPU UTILIZATION IS  50.00%


          -----------------------------
          STATIONARY POINT LOCATION RUN
          -----------------------------

 OBTAINING INITIAL HESSIAN, HESS=GUESS   
 DIAGONAL GUESS HESSIAN IN INTERNAL COORDS IS
     1  0.3415     2  0.3640     3  0.3411     4  0.3408     5  0.3640
     6  0.3664     7  0.3643     8  0.3411     9  0.3411    10  0.3413
    11  0.3408    12  0.3414    13  0.3411    14  0.3688    15  0.2430
    16  0.2481    17  0.2479    18  0.2233    19  0.2234    20  0.2236
    21  0.2235    22  0.2233    23  0.2157    24  0.2234    25  0.2235
    26  0.2233    27  0.2233    28  0.2433    29  0.2481    30  0.2430
    31  0.2026    32  0.2026    33  0.2026    34  0.2026    35  0.2026
    36  0.2026    37  0.2026    38  0.2026    39  0.2026    40  0.2500
    41  0.2500    42  0.2500    43  0.2500    44  0.2500    45  0.2500
    46  0.2500    47  0.2500    48  0.2500    49  0.2500    50  0.2500
    51  0.2500    52  0.2500    53  0.2500    54  0.2500    55  0.2500
    56  0.2500    57  0.2500    58  0.2500    59  0.2500    60  0.2500
    61  0.2500    62  0.2500    63  0.2500    64  0.2500    65  0.2500
    66  0.2500    67  0.2500    68  0.2500    69  0.2500
 TRANSFORMING HESSIAN TO SYMMETRY COORDINATES

          PARAMETERS CONTROLLING GEOMETRY SEARCH ARE
          METHOD =QA                  UPHESS =BFGS    
          NNEG   =         0          NFRZ   =         3
          NSTEP  =        50          IFOLOW =         1
          HESS   =GUESS               RESTAR =         F
          IHREP  =         0          HSSEND =         F
          NPRT   =         0          NPUN   =         0
          OPTTOL = 5.000E-04          RMIN   = 1.500E-03
          RMAX   = 1.000E-01          RLIM   = 7.000E-02
          DXMAX  = 3.000E-01          PURIFY =         F
          MOVIE  =         F          TRUPD  =         T
          TRMAX  = 5.000E-01          TRMIN  = 5.000E-02
          ITBMAT =         5          STPT   =         F
          STSTEP = 1.000E-02          PROJCT=          F
          FROZEN COORD(S)=   1   2   3


      ***** EQUILIBRIUM GEOMETRY LOCATED *****
            (SUBJECT TO   3 CONSTRAINT(S))
 COORDINATES OF ALL ATOMS ARE (ANGS)
   ATOM   CHARGE       X              Y              Z
 ------------------------------------------------------------
 C           6.0   0.7785686016   1.1681559926   2.6565353304
 C           6.0   1.7281081971   1.7708193782   1.6216528578
 C           6.0   2.8007065250   2.6138278984   2.2998859473
 C           6.0   2.3616450245   0.6736588327   0.7668368427
 O           8.0   1.0110378971   2.6709139520   0.7852811465
 H           1.0  -0.0095642097   0.5997692797   2.1690321723
 H           1.0   1.3130234883   0.4979920414   3.3232360574
 H           1.0   0.3202690181   1.9522249331   3.2514240408
 H           1.0   3.4040010594   2.0028216333   2.9634802389
 H           1.0   3.4518497038   3.0636609664   1.5565187915
 H           1.0   2.3430907807   3.4081828725   2.8817324485
 H           1.0   3.0262088795   1.1073742762   0.0259338233
 H           1.0   2.9349277328  -0.0111923176   1.3845542294
 H           1.0   1.5962504337   0.1001868279   0.2499296043
 H           1.0   0.3264043595   2.2041820647   0.3346096130


                     --------------------
                     INTERNAL COORDINATES
                     --------------------

                 - - ATOMS - -         COORDINATE      COORDINATE
 NO.   TYPE    I  J  K  L  M  N        (BOHR,RAD)       (ANG,DEG)
 ----------------------------------------------------------------
   1 STRETCH   1  7                     2.0521168       1.0859335
   2 STRETCH   1  2                     2.8881359       1.5283358
   3 STRETCH   1  8                     2.0516326       1.0856773
   4 STRETCH   1  6                     2.0543991       1.0871413
   5 STRETCH   2  4                     2.8881546       1.5283457
   6 STRETCH   2  3                     2.8790462       1.5235257
   7 STRETCH   2  5                     2.6883819       1.4226306
   8 STRETCH   3 11                     2.0518607       1.0857980
   9 STRETCH   3 10                     2.0518386       1.0857863
  10 STRETCH   3  9                     2.0507231       1.0851960
  11 STRETCH   4 14                     2.0544130       1.0871486
  12 STRETCH   4 13                     2.0521145       1.0859323
  13 STRETCH   4 12                     2.0516294       1.0856756
  14 STRETCH   5 15                     1.7824299       0.9432214
  15 BEND      1  2  5                  1.9117854     109.5372367
  16 BEND      1  2  3                  1.9328058     110.7416137
  17 BEND      1  2  4                  1.9317721     110.6823900
  18 BEND      2  4 14                  1.9313291     110.6570077
  19 BEND      2  4 13                  1.9320135     110.6962190
  20 BEND      2  3  9                  1.9305749     110.6137944
  21 BEND      2  3 10                  1.9248036     110.2831208
  22 BEND      2  1  8                  1.9267827     110.3965153
  23 BEND      2  5 15                  1.9110058     109.4925656
  24 BEND      2  1  7                  1.9318876     110.6890072
  25 BEND      2  3 11                  1.9247904     110.2823643
  26 BEND      2  1  6                  1.9314981     110.6666887
  27 BEND      2  4 12                  1.9269237     110.4045936
  28 BEND      3  2  5                  1.8405467     105.4555558
  29 BEND      3  2  4                  1.9330404     110.7550570
  30 BEND      4  2  5                  1.9116762     109.5309798
  31 BEND      6  1  7                  1.8854132     108.0262206
  32 BEND      6  1  8                  1.8936409     108.4976331
  33 BEND      7  1  8                  1.8934038     108.4840487
  34 BEND      9  3 10                  1.8949683     108.5736835
  35 BEND      9  3 11                  1.8949727     108.5739391
  36 BEND     10  3 11                  1.8928659     108.4532270
  37 BEND     12  4 13                  1.8933455     108.4807070
  38 BEND     12  4 14                  1.8935816     108.4942347
  39 BEND     13  4 14                  1.8854285     108.0270982
  40 TORSION   1  2  4 13              -1.0562741     -60.5200455
  41 TORSION   1  2  4 14               1.0334821      59.2141597
  42 TORSION   1  2  3  9               1.0763484      61.6702183
  43 TORSION   1  2  3 10              -3.1103319    -178.2088901
  44 TORSION   1  2  5 15              -1.0602277     -60.7465717
  45 TORSION   1  2  4 12               3.1301221     179.3427882
  46 TORSION   1  2  3 11              -1.0201537     -58.4505012
  47 TORSION   3  2  1  6               3.1019139     177.7265731
  48 TORSION   3  2  1  8               1.0051819      57.5926799
  49 TORSION   3  2  4 12              -1.0024285     -57.4349197
  50 TORSION   3  2  4 13               1.0943607      62.7022467
  51 TORSION   3  2  1  7              -1.0915064     -62.5387111
  52 TORSION   3  2  4 14              -3.0990685    -177.5635481
  53 TORSION   3  2  5 15              -3.1408235    -179.9559312
  54 TORSION   4  2  3 10               1.0228158      58.6030310
  55 TORSION   4  2  1  6              -1.0305010     -59.0433600
  56 TORSION   4  2  1  8              -3.1272330    -179.1772531
  57 TORSION   4  2  3  9              -1.0736892     -61.5178606
  58 TORSION   4  2  1  7               1.0592640      60.6913558
  59 TORSION   4  2  3 11               3.1129940     178.3614199
  60 TORSION   4  2  5 15               1.0615455      60.8220761
  61 TORSION   5  2  3 10              -1.0437540     -59.8027006
  62 TORSION   5  2  3  9              -3.1402591    -179.9235922
  63 TORSION   5  2  1  6               1.0791345      61.8298530
  64 TORSION   5  2  4 12               1.0204218      58.4658623
  65 TORSION   5  2  4 13               3.1172109     178.6030287
  66 TORSION   5  2  3 11               1.0464242      59.9556883
  67 TORSION   5  2  4 14              -1.0762183     -61.6627661
  68 TORSION   5  2  1  8              -1.0175975     -58.3040401
  69 TORSION   5  2  1  7              -3.1142858    -178.4354312

          INTERNUCLEAR DISTANCES (ANGS.)


 =====================================================
   GAMESS/COSab RESULTS
 =====================================================

   Dielectric Constant                  = INFTY
   Basic Grid Size                      =                 1082
   Number of Segments                   =                   92
   Number of Segments located on spheres=                  208
   Number of Segments of the cavity     =                  463
   Solvent Radius (rsolv)               = 1.40
   Outlying Charge Error Method         = double cavity

 =====================================================

  Total solvated Energy (a.u.)          =  -232.2309428881
  Total Energy corrected (a.u.)         =  -232.2308187255

  Outlying charge effect (a.u.)         =     0.0001241627
  Outlying charge effect (kcal/mol)     =     0.0779133137

  Dielectric Energy (a.u.)              =    -0.0099530436
  Dielectric energy corr. (a.u.)        =    -0.0098288809

  Sum of polarization charges           =     0.0220671280
  Sum of polarization charges(cor.)     =    -0.0220671280

  Total surface area of cavity (A**2)   =  122.47
  Total volume of cavity (A**3)         =  114.07

 =====================================================
 NPS=                   463
NR.  ATOM  (X, Y, Z)(a.u.)                  CHARGE(e)  AREA(A**2) SIGMA(e/A**2)
   1   1   1.223957   2.004899   8.786020   0.001668   0.371649   0.004488
   2   1   0.339627  -1.052360   6.561862   0.001497   0.418105   0.003580
   3   1  -1.883812   2.231258   6.759943   0.001256   0.371649   0.003379
   4   1   2.777873   3.105911   8.450848   0.000991   0.278737   0.003554
   5   1  -2.193176   1.750630   5.824628   0.001301   0.371649   0.003500
   6   1  -0.187015  -1.108527   5.753823   0.000900   0.278737   0.003229
   7   1   1.051769  -1.338903   3.782631   0.000066   0.046456   0.001413
   8   1  -1.984662   3.076236   3.760771   0.000463   0.185824   0.002493
   9   1   2.406913   2.371503   8.678251   0.000844   0.232280   0.003632
  10   1   1.520053   2.933029   8.728951   0.001102   0.278737   0.003953
  11   1   1.659820  -1.562898   4.838749   0.000921   0.232280   0.003966
  12   1   1.024052  -1.515100   5.496111   0.001669   0.371649   0.004491
  13   1  -0.752014  -0.289808   6.782128   0.001126   0.464561   0.002425
  14   1  -1.545776   1.052763   6.981796   0.001082   0.464561   0.002329
  15   1  -2.187352   2.882177   5.686007   0.001221   0.278737   0.004381
  16   1  -1.864750   3.745328   4.131206   0.000623   0.185824   0.003353
  17   1  -1.580597   4.355007   4.421429   0.000399   0.139368   0.002866
  18   1   0.211066  -0.183328   7.662102   0.000867   0.418105   0.002075
  19   1   0.498507   0.991116   8.463716   0.001097   0.418105   0.002623
  20   1  -0.006742   2.033076   8.494200   0.001385   0.464561   0.002980
  21   1  -1.173988   2.014260   7.712592   0.000758   0.325193   0.002331
  22   1   2.140992   3.660617   8.444173   0.000619   0.185824   0.003332
  23   1  -1.540728   0.327278   6.315038   0.000560   0.278737   0.002010
  24   1   0.851768  -1.486629   4.516184   0.000459   0.139368   0.003297
  25   1  -2.248925   2.796618   4.708346   0.001147   0.278737   0.004116
  26   1  -0.628782   0.779218   7.819045   0.000812   0.464561   0.001749
  27   1  -1.967940   3.774055   4.977187   0.000890   0.232280   0.003830
  28   3   6.537311   8.505105   4.202383   0.001745   0.371649   0.004695
  29   3   9.021277   5.536133   4.503832   0.001642   0.418105   0.003928
  30   3   6.600756   6.676270   7.437470   0.001222   0.371649   0.003287
  31   3   4.689621   8.292411   2.709667   0.000070   0.139368   0.000501
  32   3   5.144284   8.562135   3.279323   0.000865   0.185824   0.004653
  33   3   6.881207   5.649932   7.701099   0.001201   0.371649   0.003231
  34   3   8.997399   4.753607   5.069975   0.000906   0.278737   0.003249
  35   3   8.370125   2.774398   3.991777   0.000066   0.046456   0.001415
  36   3   5.920867   8.514393   3.293073   0.000713   0.185824   0.003838
  37   3   5.583096   8.702514   4.148933   0.001099   0.278737   0.003944
  38   3   8.700028   3.580277   3.437213   0.000530   0.139368   0.003805
  39   3   9.002201   4.359722   3.913965   0.001530   0.325193   0.004705
  40   3   8.654573   5.978420   5.725141   0.001111   0.464561   0.002391
  41   3   7.666196   6.556563   6.802769   0.000998   0.464561   0.002148
  42   3   5.693347   5.778933   8.009331   0.001886   0.418105   0.004510
  43   3   4.576676   4.994257   8.056786   0.001198   0.325193   0.003685
  44   3   8.537251   6.836328   4.743588   0.001016   0.418105   0.002429
  45   3   7.582711   7.927062   4.682923   0.001190   0.418105   0.002845
  46   3   6.754052   8.254234   5.423308   0.001373   0.464561   0.002956
  47   3   6.868906   7.518721   6.614760   0.000764   0.325193   0.002348
  48   3   5.311326   8.214044   2.459183   0.000515   0.139368   0.003699
  49   3   4.473122   8.551484   3.594030   0.000859   0.232280   0.003698
  50   3   8.163179   5.714758   6.679107   0.000499   0.278737   0.001788
  51   3   8.752617   3.441593   4.083832   0.000487   0.139368   0.003492
  52   3   5.459850   4.640562   8.110061   0.001225   0.325193   0.003768
  53   3   8.736930   4.142822   3.009733   0.000667   0.185824   0.003587
  54   3   7.902636   7.268833   5.776388   0.000836   0.464561   0.001799
  55   4   4.418094  -2.503757   1.314517   0.001821   0.418105   0.004356
  56   4   7.729205  -0.463890   0.675626   0.001568   0.418105   0.003750
  57   4   4.665150  -0.564105  -1.847583   0.001242   0.371649   0.003343
  58   4   3.177296  -2.084794   2.613858   0.001439   0.371649   0.003873
  59   4   5.221677   0.336125  -2.132868   0.001307   0.371649   0.003517
  60   4   7.877636   0.324011   0.136540   0.000976   0.278737   0.003501
  61   4   8.093454   2.317728   1.341435   0.000077   0.046456   0.001656
  62   4   3.892271   2.617512  -2.036717   0.000589   0.185824   0.003168
  63   4   4.017853  -2.342286   2.456947   0.000756   0.232280   0.003253
  64   4   3.359216  -2.338050   1.611398   0.001068   0.278737   0.003830
  65   4   8.221626   1.411402   1.818890   0.000522   0.139368   0.003747
  66   4   8.180462   0.612455   1.283983   0.001487   0.325193   0.004572
  67   4   7.062937  -0.678532  -0.478367   0.001184   0.464561   0.002549
  68   4   5.792940  -0.834493  -1.392262   0.001076   0.464561   0.002317
  69   4   4.026191   0.600556  -2.244300   0.001440   0.325193   0.004427
  70   4   3.405158   2.136644  -2.075040   0.000807   0.232280   0.003475
  71   4   6.819340  -1.522517   0.491976   0.000892   0.418105   0.002133
  72   4   5.582235  -2.255122   0.685332   0.001050   0.418105   0.002512
  73   4   4.592681  -2.248547   0.083147   0.001261   0.464561   0.002715
  74   4   4.763276  -1.504536  -1.096290   0.000712   0.325193   0.002190
  75   4   6.548900  -0.205135  -1.334345   0.000606   0.278737   0.002173
  76   4   8.220493   1.571972   1.175205   0.000500   0.139368   0.003585
  77   4   4.246132   1.501294  -2.317201   0.001116   0.278737   0.004005
  78   4   8.136380   0.837263   2.223434   0.000623   0.185824   0.003353
  79   4   5.933749  -1.656292  -0.432310   0.000811   0.464561   0.001745
  80   4   3.072162   1.426757  -2.061805   0.000833   0.232280   0.003588
  81   5   0.981063   7.827626   2.887693   0.005385   0.274871   0.019590
  82   5   2.806452   7.828813   0.060848   0.005096   0.274871   0.018539
  83   5  -0.371037   6.953554   0.170552   0.001716   0.274871   0.006244
  84   5   1.969427   5.374447  -1.749320   0.003323   0.309230   0.010745
  85   5   3.141967   7.982847   0.827516   0.005072   0.240512   0.021088
  86   5   1.447815   8.204619   2.101908   0.006881   0.343589   0.020026
  87   5   2.167303   8.255581   1.030427   0.005142   0.274871   0.018706
  88   5   3.643751   7.258377  -0.150636   0.006685   0.343589   0.019457
  89   5   4.087598   6.251450  -0.607748   0.004225   0.171795   0.024591
  90   5   0.546635   7.249223   3.447597   0.003700   0.137436   0.026924
  91   5   0.193741   6.641849  -0.768701   0.000861   0.274871   0.003133
  92   5   1.115015   6.015343  -1.515133   0.001767   0.309230   0.005715
  93   5   2.280277   4.615129  -1.716217   0.001863   0.206154   0.009035
  94   5  -1.165054   5.884555   2.119659   0.002844   0.309230   0.009198
  95   5  -0.946171   6.562787   1.157000   0.002101   0.309230   0.006794
  96   5   0.361203   7.863679   1.965732   0.006197   0.343589   0.018036
  97   5  -0.194341   7.493132   1.094271   0.004939   0.377948   0.013069
  98   5   0.567020   7.550705  -0.094785   0.005560   0.481025   0.011559
  99   5   1.729098   7.910786  -0.043179   0.006260   0.377948   0.016564
 100   5   2.507145   7.264116  -0.817011   0.007229   0.412307   0.017533
 101   5   2.404508   6.330120  -1.461378   0.005827   0.377948   0.015417
 102   5   3.146085   5.382408  -1.503653   0.005427   0.309230   0.017551
 103   5  -0.799546   6.267528   2.799602   0.003211   0.171795   0.018691
 104   5  -0.082188   7.108561   3.015217   0.005670   0.309230   0.018337
 105   5   2.355320   8.238597   1.911174   0.004719   0.240512   0.019619
 106   5   1.057454   8.141297   0.970140   0.006409   0.377948   0.016959
 107   5   3.450342   6.390270  -1.043921   0.005956   0.309230   0.019262
 108   5   1.300941   6.993159  -1.047163   0.004626   0.412307   0.011220
 109   5  -0.579346   7.040545   2.109976   0.005882   0.377948   0.015564
 110   6  -1.964530  -0.232361   3.481568  -0.002364   0.412182  -0.005735
 111   6  -2.289052   1.707301   3.358357  -0.001154   0.333671  -0.003458
 112   6  -2.328054   0.536681   4.684502  -0.001084   0.372926  -0.002908
 113   6  -1.092850  -1.062379   4.340689  -0.001252   0.392554  -0.003189
 114   6  -0.316352  -1.262312   3.644250  -0.001032   0.314043  -0.003285
 115   6  -1.969874   0.826163   2.639025  -0.002155   0.372926  -0.005778
 116   6  -2.453691   0.931333   3.849896  -0.001503   0.372926  -0.004029
 117   6  -1.788973  -0.426389   4.781530  -0.001219   0.372926  -0.003270
 118   6  -1.022440  -0.835313   3.026259  -0.002039   0.353299  -0.005772
 119   6  -1.348907   0.007681   2.367767  -0.002317   0.353299  -0.006558
 120   7   3.229558  -0.669950   7.976998  -0.002667   0.451437  -0.005908
 121   7   3.419658   1.214688   8.533806  -0.001174   0.353299  -0.003322
 122   7   2.476128  -1.496607   6.584724  -0.001195   0.392554  -0.003045
 123   7   1.824610  -0.358497   8.258655  -0.001139   0.372926  -0.003054
 124   7   3.962750   0.357593   8.150790  -0.002320   0.392554  -0.005909
 125   7   4.306513  -0.353693   7.293492  -0.002648   0.372926  -0.007100
 126   7   3.480834  -1.228263   6.854447  -0.002480   0.412182  -0.006018
 127   7   2.046247  -1.106410   7.565979  -0.001419   0.392554  -0.003614
 128   7   2.565454   0.410811   8.677261  -0.001765   0.490692  -0.003597
 129   8  -0.723450   5.168312   7.587187  -0.002721   0.471065  -0.005777
 130   8   1.156778   4.712734   8.308377  -0.000978   0.314043  -0.003113
 131   8  -0.327209   3.850390   8.411401  -0.001147   0.392554  -0.002921
 132   8  -1.714662   4.178395   6.787694  -0.000858   0.333671  -0.002572
 133   8  -1.161473   5.357617   5.783469  -0.001065   0.294415  -0.003617
 134   8   0.360638   5.609590   7.656680  -0.002295   0.372926  -0.006154
 135   8   0.300964   4.517712   8.436917  -0.001436   0.372926  -0.003851
 136   8  -1.225965   3.928349   7.764398  -0.001413   0.412182  -0.003429
 137   8  -1.459813   4.974777   6.487802  -0.001423   0.372926  -0.003817
 138   8  -0.283486   5.955591   6.473916  -0.002953   0.510320  -0.005787
 139   9   7.942424   2.843397   7.294092  -0.002429   0.412182  -0.005892
 140   9   6.296462   3.368119   8.017383  -0.001016   0.274788  -0.003697
 141   9   7.741564   4.222455   7.632465  -0.001185   0.372926  -0.003178
 142   9   8.850899   3.448974   5.872729  -0.000954   0.333671  -0.002859
 143   9   8.502986   2.479046   5.391022  -0.001327   0.333671  -0.003977
 144   9   6.943438   2.245144   7.445064  -0.002753   0.431809  -0.006374
 145   9   7.114064   3.543732   7.948065  -0.001391   0.353299  -0.003936
 146   9   8.547119   3.971943   6.836695  -0.001632   0.431809  -0.003779
 147   9   8.416030   2.544066   6.349707  -0.001779   0.333671  -0.005331
 148   9   7.565154   1.785757   6.469840  -0.002506   0.353299  -0.007092
 149  10   8.027870   7.169838   1.575642  -0.002849   0.490692  -0.005806
 150  10   6.902643   8.109591   2.228580  -0.000762   0.314043  -0.002427
 151  10   6.774417   6.883454   0.756177  -0.002153   0.392554  -0.005485
 152  10   8.855816   5.404734   2.274061  -0.001141   0.412182  -0.002769
 153  10   8.414447   7.351926   3.069870  -0.000995   0.372926  -0.002667
 154  10   6.518962   7.715110   1.415926  -0.001658   0.412182  -0.004022
 155  10   7.679002   6.327000   0.841392  -0.001874   0.314043  -0.005966
 156  10   8.460743   5.893810   1.434866  -0.002128   0.392554  -0.005420
 157  10   8.866334   6.484657   2.694629  -0.001374   0.412182  -0.003335
 158  10   7.754826   7.881731   2.566785  -0.001261   0.372926  -0.003381
 159  11   3.878308   8.419152   6.794094  -0.002572   0.451437  -0.005697
 160  11   3.578950   8.677827   4.889783  -0.001145   0.353299  -0.003240
 161  11   5.138533   8.679207   6.165584  -0.001051   0.372926  -0.002819
 162  11   4.622117   7.254979   7.755236  -0.000992   0.372926  -0.002660
 163  11   2.760926   8.203461   5.831307  -0.003123   0.529948  -0.005893
 164  11   4.271861   8.889003   5.571115  -0.001577   0.451437  -0.003494
 165  11   5.066269   8.070804   7.168954  -0.001533   0.451437  -0.003397
 166  11   3.681886   6.955510   7.729001  -0.001911   0.431809  -0.004425
 167  11   2.984902   7.734306   6.955421  -0.002384   0.392554  -0.006072
 168  12   7.126830   2.672198  -1.878780  -0.002574   0.451437  -0.005701
 169  12   5.351222   3.046194  -2.184997  -0.001039   0.333671  -0.003113
 170  12   6.499804   1.408191  -2.177308  -0.001046   0.372926  -0.002805
 171  12   8.001451   1.670145  -0.754505  -0.001006   0.353299  -0.002848
 172  12   8.153142   2.419981   0.011082  -0.000967   0.294415  -0.003283
 173  12   6.170424   3.802067  -1.656540  -0.002525   0.451437  -0.005594
 174  12   5.997458   2.332925  -2.379909  -0.001614   0.451437  -0.003575
 175  12   7.433861   1.339237  -1.540232  -0.001406   0.412182  -0.003411
 176  12   7.862434   2.872562  -0.862703  -0.002119   0.392554  -0.005398
 177  12   7.159962   3.662307  -1.173286  -0.002061   0.333671  -0.006178
 178  13   6.941918  -1.786151   3.602265  -0.002818   0.471065  -0.005982
 179  13   5.049497  -2.224892   3.581760  -0.001293   0.353299  -0.003661
 180  13   7.950898  -0.485626   2.808459  -0.000987   0.353299  -0.002794
 181  13   6.788268  -2.088494   2.148977  -0.001132   0.372926  -0.003035
 182  13   5.870725  -1.837673   4.238157  -0.002348   0.392554  -0.005982
 183  13   6.688372  -0.940947   4.587347  -0.002954   0.431809  -0.006842
 184  13   7.646656  -0.572923   3.764812  -0.002312   0.412182  -0.005608
 185  13   7.547168  -1.438021   2.462218  -0.001539   0.412182  -0.003734
 186  13   5.925453  -2.439938   2.818269  -0.001761   0.490692  -0.003588
 187  14   1.656003  -1.441108  -0.762985  -0.002340   0.412182  -0.005677
 188  14   1.878843  -1.924967   0.992595  -0.001077   0.294415  -0.003657
 189  14   2.890914  -2.070194  -0.483700  -0.000919   0.314043  -0.002928
 190  14   2.676695  -0.468964  -1.869985  -0.000893   0.333671  -0.002676
 191  14   1.864299   0.349570  -1.691469  -0.001265   0.353299  -0.003581
 192  14   1.080236  -1.292588   0.172223  -0.002442   0.392554  -0.006220
 193  14   2.273182  -2.138154   0.216380  -0.001251   0.372926  -0.003353
 194  14   2.884217  -1.457500  -1.345827  -0.001502   0.431809  -0.003479
 195  14   1.660632  -0.569347  -1.430647  -0.001692   0.333671  -0.005072
 196  14   0.855987  -0.269360  -0.603344  -0.002939   0.412182  -0.007130
 197  15  -1.219766   3.327835  -0.767936  -0.005901   0.333671  -0.017685
 198  15   0.152782   4.399933  -1.768661  -0.005197   0.392554  -0.013238
 199  15  -1.288196   5.280091  -0.446247  -0.006195   0.431809  -0.014346
 200  15  -1.798751   4.156723   1.079646  -0.004781   0.294415  -0.016238
 201  15  -1.062196   4.228958  -1.159878  -0.006408   0.372926  -0.017182
 202  15  -1.755538   4.206215  -0.004382  -0.005511   0.333671  -0.016516
 203  15  -1.592871   3.158500   0.259836  -0.006632   0.333671  -0.019877
 204  15  -0.812011   2.478628  -0.439441  -0.006924   0.314043  -0.022049
 205  15  -0.237091   3.158060  -1.439246  -0.007757   0.412182  -0.018820
 206  15  -0.477061   5.198598  -1.309546  -0.004526   0.353299  -0.012810
 207  15  -1.666787   5.066987   0.717565  -0.003625   0.314043  -0.011542
 208  15   0.763714   3.658145  -1.766905  -0.004110   0.274788  -0.014958
 209   1   2.484634   4.462627   7.929837   0.000087   0.066077   0.001313
 210   3   3.152190   4.912011   7.734482   0.000111   0.066077   0.001678
 211   8   2.225840   4.621951   7.916338  -0.000122   0.066077  -0.001853
 212   1   4.227163   2.921679   7.846613   0.000070   0.064077   0.001091
 213   3   4.910628   3.387712   7.811688   0.000054   0.064077   0.000839
 214   9   5.174813   3.239852   7.786590  -0.000159   0.064077  -0.002480
 215   3   4.062903   4.441873   7.903003   0.000799   0.572317   0.001395
 216   1   3.352061   3.427495   8.083612   0.000818   0.572317   0.001430
 217   1   1.120364  -1.211959   3.359538   0.000027   0.065557   0.000406
 218   4   1.669250  -1.296057   2.743876   0.000069   0.065557   0.001054
 219   6   0.835656  -1.153242   3.267786  -0.000147   0.065557  -0.002236
 220   1   3.196228  -1.366357   4.433637   0.000063   0.064705   0.000970
 221   4   3.717486  -1.609906   3.836743   0.000017   0.064705   0.000269
 222  13   4.009659  -1.633891   3.917923  -0.000178   0.064705  -0.002747
 223   4   2.927475  -1.659661   3.303801   0.000665   0.577369   0.001152
 224   1   1.867737  -1.403391   3.923631   0.000848   0.577369   0.001470
 225   1  -0.977293   5.060647   4.392039   0.000248   0.058903   0.004213
 226   5  -0.748621   5.481754   3.721833   0.001097   0.058903   0.018628
 227   8  -0.938705   5.160084   4.676287   0.000035   0.058903   0.000593
 228   1  -1.333363   4.295202   3.099702   0.000200   0.075437   0.002646
 229   5  -1.234173   4.808405   2.461594   0.000087   0.075437   0.001155
 230  15  -1.334066   4.606599   2.228855  -0.000465   0.075437  -0.006167
 231   5  -1.119592   5.258551   2.869644   0.002624   0.308293   0.008512
 232   1  -1.278099   4.742515   3.948456   0.001348   0.340530   0.003959
 233   1  -1.694320   2.917665   2.975784  -0.000192   0.079788  -0.002405
 234   6  -1.748060   2.624646   2.906626  -0.000314   0.079788  -0.003940
 235  15  -1.534878   3.287224   2.144022  -0.000878   0.079788  -0.011005
 236   6   0.315758  -1.270818   3.729952  -0.000176   0.071130  -0.002473
 237   6  -0.332044  -1.175840   4.666498  -0.000360   0.158822  -0.002268
 238   6  -1.281237  -0.461975   5.368730  -0.000464   0.158822  -0.002924
 239   6  -2.052538   0.679011   5.285388  -0.000487   0.158822  -0.003064
 240   6  -2.309177   1.748934   4.452861  -0.000314   0.158822  -0.001976
 241   6  -2.090815   2.289227   3.469912  -0.000185   0.071130  -0.002601
 242   1   0.438208  -1.306954   4.322603  -0.000089   0.155094  -0.000572
 243   1  -0.550555  -0.897061   5.443209  -0.000124   0.155094  -0.000801
 244   1  -1.574218   0.206543   5.811438  -0.000239   0.155094  -0.001543
 245   1  -2.185825   1.521995   5.266512  -0.000124   0.155094  -0.000799
 246   1  -2.118330   2.474935   4.046359  -0.000156   0.155094  -0.001004
 247   1   3.947520   2.473890   7.949388  -0.000037   0.088075  -0.000415
 248   7   4.002537   2.173696   7.968003  -0.000172   0.088075  -0.001955
 249   9   4.866447   2.803561   7.729511  -0.000026   0.088075  -0.000296
 250   1   3.010851  -1.315189   4.908141   0.000011   0.088305   0.000121
 251   7   3.145158  -1.299664   5.182444  -0.000209   0.088305  -0.002370
 252  13   3.834460  -1.426981   4.353982  -0.000059   0.088305  -0.000668
 253   7   3.427222   1.845126   8.357710  -0.000147   0.070519  -0.002081
 254   7   2.447052   1.348750   8.644494  -0.000349   0.157285  -0.002217
 255   7   1.519362   0.368106   8.402427  -0.000467   0.157285  -0.002970
 256   7   1.258123  -0.680407   7.557889  -0.000491   0.157285  -0.003119
 257   7   1.776078  -1.344277   6.475361  -0.000407   0.157285  -0.002589
 258   7   2.607822  -1.443622   5.708745  -0.000212   0.070519  -0.003010
 259   1   2.875473   2.061681   8.472456  -0.000175   0.153908  -0.001135
 260   1   1.614074   1.187516   8.604934  -0.000199   0.153908  -0.001295
 261   1   0.907150  -0.018998   7.958850  -0.000284   0.153908  -0.001846
 262   1   1.059790  -1.037162   6.813038  -0.000227   0.153908  -0.001474
 263   1   2.006119  -1.427563   5.661999  -0.000212   0.153908  -0.001377
 264   8  -1.304900   4.921061   5.209602  -0.000118   0.067373  -0.001754
 265   8  -1.736715   4.169347   5.867685  -0.000240   0.148861  -0.001613
 266   8  -1.648903   3.407835   6.939001  -0.000361   0.148861  -0.002428
 267   8  -0.867644   3.095451   7.952600  -0.000371   0.148861  -0.002491
 268   8   0.298258   3.355671   8.507839  -0.000316   0.148861  -0.002120
 269   8   1.387960   4.085637   8.385253  -0.000291   0.148861  -0.001952
 270   1  -1.554712   4.397251   5.096957  -0.000113   0.148374  -0.000764
 271   1  -1.881692   3.408287   6.148498   0.000026   0.148374   0.000176
 272   1  -1.367389   2.772771   7.382319  -0.000137   0.148374  -0.000924
 273   1  -0.215088   2.741901   8.310735  -0.000146   0.148374  -0.000985
 274   1   1.119745   3.327879   8.566773  -0.000029   0.148374  -0.000196
 275   1   2.008552   4.077211   8.263894  -0.000057   0.082311  -0.000690
 276   9   5.353864   3.144756   7.889120   0.000006   0.013038   0.000475
 277   1   3.980492   2.649761   8.113537   0.000097   0.018525   0.005222
 278  15  -1.592932   3.999181   1.873804  -0.002576   0.259608  -0.009921
 279   1  -1.692779   3.699299   3.215828   0.000362   0.366117   0.000989
 280   3   8.112794   2.393686   3.986056   0.000028   0.064153   0.000433
 281   4   7.888945   1.783904   3.472523   0.000071   0.064153   0.001113
 282   9   8.107576   2.329384   4.282920  -0.000146   0.064153  -0.002279
 283   3   8.052526   3.376326   1.896381   0.000120   0.066135   0.001812
 284   4   7.987933   2.738430   1.372183   0.000052   0.066135   0.000787
 285  12   7.961814   2.825755   1.081952  -0.000136   0.066135  -0.002053
 286   4   8.077511   2.209366   2.147976   0.000987   0.566674   0.001741
 287   3   8.263596   2.872844   3.191544   0.000965   0.566674   0.001702
 288   3   4.993938   7.670841   1.705468   0.000418   0.058337   0.007166
 289   5   4.338138   7.542183   1.265043   0.001156   0.058337   0.019808
 290  10   5.272726   7.609430   1.601842   0.000080   0.058337   0.001372
 291   3   3.401188   8.164036   3.606516   0.000424   0.058239   0.007282
 292   5   2.817199   8.013069   3.080438   0.001157   0.058239   0.019859
 293  11   3.346178   8.206424   3.902159   0.000084   0.058239   0.001435
 294   5   2.824602   8.135234   2.348419   0.004519   0.291039   0.015526
 295   5   3.676467   7.871583   1.331912   0.004794   0.291039   0.016473
 296   3   4.134325   8.068926   2.563817   0.004172   0.637921   0.006539
 297   3   3.428633   5.357207   7.685332  -0.000002   0.087538  -0.000018
 298   8   2.499904   5.024530   7.718295   0.000047   0.087538   0.000540
 299  11   3.351018   5.650480   7.647162  -0.000184   0.087538  -0.002100
 300   8   2.072608   4.744211   8.021563   0.000018   0.011349   0.001617
 301   3   3.441034   5.224273   7.882636   0.000090   0.016104   0.005592
 302   9   8.473503   2.740436   4.720983  -0.000165   0.070425  -0.002341
 303   9   8.807566   3.672898   5.275829  -0.000392   0.157109  -0.002495
 304   9   8.592819   4.566280   6.293638  -0.000475   0.157109  -0.003025
 305   9   7.729696   4.834063   7.324896  -0.000520   0.157109  -0.003313
 306   9   6.590933   4.360609   7.924262  -0.000347   0.157109  -0.002206
 307   9   5.767003   3.580128   7.954707  -0.000162   0.070425  -0.002307
 308   3   8.633530   3.292329   4.537140  -0.000088   0.153665  -0.000572
 309   3   8.818820   4.497341   5.478191  -0.000142   0.153665  -0.000922
 310   3   8.177908   5.187782   6.696586  -0.000274   0.153665  -0.001783
 311   3   6.987567   5.065488   7.666172  -0.000165   0.153665  -0.001074
 312   3   5.761836   4.183272   7.968238  -0.000159   0.153665  -0.001035
 313   3   8.171710   3.884564   2.023298   0.000011   0.087488   0.000130
 314  10   8.191329   4.147431   1.868369  -0.000127   0.087488  -0.001451
 315  12   7.929071   3.336678   1.239360   0.000020   0.087488   0.000234
 316  10   5.839210   7.898732   1.889997  -0.000035   0.072447  -0.000482
 317  10   6.602932   8.173466   2.725222  -0.000349   0.162587  -0.002145
 318  10   7.725931   7.790169   3.476959  -0.000405   0.162587  -0.002490
 319  10   8.624527   6.719518   3.616195  -0.000419   0.162587  -0.002576
 320  10   8.889772   5.448760   3.079563  -0.000290   0.162587  -0.001783
 321  10   8.589135   4.622273   2.316093  -0.000156   0.072447  -0.002152
 322   3   5.781955   8.114641   2.459286  -0.000047   0.157195  -0.000296
 323   3   6.950556   8.171419   3.517268  -0.000124   0.157195  -0.000791
 324   3   8.156291   7.304245   4.048669  -0.000182   0.157195  -0.001160
 325   3   8.850437   5.907764   3.811651  -0.000119   0.157195  -0.000757
 326   3   8.717093   4.617508   2.914080  -0.000134   0.157195  -0.000855
 327  11   3.975263   6.053845   7.826346  -0.000123   0.072501  -0.001700
 328  11   4.965104   6.666327   7.768664  -0.000362   0.162737  -0.002223
 329  11   5.732063   7.617308   7.073560  -0.000408   0.162737  -0.002504
 330  11   5.677248   8.426588   5.925596  -0.000437   0.162737  -0.002686
 331  11   4.825642   8.725329   4.847968  -0.000286   0.162737  -0.001759
 332  11   3.807634   8.528701   4.315762  -0.000078   0.072501  -0.001071
 333   3   4.566923   5.904764   7.870728  -0.000046   0.157288  -0.000291
 334   3   5.763546   6.865242   7.500583  -0.000095   0.157288  -0.000607
 335   3   6.188325   7.915202   6.401230  -0.000169   0.157288  -0.001076
 336   3   5.647663   8.576114   5.073709  -0.000077   0.157288  -0.000490
 337   3   4.387973   8.546762   4.123053  -0.000107   0.157288  -0.000679
 338  12   8.058836   2.884743   0.877175   0.000010   0.015734   0.000619
 339   3   8.329962   3.691374   2.059032   0.000123   0.022324   0.005501
 340   4   4.077467   3.490521  -1.627259   0.000312   0.058782   0.005301
 341   5   3.594307   4.133424  -1.448454   0.000979   0.058782   0.016660
 342  12   4.379200   3.507051  -1.656408   0.000033   0.058782   0.000563
 343   4   2.578497   3.070282  -1.572804   0.000200   0.075427   0.002653
 344   5   2.122261   3.756995  -1.547927   0.000226   0.075427   0.002997
 345  15   1.831202   3.615091  -1.552254  -0.000303   0.075427  -0.004014
 346   5   2.850626   4.219690  -1.609480   0.003036   0.312297   0.009720
 347   4   3.316512   3.118907  -1.776256   0.001193   0.344950   0.003458
 348   4   1.839500  -1.415232   2.278827   0.000021   0.088281   0.000233
 349   6   1.048992  -1.120354   2.804893  -0.000030   0.088281  -0.000342
 350  14   1.701666  -1.414121   2.005158  -0.000243   0.088281  -0.002750
 351   4   7.811968   1.257548   3.337338  -0.000030   0.087997  -0.000341
 352   9   7.876628   1.855178   4.136912  -0.000011   0.087997  -0.000121
 353  13   7.765693   0.988729   3.475466  -0.000219   0.087997  -0.002486
 354   9   8.212777   2.240483   4.478650   0.000015   0.017625   0.000847
 355   4   8.023651   1.394411   3.283534   0.000123   0.025042   0.004906
 356  12   8.099755   2.349766   0.600531  -0.000148   0.067388  -0.002196
 357  12   8.034319   1.438575   0.008434  -0.000271   0.148901  -0.001817
 358  12   7.443612   0.732896  -0.934506  -0.000351   0.148901  -0.002355
 359  12   6.457352   0.751947  -1.807993  -0.000402   0.148901  -0.002697
 360  12   5.465554   1.488194  -2.266609  -0.000257   0.148901  -0.001728
 361  12   4.860422   2.650489  -2.128993  -0.000318   0.148901  -0.002136
 362   4   8.098883   1.779377   0.756082  -0.000018   0.148400  -0.000121
 363   4   7.772053   0.680389  -0.180409  -0.000047   0.148400  -0.000318
 364   4   6.838806   0.274043  -1.255370  -0.000165   0.148400  -0.001112
 365   4   5.668192   0.721027  -2.043708  -0.000088   0.148400  -0.000594
 366   4   4.723130   1.844583  -2.233675  -0.000016   0.148400  -0.000105
 367   4   4.331369   2.942531  -1.942343   0.000001   0.082329   0.000008
 368  13   4.435547  -2.019689   3.511596  -0.000164   0.070506  -0.002323
 369  13   5.014077  -2.360969   2.596287  -0.000360   0.157251  -0.002291
 370  13   6.097220  -2.198404   1.771258  -0.000475   0.157251  -0.003023
 371  13   7.212145  -1.418445   1.601238  -0.000474   0.157251  -0.003015
 372  13   7.877837  -0.357591   2.159579  -0.000393   0.157251  -0.002497
 373  13   7.933116   0.427078   2.978236  -0.000215   0.070506  -0.003045
 374   4   4.271272  -2.139168   2.943118  -0.000209   0.153886  -0.001358
 375   4   5.262554  -2.354644   1.784213  -0.000226   0.153886  -0.001465
 376   4   6.569478  -1.794239   1.192578  -0.000280   0.153886  -0.001820
 377   4   7.628193  -0.699732   1.423465  -0.000184   0.153886  -0.001198
 378   4   7.981936   0.456672   2.377262  -0.000224   0.153886  -0.001459
 379   4   2.053207   1.756436  -1.494615  -0.000186   0.079853  -0.002329
 380  14   1.903523   1.493370  -1.450688  -0.000307   0.079853  -0.003845
 381  15   1.389611   2.381966  -1.344506  -0.000937   0.079853  -0.011738
 382  14   2.283059   0.933184  -1.749541  -0.000195   0.071128  -0.002743
 383  14   3.033342   0.089231  -1.924179  -0.000364   0.158815  -0.002293
 384  14   3.606958  -1.082057  -1.474068  -0.000439   0.158815  -0.002766
 385  14   3.559969  -1.970128  -0.419235  -0.000490   0.158815  -0.003085
 386  14   2.912889  -2.187266   0.779802  -0.000359   0.158815  -0.002259
 387  14   2.136439  -1.837859   1.541851  -0.000145   0.071128  -0.002032
 388   4   2.869179   0.926705  -1.904295  -0.000172   0.155092  -0.001108
 389   4   3.772006  -0.331337  -1.845400  -0.000090   0.155092  -0.000582
 390   4   4.085338  -1.556612  -0.949990  -0.000226   0.155092  -0.001457
 391   4   3.672381  -2.214189   0.391015  -0.000183   0.155092  -0.001182
 392   4   2.713424  -2.016981   1.592159  -0.000220   0.155092  -0.001415
 393  15   1.424519   3.264318  -1.602317  -0.002240   0.256492  -0.008734
 394   4   2.350831   2.250730  -1.726420   0.000255   0.361736   0.000706
 395   5   1.126083   6.719474   4.425904   0.004030   0.281275   0.014328
 396   8   0.900805   6.293637   5.342368   0.000219   0.281275   0.000778
 397  11   1.755904   6.916092   5.186294   0.000154   0.281275   0.000549
 398   8   0.034370   6.118084   5.366761   0.000003   0.284205   0.000012
 399   8  -0.812558   5.538127   4.960520   0.000243   0.284205   0.000855
 400   5  -0.117802   6.372704   3.820572   0.009856   0.701484   0.014050
 401   5   4.946880   5.525661  -0.134186   0.004010   0.281313   0.014255
 402  10   5.844901   5.639358   0.305286   0.000156   0.281313   0.000554
 403  12   5.663004   4.805876  -0.339475   0.000203   0.281313   0.000722
 404  10   5.921218   6.523986   0.525243  -0.000073   0.303896  -0.000241
 405  10   5.558833   7.454303   1.198375   0.000341   0.303896   0.001121
 406   5   4.427512   6.881632   0.303800   0.010942   0.746827   0.014652
 407  11   2.986839   8.252872   4.270100   0.000250   0.302379   0.000827
 408  11   2.198561   7.684687   4.970773  -0.000112   0.302379  -0.000370
 409   5   1.765951   7.710840   3.481151   0.011129   0.743180   0.014975
 410  12   4.766862   3.801375  -1.685227   0.000230   0.282660   0.000814
 411  12   5.465552   4.422267  -1.109485  -0.000041   0.282660  -0.000144
 412   5   4.035221   5.079201  -1.128772   0.009608   0.697755   0.013769
 413  15  -1.457964   5.003138   1.636372  -0.000696   0.084527  -0.008238
 414  15  -1.229898   5.670027   0.599249  -0.001909   0.184044  -0.010375
 415  15  -0.466759   5.811310  -0.706391  -0.002138   0.184044  -0.011619
 416  15   0.574715   5.104593  -1.556641  -0.001849   0.184044  -0.010045
 417  15   1.343028   4.125512  -1.709849  -0.000524   0.084527  -0.006201
 418   5  -1.221087   5.607339   1.518642  -0.000604   0.180656  -0.003341
 419   5  -0.696347   6.219875   0.087116  -0.001110   0.180656  -0.006145
 420   5   0.337614   5.895907  -1.148112  -0.001124   0.180656  -0.006221
 421   5   1.430849   4.776416  -1.649508  -0.000695   0.180656  -0.003845
 422   6  -0.360436   0.901659   1.387436  -0.002121   0.293772  -0.007221
 423  14   0.321782   0.689352   0.571969  -0.002059   0.293772  -0.007008
 424  15  -0.223530   1.577899   0.604529  -0.004910   0.293772  -0.016713
 425  14   1.366930  -1.520102   1.722607   0.000037   0.240413   0.000153
 426  14   0.722625  -0.972871   1.041026  -0.001102   0.480674  -0.002293
 427  14   0.348601  -0.107163   0.502695  -0.000512   0.240413  -0.002129
 428   6   0.141953  -1.034045   2.611445  -0.000712   0.480674  -0.001482
 429   6  -0.493558  -0.152269   1.850131  -0.001360   0.480674  -0.002830
 430  15  -0.942446   2.008657   0.588930  -0.003511   0.271256  -0.012944
 431  15  -1.552593   2.883088   1.241981  -0.006778   0.542718  -0.012488
 432   6  -1.409372   1.371776   1.924122  -0.002637   0.542718  -0.004859
 433   6  -1.915142   2.276805   2.623050  -0.000429   0.271256  -0.001581
 434   7   5.190151   0.432060   6.170198  -0.001170   0.325312  -0.003596
 435   9   6.079817   1.074756   6.015768  -0.001151   0.325312  -0.003538
 436  13   5.880899   0.215226   5.344458  -0.001171   0.325312  -0.003598
 437   9   5.537836   2.677497   7.872330  -0.000128   0.300910  -0.000425
 438   9   6.098919   1.728878   7.165435  -0.001639   0.601965  -0.002723
 439   7   4.510860   1.390237   7.850726  -0.001156   0.601965  -0.001920
 440   7   5.014519   0.496023   7.037645  -0.000612   0.300910  -0.002035
 441  13   5.843889  -0.602869   5.226260  -0.000447   0.233766  -0.001912
 442  13   5.191960  -1.345955   4.876020  -0.000957   0.467338  -0.002048
 443  13   4.401706  -1.757751   4.323046  -0.000028   0.233766  -0.000118
 444   7   4.631265  -0.596422   6.274481  -0.001198   0.467338  -0.002563
 445   7   3.730987  -1.317353   5.710654  -0.000619   0.467338  -0.001324
 446  11   1.923115   7.232505   5.927666  -0.000319   0.279881  -0.001141
 447  11   2.402927   6.844991   7.026880  -0.001192   0.559908  -0.002128
 448  11   3.095846   6.060627   7.729229   0.000091   0.279881   0.000326
 449   8   0.875195   6.237305   6.589226  -0.001185   0.559908  -0.002116
 450   8   1.606097   5.506934   7.712047  -0.000886   0.559908  -0.001583
 451  13   7.836561   0.650089   3.839078  -0.000006   0.300036  -0.000022
 452  13   7.049557   0.126972   4.740147  -0.001548   0.600205  -0.002579
 453   9   7.847691   1.642335   5.153334  -0.001166   0.600205  -0.001942
 454   9   6.962502   1.186314   5.997987  -0.000581   0.300036  -0.001936
 455  12   6.403023   4.579347  -0.645316  -0.000323   0.279337  -0.001155
 456  12   7.445794   4.019190  -0.219353  -0.001221   0.558812  -0.002186
 457  12   8.061017   3.263119   0.575914  -0.000014   0.279337  -0.000051
 458  10   7.078877   5.555953   0.410970  -0.001250   0.558812  -0.002237
 459  10   8.112239   4.735600   1.172115  -0.000789   0.558812  -0.001413
 460  15   0.752275   2.475609  -1.419190  -0.002743   0.272144  -0.010078
 461  15  -0.031588   1.968784  -0.581036  -0.007501   0.544506  -0.013776
 462  14   1.191140   1.008003  -1.175511  -0.002080   0.544506  -0.003820
 463  14   0.480335   0.541871  -0.252856  -0.001007   0.272144  -0.003698
 =====================================================

              2238104  WORDS OF DYNAMIC MEMORY USED
 EXECUTION OF GAMESS TERMINATED NORMALLY Sun Nov 27 13:43:21 2016
 DDI: 263640 bytes (0.3 MB / 0 MWords) used by master data server.

 ----------------------------------------
 CPU timing information for all processes
 ========================================
 0: 528.984 + 0.252 = 529.236
 ----------------------------------------
 ddikick.x: exited gracefully.
