----- GAMESS execution script -----

          ******************************************************
          *         GAMESS VERSION =  5 DEC 2014 (R1)          *
          *             FROM IOWA STATE UNIVERSITY             *
          * M.W.SCHMIDT, K.K.BALDRIDGE, J.A.BOATZ, S.T.ELBERT, *
          *   M.S.GORDON, J.H.JENSEN, S.KOSEKI, N.MATSUNAGA,   *
          *          K.A.NGUYEN, S.J.SU, T.L.WINDUS,           *
          *       TOGETHER WITH M.DUPUIS, J.A.MONTGOMERY       *
          *         J.COMPUT.CHEM.  14, 1347-1363(1993)        *
          **************** 64 BIT LINUX VERSION ****************

 EXECUTION OF GAMESS BEGUN Sun Nov 27 13:58:23 2016

            ECHO OF THE FIRST FEW INPUT CARDS -
 INPUT CARD>! SELECT RESTRICTED HARTREE-FOCK AS DEFAULT                                     
 INPUT CARD>$contrl scftyp=rhf $end                                                         
 INPUT CARD>                                                                                
 INPUT CARD>! THEORY: HF OR DFT                                                             
 INPUT CARD> $contrl mplevl=0 $end                                                          
 INPUT CARD>                                                                                
 INPUT CARD> $system timlim=10000 mwords=20 $end                                            
 INPUT CARD> $SCF DIRSCF=.TRUE. $end                                                        
 INPUT CARD>                                                                                
 INPUT CARD>                                                                                
 INPUT CARD>! BASIS SETS                                                                    
 INPUT CARD>! 6-311G(d,p)                                                                   
 INPUT CARD> $BASIS GBASIS=N311 NGAUSS=6 NDFUNC=1 NPFUNC=1 $END                             
 INPUT CARD>                                                                                
 INPUT CARD>! One of the following                                                          
 INPUT CARD> $guess guess=HUCKEL $end                                                       
 INPUT CARD>                                                                                
 INPUT CARD> $statpt projct=.FALSE. $end                                                    
 INPUT CARD> $STATPT IFREEZ(1)=1,2,3 $END                                                   
 INPUT CARD>                                                                                
 INPUT CARD>! Optimize the geometry with COSMO effects                                      
 INPUT CARD> $statpt opttol=0.0005 nstep=50 $end                                            
 INPUT CARD> $contrl nzvar=1 $end                                                           
 INPUT CARD> $zmat dlc=.t. auto=.t. $end                                                    
 INPUT CARD> $contrl runtyp=OPTIMIZE maxit=200 $end                                         
 INPUT CARD>                                                                                
 INPUT CARD>! Run COSMO on perfect conductor                                                
 INPUT CARD> $COSGMS PRFCND=.TRUE. $end                                                     
 INPUT CARD>                                                                                
 INPUT CARD>! Specifying RSOLV                                                              
 INPUT CARD> $COSGMS COSRAD = 1.4 $end                                                      
 INPUT CARD>                                                                                
 INPUT CARD>! available memory                                                              
 INPUT CARD> $SYSTEM MWORDS=40 $END                                                         
 INPUT CARD>                                                                                
 INPUT CARD> $DATA                                                                          
 INPUT CARD>Furan, tetrahydro-, ID: C109999                                                 
 INPUT CARD>C1                                                                              
 INPUT CARD>C      6.0      0.6819000000    2.1306000000    1.1976000000                    
 INPUT CARD>C      6.0      1.8877000000    3.0635000000    1.2699000000                    
 INPUT CARD>C      6.0      3.1069000000    2.1560000000    1.0946000000                    
 INPUT CARD>O      8.0      2.6824000000    0.7999000000    1.1290000000                    
 INPUT CARD>C      6.0      1.2687000000    0.7319000000    0.9973000000                    
 INPUT CARD>H      1.0      0.0713000000    2.1849000000    2.1169000000                    
 INPUT CARD>H      1.0      0.0000000000    2.4032000000    0.3723000000                    
 INPUT CARD>H      1.0      1.8511000000    3.8450000000    0.4900000000                    
 INPUT CARD>H      1.0      1.9233000000    3.6061000000    2.2320000000                    
 INPUT CARD>H      1.0      3.6256000000    2.3195000000    0.1338000000                    
 INPUT CARD>H      1.0      3.8509000000    2.2499000000    1.9021000000                    
 INPUT CARD>H      1.0      1.0460000000    0.3144000000    0.0000000000                    
   40000000 WORDS OF MEMORY AVAILABLE

     BASIS OPTIONS
     -------------
     GBASIS=N311         IGAUSS=       6      POLAR=POPN311 
     NDFUNC=       1     NFFUNC=       0     DIFFSP=       F
     NPFUNC=       1      DIFFS=       F     BASNAM=        


     RUN TITLE
     ---------
 Furan, tetrahydro-, ID: C109999                                                 

 THE POINT GROUP OF THE MOLECULE IS C1      
 THE ORDER OF THE PRINCIPAL AXIS IS     0

 ATOM      ATOMIC                      COORDINATES (BOHR)
           CHARGE         X                   Y                   Z
 C           6.0     1.2886041510        4.0262501894        2.2631358429
 C           6.0     3.5672357470        5.7891755634        2.3997630318
 C           6.0     5.8711896713        4.0742492295        2.0684940662
 O           8.0     5.0690009895        1.5115918176        2.1335006401
 C           6.0     2.3974953606        1.3830904504        1.8846237276
 H           1.0     0.1347374629        4.1288623106        4.0003609434
 H           1.0     0.0000000000        4.5413894937        0.7035449852
 H           1.0     3.4980717759        7.2659964228        0.9259657340
 H           1.0     3.6345099922        6.8145408843        4.2178684046
 H           1.0     6.8513905411        4.3832194285        0.2528453372
 H           1.0     7.2771458061        4.2516944998        3.5944478012
 H           1.0     1.9766533832        0.5941298505        0.0000000000
 H           1.0     1.7755865381        0.0000000000        3.3119337661

          INTERNUCLEAR DISTANCES (ANGS.)




     $CONTRL OPTIONS
     ---------------
 SCFTYP=RHF          RUNTYP=OPTIMIZE     EXETYP=RUN     
 MPLEVL=       0     CITYP =NONE         CCTYP =NONE         VBTYP =NONE    
 DFTTYP=NONE         TDDFT =NONE    
 MULT  =       1     ICHARG=       0     NZVAR =       1     COORD =UNIQUE  
 PP    =NONE         RELWFN=NONE         LOCAL =NONE         NUMGRD=       F
 ISPHER=      -1     NOSYM =       0     MAXIT =     200     UNITS =ANGS    
 PLTORB=       F     MOLPLT=       F     AIMPAC=       F     FRIEND=        
 NPRINT=       7     IREST =       0     GEOM  =INPUT   
 NORMF =       0     NORMP =       0     ITOL  =      20     ICUT  =       9
 INTTYP=BEST         GRDTYP=BEST         QMTTOL= 1.0E-06

     $SYSTEM OPTIONS
     ---------------
  REPLICATED MEMORY=    40000000 WORDS (ON EVERY NODE).
 DISTRIBUTED MEMDDI=           0 MILLION WORDS IN AGGREGATE,
 MEMDDI DISTRIBUTED OVER   1 PROCESSORS IS           0 WORDS/PROCESSOR.
 TOTAL MEMORY REQUESTED ON EACH PROCESSOR=    40000000 WORDS.
 TIMLIM=       10000.00 MINUTES, OR       6.9 DAYS.
 PARALL= F  BALTYP=  DLB     KDIAG=    0  COREFL= F
 MXSEQ2=     300 MXSEQ3=     150  mem10=         0

     $COSGMS OPTIONS
     ---------------
     EPSI  =   INFTY     NSPA  =      92     COSRAD=    1.40
     DISEX =   10.00     OUTCHG=DBLCAV       COSBUG=       F
     COSWRT=       F     DCOSMO=       F

     SYMMETRY COORDINATES WILL NOT BE USED FOR 
     THE COSMO CALCULATION, EVEN IF SPECIFIED:
         -- SWITCHING TO C1 POINT GROUP --


     DEFINITION OF CAVITY
     ---------------------------
     ATOM         COORDINATES           RADIUS 
     1    1.2886    4.0263    2.2631    2.0000
     2    3.5672    5.7892    2.3998    2.0000
     3    5.8712    4.0742    2.0685    2.0000
     4    5.0690    1.5116    2.1335    1.7200
     5    2.3975    1.3831    1.8846    2.0000
     6    0.1347    4.1289    4.0004    1.3000
     7    0.0000    4.5414    0.7035    1.3000
     8    3.4981    7.2660    0.9260    1.3000
     9    3.6345    6.8145    4.2179    1.3000
    10    6.8514    4.3832    0.2528    1.3000
    11    7.2771    4.2517    3.5944    1.3000
    12    1.9767    0.5941    0.0000    1.3000
    13    1.7756    0.0000    3.3119    1.3000

          ----------------
          PROPERTIES INPUT
          ----------------

     MOMENTS            FIELD           POTENTIAL          DENSITY
 IEMOM =       1   IEFLD =       0   IEPOT =       0   IEDEN =       0
 WHERE =COMASS     WHERE =NUCLEI     WHERE =NUCLEI     WHERE =NUCLEI  
 OUTPUT=BOTH       OUTPUT=BOTH       OUTPUT=BOTH       OUTPUT=BOTH    
 IEMINT=       0   IEFINT=       0                     IEDINT=       0
                                                       MORB  =       0
          EXTRAPOLATION IN EFFECT
          SOSCF IN EFFECT
 ORBITAL PRINTING OPTION: NPREO=     1   143     2     1

     -------------------------------
     INTEGRAL TRANSFORMATION OPTIONS
     -------------------------------
     NWORD  =            0
     CUTOFF = 1.0E-09     MPTRAN =       0
     DIRTRF =       T     AOINTS =DUP     

          ----------------------
          INTEGRAL INPUT OPTIONS
          ----------------------
 NOPK  =       1 NORDER=       0 SCHWRZ=       T


 -----------------------------------------------
  STATISTICS ON AUTOMATIC COORDINATE GENERATION 
 -----------------------------------------------
  NUMBER OF USER SPECIFIED BONDS                             0
  NUMBER OF BONDS                                           13
  NUMBER OF ANGLES                                          25
  NUMBER OF TORSIONS                                        33
  NUMBER OF EXTRA COORD.                                     0
  NUMBER OF EXTRA COORD. FOR CONSTRAINTS                     0
  NUMBER OF CONSTRAINED COORD.                               0

  TOTAL NUMBER OF PRIMITIVES                                71
 -----------------------------------------------

   --- ENCODED Z MATRIX ---
 COORD  TYPE   I   J   K   L   M   N
    1      1    1   2
    2      1    1   6
    3      1    1   5
    4      1    1   7
    5      1    2   3
    6      1    2   9
    7      1    2   8
    8      1    3   4
    9      1    3  11
   10      1    3  10
   11      1    4   5
   12      1    5  13
   13      1    5  12
   14      2    1   5   4
   15      2    1   5  12
   16      2    1   5  13
   17      2    1   2   3
   18      2    1   2   8
   19      2    1   2   9
   20      2    2   3   4
   21      2    2   1   7
   22      2    2   1   6
   23      2    2   3  10
   24      2    2   3  11
   25      2    2   1   5
   26      2    3   2   8
   27      2    3   2   9
   28      2    3   4   5
   29      2    4   5  12
   30      2    4   5  13
   31      2    4   3  10
   32      2    4   3  11
   33      2    5   1   6
   34      2    5   1   7
   35      2    6   1   7
   36      2    8   2   9
   37      2   10   3  11
   38      2   12   5  13
   39      3    1   2   3  11
   40      3    1   2   3   4
   41      3    1   5   4   3
   42      3    1   2   3  10
   43      3    2   3   4   5
   44      3    2   1   5  12
   45      3    2   1   5  13
   46      3    2   1   5   4
   47      3    3   4   5  12
   48      3    3   4   5  13
   49      3    3   2   1   7
   50      3    3   2   1   5
   51      3    3   2   1   6
   52      3    4   5   1   7
   53      3    4   3   2   8
   54      3    4   3   2   9
   55      3    4   5   1   6
   56      3    5   4   3  10
   57      3    5   4   3  11
   58      3    5   1   2   9
   59      3    5   1   2   8
   60      3    6   1   5  12
   61      3    6   1   2   9
   62      3    6   1   5  13
   63      3    6   1   2   8
   64      3    7   1   5  12
   65      3    7   1   2   9
   66      3    7   1   5  13
   67      3    7   1   2   8
   68      3    8   2   3  11
   69      3    8   2   3  10
   70      3    9   2   3  11
   71      3    9   2   3  10

          INDEP./SYM. INTERNAL COORDINATES
          --------------------------------
 CRD  1=   0.2486 (  3) -0.2286 (  5)  0.1104 (  8) -0.1052 (  9) -0.1499 ( 11)
          -0.2830 ( 14)  0.1421 ( 15)  0.1656 ( 16) -0.3608 ( 17)  0.1544 ( 18)
           0.1587 ( 19)  0.3146 ( 20) -0.1518 ( 21) -0.1503 ( 22) -0.1439 ( 23)
          -0.1587 ( 24)  0.3412 ( 25)  0.1246 ( 35) -0.1317 ( 36)  0.1592 ( 37)
          -0.1529 ( 38)
 CRD  2=   0.1886 (  3)  0.2163 (  5) -0.3796 (  8) -0.3660 ( 11) -0.1038 ( 12)
           0.3011 ( 14) -0.1649 ( 17)  0.2686 ( 20) -0.2015 ( 25) -0.2058 ( 28)
          -0.2158 ( 29) -0.2263 ( 30) -0.2071 ( 31) -0.2201 ( 32) -0.1030 ( 48)
           0.1070 ( 57)
 CRD  3=   0.6376 (  1)  0.1191 (  2)  0.3259 (  3)  0.1362 (  4)  0.2788 (  5)
           0.1071 (  6)  0.1272 (  7)  0.1028 ( 11)  0.1382 ( 16)  0.1269 ( 18)
           0.1281 ( 21)  0.1200 ( 24)  0.2498 ( 28) -0.1231 ( 37) -0.1349 ( 38)
 CRD  4=  -0.4092 (  3)  0.4407 (  5)  0.1111 (  6)  0.1091 (  7) -0.1052 ( 15)
          -0.1499 ( 16) -0.2848 ( 17)  0.1158 ( 23)  0.1623 ( 24)  0.2806 ( 25)
           0.1814 ( 26)  0.1887 ( 27)  0.1010 ( 30) -0.1008 ( 32) -0.1901 ( 33)
          -0.1839 ( 34)  0.1177 ( 35) -0.1265 ( 36) -0.1084 ( 37)  0.1146 ( 48)
           0.1253 ( 57) -0.1227 ( 61)  0.1224 ( 67)
 CRD  5=  -0.3001 ( 15)  0.2253 ( 16)  0.2237 ( 18) -0.2027 ( 19)  0.2246 ( 21)
          -0.2016 ( 22) -0.3010 ( 23)  0.2278 ( 24) -0.2080 ( 26)  0.1808 ( 27)
           0.1549 ( 29) -0.1464 ( 30)  0.1563 ( 31) -0.1481 ( 32)  0.1785 ( 33)
          -0.2093 ( 34)  0.1356 ( 39)  0.1137 ( 40)  0.1977 ( 41)  0.1438 ( 42)
          -0.1972 ( 43) -0.1438 ( 44) -0.1358 ( 45) -0.1148 ( 46)  0.1310 ( 49)
           0.1031 ( 51) -0.1036 ( 58) -0.1293 ( 59)
 CRD  6=   0.2634 ( 15) -0.2663 ( 16) -0.2802 ( 23)  0.2301 ( 24) -0.1125 ( 26)
          -0.2724 ( 29)  0.2186 ( 30)  0.2696 ( 31) -0.2084 ( 32) -0.1577 ( 40)
          -0.1518 ( 46)  0.2294 ( 47)  0.2240 ( 48)  0.1849 ( 50) -0.1309 ( 52)
          -0.1495 ( 53) -0.1263 ( 54) -0.1505 ( 55)  0.2487 ( 56)  0.2087 ( 57)
           0.1056 ( 58)
 CRD  7=  -0.4242 (  1)  0.3518 (  3)  0.3493 (  5)  0.1011 (  8)  0.1155 ( 15)
           0.1128 ( 16) -0.1231 ( 18) -0.2118 ( 19) -0.1019 ( 20) -0.1286 ( 21)
          -0.2038 ( 22)  0.1741 ( 24)  0.1481 ( 27)  0.1277 ( 33) -0.1157 ( 37)
          -0.1161 ( 38)  0.1120 ( 47)  0.1144 ( 51) -0.1186 ( 54)  0.1035 ( 60)
           0.1875 ( 63) -0.1888 ( 65) -0.1007 ( 71)
 CRD  8=  -0.1027 (  2) -0.1361 (  8) -0.1799 (  9)  0.1034 ( 10) -0.1389 ( 11)
          -0.1782 ( 12)  0.1040 ( 13)  0.2111 ( 15) -0.1687 ( 16)  0.1582 ( 18)
          -0.1491 ( 19)  0.1567 ( 21) -0.1502 ( 22)  0.2117 ( 23) -0.1703 ( 24)
           0.2064 ( 39)  0.1618 ( 42) -0.1620 ( 44) -0.2060 ( 45)  0.2453 ( 47)
           0.2392 ( 48) -0.1118 ( 51)  0.1952 ( 52) -0.1950 ( 53) -0.1993 ( 54)
           0.1996 ( 55) -0.2458 ( 56) -0.2399 ( 57)  0.1109 ( 58)
 CRD  9=   0.2633 (  2) -0.2388 (  4)  0.2644 (  6) -0.2395 (  7) -0.1399 (  9)
           0.1736 ( 10) -0.1415 ( 12)  0.1719 ( 13)  0.1321 ( 15) -0.1522 ( 16)
           0.1325 ( 23) -0.1523 ( 24) -0.2241 ( 26)  0.2269 ( 27) -0.1015 ( 29)
           0.1112 ( 30) -0.1008 ( 31)  0.1120 ( 32)  0.2274 ( 33) -0.2239 ( 34)
           0.2286 ( 49)  0.2310 ( 51) -0.2306 ( 58) -0.2283 ( 59)
 CRD 10=   0.3055 (  9) -0.3462 ( 10) -0.3061 ( 12)  0.3466 ( 13)  0.1406 ( 15)
          -0.1420 ( 16) -0.1596 ( 18)  0.1526 ( 19)  0.1597 ( 21) -0.1533 ( 22)
          -0.1424 ( 23)  0.1391 ( 24)  0.1312 ( 26) -0.1338 ( 27)  0.1341 ( 33)
          -0.1304 ( 34)  0.1654 ( 47)  0.1655 ( 48)  0.1820 ( 52)  0.1812 ( 53)
           0.1781 ( 54)  0.1790 ( 55)  0.1652 ( 56)  0.1629 ( 57)
 CRD 11=  -0.3756 (  2)  0.3683 (  4)  0.3778 (  6) -0.3640 (  7)  0.1031 ( 10)
          -0.1026 ( 13) -0.1045 ( 15)  0.1017 ( 16) -0.1438 ( 18)  0.1477 ( 19)
           0.1441 ( 21) -0.1472 ( 22)  0.1038 ( 23) -0.1016 ( 24) -0.1721 ( 39)
          -0.1423 ( 40) -0.1699 ( 42) -0.1706 ( 44) -0.1722 ( 45) -0.1425 ( 46)
           0.1117 ( 49)  0.1670 ( 50)  0.1120 ( 51)  0.1122 ( 58)  0.1130 ( 59)
 CRD 12=  -0.1856 (  3) -0.1844 (  4) -0.1856 (  5) -0.1873 (  7) -0.2827 (  8)
          -0.1169 (  9) -0.1762 ( 10) -0.2811 ( 11) -0.1202 ( 12) -0.1718 ( 13)
          -0.2286 ( 14)  0.1846 ( 15)  0.2212 ( 16) -0.2281 ( 20)  0.1845 ( 23)
           0.2218 ( 24)  0.3782 ( 28) -0.1977 ( 37) -0.1975 ( 38) -0.1832 ( 48)
           0.1845 ( 57)
 CRD 13=  -0.4501 (  9) -0.4135 ( 10)  0.4500 ( 12)  0.4144 ( 13) -0.1119 ( 15)
          -0.1149 ( 16)  0.1117 ( 23)  0.1147 ( 24) -0.1971 ( 37)  0.1974 ( 38)
          -0.1310 ( 47)  0.1284 ( 48) -0.1310 ( 56)  0.1280 ( 57)
 CRD 14=  -0.1745 (  2) -0.2026 (  4) -0.1733 (  6) -0.2036 (  7) -0.1848 (  8)
           0.3875 (  9)  0.3767 ( 10) -0.1843 ( 11)  0.3858 ( 12)  0.3782 ( 13)
           0.1403 ( 28)  0.1485 ( 37)  0.1484 ( 38) -0.1097 ( 62)  0.1003 ( 64)
          -0.1006 ( 69)  0.1096 ( 70)
 CRD 15=  -0.4389 (  2) -0.4522 (  4)  0.4394 (  6)  0.4523 (  7) -0.1666 ( 35)
           0.1668 ( 36)  0.1459 ( 61) -0.1295 ( 67)
 CRD 16=   0.1382 (  2) -0.1145 (  4) -0.1405 (  6)  0.1124 (  7) -0.2089 (  9)
           0.2158 ( 10)  0.2098 ( 12) -0.2157 ( 13) -0.1281 ( 18)  0.1307 ( 19)
           0.1286 ( 21) -0.1304 ( 22)  0.1624 ( 26) -0.1604 ( 27)  0.1605 ( 33)
          -0.1625 ( 34)  0.1231 ( 49)  0.1205 ( 51)  0.1204 ( 58)  0.1232 ( 59)
           0.1618 ( 60)  0.2427 ( 61)  0.1581 ( 62)  0.2455 ( 63)  0.1590 ( 64)
           0.2453 ( 65)  0.1553 ( 66)  0.2481 ( 67)  0.1546 ( 68)  0.1584 ( 69)
           0.1583 ( 70)  0.1622 ( 71)
 CRD 17=  -0.3973 (  2)  0.1150 (  3) -0.3583 (  4)  0.1150 (  5) -0.3950 (  6)
          -0.3595 (  7)  0.1483 (  8) -0.1206 (  9) -0.1154 ( 10)  0.1478 ( 11)
          -0.1203 ( 12) -0.1155 ( 13) -0.1344 ( 28) -0.1741 ( 35) -0.1739 ( 36)
          -0.1196 ( 60)  0.1419 ( 63) -0.1435 ( 65)  0.1356 ( 66) -0.1361 ( 68)
           0.1193 ( 71)
 CRD 18=  -0.1782 (  2)  0.1952 (  4) -0.1787 (  6)  0.1951 (  7)  0.2771 (  9)
          -0.2705 ( 10)  0.2772 ( 12) -0.2698 ( 13) -0.1548 ( 29)  0.1458 ( 30)
          -0.1550 ( 31)  0.1458 ( 32) -0.1119 ( 39) -0.1259 ( 42)  0.1257 ( 44)
           0.1118 ( 45)  0.2054 ( 60)  0.1915 ( 62)  0.1997 ( 64)  0.1859 ( 66)
          -0.1861 ( 68) -0.2000 ( 69) -0.1918 ( 70) -0.2057 ( 71)
 CRD 19=  -0.4864 (  8)  0.4868 ( 11) -0.1386 ( 14)  0.1388 ( 20)  0.1134 ( 29)
           0.2282 ( 30) -0.1129 ( 31) -0.2287 ( 32)  0.1256 ( 37) -0.1253 ( 38)
           0.1762 ( 39)  0.1762 ( 45)  0.1688 ( 62)  0.1857 ( 66) -0.1107 ( 67)
           0.1855 ( 68)  0.1685 ( 70)
 CRD 20=   0.1909 (  2) -0.1917 (  4) -0.1914 (  6)  0.1915 (  7) -0.2344 (  8)
           0.2342 ( 11)  0.1354 ( 29) -0.1345 ( 31) -0.1038 ( 39) -0.1107 ( 40)
          -0.2017 ( 42) -0.2020 ( 44) -0.1036 ( 45) -0.1103 ( 46)  0.1438 ( 49)
           0.1119 ( 50)  0.1519 ( 51) -0.1203 ( 52) -0.1210 ( 53) -0.1262 ( 54)
          -0.1261 ( 55)  0.1514 ( 58)  0.1445 ( 59) -0.2177 ( 60)  0.1914 ( 61)
          -0.1193 ( 62)  0.1845 ( 63) -0.2120 ( 64)  0.1834 ( 65) -0.1136 ( 66)
           0.1764 ( 67) -0.1141 ( 68) -0.2120 ( 69) -0.1193 ( 70) -0.2173 ( 71)
 CRD 21=   0.2590 (  2) -0.2516 (  4)  0.2594 (  6) -0.2508 (  7)  0.2679 (  9)
          -0.3270 ( 10)  0.2695 ( 12) -0.3260 ( 13)  0.1349 ( 41) -0.1348 ( 43)
           0.1790 ( 47)  0.2268 ( 48) -0.1778 ( 56) -0.2278 ( 57)
 CRD 22=   0.1974 (  3) -0.1971 (  5)  0.1285 (  8)  0.2012 (  9)  0.1576 ( 10)
          -0.1286 ( 11) -0.1988 ( 12) -0.1601 ( 13) -0.2007 ( 15) -0.1976 ( 16)
           0.1263 ( 18)  0.1173 ( 19) -0.1254 ( 21) -0.1180 ( 22)  0.2007 ( 23)
           0.1973 ( 24) -0.1105 ( 26) -0.1080 ( 27)  0.1363 ( 29)  0.1450 ( 30)
          -0.1350 ( 31) -0.1461 ( 32)  0.1081 ( 33)  0.1102 ( 34) -0.2300 ( 37)
           0.2301 ( 38) -0.1893 ( 47)  0.2043 ( 48) -0.1898 ( 56)  0.2037 ( 57)
           0.1738 ( 61) -0.1606 ( 67)
 CRD 23=  -0.2622 (  1) -0.1137 (  4) -0.1159 (  7)  0.1329 (  8)  0.1703 (  9)
           0.1321 ( 11)  0.1688 ( 12)  0.1039 ( 14)  0.1275 ( 15)  0.1217 ( 16)
           0.1040 ( 20)  0.1274 ( 23)  0.1216 ( 24) -0.1591 ( 26) -0.1773 ( 27)
          -0.2425 ( 28) -0.1246 ( 30) -0.1259 ( 32) -0.1771 ( 33) -0.1603 ( 34)
           0.1357 ( 35)  0.1360 ( 36) -0.1748 ( 37) -0.1756 ( 38)  0.1740 ( 47)
          -0.1225 ( 48)  0.1296 ( 49) -0.1599 ( 51) -0.1744 ( 56)  0.1215 ( 57)
           0.1605 ( 58) -0.1285 ( 59) -0.2883 ( 63)  0.2902 ( 65)
 CRD 24=   0.1010 (  2)  0.2293 (  3) -0.2302 (  5) -0.1065 (  7)  0.2603 (  8)
          -0.2598 ( 11) -0.1745 ( 18) -0.1798 ( 19)  0.1755 ( 21)  0.1774 ( 22)
           0.1308 ( 29)  0.1039 ( 30) -0.1292 ( 31) -0.1051 ( 32) -0.1750 ( 35)
           0.1741 ( 36)  0.1775 ( 52)  0.1725 ( 53) -0.1595 ( 54) -0.1541 ( 55)
          -0.2542 ( 60)  0.2461 ( 66)  0.2426 ( 68) -0.2590 ( 71)
 CRD 25=  -0.2576 (  2)  0.2403 (  4) -0.2605 (  6)  0.2360 (  7) -0.1319 ( 26)
           0.1320 ( 30)  0.1287 ( 32) -0.1338 ( 34)  0.1471 ( 41) -0.1470 ( 43)
           0.1484 ( 47)  0.1488 ( 48)  0.1805 ( 49)  0.1198 ( 51) -0.2040 ( 52)
           0.2084 ( 53)  0.2293 ( 54) -0.2348 ( 55) -0.1505 ( 56) -0.1475 ( 57)
          -0.1189 ( 58) -0.1808 ( 59) -0.1650 ( 60) -0.1122 ( 62) -0.1341 ( 64)
           0.1378 ( 69)  0.1086 ( 70)  0.1587 ( 71)
 CRD 26=  -0.3190 (  1)  0.2681 (  3)  0.2688 (  5) -0.2893 (  8) -0.2890 ( 11)
          -0.1212 ( 15)  0.1089 ( 18)  0.1071 ( 21) -0.1194 ( 23)  0.1459 ( 28)
           0.2065 ( 29)  0.1547 ( 30)  0.2099 ( 31)  0.1517 ( 32) -0.1117 ( 39)
           0.1182 ( 42) -0.1148 ( 44)  0.1156 ( 45) -0.1265 ( 47)  0.1230 ( 52)
          -0.1271 ( 53)  0.1224 ( 56) -0.1622 ( 60)  0.2164 ( 66) -0.2147 ( 68)
           0.1645 ( 71)
 CRD 27=  -0.1204 (  2)  0.1161 (  4)  0.1178 (  6) -0.1185 (  7)  0.2501 (  9)
          -0.2857 ( 10) -0.2559 ( 12)  0.2817 ( 13)  0.1023 ( 16) -0.1028 ( 19)
          -0.1019 ( 24) -0.1271 ( 29)  0.1364 ( 30)  0.1226 ( 31) -0.1397 ( 32)
           0.1904 ( 39)  0.1593 ( 42)  0.1650 ( 44)  0.1852 ( 45) -0.1688 ( 47)
          -0.1828 ( 48)  0.1049 ( 49) -0.1548 ( 52) -0.1512 ( 53) -0.1639 ( 54)
          -0.1617 ( 55) -0.1667 ( 56) -0.1858 ( 57)  0.1045 ( 59)  0.1245 ( 61)
           0.1363 ( 63)  0.1370 ( 65)  0.1488 ( 67)
 CRD 28=  -0.1118 (  2)  0.3096 (  3) -0.1438 (  4)  0.3100 (  5) -0.1118 (  6)
          -0.1436 (  7) -0.1777 (  9) -0.1181 ( 10) -0.1712 ( 12) -0.1252 ( 13)
          -0.1051 ( 27)  0.1536 ( 28) -0.1035 ( 33)  0.1945 ( 35)  0.1943 ( 36)
           0.2119 ( 37)  0.2123 ( 38) -0.1064 ( 42)  0.1031 ( 44) -0.1473 ( 47)
          -0.1277 ( 51)  0.1514 ( 56)  0.1262 ( 58)  0.1753 ( 60) -0.2247 ( 63)
           0.2239 ( 65) -0.1391 ( 66)  0.1353 ( 68) -0.1775 ( 71)
 CRD 29=  -0.2172 (  3)  0.2170 (  5)  0.2156 (  8) -0.1481 (  9) -0.1200 ( 10)
          -0.2158 ( 11)  0.1474 ( 12)  0.1210 ( 13)  0.1472 ( 14)  0.1146 ( 18)
           0.1019 ( 19) -0.1470 ( 20) -0.1139 ( 21) -0.1026 ( 22) -0.1330 ( 26)
          -0.1334 ( 27)  0.1344 ( 33)  0.1321 ( 34)  0.1998 ( 37) -0.2000 ( 38)
           0.1520 ( 39) -0.1513 ( 42) -0.1518 ( 44)  0.1517 ( 45)  0.1065 ( 51)
           0.1056 ( 58) -0.1006 ( 59) -0.1041 ( 60)  0.2133 ( 61)  0.1995 ( 62)
          -0.2141 ( 64) -0.1993 ( 67) -0.2139 ( 69)  0.1995 ( 70) -0.1038 ( 71)
 CRD 30=  -0.3713 (  1)  0.1050 (  2)  0.1191 (  4)  0.1043 (  6)  0.1199 (  7)
           0.1409 (  8)  0.1408 ( 11) -0.1341 ( 14)  0.1173 ( 17) -0.1341 ( 20)
           0.1172 ( 25) -0.1663 ( 35) -0.1664 ( 36)  0.1184 ( 37)  0.1184 ( 38)
           0.1282 ( 39) -0.1345 ( 42)  0.1338 ( 44) -0.1289 ( 45)  0.1417 ( 52)
          -0.1407 ( 53)  0.1614 ( 54) -0.1603 ( 55) -0.2860 ( 62)  0.2787 ( 64)
          -0.2788 ( 69)  0.2860 ( 70)
 CRD 31=   0.1437 (  2) -0.2014 (  3)  0.1434 (  4)  0.2017 (  5) -0.1430 (  6)
          -0.1441 (  7) -0.1267 (  8)  0.1271 ( 11) -0.2154 ( 17)  0.2155 ( 25)
          -0.2156 ( 35)  0.2155 ( 36) -0.1649 ( 49)  0.1612 ( 51) -0.1189 ( 54)
          -0.1168 ( 55)  0.1619 ( 58) -0.1643 ( 59)  0.3249 ( 61) -0.1924 ( 62)
           0.1981 ( 64) -0.3274 ( 67)  0.1986 ( 69) -0.1914 ( 70)
 CRD 32=   0.1088 (  2)  0.1085 (  6) -0.1622 (  9)  0.1927 ( 10) -0.1634 ( 12)
           0.1917 ( 13) -0.1193 ( 15)  0.1266 ( 16) -0.1200 ( 23)  0.1260 ( 24)
           0.1095 ( 26) -0.1163 ( 27) -0.1402 ( 29)  0.1343 ( 30) -0.1396 ( 31)
           0.1347 ( 32) -0.1151 ( 33)  0.1105 ( 34)  0.1941 ( 40)  0.3276 ( 41)
          -0.3276 ( 43) -0.1941 ( 46)  0.1096 ( 47) -0.1533 ( 49) -0.1431 ( 51)
           0.1164 ( 54) -0.1165 ( 55) -0.1104 ( 56)  0.1445 ( 58)  0.1519 ( 59)
           0.1207 ( 60)  0.1437 ( 62)  0.1402 ( 64)  0.1632 ( 66) -0.1652 ( 68)
          -0.1389 ( 69) -0.1452 ( 70) -0.1189 ( 71)
 CRD 33=   0.1796 (  2) -0.1785 (  4) -0.1808 (  6)  0.1770 (  7) -0.1146 ( 15)
           0.1023 ( 16) -0.1586 ( 18)  0.1600 ( 19)  0.1591 ( 21) -0.1596 ( 22)
           0.1148 ( 23) -0.1015 ( 24) -0.1278 ( 26)  0.1260 ( 27) -0.1265 ( 33)
           0.1274 ( 34) -0.1080 ( 39) -0.2433 ( 40) -0.1345 ( 42) -0.1333 ( 44)
          -0.1091 ( 45) -0.2438 ( 46)  0.2871 ( 50)  0.1296 ( 60) -0.1937 ( 61)
           0.1538 ( 62) -0.1990 ( 63)  0.1300 ( 64) -0.1958 ( 65)  0.1542 ( 66)
          -0.2011 ( 67)  0.1561 ( 68)  0.1296 ( 69)  0.1537 ( 70)  0.1272 ( 71)

 THE DETERMINANT OF THE G MATRIX IS 10**(    -8)


                     --------------------
                     INTERNAL COORDINATES
                     --------------------

                 - - ATOMS - -         COORDINATE      COORDINATE
 NO.   TYPE    I  J  K  L  M  N        (BOHR,RAD)       (ANG,DEG)
 ----------------------------------------------------------------
   1 STRETCH   1  2                     2.8842217       1.5262645
   2 STRETCH   1  6                     2.0880346       1.1049404
   3 STRETCH   1  5                     2.8912289       1.5299726
   4 STRETCH   1  7                     2.0876285       1.1047255
   5 STRETCH   2  3                     2.8911789       1.5299461
   6 STRETCH   2  9                     2.0883982       1.1051328
   7 STRETCH   2  8                     2.0875493       1.1046836
   8 STRETCH   3  4                     2.6860651       1.4214045
   9 STRETCH   3 11                     2.0824827       1.1020025
  10 STRETCH   3 10                     2.0863453       1.1040465
  11 STRETCH   4  5                     2.6861487       1.4214488
  12 STRETCH   5 13                     2.0825282       1.1020265
  13 STRETCH   5 12                     2.0859946       1.1038609
  14 BEND      1  5  4                  1.9024233     109.0008282
  15 BEND      1  5 12                  1.9678131     112.7473841
  16 BEND      1  5 13                  1.9854719     113.7591630
  17 BEND      1  2  3                  1.8354615     105.1641989
  18 BEND      1  2  8                  1.9528126     111.8879223
  19 BEND      1  2  9                  1.9463550     111.5179298
  20 BEND      2  3  4                  1.9019595     108.9742546
  21 BEND      2  1  7                  1.9521924     111.8523865
  22 BEND      2  1  6                  1.9467181     111.5387283
  23 BEND      2  3 10                  1.9673743     112.7222453
  24 BEND      2  3 11                  1.9861436     113.7976479
  25 BEND      2  1  5                  1.8358717     105.1877021
  26 BEND      3  2  8                  1.9445745     111.4159105
  27 BEND      3  2  9                  1.9447610     111.4266000
  28 BEND      3  4  5                  1.9181584     109.9023780
  29 BEND      4  5 12                  1.8780561     107.6046870
  30 BEND      4  5 13                  1.8392844     105.3832332
  31 BEND      4  3 10                  1.8782778     107.6173894
  32 BEND      4  3 11                  1.8391950     105.3781094
  33 BEND      5  1  6                  1.9452822     111.4564582
  34 BEND      5  1  7                  1.9439170     111.3782404
  35 BEND      6  1  7                  1.8424463     105.5643987
  36 BEND      8  2  9                  1.8424721     105.5658742
  37 BEND     10  3 11                  1.8837557     107.9312522
  38 BEND     12  5 13                  1.8836487     107.9251190
  39 TORSION   1  2  3 11              -2.1928822    -125.6428951
  40 TORSION   1  2  3  4              -0.1462168      -8.3776078
  41 TORSION   1  5  4  3              -0.2315217     -13.2652152
  42 TORSION   1  2  3 10               1.9377717     111.0261429
  43 TORSION   2  3  4  5               0.2374242      13.6034036
  44 TORSION   2  1  5 12              -1.9531447    -111.9069489
  45 TORSION   2  1  5 13               2.1778328     124.7806291
  46 TORSION   2  1  5  4               0.1311557       7.5146709
  47 TORSION   3  4  5 12               1.9077030     109.3033311
  48 TORSION   3  4  5 13              -2.3688195    -135.7233572
  49 TORSION   3  2  1  7              -2.1039273    -120.5461569
  50 TORSION   3  2  1  5               0.0088370       0.5063222
  51 TORSION   3  2  1  6               2.1202117     121.4791813
  52 TORSION   4  5  1  7               2.2493328     128.8772763
  53 TORSION   4  3  2  8              -2.2652541    -129.7895008
  54 TORSION   4  3  2  9               1.9651179     112.5929612
  55 TORSION   4  5  1  6              -1.9811602    -113.5121163
  56 TORSION   5  4  3 10              -1.9011268    -108.9265392
  57 TORSION   5  4  3 11               2.3752162     136.0898619
  58 TORSION   5  1  2  9              -2.1014518    -120.4043174
  59 TORSION   5  1  2  8               2.1224865     121.6095171
  60 TORSION   6  1  5 12               2.2177247     127.0662638
  61 TORSION   6  1  2  9               0.0099229       0.5685417
  62 TORSION   6  1  5 13               0.0655169       3.7538418
  63 TORSION   6  1  2  8              -2.0493241    -117.4176238
  64 TORSION   7  1  5 12               0.1650323       9.4556565
  65 TORSION   7  1  2  9               2.0689692     118.5432035
  66 TORSION   7  1  5 13              -1.9871754    -113.8567655
  67 TORSION   7  1  2  8               0.0097221       0.5570379
  68 TORSION   8  2  3 11               1.9712658     112.9452120
  69 TORSION   8  2  3 10              -0.1812655     -10.3857500
  70 TORSION   9  2  3 11              -0.0815475      -4.6723260
  71 TORSION   9  2  3 10              -2.2340788    -128.0032881

     ------------------------------------------
     THE POINT GROUP IS C1 , NAXIS= 1, ORDER= 1
     ------------------------------------------

     DIMENSIONS OF THE SYMMETRY SUBSPACES ARE
 A   =  143

 ..... DONE SETTING UP THE RUN .....
 STEP CPU TIME =     0.00 TOTAL CPU TIME =        0.0 (    0.0 MIN)
 TOTAL WALL CLOCK TIME=        0.0 SECONDS, CPU UTILIZATION IS   0.00%


          -----------------------------
          STATIONARY POINT LOCATION RUN
          -----------------------------

 OBTAINING INITIAL HESSIAN, HESS=GUESS   
 DIAGONAL GUESS HESSIAN IN INTERNAL COORDS IS
     1  0.3698     2  0.3365     3  0.3672     4  0.3366     5  0.3672
     6  0.3363     7  0.3366     8  0.3662     9  0.3384    10  0.3370
    11  0.3661    12  0.3384    13  0.3372    14  0.2435    15  0.2233
    16  0.2234    17  0.2488    18  0.2234    19  0.2234    20  0.2435
    21  0.2234    22  0.2234    23  0.2232    24  0.2234    25  0.2488
    26  0.2232    27  0.2232    28  0.2387    29  0.2191    30  0.2192
    31  0.2191    32  0.2192    33  0.2232    34  0.2232    35  0.2019
    36  0.2019    37  0.2021    38  0.2021    39  0.2500    40  0.2500
    41  0.2500    42  0.2500    43  0.2500    44  0.2500    45  0.2500
    46  0.2500    47  0.2500    48  0.2500    49  0.2500    50  0.2500
    51  0.2500    52  0.2500    53  0.2500    54  0.2500    55  0.2500
    56  0.2500    57  0.2500    58  0.2500    59  0.2500    60  0.2500
    61  0.2500    62  0.2500    63  0.2500    64  0.2500    65  0.2500
    66  0.2500    67  0.2500    68  0.2500    69  0.2500    70  0.2500
    71  0.2500
 TRANSFORMING HESSIAN TO SYMMETRY COORDINATES

          PARAMETERS CONTROLLING GEOMETRY SEARCH ARE
          METHOD =QA                  UPHESS =BFGS    
          NNEG   =         0          NFRZ   =         3
          NSTEP  =        50          IFOLOW =         1
          HESS   =GUESS               RESTAR =         F
          IHREP  =         0          HSSEND =         F
          NPRT   =         0          NPUN   =         0
          OPTTOL = 5.000E-04          RMIN   = 1.500E-03
          RMAX   = 1.000E-01          RLIM   = 7.000E-02
          DXMAX  = 3.000E-01          PURIFY =         F
          MOVIE  =         F          TRUPD  =         T
          TRMAX  = 5.000E-01          TRMIN  = 5.000E-02
          ITBMAT =         5          STPT   =         F
          STSTEP = 1.000E-02          PROJCT=          F
          FROZEN COORD(S)=   1   2   3


      ***** EQUILIBRIUM GEOMETRY LOCATED *****
            (SUBJECT TO   3 CONSTRAINT(S))
 COORDINATES OF ALL ATOMS ARE (ANGS)
   ATOM   CHARGE       X              Y              Z
 ------------------------------------------------------------
 C           6.0   0.6696143049   2.1129718081   1.2105457610
 C           6.0   1.9081887218   3.0672485788   1.2873765674
 C           6.0   3.1147182542   2.1459484279   1.0167530284
 O           8.0   2.6539126232   0.8295610310   1.2517105777
 C           6.0   1.2817322518   0.7249570867   0.9219973357
 H           1.0   0.1248661880   2.1018383373   2.1514181137
 H           1.0  -0.0538234785   2.3852406465   0.4452419027
 H           1.0   1.8822868083   3.8884911182   0.5754184739
 H           1.0   1.9931691260   3.5177845822   2.2726864673
 H           1.0   3.4890997263   2.2477564693  -0.0039483615
 H           1.0   3.9607121339   2.3256944762   1.6748752099
 H           1.0   1.1593119621   0.4306028648  -0.1222373623
 H           1.0   0.8583573129  -0.0775378464   1.5200332104


                     --------------------
                     INTERNAL COORDINATES
                     --------------------

                 - - ATOMS - -         COORDINATE      COORDINATE
 NO.   TYPE    I  J  K  L  M  N        (BOHR,RAD)       (ANG,DEG)
 ----------------------------------------------------------------
   1 STRETCH   1  2                     2.9582595       1.5654436
   2 STRETCH   1  6                     2.0546069       1.0872512
   3 STRETCH   1  5                     2.9181025       1.5441935
   4 STRETCH   1  7                     2.0555342       1.0877419
   5 STRETCH   2  3                     2.9139456       1.5419937
   6 STRETCH   2  9                     2.0536722       1.0867566
   7 STRETCH   2  8                     2.0545020       1.0871957
   8 STRETCH   3  4                     2.6727585       1.4143630
   9 STRETCH   3 11                     2.0537584       1.0868022
  10 STRETCH   3 10                     2.0634888       1.0919513
  11 STRETCH   4  5                     2.6741671       1.4151084
  12 STRETCH   5 13                     2.0535430       1.0866883
  13 STRETCH   5 12                     2.0632288       1.0918137
  14 BEND      1  5  4                  1.8487558     105.9259065
  15 BEND      1  5 12                  1.9569246     112.1235195
  16 BEND      1  5 13                  1.9894339     113.9861660
  17 BEND      1  2  3                  1.8195992     104.2553531
  18 BEND      1  2  8                  1.9926797     114.1721383
  19 BEND      1  2  9                  1.9380819     111.0439110
  20 BEND      2  3  4                  1.8462728     105.7836382
  21 BEND      2  1  7                  1.9912316     114.0891649
  22 BEND      2  1  6                  1.9392636     111.1116177
  23 BEND      2  3 10                  1.9569325     112.1239731
  24 BEND      2  3 11                  1.9866641     113.8274657
  25 BEND      2  1  5                  1.8167443     104.0917834
  26 BEND      3  2  8                  1.9337425     110.7952832
  27 BEND      3  2  9                  1.9237055     110.2202049
  28 BEND      3  4  5                  1.9241157     110.2437094
  29 BEND      4  5 12                  1.9299634     110.5787569
  30 BEND      4  5 13                  1.8798384     107.7068092
  31 BEND      4  3 10                  1.9323878     110.7176639
  32 BEND      4  3 11                  1.8827833     107.8755376
  33 BEND      5  1  6                  1.9295502     110.5550812
  34 BEND      5  1  7                  1.9360214     110.9258565
  35 BEND      6  1  7                  1.8526986     106.1518097
  36 BEND      8  2  9                  1.8571273     106.4055559
  37 BEND     10  3 11                  1.8584867     106.4834449
  38 BEND     12  5 13                  1.8583091     106.4732669
  39 TORSION   1  2  3 11              -2.3886763    -136.8610714
  40 TORSION   1  2  3  4              -0.3245866     -18.5974447
  41 TORSION   1  5  4  3              -0.5453469     -31.2460758
  42 TORSION   1  2  3 10               1.7834403     102.1836036
  43 TORSION   2  3  4  5               0.5540799      31.7464387
  44 TORSION   2  1  5 12              -1.8047630    -103.4053023
  45 TORSION   2  1  5 13               2.3655426     135.5356072
  46 TORSION   2  1  5  4               0.3018913      17.2970988
  47 TORSION   3  4  5 12               1.5787101      90.4534255
  48 TORSION   3  4  5 13              -2.6804951    -153.5810538
  49 TORSION   3  2  1  7              -2.0990451    -120.2664236
  50 TORSION   3  2  1  5               0.0134640       0.7714289
  51 TORSION   3  2  1  6               2.0905890     119.7819291
  52 TORSION   4  5  1  7               2.4508985     140.4261403
  53 TORSION   4  3  2  8              -2.4758528    -141.8559157
  54 TORSION   4  3  2  9               1.7564699     100.6383104
  55 TORSION   4  5  1  6              -1.7818474    -102.0923376
  56 TORSION   5  4  3 10              -1.5698249     -89.9443403
  57 TORSION   5  4  3 11               2.6861573     153.9054786
  58 TORSION   5  1  2  9              -2.0578094    -117.9037928
  59 TORSION   5  1  2  8               2.1259077     121.8055405
  60 TORSION   6  1  5 12               2.3946836     137.2052613
  61 TORSION   6  1  2  9               0.0193157       1.1067074
  62 TORSION   6  1  5 13               0.2818038      16.1461708
  63 TORSION   6  1  2  8              -2.0801525    -119.1839593
  64 TORSION   7  1  5 12               0.3442442      19.7237392
  65 TORSION   7  1  2  9               2.1128669     121.0583547
  66 TORSION   7  1  5 13              -1.7686355    -101.3353513
  67 TORSION   7  1  2  8               0.0133987       0.7676880
  68 TORSION   8  2  3 11               1.7432428      99.8804576
  69 TORSION   8  2  3 10              -0.3678258     -21.0748674
  70 TORSION   9  2  3 11              -0.3076198     -17.6253163
  71 TORSION   9  2  3 10              -2.4186885    -138.5806413

          INTERNUCLEAR DISTANCES (ANGS.)


 =====================================================
   GAMESS/COSab RESULTS
 =====================================================

   Dielectric Constant                  = INFTY
   Basic Grid Size                      =                 1082
   Number of Segments                   =                   92
   Number of Segments located on spheres=                  211
   Number of Segments of the cavity     =                  540
   Solvent Radius (rsolv)               = 1.40
   Outlying Charge Error Method         = double cavity

 =====================================================

  Total solvated Energy (a.u.)          =  -231.0373405714
  Total Energy corrected (a.u.)         =  -231.0371318482

  Outlying charge effect (a.u.)         =     0.0002087233
  Outlying charge effect (kcal/mol)     =     0.1309759473

  Dielectric Energy (a.u.)              =    -0.0078826427
  Dielectric energy corr. (a.u.)        =    -0.0076739194

  Sum of polarization charges           =     0.0210813335
  Sum of polarization charges(cor.)     =    -0.0210813335

  Total surface area of cavity (A**2)   =  112.42
  Total volume of cavity (A**3)         =   99.23

 =====================================================
 NPS=                   540
NR.  ATOM  (X, Y, Z)(a.u.)                  CHARGE(e)  AREA(A**2) SIGMA(e/A**2)
   1   1  -0.836100   6.996169   3.208755   0.000491   0.278737   0.001763
   2   1  -2.488325   3.565117   2.183540   0.001052   0.371649   0.002832
   3   1   1.832395   4.482042  -1.416939   0.000016   0.185824   0.000088
   4   1   1.545759   5.031504  -1.335532   0.000208   0.092912   0.002236
   5   1  -2.406750   3.863693   3.172415   0.000830   0.278737   0.002976
   6   1  -1.417556   6.307571   3.602307   0.000870   0.325193   0.002674
   7   1   2.133788   2.928637   5.808588   0.000070   0.185824   0.000376
   8   1  -0.513443   6.805126   4.079674   0.000538   0.232280   0.002315
   9   1  -1.791185   6.206694   2.489678   0.000952   0.325193   0.002927
  10   1  -2.410094   4.823870   2.578429   0.001197   0.325193   0.003682
  11   1  -2.224990   2.584060   2.628995   0.001009   0.464561   0.002171
  12   1  -1.709741   1.812207   3.110553   0.000155   0.185824   0.000837
  13   1  -0.532365   7.317418   2.277148   0.000381   0.232280   0.001642
  14   1  -1.183425   6.868732   2.155990   0.000530   0.232280   0.002280
  15   1  -2.080224   2.583970   1.235959   0.000177   0.185824   0.000950
  16   1  -1.595211   2.181823   0.607983  -0.000038   0.092912  -0.000411
  17   1   1.314476   4.207457  -1.485449   0.000006   0.046456   0.000123
  18   1  -1.722587   2.114725   3.639837   0.000072   0.185824   0.000390
  19   1  -2.068947   5.527159   3.189021   0.000985   0.278737   0.003535
  20   1  -0.004600   6.641388   4.666046   0.000163   0.092912   0.001751
  21   1   2.223021   3.527025   5.913903   0.000022   0.046456   0.000465
  22   1  -0.500880   7.224397   1.437787   0.000211   0.092912   0.002272
  23   1  -1.946980   2.105687   1.652596   0.000031   0.185824   0.000167
  24   2   1.178824   8.597133   3.173286   0.000504   0.278737   0.001806
  25   2   5.035113   9.132247   3.487721   0.001124   0.371649   0.003025
  26   2   3.800036   4.274425   5.886860  -0.000030   0.092912  -0.000319
  27   2   3.341293   4.676593   6.032865  -0.000005   0.046456  -0.000108
  28   2   4.539879   9.452859   2.635884   0.000809   0.278737   0.002902
  29   2   1.741346   9.083276   2.487067   0.000911   0.371649   0.002451
  30   2   3.340149   5.994715  -1.332082   0.000129   0.139368   0.000925
  31   2   3.082766   5.518370  -1.299951   0.000032   0.092912   0.000343
  32   2   0.829559   8.351206   2.213508   0.000502   0.232280   0.002159
  33   2   2.260011   9.138714   3.573232   0.001064   0.325193   0.003271
  34   2   3.749649   9.435599   3.442115   0.001250   0.325193   0.003844
  35   2   5.666286   8.959743   2.610569   0.000695   0.325193   0.002137
  36   2   6.301390   8.399213   1.939353   0.000432   0.185824   0.002327
  37   2   0.979082   8.158228   3.776234   0.000352   0.185824   0.001895
  38   2   1.705894   8.587769   4.130266   0.000517   0.232280   0.002226
  39   2   6.035418   8.245126   3.977120   0.000235   0.185824   0.001266
  40   2   6.447241   7.759429   3.968128  -0.000029   0.092912  -0.000307
  41   2   4.121366   4.499646   5.945252   0.000017   0.046456   0.000365
  42   2   5.916766   8.650018   1.538122   0.000030   0.185824   0.000161
  43   2   2.876230   9.465031   2.972975   0.000985   0.278737   0.003536
  44   2   1.081876   8.428738   1.441175   0.000229   0.139368   0.001647
  45   2   2.495327   6.158022  -1.161639   0.000148   0.092912   0.001590
  46   2   1.291117   7.822697   4.628072   0.000223   0.139368   0.001598
  47   2   6.220775   8.424294   3.167874   0.000467   0.278737   0.001676
  48   3   7.919524   7.150983   1.169539  -0.000556   0.278737  -0.001995
  49   3   9.591849   3.624275   1.317325   0.000570   0.371649   0.001533
  50   3   6.017663   4.026102   5.698433   0.000066   0.139368   0.000473
  51   3   6.468583   4.624482   5.612023  -0.000082   0.046456  -0.001775
  52   3   5.643224   3.328262   5.622312   0.000324   0.139368   0.002324
  53   3   7.563976   1.717323  -0.528637   0.000486   0.185824   0.002616
  54   3   9.345514   4.037830   0.399737   0.000431   0.278737   0.001545
  55   3   8.287462   6.576424   0.451458  -0.000397   0.371649  -0.001069
  56   3   7.293751   7.128734   0.231405  -0.000483   0.325193  -0.001485
  57   3   8.913453   6.249639   1.370785  -0.000024   0.278737  -0.000085
  58   3   9.470294   4.920833   1.092202   0.000505   0.325193   0.001554
  59   3   9.181009   2.651831   0.714193   0.000391   0.464561   0.000841
  60   3   8.450702   1.747470   0.378498   0.000588   0.278737   0.002108
  61   3   7.721390   7.358002   2.006511  -0.000563   0.232280  -0.002422
  62   3   8.486270   6.795699   2.033411  -0.000418   0.232280  -0.001799
  63   3   9.311296   2.461159   2.022388   0.000085   0.325193   0.000261
  64   3   8.789104   1.862180   2.944354   0.000300   0.278737   0.001075
  65   3   6.423007   3.347996   5.595029  -0.000147   0.232280  -0.000635
  66   3   8.557294   2.355479  -0.142349   0.000062   0.185824   0.000331
  67   3   9.041798   5.690980   0.637137   0.000223   0.278737   0.000800
  68   3   6.206029   1.859650  -1.138214   0.000125   0.046456   0.002685
  69   3   7.942519   7.096078   2.820364  -0.000137   0.139368  -0.000981
  70   3   8.875290   1.779320   1.511134   0.000008   0.278737   0.000030
  71   4   5.737598   0.211549   5.229614   0.006043   0.309230   0.019542
  72   4   7.269645  -0.772142   2.450979   0.006581   0.343589   0.019154
  73   4   6.034808  -0.482478   0.058465   0.002750   0.206154   0.013338
  74   4   5.059665  -1.296542   3.901334   0.002744   0.206154   0.013310
  75   4   5.158148  -0.631270   4.754744   0.006222   0.343589   0.018109
  76   4   5.429644  -1.613230   2.889684   0.003795   0.240512   0.015780
  77   4   6.347582  -1.366690   2.788444   0.006330   0.343589   0.018424
  78   4   6.438950  -0.341216   4.577572   0.006504   0.343589   0.018931
  79   4   6.982919  -0.702415   3.606120   0.007259   0.377948   0.019207
  80   4   6.808998  -1.012771   1.535802   0.007536   0.377948   0.019940
  81   4   6.068744  -1.005105   0.681489   0.004842   0.240512   0.020133
  82   4   4.735516   0.393625   5.383366   0.004334   0.309230   0.014016
  83   4   6.725605   0.649406   4.972284   0.004951   0.274871   0.018013
  84   4   7.263182   1.007582   4.645170   0.002098   0.137436   0.015266
  85   4   7.797441   0.638710   3.765622   0.002438   0.171795   0.014189
  86   4   7.843768   0.073576   2.941038   0.005021   0.343589   0.014614
  87   4   7.765208  -0.063773   1.782014   0.006420   0.343589   0.018684
  88   4   7.541164   0.211871   0.833796   0.002163   0.206154   0.010492
  89   4   6.808496   0.068734   0.106674   0.004090   0.206154   0.019840
  90   4   6.094024   0.366292  -0.455493   0.003381   0.240512   0.014056
  91   4   5.003366   1.906834   5.597961   0.002884   0.171795   0.016789
  92   4   5.555147   1.147720   5.542932   0.005164   0.274871   0.018786
  93   4   5.901294  -1.153396   3.906613   0.006057   0.343589   0.017630
  94   4   5.801766  -1.522683   1.736304   0.004743   0.343589   0.013803
  95   4   7.356711   0.179174   4.141327   0.004642   0.274871   0.016887
  96   4   6.949963  -0.467684   0.728756   0.004469   0.240512   0.018582
  97   4   4.601276   1.377485   5.583657   0.003110   0.171795   0.018104
  98   4   6.249530   1.363549   5.365285   0.002954   0.171795   0.017193
  99   5   3.542822  -2.122223   0.829742   0.000097   0.278737   0.000348
 100   5  -0.182787  -1.213131   0.833341   0.000089   0.325193   0.000273
 101   5   2.629911   1.214543   5.512857   0.000037   0.185824   0.000198
 102   5   2.739318   0.478400   5.401385   0.000227   0.185824   0.001223
 103   5  -0.512029   1.171529  -0.631624  -0.000290   0.139368  -0.002082
 104   5   0.264103  -1.191833  -0.008197   0.000114   0.278737   0.000410
 105   5   2.892055  -1.998159   0.093368   0.000414   0.371649   0.001114
 106   5   2.624732   3.032637  -1.645711  -0.000092   0.046456  -0.001981
 107   5   4.008922  -1.546262  -0.063736   0.000301   0.371649   0.000809
 108   5   2.307747  -2.350372   1.086463   0.000405   0.371649   0.001089
 109   5   0.840256  -1.889697   0.666936   0.000585   0.325193   0.001799
 110   5  -0.645351  -0.323690   0.325868  -0.000317   0.371649  -0.000854
 111   5  -0.973379   0.657130   0.243433  -0.000657   0.278737  -0.002356
 112   5   3.948005  -2.080086   1.512145   0.000370   0.232280   0.001591
 113   5   3.247068  -2.309391   1.999130  -0.000033   0.278737  -0.000120
 114   5  -0.883335  -0.440668   1.459896  -0.000471   0.278737  -0.001688
 115   5  -1.148595   0.214527   2.188611  -0.000453   0.232280  -0.001951
 116   5   2.989651  -0.067196   5.191482   0.000126   0.046456   0.002719
 117   5   1.972867   0.887238   5.463801  -0.000029   0.139368  -0.000211
 118   5  -0.515633   0.341126  -0.401343  -0.000215   0.139368  -0.001540
 119   5   1.723014  -2.024778   0.235299   0.000516   0.278737   0.001853
 120   5   4.518931  -0.756124  -0.574425   0.000691   0.185824   0.003717
 121   5   3.771267  -1.968367   2.891019   0.000082   0.185824   0.000442
 122   5  -1.203837   0.456080   1.193261  -0.000357   0.232280  -0.001538
 123   6  -1.062712   3.947536   6.150749  -0.003348   0.569203  -0.005883
 124   6   0.658848   3.116869   6.329470  -0.001391   0.412182  -0.003375
 125   6  -1.322115   2.451846   5.204393  -0.001392   0.372926  -0.003732
 126   6  -2.149448   4.099716   4.638757  -0.000980   0.372926  -0.002627
 127   6  -1.029612   5.680052   5.296685  -0.001124   0.412182  -0.002726
 128   6   0.460721   4.146567   6.505679  -0.002261   0.490692  -0.004608
 129   6  -0.423422   2.703507   6.063448  -0.002318   0.490692  -0.004725
 130   6  -1.847901   3.228621   5.133338  -0.001673   0.412182  -0.004058
 131   6  -1.738687   4.865752   5.221804  -0.001892   0.471065  -0.004016
 132   6  -0.291086   5.218402   6.115836  -0.002436   0.529948  -0.004596
 133   7  -1.767276   5.159460  -0.842618  -0.003663   0.588831  -0.006221
 134   7  -1.090694   3.809858  -1.296464  -0.001794   0.392554  -0.004570
 135   7   0.094116   5.309597  -1.472337  -0.001120   0.333671  -0.003357
 136   7  -0.972827   6.638836  -0.015010  -0.001118   0.333671  -0.003350
 137   7  -2.409545   5.345833   0.919399  -0.001036   0.372926  -0.002777
 138   7  -2.221624   3.452074   0.187735  -0.000971   0.333671  -0.002910
 139   7  -0.455949   4.599993  -1.587825  -0.001871   0.431809  -0.004333
 140   7  -0.677380   6.080806  -0.955344  -0.002421   0.490692  -0.004933
 141   7  -1.857502   6.137774   0.298882  -0.002131   0.510320  -0.004176
 142   7  -2.495980   4.513028   0.291352  -0.002106   0.471065  -0.004470
 143   7  -1.820785   3.642611  -0.685688  -0.001955   0.412182  -0.004743
 144   8   3.445388   9.234579  -0.482366  -0.003657   0.588831  -0.006211
 145   8   2.229675   8.104801  -0.836364  -0.001320   0.294415  -0.004485
 146   8   3.790146   7.513183  -1.352589  -0.001150   0.314043  -0.003661
 147   8   5.248434   8.768456   0.011775  -0.001341   0.353299  -0.003797
 148   8   3.964119   9.763347   1.277972  -0.001073   0.372926  -0.002877
 149   8   2.012666   9.246116   0.868347  -0.000879   0.353299  -0.002487
 150   8   3.060767   7.957062  -1.240292  -0.001870   0.431809  -0.004331
 151   8   4.555773   8.444531  -0.871065  -0.002615   0.510320  -0.005124
 152   8   4.658785   9.454901   0.468612  -0.002076   0.471065  -0.004406
 153   8   3.018174   9.731270   0.831162  -0.002025   0.471065  -0.004300
 154   8   2.072905   8.882099  -0.129022  -0.002231   0.490692  -0.004547
 155   9   3.966693   7.760275   6.475838  -0.003094   0.529948  -0.005838
 156   9   4.997291   6.477154   6.414020  -0.001445   0.333671  -0.004332
 157   9   3.456319   5.832674   6.591417  -0.001204   0.333671  -0.003609
 158   9   2.187442   7.644941   5.890677  -0.001244   0.353299  -0.003522
 159   9   3.578807   8.953811   5.120294  -0.000925   0.372926  -0.002480
 160   9   5.466898   8.128627   5.269755  -0.001145   0.372926  -0.003069
 161   9   4.228005   6.197706   6.665344  -0.001746   0.412182  -0.004236
 162   9   2.891099   6.992201   6.564113  -0.002199   0.451437  -0.004870
 163   9   2.844222   8.403190   5.744766  -0.001826   0.471065  -0.003875
 164   9   4.509489   8.657423   5.496411  -0.001896   0.471065  -0.004026
 165   9   5.246287   7.435606   6.090470  -0.001985   0.431809  -0.004596
 166  10   7.149709   4.627846  -2.369911  -0.002527   0.471065  -0.005364
 167  10   6.089965   5.269298  -2.184123  -0.001442   0.314043  -0.004590
 168  10   6.114225   3.741148  -2.363082  -0.001565   0.372926  -0.004197
 169  10   7.688169   2.732398  -1.601438  -0.001048   0.372926  -0.002811
 170  10   8.819665   4.537671  -1.004947  -0.001108   0.353299  -0.003136
 171  10   7.677460   6.134066  -1.148273  -0.001293   0.353299  -0.003661
 172  10   5.536731   4.497626  -2.211092  -0.001116   0.314043  -0.003553
 173  10   6.799837   2.984799  -2.104548  -0.001889   0.451437  -0.004184
 174  10   7.999595   3.982024  -2.004295  -0.002261   0.431809  -0.005237
 175  10   8.331749   5.284155  -1.399974  -0.002123   0.471065  -0.004507
 176  10   6.988470   5.814938  -1.857509  -0.002227   0.431809  -0.005156
 177  10   8.573528   3.385425  -1.178359  -0.001056   0.353299  -0.002988
 178  11   9.459984   4.780513   4.573781  -0.003806   0.549575  -0.006925
 179  11   8.387933   3.149207   5.080106  -0.001383   0.372926  -0.003708
 180  11   7.716998   4.903367   5.557256  -0.001847   0.353299  -0.005227
 181  11   8.526702   6.409902   4.107970  -0.001712   0.333671  -0.005130
 182  11   9.761665   5.240691   2.797645  -0.001559   0.372926  -0.004182
 183  11   9.666867   3.299773   3.436563  -0.001536   0.412182  -0.003726
 184  11   8.379017   4.179366   5.442945  -0.002568   0.490692  -0.005232
 185  11   8.493735   5.717661   4.972603  -0.003038   0.490692  -0.006190
 186  11   9.336573   5.951614   3.591904  -0.002669   0.510320  -0.005230
 187  11   9.937005   4.338797   3.298967  -0.002381   0.471065  -0.005054
 188  11   9.246672   3.283687   4.467201  -0.002811   0.490692  -0.005729
 189  12   1.975293   0.094333  -2.570036  -0.002494   0.451437  -0.005524
 190  12   3.775368   0.347415  -2.049429  -0.001273   0.372926  -0.003415
 191  12   2.254875   2.020206  -2.370010  -0.001312   0.353299  -0.003715
 192  12   0.391285   0.920575  -1.899977  -0.001503   0.314043  -0.004785
 193  12   1.049098  -1.011726  -1.413945  -0.001305   0.372926  -0.003500
 194  12   3.030708  -1.137779  -1.464370  -0.000823   0.333671  -0.002467
 195  12   2.867951   1.127296  -2.571548  -0.002311   0.510320  -0.004529
 196  12   1.297534   1.347298  -2.456417  -0.002311   0.471065  -0.004907
 197  12   0.984024  -0.028729  -2.197997  -0.001730   0.333671  -0.005186
 198  12   1.986115  -1.153711  -1.687833  -0.001840   0.451437  -0.004076
 199  12   3.130923  -0.382114  -2.160026  -0.001834   0.431809  -0.004247
 200  12   0.283448  -0.120414  -1.465727  -0.001081   0.314043  -0.003441
 201  13   0.727269  -1.960227   4.267037  -0.004222   0.608459  -0.006939
 202  13   0.021881  -0.426250   4.715327  -0.001858   0.314043  -0.005918
 203  13   2.001980  -0.863543   5.191197  -0.001389   0.372926  -0.003725
 204  13   2.507248  -2.261867   3.753846  -0.001465   0.353299  -0.004148
 205  13   0.839522  -2.414763   2.345357  -0.001414   0.372926  -0.003791
 206  13  -0.640456  -1.102428   2.920624  -0.001407   0.353299  -0.003983
 207  13   0.918968  -0.732183   5.152294  -0.002539   0.490692  -0.005174
 208  13   2.164149  -1.779639   4.625772  -0.002729   0.490692  -0.005561
 209  13   1.628919  -2.586214   3.160478  -0.002592   0.510320  -0.005078
 210  13   0.046065  -2.030924   2.891000  -0.002811   0.510320  -0.005508
 211  13  -0.415268  -0.976069   3.966150  -0.002937   0.510320  -0.005755
 212   1   2.903416   4.461432  -1.209400  -0.000404   0.069449  -0.005817
 213   2   3.309299   4.773127  -1.220469  -0.000351   0.069449  -0.005049
 214   3   3.710319   4.472335  -1.274084  -0.000373   0.069449  -0.005369
 215   1   3.241969   3.175263   5.502628  -0.000248   0.112163  -0.002214
 216   2   3.648906   3.488706   5.528100  -0.000243   0.112163  -0.002165
 217   4   3.914137   2.737803   5.391324   0.000601   0.112163   0.005360
 218   1   0.434734   6.476369   5.022897   0.000025   0.026028   0.000951
 219   2   0.858141   6.761485   5.016311   0.000062   0.026028   0.002387
 220   6   0.293405   6.262743   5.185270  -0.000045   0.026028  -0.001738
 221   1   1.341830   5.770880  -1.053063   0.000030   0.021054   0.001410
 222   2   1.751683   6.066936  -0.983392   0.000072   0.021054   0.003442
 223   7   1.041001   5.742949  -1.080182  -0.000035   0.021054  -0.001647
 224   1   0.558617   7.454114   0.643501   0.000094   0.020843   0.004514
 225   2   0.935383   7.798363   0.647811   0.000030   0.020843   0.001451
 226   8   1.146869   7.957188   0.499825  -0.000027   0.020843  -0.001297
 227   1   2.530038   4.450093   5.941043   0.000013   0.026087   0.000499
 228   2   2.935338   4.752594   6.010586  -0.000011   0.026087  -0.000432
 229   9   3.012779   5.026801   6.113781  -0.000065   0.026087  -0.002487
 230   2   3.148986   4.284361   5.894843  -0.000021   0.183441  -0.000113
 231   1   2.697938   3.677153   5.798798  -0.000105   0.183441  -0.000570
 232   2   2.693490   5.445604  -1.185168  -0.000291   0.296041  -0.000983
 233   1   1.904626   5.268532  -1.177861  -0.000056   0.296041  -0.000190
 234   2   0.690597   7.858154   1.137923   0.000419   0.200408   0.002092
 235   2   0.578754   7.857337   2.951015  -0.000064   0.405188  -0.000157
 236   2   0.907356   7.294322   4.646552   0.000298   0.200408   0.001487
 237   1   0.041244   7.447902   1.792383   0.000292   0.405188   0.000720
 238   1   0.176370   7.096414   3.979637   0.000100   0.405188   0.000246
 239   1   2.803367   4.030219  -1.258604  -0.000592   0.106889  -0.005539
 240   3   3.613226   4.036172  -1.292381  -0.000730   0.106889  -0.006826
 241   5   3.004827   3.576042  -1.359526  -0.000602   0.106889  -0.005636
 242   3   3.870010   4.303561  -1.436362   0.000009   0.012714   0.000698
 243   1   2.719910   4.297534  -1.344461   0.000028   0.012714   0.002237
 244   1   2.959782   2.512136   5.461629  -0.000092   0.061858  -0.001493
 245   4   3.638631   2.079311   5.389330   0.000662   0.061858   0.010710
 246   5   3.166622   2.055414   5.405348   0.000159   0.061858   0.002569
 247   4   3.971505   2.257246   5.504180   0.000889   0.084286   0.010550
 248   1   2.967637   2.826201   5.628983   0.000040   0.093025   0.000429
 249   1   1.655689   2.369741   5.686614  -0.000047   0.026655  -0.001758
 250   5   1.852108   1.926778   5.549767  -0.000044   0.026655  -0.001644
 251   6   1.394265   2.488734   5.784066  -0.000083   0.026655  -0.003129
 252   1  -1.316316   2.207492   0.169596  -0.000092   0.026182  -0.003498
 253   5  -1.080613   1.768521   0.097078  -0.000121   0.026182  -0.004633
 254   7  -1.387657   2.464049   0.023932  -0.000124   0.026182  -0.004740
 255   1   2.139145   3.554868  -1.479482  -0.000092   0.024749  -0.003701
 256   5   2.343953   3.115775  -1.616288  -0.000072   0.024749  -0.002910
 257  12   2.288038   2.852695  -1.760992  -0.000099   0.024749  -0.004008
 258   1  -1.061493   1.106211   3.475914  -0.000065   0.021172  -0.003062
 259   5  -0.900868   0.635404   3.398938  -0.000098   0.021172  -0.004620
 260  13  -0.793043   0.376339   3.512860  -0.000132   0.021172  -0.006222
 261   5   2.600817   1.886632   5.513130  -0.000058   0.163747  -0.000353
 262   1   2.138737   2.454785   5.662381  -0.000131   0.163747  -0.000798
 263   5  -1.137356   0.776009   2.925519  -0.000423   0.195369  -0.002163
 264   5  -1.222718   1.105124   1.161257  -0.001738   0.394920  -0.004401
 265   1  -1.496819   1.532615   2.385923  -0.001017   0.394920  -0.002576
 266   1  -1.450200   1.917867   0.631605  -0.000310   0.195369  -0.001588
 267   5   2.513246   3.318348  -1.559773  -0.000096   0.065286  -0.001464
 268   1   2.297373   3.994158  -1.406094  -0.000140   0.065286  -0.002140
 269   1   2.145899   4.329950   5.975487  -0.000017   0.053139  -0.000318
 270   6   1.851036   4.324198   6.049626  -0.000102   0.053139  -0.001926
 271   9   2.626467   4.927522   6.054104   0.000028   0.053139   0.000522
 272   1  -0.945368   1.509319   4.138782  -0.000061   0.051342  -0.001180
 273   6  -0.960767   1.699602   4.375293  -0.000118   0.051342  -0.002291
 274  13  -0.614406   0.807332   4.089493  -0.000122   0.051342  -0.002376
 275   6   1.300596   2.955425   6.033702  -0.000169   0.067600  -0.002507
 276   6   1.503846   3.767095   6.160981  -0.000186   0.067600  -0.002750
 277   1   1.772213   3.295975   5.922832  -0.000399   0.148928  -0.002678
 278   6  -0.221759   6.109393   5.189595  -0.000149   0.067112  -0.002214
 279   6  -1.132036   5.861988   4.659636  -0.000403   0.148027  -0.002720
 280   6  -1.954300   4.965858   4.172962  -0.000285   0.148027  -0.001926
 281   6  -2.153525   3.677729   4.042378  -0.000433   0.148027  -0.002926
 282   6  -1.652084   2.499517   4.318767  -0.000501   0.148027  -0.003383
 283   1  -0.440521   6.304604   4.677290  -0.000261   0.148059  -0.001763
 284   1  -1.591992   5.683039   4.003258  -0.000163   0.148059  -0.001099
 285   1  -2.196055   4.391366   3.638240  -0.000079   0.148059  -0.000533
 286   1  -2.017338   2.932882   3.724463  -0.000250   0.148059  -0.001686
 287   1  -1.390688   1.978937   4.075997  -0.000137   0.081992  -0.001677
 288   1   0.273747   7.211505   0.521315   0.000098   0.045298   0.002169
 289   7   0.084835   7.049002   0.347604  -0.000052   0.045298  -0.001153
 290   8   0.924299   7.641065   0.420490   0.000112   0.045298   0.002482
 291   1   1.008336   3.618532  -1.490199  -0.000032   0.050724  -0.000633
 292   7   0.727828   3.735896  -1.482881  -0.000096   0.050724  -0.001902
 293  12   1.238595   2.906965  -1.673834  -0.000069   0.050724  -0.001358
 294   7  -1.766099   2.841465   0.146302  -0.000241   0.070981  -0.003392
 295   7  -2.291722   3.528821   0.887711  -0.000590   0.158350  -0.003729
 296   7  -2.407790   4.782356   1.443393  -0.000455   0.158350  -0.002872
 297   7  -1.863759   6.044650   1.378201  -0.000474   0.158350  -0.002996
 298   7  -0.895587   6.768222   0.720408  -0.000514   0.158350  -0.003244
 299   1  -1.902937   2.786328   0.733732  -0.000505   0.154902  -0.003260
 300   1  -2.403657   3.948856   1.620650  -0.000233   0.154902  -0.001507
 301   1  -2.149124   5.445161   1.912372  -0.000173   0.154902  -0.001119
 302   1  -1.249732   6.626267   1.482372  -0.000247   0.154902  -0.001596
 303   1  -0.319474   7.066320   0.759553   0.000000   0.086718   0.000001
 304   7   0.717910   5.345065  -1.311141  -0.000189   0.076951  -0.002451
 305   7   0.580080   4.417043  -1.511008  -0.000209   0.076951  -0.002713
 306   1   1.042832   4.805640  -1.332506  -0.000474   0.164958  -0.002871
 307   1   0.309211   7.390763   0.569723   0.000051   0.007201   0.007093
 308   9   3.043933   5.180952   6.236589  -0.000015   0.010473  -0.001461
 309   1   2.331774   4.301325   6.047224   0.000057   0.014756   0.003850
 310  12   1.785974   2.608617  -1.932561  -0.000474   0.180141  -0.002631
 311   1   1.676523   3.702684  -1.571384   0.000076   0.253578   0.000299
 312  13  -0.669550   0.253215   3.865218  -0.000363   0.108928  -0.003332
 313   1  -1.155211   1.304236   3.777105   0.000096   0.153369   0.000625
 314   2   4.443894   3.623316   5.549014  -0.000069   0.061804  -0.001113
 315   3   4.837438   3.312937   5.497955   0.000182   0.061804   0.002952
 316   4   4.697669   2.863965   5.450368   0.000554   0.061804   0.008960
 317   2   6.128559   7.988722   0.652661  -0.000103   0.026304  -0.003925
 318   3   6.498339   7.655513   0.581795  -0.000135   0.026304  -0.005147
 319   8   5.909638   8.132665   0.499925  -0.000098   0.026304  -0.003707
 320   2   4.817706   4.738575   5.861291  -0.000051   0.027046  -0.001879
 321   3   5.205939   4.446989   5.730670  -0.000045   0.027046  -0.001681
 322   9   4.764904   5.014143   5.975929  -0.000063   0.027046  -0.002336
 323   2   4.025519   5.046990  -1.362830  -0.000093   0.024749  -0.003763
 324   3   4.407025   4.747215  -1.494458  -0.000085   0.024749  -0.003417
 325  10   4.683605   4.743702  -1.624119  -0.000080   0.024749  -0.003234
 326   2   6.907745   7.274473   3.871295  -0.000065   0.021476  -0.003004
 327   3   7.327353   7.006262   3.803055  -0.000104   0.021476  -0.004863
 328  11   7.544177   6.831620   3.922415  -0.000114   0.021476  -0.005325
 329   3   5.209513   3.902215   5.675011  -0.000042   0.142566  -0.000292
 330   2   4.540305   4.203193   5.773419  -0.000102   0.142566  -0.000713
 331   3   4.137171   4.590917  -1.450543  -0.000123   0.057428  -0.002147
 332   2   3.612604   5.076304  -1.335074  -0.000097   0.057428  -0.001692
 333   3   7.007116   7.565711   1.217363  -0.000998   0.282172  -0.003535
 334   3   7.257130   7.329831   3.135057  -0.000727   0.282172  -0.002575
 335   2   6.522076   7.818380   2.301328  -0.002591   0.590879  -0.004385
 336   4   4.468629   2.591710   5.535689   0.000990   0.105970   0.009346
 337   2   4.017104   3.648131   5.691490   0.000059   0.116947   0.000507
 338   2   1.196552   6.924377   5.155317   0.000032   0.053198   0.000597
 339   6   0.672436   6.367947   5.258551   0.000075   0.053198   0.001403
 340   9   1.429651   6.988765   5.339312  -0.000082   0.053198  -0.001533
 341   6   0.195479   6.171909   5.331806  -0.000007   0.009345  -0.000745
 342   2   1.003734   6.960454   5.123818   0.000059   0.013166   0.004453
 343   2   1.980328   6.395343  -0.952503   0.000051   0.045087   0.001126
 344   7   1.280481   6.037935  -0.949849   0.000093   0.045087   0.002072
 345   8   2.085794   6.679794  -0.944104  -0.000070   0.045087  -0.001562
 346   7   0.857666   5.761381  -1.152590  -0.000009   0.008511  -0.001099
 347   2   1.911747   6.262039  -1.077538   0.000064   0.011984   0.005323
 348   2   4.282728   6.213283  -1.288120  -0.000046   0.050505  -0.000915
 349   8   4.241135   6.513181  -1.262068  -0.000112   0.050505  -0.002210
 350  10   4.920180   5.817427  -1.458076  -0.000089   0.050505  -0.001768
 351   8   3.628398   6.835588  -1.308848  -0.000209   0.076028  -0.002750
 352   8   2.694481   6.927777  -1.168521  -0.000196   0.076028  -0.002577
 353   2   3.128533   6.476921  -1.191778  -0.000454   0.163366  -0.002782
 354   8   1.403164   8.422950   0.603176  -0.000163   0.070924  -0.002297
 355   8   1.932946   9.093300   1.357157  -0.000504   0.158253  -0.003187
 356   8   3.116955   9.573619   1.868126  -0.000376   0.158253  -0.002376
 357   8   4.479760   9.474954   1.704723  -0.000546   0.158253  -0.003452
 358   8   5.429822   8.840133   0.937874  -0.000638   0.158253  -0.004034
 359   2   1.346207   8.495487   1.201529  -0.000268   0.154744  -0.001731
 360   2   2.342641   9.287222   2.078548  -0.000236   0.154744  -0.001528
 361   2   3.857442   9.514223   2.285275  -0.000147   0.154744  -0.000952
 362   2   5.233095   9.077959   1.731977  -0.000342   0.154744  -0.002211
 363   2   5.898687   8.391066   0.915413  -0.000211   0.086649  -0.002440
 364   2   6.428137   7.191190   4.571301  -0.000072   0.051627  -0.001401
 365   9   6.233797   7.233502   4.800863  -0.000122   0.051627  -0.002369
 366  11   7.029884   6.703135   4.525218  -0.000137   0.051627  -0.002656
 367   9   3.487646   5.218571   6.275194  -0.000148   0.066879  -0.002217
 368   9   4.323049   5.208113   6.207926  -0.000165   0.066879  -0.002464
 369   2   3.884467   4.852931   6.038273  -0.000381   0.147598  -0.002584
 370   9   5.865260   7.775359   4.901012  -0.000190   0.066384  -0.002867
 371   9   5.199988   8.559689   4.599744  -0.000415   0.146154  -0.002842
 372   9   3.998750   9.037987   4.484638  -0.000327   0.146154  -0.002236
 373   9   2.744061   8.789802   4.706336  -0.000356   0.146154  -0.002435
 374   9   1.915513   7.910000   5.180095  -0.000432   0.146154  -0.002953
 375   2   5.824108   8.075154   4.397585  -0.000360   0.146711  -0.002451
 376   2   4.707597   8.961488   4.088593  -0.000120   0.146711  -0.000817
 377   2   3.256662   9.097436   4.151566  -0.000065   0.146711  -0.000444
 378   2   2.025907   8.431034   4.562434  -0.000162   0.146711  -0.001106
 379   2   1.456877   7.507300   5.033899  -0.000053   0.081103  -0.000658
 380  10   4.983527   5.040254  -1.749508  -0.000529   0.193355  -0.002738
 381   2   4.100436   5.713734  -1.421803   0.000072   0.272152   0.000263
 382  11   7.636811   6.693153   4.200714  -0.000447   0.123430  -0.003623
 383   2   6.678460   7.340595   4.291452   0.000103   0.173784   0.000593
 384   3   5.763275   1.446426  -0.943583   0.000491   0.059120   0.008297
 385   4   5.599974   1.023921  -0.808756   0.000824   0.059120   0.013930
 386   5   5.159553   0.978418  -0.974773   0.000518   0.059120   0.008756
 387   3   8.138964   1.962893   4.123592   0.000044   0.010010   0.004357
 388   4   7.882641   1.567416   4.124468   0.000165   0.010010   0.016442
 389  11   8.290118   2.210392   4.210372  -0.000025   0.010010  -0.002524
 390   3   7.436446   2.351077   4.920633   0.000097   0.010010   0.009673
 391   4   7.210049   1.939065   4.887558   0.000236   0.010010   0.023624
 392  11   7.652449   2.562744   4.933840  -0.000001   0.010010  -0.000124
 393   4   6.635136   1.801298   5.156115   0.002745   0.193445   0.014188
 394   4   5.279229   2.336752   5.496814   0.002629   0.193445   0.013589
 395   3   6.197044   2.695836   5.295941   0.002977   0.415789   0.007160
 396   4   6.241284   0.918700  -0.561128   0.002248   0.187705   0.011976
 397   4   7.548086   0.700123   0.777198   0.006377   0.394380   0.016169
 398   4   7.998130   0.938486   2.995273   0.004664   0.394380   0.011825
 399   3   7.069772   1.392260  -0.295834   0.003236   0.403287   0.008023
 400   3   8.310643   1.318323   1.723544   0.002281   0.403287   0.005655
 401   3   8.268475   1.675709   3.643122   0.000750   0.205342   0.003653
 402   3   4.344940   3.808461  -1.541613  -0.000154   0.036541  -0.004217
 403   5   3.758751   3.323860  -1.486958  -0.000263   0.036541  -0.007194
 404  10   4.624794   3.850653  -1.656276  -0.000178   0.036541  -0.004879
 405   3   5.313384   1.533855  -1.136333   0.000216   0.036005   0.006005
 406   5   4.746815   1.034745  -1.242673   0.000046   0.036005   0.001288
 407  12   4.501611   0.964392  -1.410342  -0.000050   0.036005  -0.001387
 408   5   3.189612   3.293160  -1.570154  -0.000099   0.090724  -0.001091
 409   3   4.093199   3.906726  -1.546194  -0.000105   0.090724  -0.001160
 410   5   4.953574   0.993943  -1.213114   0.000160   0.043549   0.003685
 411   3   5.831774   1.637682  -1.150535   0.000159   0.043549   0.003641
 412   3   6.385850   6.925830  -0.523085  -0.000155   0.048731  -0.003181
 413   8   5.779119   7.382177  -0.467347  -0.000136   0.048731  -0.002789
 414  10   6.471650   6.726091  -0.738515  -0.000231   0.048731  -0.004735
 415   8   5.698599   8.092218   0.064092  -0.000752   0.217745  -0.003453
 416   3   6.528379   7.309128  -0.081705  -0.000425   0.306518  -0.001386
 417   3   6.338674   5.053228   5.562003  -0.000059   0.045616  -0.001283
 418   9   5.802262   5.564073   5.723334  -0.000050   0.045616  -0.001103
 419  11   6.638588   5.064956   5.517518  -0.000148   0.045616  -0.003238
 420   9   5.011875   5.413286   6.061532  -0.000507   0.210598  -0.002409
 421   3   5.878818   4.739531   5.736475   0.000072   0.296534   0.000242
 422   3   5.689307   1.885787  -1.222063   0.000119   0.065651   0.001815
 423  10   5.823528   2.119025  -1.368249  -0.000125   0.065651  -0.001898
 424  12   4.796685   1.393419  -1.341937   0.000123   0.065651   0.001880
 425  10   4.955577   4.298176  -1.853929  -0.000205   0.049977  -0.004103
 426   3   4.575888   4.374605  -1.622658  -0.000194   0.061058  -0.003183
 427  10   7.084331   6.502142  -0.853279  -0.000339   0.068930  -0.004914
 428  10   8.053969   6.083015  -0.539427  -0.000785   0.152414  -0.005149
 429  10   8.842996   5.024183  -0.355630  -0.000570   0.152414  -0.003741
 430  10   8.888218   3.696774  -0.471446  -0.000562   0.152414  -0.003688
 431  10   8.171440   2.634860  -0.840278  -0.000558   0.152414  -0.003662
 432  10   6.981050   2.265689  -1.313729  -0.000487   0.152414  -0.003193
 433   3   7.413432   6.585923  -0.361294  -0.000790   0.151746  -0.005209
 434   3   8.600697   5.742995  -0.009890  -0.000539   0.151746  -0.003552
 435   3   9.094847   4.329557   0.030377  -0.000350   0.151746  -0.002306
 436   3   8.697066   2.914293  -0.256694  -0.000328   0.151746  -0.002159
 437   3   7.567396   2.066620  -0.755602  -0.000375   0.151746  -0.002472
 438   3   6.432967   1.963391  -1.182000   0.000013   0.084213   0.000157
 439  11   7.091335   4.549650   5.578987  -0.000257   0.077021  -0.003333
 440  11   7.516827   3.419687   5.340646  -0.000741   0.175339  -0.004227
 441   3   6.831883   3.978731   5.514579  -0.000613   0.164948  -0.003714
 442   3   7.365900   2.783218   5.154636   0.000016   0.094098   0.000165
 443  11   8.706110   2.469194   4.071462  -0.000185   0.072693  -0.002544
 444  11   9.326570   2.864311   3.165968  -0.000748   0.163151  -0.004586
 445  11   9.705502   3.966548   2.377821  -0.000678   0.163151  -0.004153
 446  11   9.490837   5.353286   2.275021  -0.000861   0.163151  -0.005279
 447  11   8.780490   6.391990   2.904458  -0.000987   0.163151  -0.006048
 448  11   8.049901   6.708308   3.757212  -0.000384   0.072693  -0.005282
 449   3   8.766521   2.287815   3.489489  -0.000580   0.157730  -0.003680
 450   3   9.469577   3.133193   2.354845  -0.000555   0.157730  -0.003520
 451   3   9.567564   4.617889   1.823388  -0.000505   0.157730  -0.003199
 452   3   9.015786   6.064687   2.137531  -0.000751   0.157730  -0.004763
 453   3   8.065927   6.813659   3.153984  -0.000913   0.157730  -0.005788
 454   4   4.198394  -1.302103   3.918953   0.000216   0.010694   0.020158
 455   5   3.752708  -1.451372   3.881001   0.000078   0.010694   0.007300
 456  13   3.470765  -1.537674   3.949312  -0.000006   0.010694  -0.000568
 457   4   3.940339  -0.544709   4.752618   0.000212   0.010694   0.019837
 458   5   3.483180  -0.660303   4.751732   0.000063   0.010694   0.005905
 459  13   3.226106  -0.819597   4.739699  -0.000016   0.010694  -0.001468
 460   5   3.527164  -0.142529   5.025281   0.001182   0.209830   0.005634
 461   5   3.322634   1.318753   5.412892   0.001200   0.209830   0.005721
 462   4   4.109109   0.688282   5.202484   0.006278   0.404135   0.015534
 463   5   4.914640   0.255727  -0.875280   0.001217   0.204753   0.005944
 464   5   4.709573  -1.173036   0.431401   0.002987   0.402125   0.007429
 465   5   4.207416  -1.686736   2.684179   0.001762   0.402125   0.004381
 466   4   5.464633  -0.205033  -0.155366   0.006237   0.393055   0.015869
 467   4   5.116606  -1.471899   1.694907   0.005236   0.393055   0.013322
 468   4   4.675714  -1.439775   3.519565   0.001923   0.187167   0.010275
 469  11   8.040384   2.497302   4.732187  -0.000300   0.237833  -0.001261
 470   4   7.576201   1.491009   4.519203   0.002554   0.290021   0.008807
 471  13   3.264182  -1.370998   4.333632  -0.000271   0.253803  -0.001067
 472   4   4.268843  -0.884075   4.508567   0.002879   0.309466   0.009302
 473   5   1.070932   1.035158   5.280342  -0.000052   0.045500  -0.001135
 474   6   0.691886   1.675304   5.439144  -0.000020   0.045500  -0.000446
 475  13   0.992583   0.748648   5.218737  -0.000150   0.045500  -0.003292
 476   6   0.803067   2.260740   5.792943  -0.000462   0.195200  -0.002366
 477   5   1.590007   1.468300   5.533543   0.000096   0.274862   0.000349
 478   5  -0.304617   1.721147  -0.886212  -0.000132   0.049117  -0.002688
 479   7  -0.593680   2.424487  -0.825509  -0.000110   0.049117  -0.002242
 480  12  -0.118766   1.595924  -1.094575  -0.000210   0.049117  -0.004275
 481   7  -1.162738   2.716156  -0.532688  -0.000652   0.202724  -0.003215
 482   5  -0.829851   1.628726  -0.359929  -0.000358   0.285401  -0.001255
 483   5   3.418883   2.930669  -1.603564  -0.000273   0.065115  -0.004194
 484  10   4.323378   3.413527  -1.591739  -0.000245   0.065115  -0.003761
 485  12   3.317311   2.672121  -1.732238  -0.000278   0.065115  -0.004266
 486  10   4.762980   3.891317  -1.845401  -0.000000   0.009311  -0.000033
 487   5   3.452368   3.141466  -1.714387   0.000050   0.013268   0.003764
 488  12   2.556870   2.518990  -1.977355  -0.000192   0.051098  -0.003753
 489   5   2.772156   2.834918  -1.737074  -0.000195   0.062428  -0.003124
 490  12   4.207010   0.409572  -1.576197  -0.000154   0.069192  -0.002223
 491  12   3.855161  -0.588284  -1.253665  -0.000486   0.153124  -0.003173
 492  12   2.847988  -1.398139  -0.907300  -0.000556   0.153124  -0.003629
 493  12   1.521080  -1.438783  -0.740280  -0.000490   0.153124  -0.003199
 494  12   0.412603  -0.693734  -0.820345  -0.000757   0.153124  -0.004945
 495  12  -0.027870   0.534834  -1.115021  -0.000879   0.153124  -0.005738
 496   5   4.390935   0.043012  -1.139856  -0.000186   0.152195  -0.001222
 497   5   3.628806  -1.177969  -0.706328  -0.000357   0.152195  -0.002343
 498   5   2.245683  -1.681956  -0.402108  -0.000342   0.152195  -0.002245
 499   5   0.802529  -1.264542  -0.350580  -0.000404   0.152195  -0.002655
 500   5  -0.115344  -0.095021  -0.572643  -0.000677   0.152195  -0.004447
 501   5  -0.285077   1.073704  -0.882191  -0.000305   0.084533  -0.003605
 502  13   2.746413  -0.789301   4.952718  -0.000242   0.077202  -0.003135
 503  13   1.792492  -0.065378   5.248838  -0.000868   0.175874  -0.004936
 504   5   2.676565  -0.181833   5.109153  -0.000589   0.165228  -0.003564
 505   5   1.564786   0.570966   5.332265  -0.000239   0.094319  -0.002531
 506  13  -0.789681  -0.135791   3.326325  -0.000379   0.072461  -0.005236
 507  13  -0.618513  -0.880073   2.448745  -0.000964   0.162523  -0.005934
 508  13   0.239595  -1.798157   1.824251  -0.000746   0.162523  -0.004591
 509  13   1.515942  -2.362877   1.970028  -0.000764   0.162523  -0.004702
 510  13   2.631662  -2.318112   2.819961  -0.000762   0.162523  -0.004688
 511  13   3.122706  -1.866825   3.773175  -0.000251   0.072461  -0.003465
 512   5  -0.861007  -0.095813   2.720194  -0.000906   0.157322  -0.005758
 513   5  -0.319087  -1.153152   1.684990  -0.000765   0.157322  -0.004861
 514   5   0.953699  -2.037356   1.399529  -0.000534   0.157322  -0.003397
 515   5   2.380101  -2.347407   1.993276  -0.000534   0.157322  -0.003392
 516   5   3.313197  -1.942688   3.196947  -0.000539   0.157322  -0.003426
 517   9   1.591244   6.877196   5.767660   0.000159   0.285784   0.000557
 518   9   2.339483   5.848124   6.255672  -0.000518   0.572379  -0.000905
 519   6   0.752662   5.645539   5.923786  -0.000441   0.572379  -0.000771
 520   6   1.532760   4.585877   6.278145   0.000133   0.285784   0.000465
 521  13   0.557035   0.508925   5.189263  -0.000232   0.328703  -0.000706
 522  13  -0.386607   0.395084   4.485965  -0.000352   0.328703  -0.001071
 523   6  -0.328273   1.774522   5.178334  -0.001207   0.659259  -0.001831
 524   8   1.922589   7.047913  -0.999143   0.000287   0.238651   0.001202
 525   8   1.365336   7.704296  -0.291009   0.000196   0.477270   0.000411
 526   7   0.539351   6.412437  -0.829013   0.000179   0.477270   0.000374
 527   7   0.017013   7.017909  -0.052230   0.000304   0.238651   0.001272
 528  12   0.098382   1.745883  -1.523861  -0.000409   0.326829  -0.001252
 529  12   0.983792   2.414420  -1.933787  -0.000221   0.326829  -0.000676
 530   7  -0.163671   3.248492  -1.345635  -0.001311   0.655557  -0.002000
 531  10   5.471018   5.946156  -1.675945  -0.000293   0.319304  -0.000918
 532  10   6.301187   6.584888  -1.182406  -0.000386   0.319304  -0.001209
 533   8   4.918181   7.224760  -1.042492  -0.001338   0.640238  -0.002090
 534  11   7.349901   6.355411   4.916378  -0.000461   0.325160  -0.001417
 535  11   6.975278   5.428533   5.531699  -0.000297   0.325160  -0.000913
 536   9   5.964135   6.587841   5.542598  -0.001231   0.652099  -0.001888
 537  12   3.433288   2.412971  -2.087600   0.000183   0.285917   0.000641
 538  12   4.120679   1.523938  -1.969025  -0.000045   0.571178  -0.000079
 539  10   5.127396   3.185593  -2.000563  -0.000147   0.571178  -0.000257
 540  10   5.802477   2.305897  -1.782970   0.000317   0.285917   0.001107
 =====================================================

              1884095  WORDS OF DYNAMIC MEMORY USED
 EXECUTION OF GAMESS TERMINATED NORMALLY Sun Nov 27 14:13:04 2016
 DDI: 263640 bytes (0.3 MB / 0 MWords) used by master data server.

 ----------------------------------------
 CPU timing information for all processes
 ========================================
 0: 880.444 + 0.424 = 880.868
 ----------------------------------------
 ddikick.x: exited gracefully.
