----- GAMESS execution script -----

          ******************************************************
          *         GAMESS VERSION =  5 DEC 2014 (R1)          *
          *             FROM IOWA STATE UNIVERSITY             *
          * M.W.SCHMIDT, K.K.BALDRIDGE, J.A.BOATZ, S.T.ELBERT, *
          *   M.S.GORDON, J.H.JENSEN, S.KOSEKI, N.MATSUNAGA,   *
          *          K.A.NGUYEN, S.J.SU, T.L.WINDUS,           *
          *       TOGETHER WITH M.DUPUIS, J.A.MONTGOMERY       *
          *         J.COMPUT.CHEM.  14, 1347-1363(1993)        *
          **************** 64 BIT LINUX VERSION ****************

 EXECUTION OF GAMESS BEGUN Sun Nov 27 13:49:17 2016

            ECHO OF THE FIRST FEW INPUT CARDS -
 INPUT CARD>! SELECT RESTRICTED HARTREE-FOCK AS DEFAULT                                     
 INPUT CARD>$contrl scftyp=rhf $end                                                         
 INPUT CARD>                                                                                
 INPUT CARD>! THEORY: HF OR DFT                                                             
 INPUT CARD> $contrl mplevl=0 $end                                                          
 INPUT CARD>                                                                                
 INPUT CARD> $system timlim=10000 mwords=20 $end                                            
 INPUT CARD> $SCF DIRSCF=.TRUE. $end                                                        
 INPUT CARD>                                                                                
 INPUT CARD>                                                                                
 INPUT CARD>! BASIS SETS                                                                    
 INPUT CARD>! 6-311G(d,p)                                                                   
 INPUT CARD> $BASIS GBASIS=N311 NGAUSS=6 NDFUNC=1 NPFUNC=1 $END                             
 INPUT CARD>                                                                                
 INPUT CARD>! One of the following                                                          
 INPUT CARD> $guess guess=HUCKEL $end                                                       
 INPUT CARD>                                                                                
 INPUT CARD> $statpt projct=.FALSE. $end                                                    
 INPUT CARD> $STATPT IFREEZ(1)=1,2,3 $END                                                   
 INPUT CARD>                                                                                
 INPUT CARD>! Optimize the geometry with COSMO effects                                      
 INPUT CARD> $statpt opttol=0.0005 nstep=50 $end                                            
 INPUT CARD> $contrl nzvar=1 $end                                                           
 INPUT CARD> $zmat dlc=.t. auto=.t. $end                                                    
 INPUT CARD> $contrl runtyp=OPTIMIZE maxit=200 $end                                         
 INPUT CARD>                                                                                
 INPUT CARD>! Run COSMO on perfect conductor                                                
 INPUT CARD> $COSGMS PRFCND=.TRUE. $end                                                     
 INPUT CARD>                                                                                
 INPUT CARD>! Specifying RSOLV                                                              
 INPUT CARD> $COSGMS COSRAD = 1.4 $end                                                      
 INPUT CARD>                                                                                
 INPUT CARD>! available memory                                                              
 INPUT CARD> $SYSTEM MWORDS=40 $END                                                         
 INPUT CARD>                                                                                
 INPUT CARD> $DATA                                                                          
 INPUT CARD>Tetrachloroethylene, ID: C127184                                                
 INPUT CARD>C1                                                                              
 INPUT CARD>C      6.0      2.3975000000    2.2318000000    1.0365000000                    
 INPUT CARD>C      6.0      1.3133000000    1.4419000000    0.9499000000                    
 INPUT CARD>Cl    17.0      0.0000000000    1.8460000000    0.0000000000                    
 INPUT CARD>Cl    17.0      1.2025000000    0.0000000000    1.7860000000                    
 INPUT CARD>Cl    17.0      3.7107000000    1.8275000000    1.9865000000                    
 INPUT CARD>Cl    17.0      2.5089000000    3.6737000000    0.2005000000                    
 INPUT CARD> $END                                                                           
 INPUT CARD>                                                                                
 INPUT CARD>                                                                                
   40000000 WORDS OF MEMORY AVAILABLE

     BASIS OPTIONS
     -------------
     GBASIS=N311         IGAUSS=       6      POLAR=POPN311 
     NDFUNC=       1     NFFUNC=       0     DIFFSP=       F
     NPFUNC=       1      DIFFS=       F     BASNAM=        


     RUN TITLE
     ---------
 Tetrachloroethylene, ID: C127184                                                

 THE POINT GROUP OF THE MOLECULE IS C1      
 THE ORDER OF THE PRINCIPAL AXIS IS     0

 ATOM      ATOMIC                      COORDINATES (BOHR)
           CHARGE         X                   Y                   Z
 C           6.0     4.5306180556        4.2174904594        1.9587009863
 C           6.0     2.4817771397        2.7247959017        1.7950507157
 CL         17.0     0.0000000000        3.4884341733        0.0000000000
 CL         17.0     2.2723955002        0.0000000000        3.3750506141
 CL         17.0     7.0122062226        3.4534742426        3.7539406746
 CL         17.0     4.7411335306        6.9422863611        0.3788900605

          INTERNUCLEAR DISTANCES (ANGS.)




     $CONTRL OPTIONS
     ---------------
 SCFTYP=RHF          RUNTYP=OPTIMIZE     EXETYP=RUN     
 MPLEVL=       0     CITYP =NONE         CCTYP =NONE         VBTYP =NONE    
 DFTTYP=NONE         TDDFT =NONE    
 MULT  =       1     ICHARG=       0     NZVAR =       1     COORD =UNIQUE  
 PP    =NONE         RELWFN=NONE         LOCAL =NONE         NUMGRD=       F
 ISPHER=      -1     NOSYM =       0     MAXIT =     200     UNITS =ANGS    
 PLTORB=       F     MOLPLT=       F     AIMPAC=       F     FRIEND=        
 NPRINT=       7     IREST =       0     GEOM  =INPUT   
 NORMF =       0     NORMP =       0     ITOL  =      20     ICUT  =       9
 INTTYP=BEST         GRDTYP=BEST         QMTTOL= 1.0E-06

     $SYSTEM OPTIONS
     ---------------
  REPLICATED MEMORY=    40000000 WORDS (ON EVERY NODE).
 DISTRIBUTED MEMDDI=           0 MILLION WORDS IN AGGREGATE,
 MEMDDI DISTRIBUTED OVER   1 PROCESSORS IS           0 WORDS/PROCESSOR.
 TOTAL MEMORY REQUESTED ON EACH PROCESSOR=    40000000 WORDS.
 TIMLIM=       10000.00 MINUTES, OR       6.9 DAYS.
 PARALL= F  BALTYP=  DLB     KDIAG=    0  COREFL= F
 MXSEQ2=     300 MXSEQ3=     150  mem10=         0

     $COSGMS OPTIONS
     ---------------
     EPSI  =   INFTY     NSPA  =      92     COSRAD=    1.40
     DISEX =   10.00     OUTCHG=DBLCAV       COSBUG=       F
     COSWRT=       F     DCOSMO=       F

     SYMMETRY COORDINATES WILL NOT BE USED FOR 
     THE COSMO CALCULATION, EVEN IF SPECIFIED:
         -- SWITCHING TO C1 POINT GROUP --


     DEFINITION OF CAVITY
     ---------------------------
     ATOM         COORDINATES           RADIUS 
     1    4.5306    4.2175    1.9587    2.0000
     2    2.4818    2.7248    1.7951    2.0000
     3    0.0000    3.4884    0.0000    2.0500
     4    2.2724    0.0000    3.3751    2.0500
     5    7.0122    3.4535    3.7539    2.0500
     6    4.7411    6.9423    0.3789    2.0500

          ----------------
          PROPERTIES INPUT
          ----------------

     MOMENTS            FIELD           POTENTIAL          DENSITY
 IEMOM =       1   IEFLD =       0   IEPOT =       0   IEDEN =       0
 WHERE =COMASS     WHERE =NUCLEI     WHERE =NUCLEI     WHERE =NUCLEI  
 OUTPUT=BOTH       OUTPUT=BOTH       OUTPUT=BOTH       OUTPUT=BOTH    
 IEMINT=       0   IEFINT=       0                     IEDINT=       0
                                                       MORB  =       0
          EXTRAPOLATION IN EFFECT
          SOSCF IN EFFECT
 ORBITAL PRINTING OPTION: NPREO=     1   146     2     1

     -------------------------------
     INTEGRAL TRANSFORMATION OPTIONS
     -------------------------------
     NWORD  =            0
     CUTOFF = 1.0E-09     MPTRAN =       0
     DIRTRF =       T     AOINTS =DUP     

          ----------------------
          INTEGRAL INPUT OPTIONS
          ----------------------
 NOPK  =       1 NORDER=       0 SCHWRZ=       T


 -----------------------------------------------
  STATISTICS ON AUTOMATIC COORDINATE GENERATION 
 -----------------------------------------------
  NUMBER OF USER SPECIFIED BONDS                             0
  NUMBER OF BONDS                                            5
  NUMBER OF ANGLES                                           6
  NUMBER OF TORSIONS                                         4
  NUMBER OF EXTRA COORD.                                     0
  NUMBER OF EXTRA COORD. FOR CONSTRAINTS                     0
  NUMBER OF CONSTRAINED COORD.                               0

  TOTAL NUMBER OF PRIMITIVES                                15
 -----------------------------------------------

   --- ENCODED Z MATRIX ---
 COORD  TYPE   I   J   K   L   M   N
    1      1    1   2
    2      1    1   6
    3      1    1   5
    4      1    2   4
    5      1    2   3
    6      2    1   2   3
    7      2    1   2   4
    8      2    2   1   6
    9      2    2   1   5
   10      2    3   2   4
   11      2    5   1   6
   12      3    3   2   1   5
   13      3    3   2   1   6
   14      3    4   2   1   6
   15      3    4   2   1   5

          INDEP./SYM. INTERNAL COORDINATES
          --------------------------------
 CRD  1=  -0.4963 (  6)  0.4963 (  7) -0.4963 (  8)  0.4963 (  9)
 CRD  2=   0.5037 (  1)  0.2483 (  6)  0.2482 (  7)  0.2483 (  8)  0.2482 (  9)
          -0.4965 ( 10) -0.4965 ( 11)
 CRD  3=  -0.2120 (  2) -0.2114 (  3)  0.2113 (  4)  0.2119 (  5) -0.2612 (  6)
          -0.2619 (  7)  0.2612 (  8)  0.2619 (  9)  0.5231 ( 10) -0.5231 ( 11)
 CRD  4=   0.3243 (  2) -0.3247 (  3)  0.3247 (  4) -0.3243 (  5) -0.3806 (  6)
           0.3802 (  7)  0.3806 (  8) -0.3802 (  9)
 CRD  5=  -0.5001 ( 12) -0.4998 ( 13) -0.4999 ( 14) -0.5002 ( 15)
 CRD  6=  -0.4507 (  1) -0.4121 (  2) -0.4120 (  3) -0.4121 (  4) -0.4121 (  5)
          -0.1981 ( 10) -0.1980 ( 11)
 CRD  7=   0.7070 ( 12) -0.7072 ( 14)
 CRD  8=   0.4530 (  2)  0.4530 (  3) -0.4530 (  4) -0.4530 (  5) -0.1222 (  6)
          -0.1222 (  7)  0.1222 (  8)  0.1222 (  9)  0.2444 ( 10) -0.2444 ( 11)
 CRD  9=  -0.4962 (  2)  0.4964 (  3)  0.4963 (  4) -0.4962 (  5)
 CRD 10=  -0.7073 ( 13)  0.7069 ( 15)
 CRD 11=  -0.7370 (  1)  0.2803 (  2)  0.2801 (  3)  0.2800 (  4)  0.2802 (  5)
           0.1091 (  6)  0.1091 (  7)  0.1091 (  8)  0.1091 (  9) -0.2182 ( 10)
          -0.2182 ( 11)
 CRD 12=  -0.3804 (  2)  0.3804 (  3) -0.3805 (  4)  0.3804 (  5) -0.3245 (  6)
           0.3245 (  7)  0.3245 (  8) -0.3245 (  9)

 THE DETERMINANT OF THE G MATRIX IS 10**(   -17)

 THE DETERMINANT OF THE G MATRIX IS 10**(   -17)
 * * * WARNING * * *
 YOUR B MATRIX HAS A SMALL DETERMINANT.
 THIS SUGGESTS YOU MAY HAVE BADLY CHOSEN COORDINATES.


                     --------------------
                     INTERNAL COORDINATES
                     --------------------

                 - - ATOMS - -         COORDINATE      COORDINATE
 NO.   TYPE    I  J  K  L  M  N        (BOHR,RAD)       (ANG,DEG)
 ----------------------------------------------------------------
   1 STRETCH   1  2                     2.5402101       1.3442214
   2 STRETCH   1  6                     3.1566805       1.6704435
   3 STRETCH   1  5                     3.1567208       1.6704648
   4 STRETCH   2  4                     3.1566997       1.6704537
   5 STRETCH   2  3                     3.1566704       1.6704382
   6 BEND      1  2  3                  2.1277487     121.9110217
   7 BEND      1  2  4                  2.1276051     121.9027947
   8 BEND      2  1  6                  2.1279547     121.9228262
   9 BEND      2  1  5                  2.1276036     121.9027056
  10 BEND      3  2  4                  2.0278314     116.1861833
  11 BEND      5  1  6                  2.0276270     116.1744683
  12 TORSION   3  2  1  5               3.1415768     179.9990917
  13 TORSION   3  2  1  6              -0.0000026      -0.0001508
  14 TORSION   4  2  1  6               3.1414729     179.9931399
  15 TORSION   4  2  1  5              -0.0001330      -0.0076176

     ------------------------------------------
     THE POINT GROUP IS C1 , NAXIS= 1, ORDER= 1
     ------------------------------------------

     DIMENSIONS OF THE SYMMETRY SUBSPACES ARE
 A   =  146

 ..... DONE SETTING UP THE RUN .....
 STEP CPU TIME =     0.00 TOTAL CPU TIME =        0.0 (    0.0 MIN)
 TOTAL WALL CLOCK TIME=        0.0 SECONDS, CPU UTILIZATION IS   0.00%


          -----------------------------
          STATIONARY POINT LOCATION RUN
          -----------------------------

 OBTAINING INITIAL HESSIAN, HESS=GUESS   
 DIAGONAL GUESS HESSIAN IN INTERNAL COORDS IS
     1  0.5269     2  0.4286     3  0.4286     4  0.4286     5  0.4286
     6  0.2786     7  0.2786     8  0.2786     9  0.2786    10  0.2804
    11  0.2804    12  0.2500    13  0.2500    14  0.2500    15  0.2500
 TRANSFORMING HESSIAN TO SYMMETRY COORDINATES

          PARAMETERS CONTROLLING GEOMETRY SEARCH ARE
          METHOD =QA                  UPHESS =BFGS    
          NNEG   =         0          NFRZ   =         3
          NSTEP  =        50          IFOLOW =         1
          HESS   =GUESS               RESTAR =         F
          IHREP  =         0          HSSEND =         F
          NPRT   =         0          NPUN   =         0
          OPTTOL = 5.000E-04          RMIN   = 1.500E-03
          RMAX   = 1.000E-01          RLIM   = 7.000E-02
          DXMAX  = 3.000E-01          PURIFY =         F
          MOVIE  =         F          TRUPD  =         T
          TRMAX  = 5.000E-01          TRMIN  = 5.000E-02
          ITBMAT =         5          STPT   =         F
          STSTEP = 1.000E-02          PROJCT=          F
          FROZEN COORD(S)=   1   2   3


      ***** EQUILIBRIUM GEOMETRY LOCATED *****
            (SUBJECT TO   3 CONSTRAINT(S))
 COORDINATES OF ALL ATOMS ARE (ANGS)
   ATOM   CHARGE       X              Y              Z
 ------------------------------------------------------------
 C           6.0   2.3863573673   2.2236633922   1.0356306426
 C           6.0   1.3244657350   1.4500388195   0.9507522602
 CL         17.0  -0.0301259246   1.8604886764  -0.0250721058
 CL         17.0   1.2045711918  -0.0349104212   1.8088272293
 CL         17.0   3.7408343732   1.8129818566   2.0115068307
 CL         17.0   2.5068124317   3.7086391292   0.1777439129


                     --------------------
                     INTERNAL COORDINATES
                     --------------------

                 - - ATOMS - -         COORDINATE      COORDINATE
 NO.   TYPE    I  J  K  L  M  N        (BOHR,RAD)       (ANG,DEG)
 ----------------------------------------------------------------
   1 STRETCH   1  2                     2.4879254       1.3165535
   2 STRETCH   1  6                     3.2488078       1.7191952
   3 STRETCH   1  5                     3.2487911       1.7191863
   4 STRETCH   2  4                     3.2488680       1.7192270
   5 STRETCH   2  3                     3.2488016       1.7191919
   6 BEND      1  2  3                  2.1315425     122.1283916
   7 BEND      1  2  4                  2.1312973     122.1143374
   8 BEND      2  1  6                  2.1316384     122.1338854
   9 BEND      2  1  5                  2.1313899     122.1196436
  10 BEND      3  2  4                  2.0203455     115.7572710
  11 BEND      5  1  6                  2.0201570     115.7464709
  12 TORSION   3  2  1  5              -3.1415762    -179.9990559
  13 TORSION   3  2  1  6              -0.0000131      -0.0007499
  14 TORSION   4  2  1  6               3.1415429     179.9971473
  15 TORSION   4  2  1  5              -0.0000202      -0.0011586

          INTERNUCLEAR DISTANCES (ANGS.)


 =====================================================
   GAMESS/COSab RESULTS
 =====================================================

   Dielectric Constant                  = INFTY
   Basic Grid Size                      =                 1082
   Number of Segments                   =                   92
   Number of Segments located on spheres=                  220
   Number of Segments of the cavity     =                  326
   Solvent Radius (rsolv)               = 1.40
   Outlying Charge Error Method         = double cavity

 =====================================================

  Total solvated Energy (a.u.)          = -1913.7313100890
  Total Energy corrected (a.u.)         = -1913.7313929612

  Outlying charge effect (a.u.)         =    -0.0000828722
  Outlying charge effect (kcal/mol)     =    -0.0520031072

  Dielectric Energy (a.u.)              =    -0.0023442702
  Dielectric energy corr. (a.u.)        =    -0.0024271424

  Sum of polarization charges           =     0.0192244761
  Sum of polarization charges(cor.)     =    -0.0192244761

  Total surface area of cavity (A**2)   =  146.13
  Total volume of cavity (A**3)         =  140.64

 =====================================================
 NPS=                   326
NR.  ATOM  (X, Y, Z)(a.u.)                  CHARGE(e)  AREA(A**2) SIGMA(e/A**2)
   1   1   6.849406   2.959079  -0.738186  -0.001146   0.185824  -0.006167
   2   1   5.444397   2.737096  -1.399153  -0.000237   0.232280  -0.001020
   3   1   6.234103   2.807045  -1.103022  -0.000068   0.185824  -0.000366
   4   1   6.453688   2.057730  -0.473238   0.000111   0.139368   0.000794
   5   1   2.975578   5.391036   5.200132  -0.000078   0.325193  -0.000239
   6   1   2.304525   6.270047   4.225456  -0.000280   0.232280  -0.001207
   7   1   3.422388   6.404643   4.829529  -0.001084   0.418105  -0.002593
   8   1   5.960376   1.908267  -0.673104  -0.000083   0.232280  -0.000358
   9   2   3.169042   0.476725  -1.155854  -0.001149   0.185824  -0.006181
  10   2   4.606568   0.660778  -0.555979  -0.000182   0.232280  -0.000782
  11   2   3.868379   0.530736  -0.948901  -0.000102   0.185824  -0.000549
  12   2   3.618374   1.315537  -1.521529   0.000135   0.139368   0.000966
  13   2   0.976424   5.121216   4.303606   0.000016   0.325193   0.000048
  14   2   1.693255   4.188805   5.192273  -0.000193   0.232280  -0.000830
  15   2   0.516286   4.123156   4.699250  -0.001147   0.418105  -0.002743
  16   2   4.130884   1.442604  -1.357735  -0.000123   0.232280  -0.000528
  17   3  -3.151458   4.336921  -2.228453  -0.004543   0.536887  -0.008462
  18   3  -3.540232   3.279653   1.631398   0.001512   0.488079   0.003098
  19   3  -2.379319   0.602625  -1.109125   0.001403   0.488079   0.002874
  20   3  -0.020889   2.394720  -3.755375   0.001463   0.488079   0.002997
  21   3  -0.145684   6.207280  -2.832242   0.000446   0.341655   0.001307
  22   3  -1.810912   6.884995   0.713890   0.001145   0.390463   0.002933
  23   3  -3.763934   4.207808  -0.934335  -0.003635   0.585695  -0.006207
  24   3  -3.908378   3.680945   0.335406  -0.000741   0.488079  -0.001518
  25   3  -3.351570   2.950106  -2.005121  -0.003625   0.585695  -0.006189
  26   3  -3.109146   1.669228  -1.557860  -0.000710   0.488079  -0.001456
  27   3  -2.312143   3.667326  -3.193560  -0.003667   0.585695  -0.006260
  28   3  -1.113288   3.228039  -3.763382  -0.000730   0.536887  -0.001360
  29   3  -2.191271   5.211186  -2.800137  -0.003573   0.536887  -0.006656
  30   3  -1.211204   5.951441  -2.829954  -0.001187   0.439271  -0.002701
  31   3  -2.972080   5.611583  -1.502384  -0.004451   0.683311  -0.006514
  32   3  -2.548389   6.459632  -0.413359  -0.000849   0.585695  -0.001450
  33   3  -3.575983   2.173176   0.858744   0.001302   0.536887   0.002425
  34   3  -3.202607   1.257302  -0.153734   0.001228   0.536887   0.002288
  35   3  -1.891542   0.894584  -2.231595   0.001289   0.585695   0.002201
  36   3  -0.915723   1.557620  -3.277761   0.001407   0.585695   0.002402
  37   3   0.182769   3.812972  -3.902454   0.001048   0.488079   0.002147
  38   3   0.324144   5.259015  -3.485891   0.001031   0.536887   0.001921
  39   3  -0.800328   6.920296  -1.739772   0.000475   0.488079   0.000972
  40   3  -1.344443   7.149573  -0.428761   0.000858   0.390463   0.002196
  41   3  -2.665502   6.112508   1.160896   0.001736   0.634503   0.002737
  42   3  -3.439386   4.682946   1.437284   0.001329   0.634503   0.002094
  43   3  -2.959636   2.188500   2.148073   0.002074   0.488079   0.004248
  44   3  -2.268426   0.342354   0.166909   0.001761   0.439271   0.004008
  45   3  -1.204541  -0.047426  -1.044260   0.001935   0.488079   0.003964
  46   3  -0.087880   0.040830  -1.759387   0.001162   0.292848   0.003968
  47   3   1.122699   0.538003  -2.226492   0.001065   0.536887   0.001984
  48   3   0.690750   1.354523  -3.174230   0.002358   0.536887   0.004392
  49   3   1.322148   2.727556  -3.580672   0.002341   0.536887   0.004360
  50   3   2.344123   2.900595  -3.024593   0.000653   0.390463   0.001673
  51   3  -0.943906   7.088075   1.160752   0.001585   0.341655   0.004639
  52   3  -1.415734   6.466340   2.063411   0.001798   0.439271   0.004092
  53   3  -1.306084   5.409858   3.092624   0.000873   0.390463   0.002236
  54   3  -1.724998   4.216030   3.378213   0.000837   0.488079   0.001716
  55   3  -2.876513   3.950178   2.573447   0.002090   0.488079   0.004282
  56   3  -3.789749   2.643618  -0.606656  -0.001507   0.585695  -0.002573
  57   3  -2.272051   2.231541  -2.954491  -0.001920   0.683311  -0.002809
  58   3  -1.028976   4.706281  -3.603398  -0.001523   0.585695  -0.002601
  59   3  -1.869622   6.504771  -1.717002  -0.001143   0.439271  -0.002602
  60   3  -3.505960   5.273041   0.106760  -0.001487   0.585695  -0.002539
  61   3  -2.890180   1.170350   1.168753   0.001354   0.341655   0.003963
  62   3  -0.511885   0.547624  -2.494888   0.002062   0.488079   0.004224
  63   3   1.310716   4.171947  -3.611979   0.002119   0.488079   0.004341
  64   3  -2.379851   5.325064   2.470173   0.002599   0.585695   0.004438
  65   3   2.009677   1.671576  -2.755755   0.000864   0.488079   0.001771
  66   3  -0.553062   6.200940   2.700590   0.000440   0.341655   0.001288
  67   3  -2.343493   3.041843   3.043647   0.001139   0.341655   0.003335
  68   4   1.896918  -3.418516   5.321854  -0.004543   0.536887  -0.008462
  69   4   1.178505  -3.167901   1.373627   0.001506   0.488079   0.003087
  70   4  -1.294476  -1.447040   4.009471   0.001418   0.488079   0.002906
  71   4   0.839315   0.034160   7.014369   0.001463   0.488079   0.002997
  72   4   4.511824  -1.193230   6.374397   0.000446   0.341655   0.001305
  73   4   5.021407  -2.712919   2.735963   0.001145   0.390463   0.002933
  74   4   1.724596  -3.861223   3.965073  -0.003635   0.585695  -0.006207
  75   4   1.313539  -3.739100   2.650992  -0.000740   0.488079  -0.001517
  76   4   0.545228  -3.162456   4.974655  -0.003624   0.585695  -0.006188
  77   4  -0.549604  -2.502694   4.459370  -0.000710   0.488079  -0.001454
  78   4   1.414520  -2.488875   6.315483  -0.003666   0.585695  -0.006260
  79   4   1.299698  -1.259697   6.971881  -0.000730   0.536887  -0.001360
  80   4   2.955287  -2.821922   6.054692  -0.003573   0.536887  -0.006655
  81   4   3.948874  -2.124020   6.242082  -0.001186   0.439271  -0.002701
  82   4   3.234645  -3.587672   4.716884  -0.004451   0.683311  -0.006514
  83   4   4.279173  -3.365826   3.745069  -0.000849   0.585695  -0.001450
  84   4   0.038597  -2.918126   2.052441   0.001301   0.536887   0.002423
  85   4  -0.822406  -2.357609   3.026012   0.001222   0.536887   0.002276
  86   4  -0.987483  -1.159905   5.195394   0.001280   0.585695   0.002186
  87   4  -0.173923  -0.519095   6.384421   0.001405   0.585695   0.002399
  88   4   2.229793  -0.222486   7.288694   0.001048   0.488079   0.002147
  89   4   3.686405  -0.504097   6.999684   0.001030   0.536887   0.001919
  90   4   5.104185  -1.951593   5.276930   0.000474   0.488079   0.000970
  91   4   5.293935  -2.439044   3.937615   0.000857   0.390463   0.002194
  92   4   4.078351  -3.250322   2.145439   0.001737   0.634503   0.002738
  93   4   2.518976  -3.520945   1.682785   0.001328   0.634503   0.002092
  94   4   0.372505  -2.240977   0.838990   0.002110   0.488079   0.004323
  95   4  -1.375317  -1.164828   2.735844   0.001645   0.439271   0.003744
  96   4  -1.550430  -0.127459   4.017997   0.002065   0.488079   0.004230
  97   4  -1.204981   0.849667   4.849872   0.000930   0.292848   0.003175
  98   4  -0.417870   1.808151   5.476477   0.001106   0.536887   0.002061
  99   4   0.127753   1.074431   6.433265   0.002350   0.536887   0.004377
 100   4   1.577153   1.217617   7.005815   0.002341   0.536887   0.004361
 101   4   2.106493   2.175005   6.573605   0.000654   0.390463   0.001676
 102   4   5.521246  -1.919994   2.398238   0.001584   0.341655   0.004637
 103   4   4.883607  -2.106672   1.407008   0.001799   0.439271   0.004094
 104   4   4.021975  -1.598109   0.317784   0.000863   0.390463   0.002211
 105   4   2.793850  -1.604432  -0.099283   0.000955   0.488079   0.001957
 106   4   2.111716  -2.674747   0.559073   0.002089   0.488079   0.004279
 107   4   0.268051  -3.377187   3.519078  -0.001506   0.585695  -0.002572
 108   4   0.090329  -1.988777   5.973926  -0.001919   0.683311  -0.002808
 109   4   2.743016  -1.624783   6.933831  -0.001523   0.585695  -0.002600
 110   4   4.390849  -2.835030   5.111829  -0.001143   0.439271  -0.002602
 111   4   2.920160  -3.867261   3.040008  -0.001487   0.585695  -0.002539
 112   4  -0.673471  -1.934429   1.740369   0.001425   0.341655   0.004171
 113   4  -0.928538   0.235324   5.573572   0.002058   0.488079   0.004217
 114   4   2.939703   0.757755   7.144962   0.002118   0.488079   0.004340
 115   4   3.553809  -2.636908   0.817113   0.002589   0.585695   0.004421
 116   4   0.868689   2.258370   6.179262   0.000862   0.488079   0.001766
 117   4   4.957800  -1.158578   0.844648   0.000440   0.341655   0.001287
 118   4   1.459878  -1.852976   0.079416   0.000839   0.341655   0.002456
 119   5  10.178869   2.586406   5.953418  -0.004543   0.536887  -0.008461
 120   5   8.392591   6.181520   6.180963   0.001513   0.488079   0.003100
 121   5  10.434347   5.122768   2.904540   0.001404   0.488079   0.002876
 122   5   9.854529   1.255580   2.208047   0.001463   0.488079   0.002997
 123   5   7.837758  -0.059266   5.307592   0.000286   0.341655   0.000837
 124   5   6.407312   2.874326   7.578098   0.001189   0.390463   0.003044
 125   5   9.809128   3.861403   6.504972  -0.003635   0.585695  -0.006206
 126   5   9.303382   5.146949   6.457156  -0.000740   0.488079  -0.001517
 127   5  10.717999   3.577960   5.093571  -0.003624   0.585695  -0.006188
 128   5  10.780047   4.503947   4.074669  -0.000710   0.488079  -0.001454
 129   5  10.505357   1.896153   4.728185  -0.003664   0.585695  -0.006256
 130   5  10.251013   1.233795   3.523398  -0.000729   0.536887  -0.001358
 131   5   9.562966   1.310446   5.877856  -0.003573   0.536887  -0.006655
 132   5   8.641407   0.501952   5.797462  -0.001148   0.439271  -0.002613
 133   5   9.092313   2.369911   6.931499  -0.004448   0.683311  -0.006510
 134   5   7.781901   2.556308   7.508345  -0.000861   0.585695  -0.001470
 135   5   9.347369   6.215997   5.227141   0.001303   0.536887   0.002426
 136   5  10.109381   5.807472   4.106519   0.001229   0.536887   0.002289
 137   5  10.712454   3.937263   2.587776   0.001290   0.585695   0.002202
 138   5  10.472544   2.415666   2.250896   0.001407   0.585695   0.002402
 139   5   9.251967   0.302453   3.104158   0.001056   0.488079   0.002163
 140   5   8.320027  -0.221525   4.172562   0.001284   0.536887   0.002392
 141   5   7.290862   0.629288   6.472598   0.000377   0.488079   0.000772
 142   5   6.723212   1.696970   7.250548   0.000990   0.390463   0.002536
 143   5   6.992672   3.960938   7.637270   0.001734   0.634503   0.002733
 144   5   7.893861   5.242146   7.122199   0.001329   0.634503   0.002095
 145   5   8.111847   6.923195   5.101258   0.002074   0.488079   0.004249
 146   5   9.650328   6.168471   2.893430   0.001761   0.439271   0.004009
 147   5   9.874583   5.055648   1.684278   0.001935   0.488079   0.003964
 148   5   9.558213   4.033876   0.895598   0.001162   0.292848   0.003969
 149   5   8.859617   2.939483   0.400481   0.001066   0.536887   0.001985
 150   5   9.425926   1.965932   1.095452   0.002358   0.536887   0.004392
 151   5   8.724192   0.674770   1.633549   0.002334   0.536887   0.004347
 152   5   7.625966   0.590857   1.220687   0.000734   0.390463   0.001879
 153   5   5.469199   2.754331   7.264773   0.001308   0.341655   0.003827
 154   5   5.451403   3.947371   7.282364   0.001794   0.439271   0.004084
 155   5   5.141065   5.238264   6.630644   0.000869   0.390463   0.002225
 156   5   5.708545   6.258948   6.066333   0.000838   0.488079   0.001717
 157   5   7.087718   6.259020   6.443419   0.002090   0.488079   0.004282
 158   5  10.236852   4.957030   5.422668  -0.001506   0.585695  -0.002572
 159   5  10.895200   2.830661   3.681783  -0.001920   0.683311  -0.002809
 160   5   9.507659   0.524149   4.601234  -0.001558   0.585695  -0.002660
 161   5   8.147202   1.293156   6.850129  -0.001141   0.439271  -0.002598
 162   5   8.552698   3.960897   7.339620  -0.001485   0.585695  -0.002535
 163   5   9.093962   6.714701   4.105014   0.001354   0.341655   0.003963
 164   5  10.106606   3.381756   1.397181   0.002062   0.488079   0.004225
 165   5   8.179495  -0.121107   2.709311   0.001882   0.488079   0.003857
 166   5   6.280874   5.245814   7.129031   0.002600   0.585695   0.004439
 167   5   8.162282   1.584565   0.572980   0.000862   0.488079   0.001765
 168   5   4.580359   4.222769   6.661015   0.000507   0.341655   0.001484
 169   5   6.795615   6.886587   5.520865   0.001140   0.341655   0.003336
 170   6   5.102388  10.378981  -1.538327  -0.004543   0.536887  -0.008462
 171   6   7.995480   7.590050  -1.677225   0.001506   0.488079   0.003085
 172   6   7.265888   9.604644   1.704162   0.001417   0.488079   0.002904
 173   6   3.353223  10.199585   2.041106   0.001462   0.488079   0.002996
 174   6   1.822149   8.930153  -1.342342   0.000290   0.341655   0.000847
 175   6   4.408191   6.838227  -3.520315   0.001206   0.390463   0.003089
 176   6   6.256915   9.675598  -2.027057  -0.003636   0.585695  -0.006208
 177   6   7.318046   8.794588  -1.934772  -0.000741   0.488079  -0.001519
 178   6   6.115098  10.517787  -0.554288  -0.003626   0.585695  -0.006190
 179   6   6.905360  10.212637   0.532831  -0.000711   0.488079  -0.001457
 180   6   4.418910  10.809237  -0.341674  -0.003665   0.585695  -0.006258
 181   6   3.589009  10.681875   0.776344  -0.000730   0.536887  -0.001359
 182   6   3.699564  10.184530  -1.624319  -0.003574   0.536887  -0.006657
 183   6   2.647228   9.555267  -1.701880  -0.001147   0.439271  -0.002611
 184   6   4.671689   9.490305  -2.637812  -0.004451   0.683311  -0.006513
 185   6   4.513636   8.234282  -3.332149  -0.000844   0.585695  -0.001441
 186   6   8.216480   8.412017  -0.629325   0.001300   0.536887   0.002420
 187   6   7.942143   9.175785   0.530307   0.001221   0.536887   0.002274
 188   6   6.193028  10.211270   1.957307   0.001279   0.585695   0.002184
 189   6   4.643447  10.429433   2.150969   0.001404   0.585695   0.002397
 190   6   2.361602   9.991508   1.017417   0.001055   0.488079   0.002162
 191   6   1.695449   9.351432  -0.178867   0.001284   0.536887   0.002391
 192   6   2.404884   8.337458  -2.457164   0.000308   0.439271   0.000700
 193   6   3.199914   7.502193  -3.185520   0.001068   0.488079   0.002189
 194   6   5.620637   7.061110  -3.435614   0.001732   0.634503   0.002730
 195   6   7.052876   7.479553  -2.733808   0.001327   0.634503   0.002092
 196   6   8.501438   7.012444  -0.579481   0.002109   0.488079   0.004321
 197   6   8.019672   8.536919   1.712878   0.001643   0.439271   0.003741
 198   6   6.906544   9.002329   2.850882   0.002063   0.488079   0.004228
 199   6   5.760625   8.959008   3.522536   0.000929   0.292848   0.003173
 200   6   4.461290   8.598148   3.857767   0.001106   0.536887   0.002060
 201   6   3.781520   9.489038   3.153694   0.002349   0.536887   0.004375
 202   6   2.402336   9.264474   2.449066   0.002334   0.536887   0.004347
 203   6   1.948931   8.218210   2.737777   0.000736   0.390463   0.001884
 204   6   3.979192   5.962443  -3.316379   0.001314   0.341655   0.003847
 205   6   5.106464   5.577531  -3.245169   0.001793   0.439271   0.004081
 206   6   6.168644   4.834284  -2.533260   0.000859   0.390463   0.002199
 207   6   7.248282   5.013353  -1.837135   0.000955   0.488079   0.001957
 208   6   7.703138   6.349154  -2.067476   0.002088   0.488079   0.004278
 209   6   7.311536   9.659719  -0.826120  -0.001507   0.585695  -0.002574
 210   6   5.313145  10.810059   0.807493  -0.001920   0.683311  -0.002810
 211   6   2.804674  10.278747  -0.423743  -0.001558   0.585695  -0.002660
 212   6   3.357890   8.921701  -2.737208  -0.001135   0.439271  -0.002584
 213   6   6.059603   8.517198  -2.978019  -0.001487   0.585695  -0.002539
 214   6   8.495961   7.932332   0.494900   0.001424   0.341655   0.004168
 215   6   5.359980   9.718734   3.032759   0.002057   0.488079   0.004215
 216   6   1.595904   9.076181   1.265178   0.001883   0.488079   0.003858
 217   6   6.571104   5.950090  -2.908247   0.002589   0.585695   0.004420
 218   6   2.984927   8.369769   3.511312   0.000860   0.488079   0.001762
 219   6   5.040359   4.619541  -2.698797   0.000508   0.341655   0.001486
 220   6   8.113885   5.808027  -1.135413   0.000838   0.341655   0.002454
 221   1   1.427898   6.096920   3.386818  -0.000448   0.055055  -0.008137
 222   2   1.061882   5.872723   3.381008  -0.000543   0.055055  -0.009856
 223   3   0.633157   5.979473   3.040973  -0.000509   0.055055  -0.009246
 224   1   4.136677   2.937155  -1.702471  -0.000453   0.055055  -0.008222
 225   2   3.802431   2.675897  -1.767973  -0.000546   0.055055  -0.009917
 226   3   3.344639   2.816555  -2.053394  -0.000512   0.055055  -0.009299
 227   1   5.526396   0.803216   0.361827  -0.000455   0.055067  -0.008258
 228   2   5.203056   0.525207   0.312538  -0.000540   0.055067  -0.009799
 229   4   5.139927   0.060025   0.613298  -0.000508   0.055067  -0.009225
 230   1   2.817556   3.963025   5.451484  -0.000451   0.055067  -0.008198
 231   2   2.462452   3.722069   5.461878  -0.000533   0.055067  -0.009680
 232   4   2.428385   3.222985   5.708032  -0.000508   0.055067  -0.009222
 233   2   4.341422   2.163631  -1.424785  -0.000597   0.214568  -0.002784
 234   2   5.082319   1.025917  -0.324229  -0.000581   0.214568  -0.002706
 235   1   5.183340   1.984859  -0.788647  -0.001238   0.446592  -0.002773
 236   2   2.174791   4.417498   5.138687  -0.000547   0.214582  -0.002548
 237   2   1.433927   5.555191   4.037912  -0.000595   0.214582  -0.002771
 238   1   2.325020   5.319048   4.581737  -0.001180   0.446627  -0.002642
 239   1   1.641209   6.441003   3.227835  -0.001240   0.143114  -0.008665
 240   3   0.870254   6.290074   2.838851  -0.001247   0.143114  -0.008713
 241   6   1.685938   6.920517   2.938019  -0.001119   0.143114  -0.007816
 242   1   4.312427   3.324978  -1.790857  -0.001251   0.143114  -0.008742
 243   3   3.495320   3.227885  -2.093133  -0.001254   0.143114  -0.008763
 244   6   4.347012   3.816323  -2.061617  -0.001122   0.143114  -0.007837
 245   1   5.900216   0.886825   0.567730  -0.001261   0.143101  -0.008811
 246   4   5.484717   0.173240   0.861892  -0.001248   0.143101  -0.008718
 247   5   6.338024   0.758745   0.896123  -0.001125   0.143101  -0.007859
 248   1   3.228809   4.002887   5.586812  -0.001255   0.143101  -0.008769
 249   4   2.859422   3.235513   5.794337  -0.001252   0.143101  -0.008747
 250   5   3.676729   3.863012   5.896206  -0.001122   0.143101  -0.007844
 251   1   7.362706   3.680896  -0.501763  -0.001200   0.078086  -0.015365
 252   5   7.781789   3.557827  -0.154153  -0.001028   0.078086  -0.013170
 253   6   7.377806   4.178411  -0.754478  -0.000945   0.078086  -0.012096
 254   1   4.619203   6.881331   4.652890  -0.001243   0.078086  -0.015919
 255   5   5.068997   6.722435   4.942798  -0.001041   0.078086  -0.013330
 256   6   4.665014   7.343019   4.342472  -0.000960   0.078086  -0.012288
 257   5   4.912423   6.133472   5.569740  -0.001279   0.263136  -0.004862
 258   5   4.160170   4.732129   6.024111  -0.001044   0.263136  -0.003968
 259   1   3.939455   5.587278   5.285231  -0.004499   0.531676  -0.008462
 260   5   7.083101   1.322616   0.532437  -0.001079   0.263115  -0.004102
 261   5   7.845049   2.712478   0.059778  -0.001283   0.263115  -0.004877
 262   1   6.804647   2.245032  -0.097996  -0.004461   0.531630  -0.008391
 263   6   2.407037   7.424803   3.419078  -0.001059   0.263173  -0.004026
 264   6   3.904996   7.680930   4.072757  -0.001287   0.263173  -0.004889
 265   1   3.131931   6.827504   4.085325  -0.004390   0.531755  -0.008255
 266   6   6.837614   4.259902  -1.437184  -0.001233   0.263165  -0.004686
 267   6   5.329859   4.015257  -2.072363  -0.001038   0.263165  -0.003944
 268   1   5.997051   3.485242  -1.297751  -0.004475   0.531739  -0.008416
 269   2   2.393323   0.060658  -0.898893  -0.001200   0.078079  -0.015368
 270   3   1.943487   0.219491  -1.188774  -0.001028   0.078079  -0.013172
 271   4   2.347693  -0.401009  -0.588402  -0.000944   0.078079  -0.012096
 272   2  -0.350227   3.260751   4.255627  -0.001242   0.078079  -0.015907
 273   3  -0.769342   3.383751   3.908028  -0.001041   0.078079  -0.013327
 274   4  -0.365135   2.763249   4.508398  -0.000959   0.078079  -0.012285
 275   3   2.852110   2.210125  -2.270401  -0.001067   0.263182  -0.004055
 276   3   2.099946   0.808481  -1.815836  -0.001284   0.263182  -0.004878
 277   2   3.072918   1.354936  -1.531438  -0.004454   0.531776  -0.008376
 278   3  -0.832741   4.229237   3.694052  -0.001279   0.263200  -0.004859
 279   3  -0.070768   5.619584   3.221120  -0.001027   0.263200  -0.003903
 280   2   0.207744   4.697013   3.851636  -0.004501   0.531814  -0.008463
 281   4   3.107764  -0.738765  -0.318831  -0.001233   0.263145  -0.004685
 282   4   4.605666  -0.482268   0.334349  -0.001022   0.263145  -0.003883
 283   2   3.880555   0.114822  -0.331744  -0.004467   0.531693  -0.008402
 284   4   1.682772   2.927185   5.826114  -0.001055   0.263162  -0.004007
 285   4   0.175095   2.681963   5.191080  -0.001286   0.263162  -0.004886
 286   2   1.015368   3.456899   5.051488  -0.004391   0.531731  -0.008257
 287   4  -0.793499   2.250928   4.589356  -0.001142   0.377762  -0.003023
 288   4  -1.534364   0.824082   3.613463  -0.000213   0.756627  -0.000282
 289   4  -1.284183  -0.671664   1.899126   0.001003   0.756627   0.001325
 290   4   0.236574  -1.241551   0.286264  -0.000079   0.756627  -0.000105
 291   4   1.913521  -0.906555  -0.496531  -0.001154   0.377762  -0.003055
 292   3  -1.694807   2.590984   3.389711  -0.001929   0.756627  -0.002550
 293   3  -2.168085   0.882234   1.942307   0.000852   0.756627   0.001125
 294   3  -1.225009  -0.217775   0.170476   0.000679   0.756627   0.000897
 295   3   0.687640  -0.187917  -1.086377  -0.001888   0.756627  -0.002495
 296   6   4.206481   4.256459  -2.595385  -0.000287   0.366026  -0.000785
 297   6   3.266101   5.599893  -3.074572   0.001891   0.731776   0.002584
 298   6   2.045644   7.220687  -2.577776   0.002616   0.731776   0.003575
 299   6   1.184997   8.224648  -0.960790   0.002628   0.731776   0.003592
 300   6   1.032257   8.205714   1.122383   0.001900   0.731776   0.002596
 301   6   1.426952   7.498832   2.626803  -0.000305   0.366026  -0.000833
 302   3   2.667035   3.893216  -2.913816   0.000248   0.731776   0.000338
 303   3   1.450333   5.582327  -3.086548   0.002594   0.731776   0.003545
 304   3   0.352815   6.966552  -1.971796   0.002539   0.731776   0.003470
 305   3  -0.181618   7.486029  -0.020433   0.002677   0.731776   0.003659
 306   3   0.063191   6.930651   1.978297   0.000163   0.731776   0.000222
 307   5   3.996099   3.553093   6.444324  -0.000287   0.366019  -0.000783
 308   5   4.936691   2.209526   6.923798   0.001890   0.731764   0.002583
 309   5   6.157454   0.588494   6.427037   0.002686   0.731764   0.003671
 310   5   7.018256  -0.415588   4.809749   0.002626   0.731764   0.003589
 311   5   7.170857  -0.396515   2.726212   0.001901   0.731764   0.002597
 312   5   6.775868   0.310633   1.221651  -0.000308   0.366019  -0.000841
 313   4   3.155473   2.182248   6.572640   0.000250   0.731764   0.000341
 314   4   4.372468   0.492933   6.745605   0.002592   0.731764   0.003542
 315   4   5.470243  -0.891499   5.630699   0.002535   0.731764   0.003465
 316   4   6.004691  -1.410973   3.678958   0.002677   0.731764   0.003658
 317   4   5.759600  -0.855334   1.679965   0.000162   0.731764   0.000222
 318   6   5.099352   7.848515   4.250714  -0.001142   0.377776  -0.003024
 319   6   6.776633   8.183350   3.468139  -0.000213   0.756657  -0.000282
 320   6   8.297613   7.613251   1.855272   0.001002   0.756657   0.001325
 321   6   8.547614   6.117411   0.140717  -0.000079   0.756657  -0.000105
 322   6   7.806354   4.690661  -0.835359  -0.001154   0.377776  -0.003055
 323   5   6.325046   7.129701   4.840588  -0.001928   0.756657  -0.002549
 324   5   8.238050   7.159347   3.583898   0.000853   0.756657   0.001127
 325   5   9.181160   6.059162   1.811929   0.000680   0.756657   0.000899
 326   5   8.707504   4.350443   0.364288  -0.001887   0.756657  -0.002494
 =====================================================

              1179038  WORDS OF DYNAMIC MEMORY USED
 EXECUTION OF GAMESS TERMINATED NORMALLY Sun Nov 27 13:51:27 2016
 DDI: 263640 bytes (0.3 MB / 0 MWords) used by master data server.

 ----------------------------------------
 CPU timing information for all processes
 ========================================
 0: 130.516 + 0.108 = 130.624
 ----------------------------------------
 ddikick.x: exited gracefully.
