----- GAMESS execution script -----

          ******************************************************
          *         GAMESS VERSION =  5 DEC 2014 (R1)          *
          *             FROM IOWA STATE UNIVERSITY             *
          * M.W.SCHMIDT, K.K.BALDRIDGE, J.A.BOATZ, S.T.ELBERT, *
          *   M.S.GORDON, J.H.JENSEN, S.KOSEKI, N.MATSUNAGA,   *
          *          K.A.NGUYEN, S.J.SU, T.L.WINDUS,           *
          *       TOGETHER WITH M.DUPUIS, J.A.MONTGOMERY       *
          *         J.COMPUT.CHEM.  14, 1347-1363(1993)        *
          **************** 64 BIT LINUX VERSION ****************

 EXECUTION OF GAMESS BEGUN Sun Nov 27 13:51:30 2016

            ECHO OF THE FIRST FEW INPUT CARDS -
 INPUT CARD>! SELECT RESTRICTED HARTREE-FOCK AS DEFAULT                                     
 INPUT CARD>$contrl scftyp=rhf $end                                                         
 INPUT CARD>                                                                                
 INPUT CARD>! THEORY: HF OR DFT                                                             
 INPUT CARD> $contrl mplevl=0 $end                                                          
 INPUT CARD>                                                                                
 INPUT CARD> $system timlim=10000 mwords=20 $end                                            
 INPUT CARD> $SCF DIRSCF=.TRUE. $end                                                        
 INPUT CARD>                                                                                
 INPUT CARD>                                                                                
 INPUT CARD>! BASIS SETS                                                                    
 INPUT CARD>! 6-311G(d,p)                                                                   
 INPUT CARD> $BASIS GBASIS=N311 NGAUSS=6 NDFUNC=1 NPFUNC=1 $END                             
 INPUT CARD>                                                                                
 INPUT CARD>! One of the following                                                          
 INPUT CARD> $guess guess=HUCKEL $end                                                       
 INPUT CARD>                                                                                
 INPUT CARD> $statpt projct=.FALSE. $end                                                    
 INPUT CARD> $STATPT IFREEZ(1)=1,2,3 $END                                                   
 INPUT CARD>                                                                                
 INPUT CARD>! Optimize the geometry with COSMO effects                                      
 INPUT CARD> $statpt opttol=0.0005 nstep=50 $end                                            
 INPUT CARD> $contrl nzvar=1 $end                                                           
 INPUT CARD> $zmat dlc=.t. auto=.t. $end                                                    
 INPUT CARD> $contrl runtyp=OPTIMIZE maxit=200 $end                                         
 INPUT CARD>                                                                                
 INPUT CARD>! Run COSMO on perfect conductor                                                
 INPUT CARD> $COSGMS PRFCND=.TRUE. $end                                                     
 INPUT CARD>                                                                                
 INPUT CARD>! Specifying RSOLV                                                              
 INPUT CARD> $COSGMS COSRAD = 1.4 $end                                                      
 INPUT CARD>                                                                                
 INPUT CARD>! available memory                                                              
 INPUT CARD> $SYSTEM MWORDS=40 $END                                                         
 INPUT CARD>                                                                                
 INPUT CARD> $DATA                                                                          
 INPUT CARD>http://cactus.nci.nih.gov/chemical/structure/TETRAETHYLENE%20GLYCOL%20DIMETHYL%2
 INPUT CARD>C1                                                                              
 INPUT CARD>C      6.0     -0.9037000000   -1.9090000000    0.7872000000                    
 INPUT CARD>C      6.0      0.9037000000   -1.9090000000   -0.7872000000                    
 INPUT CARD>C      6.0     -1.8186000000   -0.9770000000    1.5842000000                    
 INPUT CARD>C      6.0      1.8186000000   -0.9770000000   -1.5842000000                    
 INPUT CARD>C      6.0     -3.5410000000    0.6703000000    1.3296000000                    
 INPUT CARD>C      6.0      3.5410000000    0.6703000000   -1.3296000000                    
 INPUT CARD>C      6.0     -4.3700000000    1.4061000000    0.2749000000                    
 INPUT CARD>C      6.0      4.3700000000    1.4061000000   -0.2749000000                    
 INPUT CARD>C      6.0     -6.0254000000    1.0592000000   -1.4234000000                    
 INPUT CARD>C      6.0      6.0254000000    1.0592000000    1.4234000000                    
 INPUT CARD>O      8.0      0.0000000000   -1.1307000000    0.0000000000                    
 INPUT CARD>O      8.0     -2.6439000000   -0.2353000000    0.6838000000                    
   40000000 WORDS OF MEMORY AVAILABLE

     BASIS OPTIONS
     -------------
     GBASIS=N311         IGAUSS=       6      POLAR=POPN311 
     NDFUNC=       1     NFFUNC=       0     DIFFSP=       F
     NPFUNC=       1      DIFFS=       F     BASNAM=        


     RUN TITLE
     ---------
 http://cactus.nci.nih.gov/chemical/structure/TETRAETHYLENE%20GLYCOL%20DIMETHYL%2

 THE POINT GROUP OF THE MOLECULE IS C1      
 THE ORDER OF THE PRINCIPAL AXIS IS     0

 ATOM      ATOMIC                      COORDINATES (BOHR)
           CHARGE         X                   Y                   Z
 C           6.0    -1.7077453751       -3.6074869106        1.4875922975
 C           6.0     1.7077453751       -3.6074869106       -1.4875922975
 C           6.0    -3.4366556813       -1.8462622900        2.9937039097
 C           6.0     3.4366556813       -1.8462622900       -2.9937039097
 C           6.0    -6.6915197225        1.2666833296        2.5125796733
 C           6.0     6.6915197225        1.2666833296       -2.5125796733
 C           6.0    -8.2581025663        2.6571437113        0.5194856740
 C           6.0     8.2581025663        2.6571437113       -0.5194856740
 C           6.0   -11.3863549664        2.0015977662       -2.6898359709
 C           6.0    11.3863549664        2.0015977662        2.6898359709
 O           8.0     0.0000000000       -2.1367131743        0.0000000000
 O           8.0    -4.9962465389       -0.4446525249        1.2921946304
 O           8.0     4.9962465389       -0.4446525249       -1.2921946304
 O           8.0    -9.8365906839        0.8911947758       -0.7776222439
 O           8.0     9.8365906839        0.8911947758        0.7776222439
 H           1.0    -0.6385384113       -4.7957466116        2.7865899415
 H           1.0    -2.8478170635       -4.7957466116        0.2503886934
 H           1.0     0.6385384113       -4.7957466116       -2.7865899415
 H           1.0     2.8478170635       -4.7957466116       -0.2503886934
 H           1.0    -4.6247264098       -2.9623344584        4.2530173080
 H           1.0    -2.2907258423       -0.5446190297        4.1050517631
 H           1.0     4.6247264098       -2.9623344584       -4.2530173080
 H           1.0     2.2907258423       -0.5446190297       -4.1050517631
 H           1.0    -5.6132420739        2.6329552187        3.6141009515
 H           1.0    -7.9470536688        0.2152397900        3.7620664964
 H           1.0     5.6132420739        2.6329552187       -3.6141009515
 H           1.0     7.9470536688        0.2152397900       -3.7620664964
 H           1.0    -9.4302995965        4.0802963527        1.4377035315
 H           1.0    -6.9980332777        3.5712041716       -0.8292117634
 H           1.0     9.4302995965        4.0802963527       -1.4377035315
 H           1.0     6.9980332777        3.5712041716        0.8292117634
 H           1.0   -12.5268046000        0.5381939613       -3.5848101987
 H           1.0   -12.6235585706        3.4113333530       -1.8383254409
 H           1.0   -10.1911032792        2.9022411719       -4.1052407357
 H           1.0    12.5268046000        0.5381939613        3.5848101987
 H           1.0    12.6235585706        3.4113333530        1.8383254409
 H           1.0    10.1911032792        2.9022411719        4.1052407357

          INTERNUCLEAR DISTANCES (ANGS.)




     $CONTRL OPTIONS
     ---------------
 SCFTYP=RHF          RUNTYP=OPTIMIZE     EXETYP=RUN     
 MPLEVL=       0     CITYP =NONE         CCTYP =NONE         VBTYP =NONE    
 DFTTYP=NONE         TDDFT =NONE    
 MULT  =       1     ICHARG=       0     NZVAR =       1     COORD =UNIQUE  
 PP    =NONE         RELWFN=NONE         LOCAL =NONE         NUMGRD=       F
 ISPHER=      -1     NOSYM =       0     MAXIT =     200     UNITS =ANGS    
 PLTORB=       F     MOLPLT=       F     AIMPAC=       F     FRIEND=        
 NPRINT=       7     IREST =       0     GEOM  =INPUT   
 NORMF =       0     NORMP =       0     ITOL  =      20     ICUT  =       9
 INTTYP=BEST         GRDTYP=BEST         QMTTOL= 1.0E-06

     $SYSTEM OPTIONS
     ---------------
  REPLICATED MEMORY=    40000000 WORDS (ON EVERY NODE).
 DISTRIBUTED MEMDDI=           0 MILLION WORDS IN AGGREGATE,
 MEMDDI DISTRIBUTED OVER   1 PROCESSORS IS           0 WORDS/PROCESSOR.
 TOTAL MEMORY REQUESTED ON EACH PROCESSOR=    40000000 WORDS.
 TIMLIM=       10000.00 MINUTES, OR       6.9 DAYS.
 PARALL= F  BALTYP=  DLB     KDIAG=    0  COREFL= F
 MXSEQ2=     300 MXSEQ3=     150  mem10=         0

     $COSGMS OPTIONS
     ---------------
     EPSI  =   INFTY     NSPA  =      92     COSRAD=    1.40
     DISEX =   10.00     OUTCHG=DBLCAV       COSBUG=       F
     COSWRT=       F     DCOSMO=       F

     SYMMETRY COORDINATES WILL NOT BE USED FOR 
     THE COSMO CALCULATION, EVEN IF SPECIFIED:
         -- SWITCHING TO C1 POINT GROUP --


     DEFINITION OF CAVITY
     ---------------------------
     ATOM         COORDINATES           RADIUS 
     1   -1.7077   -3.6075    1.4876    2.0000
     2    1.7077   -3.6075   -1.4876    2.0000
     3   -3.4367   -1.8463    2.9937    2.0000
     4    3.4367   -1.8463   -2.9937    2.0000
     5   -6.6915    1.2667    2.5126    2.0000
     6    6.6915    1.2667   -2.5126    2.0000
     7   -8.2581    2.6571    0.5195    2.0000
     8    8.2581    2.6571   -0.5195    2.0000
     9  -11.3864    2.0016   -2.6898    2.0000
    10   11.3864    2.0016    2.6898    2.0000
    11    0.0000   -2.1367    0.0000    1.7200
    12   -4.9962   -0.4447    1.2922    1.7200
    13    4.9962   -0.4447   -1.2922    1.7200
    14   -9.8366    0.8912   -0.7776    1.7200
    15    9.8366    0.8912    0.7776    1.7200
    16   -0.6385   -4.7957    2.7866    1.3000
    17   -2.8478   -4.7957    0.2504    1.3000
    18    0.6385   -4.7957   -2.7866    1.3000
    19    2.8478   -4.7957   -0.2504    1.3000
    20   -4.6247   -2.9623    4.2530    1.3000
    21   -2.2907   -0.5446    4.1051    1.3000
    22    4.6247   -2.9623   -4.2530    1.3000
    23    2.2907   -0.5446   -4.1051    1.3000
    24   -5.6132    2.6330    3.6141    1.3000
    25   -7.9471    0.2152    3.7621    1.3000
    26    5.6132    2.6330   -3.6141    1.3000
    27    7.9471    0.2152   -3.7621    1.3000
    28   -9.4303    4.0803    1.4377    1.3000
    29   -6.9980    3.5712   -0.8292    1.3000
    30    9.4303    4.0803   -1.4377    1.3000
    31    6.9980    3.5712    0.8292    1.3000
    32  -12.5268    0.5382   -3.5848    1.3000
    33  -12.6236    3.4113   -1.8383    1.3000
    34  -10.1911    2.9022   -4.1052    1.3000
    35   12.5268    0.5382    3.5848    1.3000
    36   12.6236    3.4113    1.8383    1.3000
    37   10.1911    2.9022    4.1052    1.3000

          ----------------
          PROPERTIES INPUT
          ----------------

     MOMENTS            FIELD           POTENTIAL          DENSITY
 IEMOM =       1   IEFLD =       0   IEPOT =       0   IEDEN =       0
 WHERE =COMASS     WHERE =NUCLEI     WHERE =NUCLEI     WHERE =NUCLEI  
 OUTPUT=BOTH       OUTPUT=BOTH       OUTPUT=BOTH       OUTPUT=BOTH    
 IEMINT=       0   IEFINT=       0                     IEDINT=       0
                                                       MORB  =       0
          EXTRAPOLATION IN EFFECT
          SOSCF IN EFFECT
 ORBITAL PRINTING OPTION: NPREO=     1   417     2     1

     -------------------------------
     INTEGRAL TRANSFORMATION OPTIONS
     -------------------------------
     NWORD  =            0
     CUTOFF = 1.0E-09     MPTRAN =       0
     DIRTRF =       T     AOINTS =DUP     

          ----------------------
          INTEGRAL INPUT OPTIONS
          ----------------------
 NOPK  =       1 NORDER=       0 SCHWRZ=       T


 -----------------------------------------------
  STATISTICS ON AUTOMATIC COORDINATE GENERATION 
 -----------------------------------------------
  NUMBER OF USER SPECIFIED BONDS                             0
  NUMBER OF BONDS                                           36
  NUMBER OF ANGLES                                          65
  NUMBER OF TORSIONS                                        66
  NUMBER OF EXTRA COORD.                                     0
  NUMBER OF EXTRA COORD. FOR CONSTRAINTS                     0
  NUMBER OF CONSTRAINED COORD.                               0

  TOTAL NUMBER OF PRIMITIVES                               167
 -----------------------------------------------

   --- ENCODED Z MATRIX ---
 COORD  TYPE   I   J   K   L   M   N
    1      1    1  11
    2      1    1  16
    3      1    1  17
    4      1    1   3
    5      1    2  18
    6      1    2  11
    7      1    2  19
    8      1    2   4
    9      1    3  12
   10      1    3  21
   11      1    3  20
   12      1    4  23
   13      1    4  22
   14      1    4  13
   15      1    5  25
   16      1    5  24
   17      1    5  12
   18      1    5   7
   19      1    6  27
   20      1    6  26
   21      1    6  13
   22      1    6   8
   23      1    7  29
   24      1    7  28
   25      1    7  14
   26      1    8  31
   27      1    8  30
   28      1    8  15
   29      1    9  32
   30      1    9  14
   31      1    9  34
   32      1    9  33
   33      1   10  15
   34      1   10  37
   35      1   10  36
   36      1   10  35
   37      2    1   3  12
   38      2    1   3  20
   39      2    1  11   2
   40      2    1   3  21
   41      2    2   4  22
   42      2    2   4  23
   43      2    2   4  13
   44      2    3   1  17
   45      2    3  12   5
   46      2    3   1  16
   47      2    3   1  11
   48      2    4   2  18
   49      2    4  13   6
   50      2    4   2  11
   51      2    4   2  19
   52      2    5   7  28
   53      2    5   7  14
   54      2    5   7  29
   55      2    6   8  15
   56      2    6   8  31
   57      2    6   8  30
   58      2    7   5  25
   59      2    7  14   9
   60      2    7   5  12
   61      2    7   5  24
   62      2    8   6  13
   63      2    8  15  10
   64      2    8   6  27
   65      2    8   6  26
   66      2   11   1  16
   67      2   11   2  18
   68      2   11   2  19
   69      2   11   1  17
   70      2   12   5  24
   71      2   12   3  20
   72      2   12   3  21
   73      2   12   5  25
   74      2   13   4  22
   75      2   13   4  23
   76      2   13   6  26
   77      2   13   6  27
   78      2   14   9  33
   79      2   14   9  34
   80      2   14   9  32
   81      2   14   7  28
   82      2   14   7  29
   83      2   15  10  35
   84      2   15  10  36
   85      2   15  10  37
   86      2   15   8  30
   87      2   15   8  31
   88      2   16   1  17
   89      2   18   2  19
   90      2   20   3  21
   91      2   22   4  23
   92      2   24   5  25
   93      2   26   6  27
   94      2   28   7  29
   95      2   30   8  31
   96      2   32   9  33
   97      2   32   9  34
   98      2   33   9  34
   99      2   35  10  36
  100      2   35  10  37
  101      2   36  10  37
  102      3    1  11   2   4
  103      3    1  11   2  18
  104      3    1  11   2  19
  105      3    1   3  12   5
  106      3    2   4  13   6
  107      3    2  11   1   3
  108      3    2  11   1  17
  109      3    2  11   1  16
  110      3    3  12   5   7
  111      3    3  12   5  24
  112      3    3  12   5  25
  113      3    4  13   6  26
  114      3    4  13   6  27
  115      3    4  13   6   8
  116      3    5  12   3  21
  117      3    5   7  14   9
  118      3    5  12   3  20
  119      3    6  13   4  22
  120      3    6  13   4  23
  121      3    6   8  15  10
  122      3    7  14   9  33
  123      3    7  14   9  34
  124      3    7  14   9  32
  125      3    8  15  10  35
  126      3    8  15  10  36
  127      3    8  15  10  37
  128      3    9  14   7  28
  129      3    9  14   7  29
  130      3   10  15   8  30
  131      3   10  15   8  31
  132      3   11   1   3  21
  133      3   11   2   4  13
  134      3   11   1   3  20
  135      3   11   2   4  23
  136      3   11   1   3  12
  137      3   11   2   4  22
  138      3   12   5   7  28
  139      3   12   3   1  17
  140      3   12   3   1  16
  141      3   12   5   7  29
  142      3   12   5   7  14
  143      3   13   4   2  19
  144      3   13   4   2  18
  145      3   13   6   8  30
  146      3   13   6   8  31
  147      3   13   6   8  15
  148      3   14   7   5  24
  149      3   14   7   5  25
  150      3   15   8   6  26
  151      3   15   8   6  27
  152      3   16   1   3  21
  153      3   16   1   3  20
  154      3   17   1   3  20
  155      3   17   1   3  21
  156      3   18   2   4  23
  157      3   18   2   4  22
  158      3   19   2   4  23
  159      3   19   2   4  22
  160      3   24   5   7  28
  161      3   24   5   7  29
  162      3   25   5   7  28
  163      3   25   5   7  29
  164      3   26   6   8  30
  165      3   26   6   8  31
  166      3   27   6   8  30
  167      3   27   6   8  31

          INDEP./SYM. INTERNAL COORDINATES
          --------------------------------
 CRD  1=   0.4064 ( 39)  0.1513 ( 44) -0.3499 ( 47) -0.3499 ( 50)  0.1513 ( 51)
           0.1848 ( 66)  0.1848 ( 67) -0.1551 (102) -0.1626 (104)  0.1163 (105)
           0.1163 (106) -0.1551 (107) -0.1626 (108) -0.1548 (110) -0.1548 (115)
          -0.1674 (133) -0.1674 (136) -0.1470 (140) -0.1470 (144)
 CRD  2=   0.3165 ( 37) -0.1056 ( 40)  0.1056 ( 42) -0.3165 ( 43) -0.3478 ( 45)
           0.3478 ( 49) -0.1033 ( 58)  0.2266 ( 60) -0.2266 ( 62)  0.1033 ( 64)
          -0.1425 ( 71)  0.1425 ( 74)  0.1774 (102) -0.1774 (107)  0.1236 (110)
           0.1080 (112) -0.1080 (114) -0.1236 (115) -0.1248 (133)  0.1174 (134)
           0.1248 (136) -0.1174 (137)
 CRD  3=  -0.3032 ( 37)  0.1321 ( 39) -0.3032 ( 43)  0.3187 ( 45)  0.1026 ( 46)
          -0.1390 ( 47)  0.1026 ( 48)  0.3187 ( 49) -0.1390 ( 50) -0.1651 ( 53)
          -0.1651 ( 55)  0.1253 ( 59) -0.2429 ( 60) -0.2429 ( 62)  0.1253 ( 63)
           0.1218 ( 72)  0.1218 ( 75)  0.1613 (102)  0.1153 (103)  0.1613 (107)
           0.1153 (109)  0.1017 (110)  0.1017 (115)
 CRD  4=  -0.3090 ( 39)  0.1474 ( 45)  0.2208 ( 47)  0.1474 ( 49)  0.2208 ( 50)
           0.1364 ( 58) -0.2343 ( 60) -0.2343 ( 62)  0.1364 ( 64) -0.1347 ( 68)
          -0.1347 ( 69)  0.1294 ( 70)  0.1294 ( 76) -0.1569 (105) -0.1569 (106)
          -0.1871 (110) -0.1521 (112) -0.1521 (114) -0.1871 (115) -0.1152 (116)
           0.1215 (117) -0.1152 (120)  0.1215 (121) -0.1110 (133) -0.1110 (136)
 CRD  5=   0.1096 ( 45) -0.1096 ( 49) -0.3567 ( 53)  0.3567 ( 55)  0.2560 ( 59)
          -0.2433 ( 60)  0.1434 ( 61)  0.2433 ( 62) -0.2560 ( 63) -0.1434 ( 65)
           0.1164 ( 81)  0.1184 ( 82) -0.1164 ( 86) -0.1184 ( 87)  0.1995 (110)
           0.1332 (111) -0.1332 (113) -0.1995 (115)
 CRD  6=  -0.1197 (  4)  0.1197 (  8) -0.1719 ( 37)  0.1630 ( 38) -0.1630 ( 41)
           0.1719 ( 43) -0.3224 ( 47)  0.3224 ( 50) -0.1116 ( 59)  0.1116 ( 63)
           0.1033 ( 66) -0.1033 ( 67) -0.1151 ( 68)  0.1151 ( 69) -0.1056 ( 70)
           0.1056 ( 76)  0.2889 (105) -0.2889 (106)  0.1198 (116)  0.1698 (118)
          -0.1698 (119) -0.1198 (120)  0.1467 (142) -0.1467 (147)
 CRD  7=  -0.1854 ( 37) -0.1854 ( 43)  0.1241 ( 45)  0.1241 ( 49)  0.3649 ( 53)
           0.3649 ( 55) -0.2807 ( 59)  0.1348 ( 60)  0.1348 ( 62) -0.2807 ( 63)
          -0.1419 ( 81) -0.1184 ( 82) -0.1419 ( 86) -0.1184 ( 87)  0.1891 (102)
           0.1177 (103)  0.1137 (104)  0.1891 (107)  0.1137 (108)  0.1177 (109)
 CRD  8=  -0.2638 (  1) -0.2554 (  4) -0.2638 (  6) -0.2554 (  8) -0.1415 (  9)
          -0.1415 ( 14) -0.2021 ( 17) -0.1013 ( 18) -0.2021 ( 21) -0.1013 ( 22)
          -0.1528 ( 37) -0.3528 ( 39) -0.1528 ( 43) -0.3081 ( 45) -0.1339 ( 47)
          -0.3081 ( 49) -0.1339 ( 50)
 CRD  9=   0.1613 (  9) -0.1613 ( 14)  0.1822 ( 18) -0.1822 ( 22)  0.1268 ( 25)
          -0.1268 ( 28)  0.1477 ( 30) -0.1477 ( 33)  0.1098 ( 45) -0.1098 ( 49)
           0.4149 ( 59)  0.2558 ( 60) -0.2558 ( 62) -0.4149 ( 63)  0.1301 ( 79)
          -0.1301 ( 85) -0.1106 (102)  0.1106 (107) -0.1288 (117)  0.1288 (121)
 CRD 10=  -0.1423 (  4)  0.1423 (  8) -0.1514 (  9)  0.1514 ( 14) -0.2132 ( 17)
          -0.1366 ( 18)  0.2132 ( 21)  0.1366 ( 22) -0.1487 ( 37)  0.1191 ( 40)
          -0.1191 ( 42)  0.1487 ( 43) -0.3687 ( 45)  0.3687 ( 49) -0.1634 ( 53)
           0.1634 ( 55)  0.1015 ( 81) -0.1015 ( 86) -0.1287 (102) -0.1027 (105)
           0.1027 (106)  0.1287 (107) -0.1090 (117)  0.1090 (121) -0.1026 (134)
           0.1026 (137)
 CRD 11=   0.1189 (  9)  0.1189 ( 14)  0.1837 ( 18)  0.1837 ( 22)  0.1371 ( 25)
           0.1371 ( 28)  0.1805 ( 30)  0.1805 ( 33)  0.4190 ( 59)  0.1843 ( 60)
           0.1843 ( 62)  0.4190 ( 63) -0.1159 ( 73) -0.1159 ( 77)  0.1265 ( 79)
           0.1265 ( 85) -0.1118 (105) -0.1118 (106) -0.1049 (111) -0.1049 (113)
          -0.1066 (116) -0.1066 (120)
 CRD 12=   0.1789 (  1)  0.1789 (  6)  0.4909 ( 39)  0.1166 ( 40)  0.1166 ( 42)
          -0.1073 ( 45) -0.1073 ( 49) -0.1015 ( 59) -0.1015 ( 63) -0.1037 ( 73)
          -0.1037 ( 77) -0.2291 (105) -0.2291 (106) -0.1073 (116) -0.1702 (118)
          -0.1702 (119) -0.1073 (120) -0.1121 (123) -0.1121 (127) -0.1179 (138)
          -0.1499 (142) -0.1179 (145) -0.1499 (147)
 CRD 13=   0.1185 (  9) -0.1185 ( 14) -0.1336 ( 30)  0.1336 ( 33) -0.1058 ( 37)
           0.1058 ( 43)  0.2307 ( 45) -0.2307 ( 49)  0.1569 ( 54) -0.1569 ( 56)
          -0.1564 ( 58) -0.3082 ( 59)  0.1193 ( 60) -0.1193 ( 62)  0.3082 ( 63)
           0.1564 ( 64)  0.1045 ( 72) -0.1045 ( 75) -0.1624 ( 78)  0.1624 ( 84)
           0.2000 (110)  0.1142 (111) -0.1142 (113) -0.2000 (115) -0.1946 (117)
           0.1946 (121) -0.1077 (123)  0.1077 (127) -0.1242 (128)  0.1242 (130)
 CRD 14=  -0.1320 (  1) -0.1320 (  6)  0.1789 (  9)  0.1789 ( 14)  0.1617 ( 17)
           0.1617 ( 21) -0.1343 ( 30) -0.1343 ( 33) -0.2026 ( 39)  0.3067 ( 45)
           0.3067 ( 49) -0.1172 ( 53)  0.1486 ( 54) -0.1172 ( 55)  0.1486 ( 56)
          -0.1216 ( 58) -0.2137 ( 59)  0.1036 ( 60)  0.1036 ( 62) -0.2137 ( 63)
          -0.1216 ( 64) -0.1234 ( 78) -0.1234 ( 84) -0.1006 (102) -0.1013 (103)
          -0.1006 (107) -0.1013 (109) -0.1456 (117) -0.1456 (121) -0.1040 (123)
          -0.1040 (127) -0.1053 (128) -0.1053 (130)
 CRD 15=   0.1077 (  4) -0.1077 (  8)  0.1324 (  9) -0.1324 ( 14)  0.1600 ( 17)
          -0.1600 ( 21) -0.1526 ( 25)  0.1526 ( 28) -0.1822 ( 30)  0.1822 ( 33)
           0.1798 ( 37) -0.1798 ( 43) -0.1109 ( 47)  0.1109 ( 50)  0.1003 ( 52)
          -0.2561 ( 53)  0.2561 ( 55) -0.1003 ( 57) -0.1394 ( 72)  0.1394 ( 75)
          -0.1195 (102) -0.1069 (104)  0.1086 (105) -0.1086 (106)  0.1195 (107)
           0.1069 (108) -0.1261 (110) -0.1157 (112)  0.1157 (114)  0.1261 (115)
           0.1700 (133) -0.1700 (136) -0.1097 (140)  0.1097 (144)
 CRD 16=  -0.2072 (  1) -0.2072 (  6)  0.1359 ( 17)  0.1359 ( 21)  0.2569 ( 37)
          -0.1114 ( 38) -0.1114 ( 41)  0.2569 ( 43) -0.1958 ( 47) -0.1958 ( 50)
           0.1115 ( 68)  0.1115 ( 69)  0.1289 ( 78) -0.1381 ( 79)  0.1289 ( 84)
          -0.1381 ( 85) -0.1291 (105) -0.1291 (106)  0.2225 (117)  0.2225 (121)
           0.1302 (129)  0.1302 (131) -0.1120 (142) -0.1120 (147)
 CRD 17=  -0.1165 ( 37)  0.1065 ( 40) -0.1065 ( 42)  0.1165 ( 43) -0.1399 ( 44)
           0.3049 ( 47) -0.3049 ( 50)  0.1399 ( 51)  0.1580 ( 68) -0.1580 ( 69)
          -0.1066 ( 70)  0.1066 ( 76)  0.1106 ( 82) -0.1106 ( 87) -0.1601 (102)
           0.1601 (107)  0.1256 (116) -0.1256 (120)  0.1677 (122)  0.1669 (123)
           0.1595 (124) -0.1595 (125) -0.1677 (126) -0.1669 (127)  0.1713 (142)
          -0.1713 (147)  0.1128 (149) -0.1128 (151)
 CRD 18=  -0.1063 (  9) -0.1063 ( 14)  0.1547 ( 25)  0.1547 ( 28)  0.1604 ( 30)
           0.1604 ( 33)  0.2145 ( 53)  0.2145 ( 55) -0.1973 ( 60)  0.1172 ( 61)
          -0.1973 ( 62)  0.1172 ( 65)  0.1357 ( 80) -0.1336 ( 82)  0.1357 ( 83)
          -0.1336 ( 87) -0.1489 (102) -0.1092 (104) -0.1489 (107) -0.1092 (108)
           0.1952 (110)  0.1239 (111)  0.1404 (112)  0.1239 (113)  0.1404 (114)
           0.1952 (115) -0.1083 (122) -0.1352 (123) -0.1083 (126) -0.1352 (127)
          -0.1027 (142) -0.1027 (147)
 CRD 19=   0.1356 ( 18) -0.1356 ( 22) -0.1211 ( 47)  0.1211 ( 50)  0.1075 ( 52)
          -0.1075 ( 57)  0.1638 ( 60) -0.1638 ( 62) -0.1401 ( 73)  0.1401 ( 77)
           0.2108 ( 78) -0.2611 ( 79) -0.2108 ( 84)  0.2611 ( 85)  0.1377 (110)
           0.1207 (112) -0.1207 (114) -0.1377 (115)  0.2475 (117) -0.2475 (121)
           0.1439 (128)  0.2187 (129) -0.1439 (130) -0.2187 (131) -0.1079 (142)
           0.1079 (147)
 CRD 20=  -0.1522 ( 18) -0.1522 ( 22)  0.1877 ( 37)  0.1877 ( 43) -0.1789 ( 60)
          -0.1789 ( 62) -0.1242 ( 72)  0.1297 ( 73) -0.1242 ( 75)  0.1297 ( 77)
          -0.1702 ( 78)  0.2239 ( 79) -0.1702 ( 84)  0.2239 ( 85)  0.1329 (102)
           0.1077 (103)  0.1602 (104)  0.1329 (107)  0.1602 (108)  0.1077 (109)
          -0.1532 (110) -0.1310 (112) -0.1310 (114) -0.1532 (115) -0.1692 (117)
          -0.1692 (121) -0.1080 (128) -0.1886 (129) -0.1080 (130) -0.1886 (131)
 CRD 21=  -0.1829 (  4)  0.1829 (  8) -0.1112 ( 25)  0.1112 ( 28) -0.1172 ( 37)
           0.1172 ( 43)  0.1395 ( 60) -0.1080 ( 61) -0.1395 ( 62)  0.1080 ( 65)
          -0.1202 ( 68)  0.1202 ( 69)  0.1203 ( 71) -0.1203 ( 74) -0.1336 ( 80)
           0.1336 ( 83)  0.1869 (102)  0.1522 (104) -0.1207 (105)  0.1207 (106)
          -0.1869 (107) -0.1522 (108) -0.1622 (110) -0.1013 (111) -0.1330 (112)
           0.1013 (113)  0.1330 (114)  0.1622 (115) -0.1633 (116)  0.1633 (120)
           0.1305 (123)  0.1325 (124) -0.1325 (125) -0.1305 (127) -0.1020 (133)
           0.1361 (134)  0.1020 (136) -0.1361 (137)
 CRD 22=   0.1890 (  4)  0.1890 (  8)  0.1305 ( 38) -0.1181 ( 39)  0.1305 ( 41)
           0.2017 ( 78) -0.1707 ( 79)  0.1050 ( 81) -0.1133 ( 82)  0.2017 ( 84)
          -0.1707 ( 85)  0.1050 ( 86) -0.1133 ( 87)  0.1287 (104)  0.1842 (105)
           0.1842 (106)  0.1287 (108)  0.1519 (116)  0.1519 (120) -0.2014 (122)
          -0.1919 (123) -0.2685 (124) -0.2685 (125) -0.2014 (126) -0.1919 (127)
          -0.1268 (148) -0.1172 (149) -0.1268 (150) -0.1172 (151)
 CRD 23=  -0.1014 (  4)  0.1014 (  8)  0.1198 ( 18) -0.1198 ( 22)  0.1041 ( 25)
          -0.1041 ( 28)  0.1372 ( 37) -0.1372 ( 43) -0.1334 ( 47)  0.1334 ( 50)
           0.1269 ( 66) -0.1269 ( 67) -0.2864 ( 78)  0.1588 ( 79)  0.1626 ( 80)
          -0.1626 ( 83)  0.2864 ( 84) -0.1588 ( 85) -0.1183 (105)  0.1183 (106)
           0.1788 (122)  0.1368 (123)  0.2334 (124) -0.2334 (125) -0.1788 (126)
          -0.1368 (127)
 CRD 24=  -0.2190 (  4) -0.2190 (  8) -0.3289 ( 18) -0.3289 ( 22) -0.1490 ( 52)
          -0.1009 ( 54) -0.1009 ( 56) -0.1490 ( 57) -0.1090 ( 58) -0.1574 ( 61)
          -0.1090 ( 64) -0.1574 ( 65)  0.1929 ( 78) -0.1226 ( 79)  0.1929 ( 84)
          -0.1226 ( 85)  0.1022 (111)  0.1022 (113) -0.1137 (124) -0.1137 (125)
 CRD 25=  -0.3557 ( 18)  0.3557 ( 22)  0.1789 ( 25) -0.1789 ( 28) -0.1723 ( 52)
          -0.1214 ( 54)  0.1214 ( 56)  0.1723 ( 57) -0.1491 ( 58) -0.1377 ( 61)
           0.1491 ( 64)  0.1377 ( 65) -0.1707 ( 79)  0.2372 ( 80)  0.1084 ( 82)
          -0.2372 ( 83)  0.1707 ( 85) -0.1084 ( 87)  0.1514 (128) -0.1514 (130)
 CRD 26=  -0.1814 (  4) -0.1814 (  8)  0.1885 ( 18)  0.1885 ( 22) -0.2409 ( 25)
          -0.2409 ( 28) -0.1081 ( 29) -0.1081 ( 36)  0.1065 ( 52)  0.1065 ( 57)
           0.1101 ( 58)  0.1101 ( 64)  0.1229 ( 78)  0.1818 ( 79) -0.3569 ( 80)
          -0.1062 ( 82) -0.3569 ( 83)  0.1229 ( 84)  0.1818 ( 85) -0.1062 ( 87)
          -0.1221 (128) -0.1221 (130)
 CRD 27=   0.3753 (  4) -0.3753 (  8)  0.1925 ( 38)  0.1100 ( 40) -0.1925 ( 41)
          -0.1100 ( 42)  0.2097 ( 46) -0.1332 ( 47) -0.2097 ( 48)  0.1332 ( 50)
           0.1370 ( 79) -0.1370 ( 85) -0.1181 ( 88)  0.1181 ( 89) -0.1074 ( 90)
           0.1074 ( 91)  0.1547 (103) -0.1547 (109) -0.1922 (118)  0.1922 (119)
           0.1002 (124) -0.1002 (125)
 CRD 28=   0.2495 (  4)  0.2495 (  8) -0.1577 ( 18) -0.1577 ( 22) -0.1355 ( 25)
          -0.1355 ( 28)  0.1297 ( 38)  0.1297 ( 41)  0.1158 ( 46)  0.1158 ( 48)
           0.1187 ( 53)  0.1187 ( 55) -0.1034 ( 61) -0.1034 ( 65)  0.1652 ( 79)
          -0.2475 ( 80) -0.2475 ( 83)  0.1652 ( 85) -0.1600 (103) -0.1600 (109)
           0.1272 (111)  0.1272 (113) -0.1188 (118) -0.1188 (119)  0.1082 (123)
           0.1082 (127)
 CRD 29=   0.1054 (  4) -0.1054 (  8)  0.1879 ( 18) -0.1879 ( 22)  0.1684 ( 25)
          -0.1684 ( 28) -0.1587 ( 53)  0.1587 ( 55) -0.1001 ( 66)  0.1001 ( 67)
          -0.1089 ( 70)  0.1089 ( 76) -0.1402 ( 78) -0.1780 ( 79)  0.3116 ( 80)
          -0.3116 ( 83)  0.1402 ( 84)  0.1780 ( 85)  0.1075 (102) -0.1075 (107)
          -0.1123 (110) -0.1782 (111)  0.1782 (113)  0.1123 (115)
 CRD 30=  -0.1244 ( 38) -0.1244 ( 41) -0.1312 ( 46) -0.1312 ( 48) -0.1235 ( 52)
          -0.1235 ( 57) -0.1321 ( 61) -0.1321 ( 65) -0.1271 ( 78)  0.1419 ( 79)
           0.1059 ( 81) -0.1271 ( 84)  0.1419 ( 85)  0.1059 ( 86)  0.1657 (103)
           0.1209 (104)  0.1209 (108)  0.1657 (109)  0.1614 (111)  0.1219 (112)
           0.1614 (113)  0.1219 (114)  0.1226 (116)  0.1678 (118)  0.1678 (119)
           0.1226 (120)  0.1445 (128)  0.1097 (129)  0.1445 (130)  0.1097 (131)
          -0.1046 (133) -0.1046 (136) -0.1172 (142) -0.1172 (147)
 CRD 31=   0.1063 ( 11) -0.1063 ( 13) -0.1394 ( 52)  0.1394 ( 57) -0.1587 ( 61)
           0.1587 ( 65)  0.1184 ( 71) -0.1157 ( 73) -0.1184 ( 74)  0.1157 ( 77)
          -0.1820 ( 78)  0.1415 ( 79)  0.1622 ( 81) -0.1174 ( 82)  0.1820 ( 84)
          -0.1415 ( 85) -0.1622 ( 86)  0.1174 ( 87)  0.1210 (105) -0.1210 (106)
           0.1226 (111)  0.1115 (112) -0.1226 (113) -0.1115 (114)  0.1015 (116)
           0.1289 (118) -0.1289 (119) -0.1015 (120)  0.1693 (128)  0.1392 (129)
          -0.1693 (130) -0.1392 (131) -0.1363 (142)  0.1363 (147) -0.1003 (148)
           0.1003 (150)
 CRD 32=   0.1124 ( 24)  0.1124 ( 27)  0.1746 ( 38) -0.1891 ( 40)  0.1746 ( 41)
          -0.1891 ( 42) -0.1375 ( 44)  0.1198 ( 46)  0.1198 ( 48) -0.1375 ( 51)
           0.1132 ( 58) -0.1056 ( 61)  0.1132 ( 64) -0.1056 ( 65) -0.1610 ( 66)
          -0.1610 ( 67)  0.1301 ( 68)  0.1301 ( 69)  0.1136 ( 72)  0.1136 ( 75)
          -0.1976 ( 78)  0.1004 ( 79)  0.1567 ( 81) -0.1976 ( 84)  0.1004 ( 85)
           0.1567 ( 86) -0.1083 (103) -0.1187 (104)  0.1063 (105)  0.1063 (106)
          -0.1187 (108) -0.1083 (109) -0.1166 (110) -0.1166 (115)  0.1025 (134)
           0.1025 (137) -0.1245 (148) -0.1061 (149) -0.1245 (150) -0.1061 (151)
 CRD 33=   0.2010 ( 38) -0.2202 ( 40)  0.2010 ( 41) -0.2202 ( 42)  0.2215 ( 44)
          -0.2041 ( 46) -0.2041 ( 48)  0.2215 ( 51) -0.1047 ( 52)  0.1222 ( 54)
           0.1222 ( 56) -0.1047 ( 57) -0.1265 ( 58)  0.1161 ( 61) -0.1265 ( 64)
           0.1161 ( 65)  0.1199 ( 66)  0.1199 ( 67) -0.1441 ( 68) -0.1441 ( 69)
          -0.1198 ( 71)  0.1508 ( 72) -0.1198 ( 74)  0.1508 ( 75)  0.1739 (103)
           0.1802 (104)  0.1802 (108)  0.1739 (109) -0.1144 (111) -0.1156 (112)
          -0.1144 (113) -0.1156 (114) -0.1666 (116) -0.1565 (118) -0.1565 (119)
          -0.1666 (120)
 CRD 34=   0.1386 ( 38) -0.1415 ( 40) -0.1386 ( 41)  0.1415 ( 42)  0.1233 ( 44)
          -0.1155 ( 46)  0.1155 ( 48) -0.1233 ( 51) -0.1981 ( 52)  0.2183 ( 54)
          -0.2183 ( 56)  0.1981 ( 57) -0.2078 ( 58)  0.1993 ( 61)  0.2078 ( 64)
          -0.1993 ( 65)  0.1055 ( 68) -0.1055 ( 69) -0.1111 ( 70)  0.1467 ( 73)
           0.1111 ( 76) -0.1467 ( 77)  0.1095 ( 81) -0.1634 ( 82) -0.1095 ( 86)
           0.1634 ( 87) -0.1530 (111) -0.1602 (112)  0.1530 (113)  0.1602 (114)
          -0.1225 (116) -0.1238 (118)  0.1238 (119)  0.1225 (120)  0.1327 (128)
           0.1497 (129) -0.1327 (130) -0.1497 (131)
 CRD 35=  -0.1096 ( 38)  0.1108 ( 40) -0.1096 ( 41)  0.1108 ( 42) -0.1264 ( 44)
           0.1303 ( 46)  0.1303 ( 48) -0.1264 ( 51) -0.2172 ( 52)  0.2288 ( 54)
           0.2288 ( 56) -0.2172 ( 57) -0.2011 ( 58)  0.2003 ( 61) -0.2011 ( 64)
           0.2003 ( 65) -0.1049 ( 70) -0.1133 ( 72)  0.1760 ( 73) -0.1133 ( 75)
          -0.1049 ( 76)  0.1760 ( 77)  0.1153 ( 81) -0.1784 ( 82)  0.1153 ( 86)
          -0.1784 ( 87) -0.1119 (111) -0.1275 (112) -0.1119 (113) -0.1275 (114)
           0.1380 (128)  0.1543 (129)  0.1380 (130)  0.1543 (131)
 CRD 36=  -0.2144 ( 38)  0.2092 ( 40)  0.2144 ( 41) -0.2092 ( 42) -0.1951 ( 44)
           0.2023 ( 46) -0.2023 ( 48)  0.1951 ( 51) -0.1337 ( 52)  0.1372 ( 54)
          -0.1372 ( 56)  0.1337 ( 57) -0.1222 ( 58)  0.1231 ( 61)  0.1222 ( 64)
          -0.1231 ( 65) -0.1009 ( 66)  0.1009 ( 67) -0.1901 ( 68)  0.1901 ( 69)
           0.1107 ( 71) -0.1890 ( 72)  0.1244 ( 73) -0.1107 ( 74)  0.1890 ( 75)
          -0.1244 ( 77) -0.1082 ( 82)  0.1082 ( 87)  0.1149 (104) -0.1149 (108)
           0.1267 (116)  0.1106 (118) -0.1106 (119) -0.1267 (120)
 CRD 37=  -0.1550 (  3)  0.1550 (  7)  0.1139 ( 24) -0.1139 ( 27)  0.1589 ( 38)
          -0.2112 ( 40) -0.1589 ( 41)  0.2112 ( 42) -0.2587 ( 44)  0.1928 ( 46)
          -0.1928 ( 48)  0.2587 ( 51) -0.1441 ( 66)  0.1441 ( 67) -0.1073 ( 68)
           0.1073 ( 69) -0.1510 ( 71)  0.1256 ( 72)  0.1510 ( 74) -0.1256 ( 75)
          -0.1457 ( 78)  0.1457 ( 84) -0.1266 (102)  0.1266 (107) -0.1121 (148)
          -0.1005 (149)  0.1121 (150)  0.1005 (151)
 CRD 38=   0.1417 ( 15)  0.1417 ( 19)  0.2356 ( 23) -0.1523 ( 24)  0.2356 ( 26)
          -0.1523 ( 27) -0.1925 ( 52)  0.2442 ( 54)  0.2442 ( 56) -0.1925 ( 57)
           0.2213 ( 58) -0.1614 ( 61)  0.2213 ( 64) -0.1614 ( 65)  0.1672 ( 70)
          -0.1014 ( 73)  0.1672 ( 76) -0.1014 ( 77)  0.1153 ( 78) -0.1658 ( 79)
           0.1153 ( 84) -0.1658 ( 85) -0.1716 (117) -0.1716 (121)  0.1216 (148)
           0.1216 (150)
 CRD 39=  -0.1545 ( 15)  0.1545 ( 19) -0.2227 ( 23)  0.1403 ( 24)  0.2227 ( 26)
          -0.1403 ( 27)  0.1855 ( 52) -0.2332 ( 54)  0.2332 ( 56) -0.1855 ( 57)
          -0.2196 ( 58)  0.1602 ( 61)  0.2196 ( 64) -0.1602 ( 65) -0.1663 ( 70)
           0.1663 ( 76)  0.1512 ( 79) -0.1512 ( 85)  0.1614 (117) -0.1614 (121)
          -0.1123 (148)  0.1123 (150)
 CRD 40=   0.1728 (  2) -0.2403 (  3)  0.1728 (  5) -0.2403 (  7) -0.2188 ( 10)
          -0.2188 ( 12)  0.1422 ( 16)  0.1422 ( 20)  0.1406 ( 38) -0.1786 ( 40)
           0.1406 ( 41) -0.1786 ( 42) -0.1885 ( 44)  0.1468 ( 46)  0.1468 ( 48)
          -0.1885 ( 51)  0.1265 (102)  0.1265 (107) -0.1467 (133) -0.1318 (134)
          -0.1467 (136) -0.1318 (137) -0.1159 (138) -0.1159 (145)
 CRD 41=  -0.2347 ( 10)  0.2075 ( 11)  0.2347 ( 12) -0.2075 ( 13) -0.2050 ( 15)
           0.2029 ( 16)  0.2050 ( 19) -0.2029 ( 20)  0.1039 ( 38) -0.1283 ( 40)
          -0.1039 ( 41)  0.1283 ( 42) -0.1234 ( 66)  0.1234 ( 67) -0.1068 ( 81)
           0.1068 ( 86) -0.1687 (138) -0.1291 (139) -0.1692 (140) -0.1382 (141)
           0.1291 (143)  0.1692 (144)  0.1687 (145)  0.1382 (146)
 CRD 42=   0.2462 (  2) -0.2198 (  3)  0.2462 (  5) -0.2198 (  7)  0.1280 ( 10)
          -0.2036 ( 11)  0.1280 ( 12) -0.2036 ( 13)  0.1783 ( 15) -0.1412 ( 16)
           0.1783 ( 19) -0.1412 ( 20)  0.1213 ( 66)  0.1213 ( 67) -0.1379 ( 71)
          -0.1379 ( 74) -0.1634 (132) -0.1875 (134) -0.1634 (135) -0.1875 (137)
           0.1254 (138)  0.1335 (139)  0.1440 (140)  0.1041 (141)  0.1335 (143)
           0.1440 (144)  0.1254 (145)  0.1041 (146)
 CRD 43=   0.2471 ( 29) -0.1573 ( 30)  0.2347 ( 31)  0.2376 ( 32)  0.1573 ( 33)
          -0.2347 ( 34) -0.2376 ( 35) -0.2471 ( 36)  0.1223 ( 53) -0.1223 ( 55)
           0.1028 ( 59) -0.1028 ( 63) -0.1942 ( 78) -0.2063 ( 79) -0.1885 ( 80)
           0.1885 ( 83)  0.1942 ( 84)  0.2063 ( 85)  0.1804 ( 96)  0.1911 ( 97)
           0.2176 ( 98) -0.1804 ( 99) -0.1911 (100) -0.2176 (101)
 CRD 44=   0.2457 ( 29) -0.1552 ( 30)  0.2334 ( 31)  0.2366 ( 32) -0.1552 ( 33)
           0.2334 ( 34)  0.2366 ( 35)  0.2457 ( 36)  0.1218 ( 53)  0.1218 ( 55)
           0.1017 ( 59)  0.1017 ( 63) -0.1917 ( 78) -0.2054 ( 79) -0.1873 ( 80)
          -0.1873 ( 83) -0.1917 ( 84) -0.2054 ( 85)  0.1782 ( 96)  0.1904 ( 97)
           0.2157 ( 98)  0.1782 ( 99)  0.1904 (100)  0.2157 (101)
 CRD 45=  -0.3671 ( 29)  0.1621 ( 31)  0.1693 ( 32) -0.1621 ( 34) -0.1693 ( 35)
           0.3671 ( 36) -0.1867 ( 96) -0.1943 ( 97)  0.3710 ( 98)  0.1867 ( 99)
           0.1943 (100) -0.3710 (101) -0.2074 (122)  0.2100 (123)  0.2074 (126)
          -0.2100 (127)
 CRD 46=  -0.3671 ( 29)  0.1622 ( 31)  0.1692 ( 32)  0.1622 ( 34)  0.1692 ( 35)
          -0.3671 ( 36) -0.1869 ( 96) -0.1942 ( 97)  0.3710 ( 98) -0.1869 ( 99)
          -0.1942 (100)  0.3710 (101) -0.2074 (122)  0.2099 (123) -0.2074 (126)
           0.2099 (127)
 CRD 47=   0.3174 ( 31) -0.3169 ( 32) -0.3174 ( 34)  0.3169 ( 35) -0.3214 ( 96)
           0.3161 ( 97)  0.3214 ( 99) -0.3161 (100) -0.1140 (122) -0.1090 (123)
           0.2536 (124) -0.2536 (125)  0.1140 (126)  0.1090 (127)
 CRD 48=   0.3173 ( 31) -0.3169 ( 32)  0.3173 ( 34) -0.3169 ( 35) -0.3213 ( 96)
           0.3161 ( 97) -0.3213 ( 99)  0.3161 (100) -0.1139 (122) -0.1091 (123)
           0.2535 (124)  0.2535 (125) -0.1139 (126) -0.1091 (127)
 CRD 49=  -0.2228 (  1) -0.1720 (  2) -0.2595 (  3)  0.1720 (  5)  0.2228 (  6)
           0.2595 (  7)  0.1587 (  9)  0.2064 ( 10) -0.2064 ( 12) -0.1587 ( 14)
          -0.1738 ( 15) -0.1703 ( 16) -0.1679 ( 17)  0.1738 ( 19)  0.1703 ( 20)
           0.1679 ( 21) -0.1366 ( 38)  0.1366 ( 41)  0.1191 ( 44)  0.1556 ( 46)
          -0.1556 ( 48) -0.1191 ( 51) -0.1318 ( 88)  0.1318 ( 89)  0.1091 ( 90)
          -0.1091 ( 91)  0.1017 (103) -0.1017 (109)
 CRD 50=  -0.2072 (  9) -0.2552 ( 10) -0.2435 ( 11) -0.2552 ( 12) -0.2435 ( 13)
          -0.2072 ( 14)  0.2579 ( 15)  0.2353 ( 16)  0.2061 ( 17)  0.2579 ( 19)
           0.2353 ( 20)  0.2061 ( 21)  0.1177 ( 38)  0.1136 ( 40)  0.1177 ( 41)
           0.1136 ( 42) -0.1138 ( 58) -0.1228 ( 61) -0.1138 ( 64) -0.1228 ( 65)
          -0.1187 ( 90) -0.1187 ( 91)  0.1214 ( 92)  0.1214 ( 93)
 CRD 51=   0.1925 (  1)  0.3089 (  2)  0.2544 (  3)  0.1161 (  4) -0.3089 (  5)
          -0.1925 (  6) -0.2544 (  7) -0.1161 (  8)  0.1348 (  9)  0.1543 ( 10)
           0.2570 ( 11) -0.1543 ( 12) -0.2570 ( 13) -0.1348 ( 14) -0.1891 ( 15)
          -0.1611 ( 16) -0.1252 ( 17)  0.1891 ( 19)  0.1611 ( 20)  0.1252 ( 21)
          -0.1114 ( 44)  0.1114 ( 51)  0.1098 ( 88) -0.1098 ( 89)
 CRD 52=  -0.3901 ( 23) -0.3867 ( 24) -0.3901 ( 26) -0.3867 ( 27)  0.1739 ( 29)
           0.1411 ( 30)  0.1411 ( 33)  0.1739 ( 36)  0.1137 ( 52)  0.1143 ( 54)
           0.1143 ( 56)  0.1137 ( 57) -0.1844 ( 94) -0.1844 ( 95) -0.1119 (128)
           0.1105 (129) -0.1119 (130)  0.1105 (131)
 CRD 53=  -0.3901 ( 23) -0.3868 ( 24)  0.3901 ( 26)  0.3868 ( 27)  0.1739 ( 29)
           0.1411 ( 30) -0.1411 ( 33) -0.1739 ( 36)  0.1137 ( 52)  0.1143 ( 54)
          -0.1143 ( 56) -0.1137 ( 57) -0.1844 ( 94)  0.1844 ( 95) -0.1119 (128)
           0.1105 (129)  0.1119 (130) -0.1105 (131)
 CRD 54=   0.3100 (  2)  0.3224 (  3)  0.3100 (  5)  0.3224 (  7) -0.2359 ( 10)
          -0.2278 ( 11) -0.2359 ( 12) -0.2278 ( 13) -0.2239 ( 15) -0.2193 ( 16)
          -0.2239 ( 19) -0.2193 ( 20)  0.1107 ( 88)  0.1107 ( 89)
 CRD 55=  -0.3171 ( 10) -0.3144 ( 11)  0.3171 ( 12)  0.3144 ( 13) -0.3188 ( 15)
          -0.3224 ( 16)  0.3188 ( 19)  0.3224 ( 20) -0.1102 ( 90)  0.1102 ( 91)
          -0.1104 ( 92)  0.1104 ( 93)
 CRD 56=   0.3227 (  2)  0.3173 (  3)  0.3227 (  5)  0.3173 (  7)  0.2114 ( 10)
           0.2143 ( 11)  0.2114 ( 12)  0.2143 ( 13)  0.2289 ( 15)  0.2392 ( 16)
           0.2289 ( 19)  0.2392 ( 20)  0.1120 ( 88)  0.1120 ( 89)
 CRD 57=  -0.1028 ( 16)  0.1028 ( 20)  0.1891 ( 23)  0.2017 ( 24) -0.1891 ( 26)
          -0.2017 ( 27)  0.1820 ( 29)  0.3332 ( 30)  0.2888 ( 31)  0.2895 ( 32)
          -0.3332 ( 33) -0.2888 ( 34) -0.2895 ( 35) -0.1820 ( 36) -0.1335 ( 53)
           0.1335 ( 55) -0.1692 ( 59)  0.1692 ( 63)
 CRD 58=  -0.1003 ( 16) -0.1003 ( 20)  0.1892 ( 23)  0.2017 ( 24)  0.1892 ( 26)
           0.2017 ( 27)  0.1821 ( 29)  0.3336 ( 30)  0.2892 ( 31)  0.2898 ( 32)
           0.3336 ( 33)  0.2892 ( 34)  0.2898 ( 35)  0.1821 ( 36) -0.1337 ( 53)
          -0.1337 ( 55) -0.1694 ( 59) -0.1694 ( 63)
 CRD 59=   0.2893 (  1) -0.2590 (  2) -0.1524 (  3)  0.2590 (  5) -0.2893 (  6)
           0.1524 (  7) -0.1739 (  9)  0.1991 ( 11) -0.1991 ( 13)  0.1739 ( 14)
          -0.1305 ( 15) -0.1402 ( 16)  0.2192 ( 17)  0.1305 ( 19)  0.1402 ( 20)
          -0.2192 ( 21)  0.1413 (152) -0.1391 (154) -0.1413 (156)  0.1391 (159)
 CRD 60=  -0.2997 (  9)  0.1725 ( 10)  0.1569 ( 11)  0.1725 ( 12)  0.1569 ( 13)
          -0.2997 ( 14) -0.1849 ( 15) -0.1360 ( 16)  0.3032 ( 17) -0.1849 ( 19)
          -0.1360 ( 20)  0.3032 ( 21) -0.1027 (134) -0.1027 (137)  0.1026 (148)
           0.1026 (150) -0.1145 (153) -0.1145 (157)  0.1106 (160)  0.1130 (161)
           0.1106 (164)  0.1130 (165)
 CRD 61=   0.2782 (  1) -0.2434 (  3)  0.1210 (  4) -0.2782 (  6)  0.2434 (  7)
          -0.1210 (  8)  0.2260 (  9) -0.2058 ( 10)  0.2058 ( 12) -0.2260 ( 14)
           0.1587 ( 15) -0.1695 ( 17) -0.1587 ( 19)  0.1695 ( 21)  0.1013 ( 66)
          -0.1013 ( 67)  0.1003 (134) -0.1003 (137)  0.1212 (140) -0.1212 (144)
           0.2146 (153) -0.2146 (157)
 CRD 62=  -0.1575 (  1) -0.1575 (  6) -0.1558 ( 10)  0.2016 ( 11) -0.1558 ( 12)
           0.2016 ( 13)  0.1806 ( 15) -0.2199 ( 16)  0.1806 ( 19) -0.2199 ( 20)
           0.1564 ( 23) -0.1601 ( 24)  0.1564 ( 26) -0.1601 ( 27)  0.1222 ( 39)
           0.1011 ( 73)  0.1011 ( 77) -0.1046 (149) -0.1046 (151)  0.1270 (154)
           0.1252 (155)  0.1252 (158)  0.1270 (159) -0.1381 (160) -0.1182 (161)
          -0.1792 (162) -0.1593 (163) -0.1381 (164) -0.1182 (165) -0.1792 (166)
          -0.1593 (167)
 CRD 63=   0.1489 (  1) -0.2531 (  2)  0.1450 (  3)  0.2531 (  5) -0.1489 (  6)
          -0.1450 (  7)  0.2326 (  9)  0.1124 ( 10) -0.1928 ( 11) -0.1124 ( 12)
           0.1928 ( 13) -0.2326 ( 14)  0.1534 ( 16) -0.1534 ( 20) -0.1047 ( 68)
           0.1047 ( 69)  0.1221 ( 72) -0.1221 ( 75) -0.1281 (132)  0.1281 (135)
          -0.1193 (139)  0.1193 (143) -0.1658 (152) -0.1374 (154) -0.2416 (155)
           0.1658 (156)  0.2416 (158)  0.1374 (159)
 CRD 64=  -0.1282 (  3)  0.1282 (  7) -0.1194 (  9)  0.1194 ( 14) -0.1442 ( 15)
           0.1821 ( 16) -0.2090 ( 17)  0.1442 ( 19) -0.1821 ( 20)  0.2090 ( 21)
          -0.1975 ( 23)  0.2068 ( 24)  0.1975 ( 26) -0.2068 ( 27)  0.1393 ( 45)
          -0.1393 ( 49) -0.1266 ( 73)  0.1266 ( 77)  0.1055 (138) -0.1055 (145)
           0.1307 (149) -0.1307 (151)  0.1321 (160)  0.1134 (161)  0.2145 (162)
           0.1958 (163) -0.1321 (164) -0.1134 (165) -0.2145 (166) -0.1958 (167)
 CRD 65=   0.1805 (  1)  0.1805 (  6) -0.3066 (  9) -0.3066 ( 14) -0.2409 ( 17)
          -0.2409 ( 21)  0.1182 ( 37) -0.1521 ( 39)  0.1182 ( 43)  0.2339 ( 45)
           0.2339 ( 49)  0.1337 ( 60)  0.1337 ( 62) -0.1188 ( 72) -0.1188 ( 75)
          -0.1010 ( 88) -0.1010 ( 89)  0.1442 ( 90)  0.1442 ( 91)  0.1258 ( 92)
           0.1258 ( 93)  0.1530 (152)  0.1530 (156)
 CRD 66=  -0.3615 (  1) -0.3615 (  6) -0.1830 ( 17) -0.1830 ( 21) -0.1061 ( 23)
           0.1079 ( 24) -0.1061 ( 26)  0.1079 ( 27)  0.3246 ( 39)  0.1172 ( 45)
           0.1664 ( 47)  0.1172 ( 49)  0.1664 ( 50) -0.1020 ( 66) -0.1020 ( 67)
          -0.1357 ( 68) -0.1357 ( 69)  0.1600 ( 88)  0.1600 ( 89)  0.1014 (139)
           0.1014 (143)  0.1100 (154)  0.1335 (155)  0.1335 (158)  0.1100 (159)
           0.1255 (162)  0.1141 (163)  0.1255 (166)  0.1141 (167)
 CRD 67=  -0.1277 (  2)  0.1277 (  5) -0.2154 (  9)  0.2154 ( 14) -0.2849 ( 17)
           0.2849 ( 21)  0.1394 ( 37) -0.1394 ( 43)  0.2286 ( 45) -0.2286 ( 49)
           0.1228 ( 60) -0.1228 ( 62) -0.1240 ( 70) -0.1161 ( 71)  0.1161 ( 74)
           0.1240 ( 76)  0.1127 ( 90) -0.1127 ( 91)  0.1347 ( 92) -0.1347 ( 93)
          -0.1062 (148)  0.1062 (150) -0.1098 (153) -0.1559 (154)  0.1098 (157)
           0.1559 (159) -0.1546 (160) -0.1248 (161)  0.1546 (164)  0.1248 (165)
 CRD 68=   0.1346 (  1)  0.1283 (  2) -0.1156 (  3)  0.1283 (  5)  0.1346 (  6)
          -0.1156 (  7) -0.1541 ( 10)  0.1684 ( 11) -0.1541 ( 12)  0.1684 ( 13)
           0.1046 ( 17)  0.1046 ( 21) -0.1359 ( 23)  0.1188 ( 24) -0.1359 ( 26)
           0.1188 ( 27) -0.1328 ( 39)  0.1207 ( 66)  0.1207 ( 67)  0.1092 ( 71)
           0.1092 ( 74)  0.1261 (134)  0.1261 (137)  0.1325 (140)  0.1325 (144)
           0.1859 (152)  0.2179 (153)  0.1593 (154)  0.1272 (155)  0.1859 (156)
           0.2179 (157)  0.1272 (158)  0.1593 (159)  0.1356 (160)  0.1042 (161)
           0.1356 (164)  0.1042 (165)
 CRD 69=   0.4416 ( 25) -0.4416 ( 28) -0.1919 ( 29)  0.1919 ( 36) -0.2172 ( 59)
           0.2172 ( 63) -0.2011 ( 80)  0.1021 ( 81)  0.1386 ( 82)  0.2011 ( 83)
          -0.1021 ( 86) -0.1386 ( 87) -0.1490 ( 94)  0.1490 ( 95) -0.1211 (141)
           0.1211 (146) -0.1372 (161) -0.1432 (163)  0.1372 (165)  0.1432 (167)
 CRD 70=   0.4388 ( 25)  0.4388 ( 28) -0.1907 ( 29) -0.1907 ( 36) -0.2158 ( 59)
          -0.2158 ( 63) -0.1999 ( 80)  0.1402 ( 82) -0.1999 ( 83)  0.1402 ( 87)
          -0.1481 ( 94) -0.1481 ( 95) -0.1242 (141) -0.1242 (146) -0.1425 (161)
          -0.1461 (163) -0.1425 (165) -0.1461 (167)
 CRD 71=   0.1967 (  2) -0.2367 (  3) -0.1967 (  5)  0.2367 (  7)  0.2358 ( 10)
          -0.1959 ( 11) -0.2358 ( 12)  0.1959 ( 13) -0.2121 ( 15)  0.1789 ( 16)
           0.2121 ( 19) -0.1789 ( 20)  0.2070 ( 23) -0.1822 ( 24) -0.2070 ( 26)
           0.1822 ( 27)
 CRD 72=   0.1312 ( 10) -0.1154 ( 11)  0.1312 ( 12) -0.1154 ( 13) -0.2407 ( 15)
           0.2081 ( 16) -0.2407 ( 19)  0.2081 ( 20)  0.2523 ( 23) -0.2277 ( 24)
           0.2523 ( 26) -0.2277 ( 27)  0.1413 ( 31) -0.1267 ( 32)  0.1413 ( 34)
          -0.1267 ( 35)  0.1043 (117)  0.1043 (121) -0.1380 (124) -0.1380 (125)
           0.1014 (139)  0.1014 (143)  0.1049 (155)  0.1049 (158)
 CRD 73=   0.1935 (  2) -0.2027 (  3) -0.1935 (  5)  0.2027 (  7)  0.1183 ( 10)
          -0.1183 ( 12) -0.1831 ( 23)  0.1833 ( 24)  0.1831 ( 26) -0.1833 ( 27)
          -0.1463 ( 31)  0.1380 ( 32)  0.1463 ( 34) -0.1380 ( 35)  0.1067 (102)
          -0.1067 (107) -0.1064 (117)  0.1064 (121)  0.1572 (124) -0.1572 (125)
          -0.1082 (132)  0.1082 (135) -0.1064 (149)  0.1064 (151) -0.1053 (155)
           0.1053 (158) -0.1133 (162) -0.1137 (163)  0.1133 (166)  0.1137 (167)
 CRD 74=   0.1780 ( 10) -0.1840 ( 11)  0.1780 ( 12) -0.1840 ( 13)  0.1076 ( 16)
           0.1076 ( 20)  0.1190 ( 24)  0.1190 ( 27) -0.1328 ( 31)  0.1391 ( 32)
          -0.1328 ( 34)  0.1391 ( 35)  0.1068 (105)  0.1068 (106)  0.1561 (124)
           0.1561 (125) -0.1318 (138) -0.1461 (141) -0.1241 (142) -0.1318 (145)
          -0.1461 (146) -0.1241 (147) -0.1142 (148) -0.1394 (149) -0.1142 (150)
          -0.1394 (151) -0.1218 (160) -0.1362 (161) -0.1470 (162) -0.1614 (163)
          -0.1218 (164) -0.1362 (165) -0.1470 (166) -0.1614 (167)
 CRD 75=   0.1482 (  2) -0.1191 (  3) -0.1482 (  5)  0.1191 (  7)  0.1119 ( 11)
          -0.1119 ( 13)  0.1265 ( 15) -0.1526 ( 16) -0.1265 ( 19)  0.1526 ( 20)
          -0.1034 ( 32)  0.1034 ( 35)  0.1182 (102) -0.1016 (105)  0.1016 (106)
          -0.1182 (107)  0.1096 (110) -0.1096 (115) -0.1096 (124)  0.1096 (125)
          -0.1389 (132)  0.1213 (133) -0.1165 (134)  0.1389 (135) -0.1213 (136)
           0.1165 (137) -0.1388 (139) -0.1265 (140)  0.1069 (141)  0.1388 (143)
           0.1265 (144) -0.1069 (146)  0.1027 (148)  0.1033 (149) -0.1027 (150)
          -0.1033 (151) -0.1440 (152) -0.1217 (153) -0.1340 (154) -0.1563 (155)
           0.1440 (156)  0.1217 (157)  0.1563 (158)  0.1340 (159)  0.1200 (161)
           0.1207 (163) -0.1200 (165) -0.1207 (167)
 CRD 76=  -0.1093 ( 16) -0.1093 ( 20)  0.1370 ( 25)  0.1370 ( 28)  0.1124 ( 39)
          -0.1450 ( 45) -0.1450 ( 49)  0.1482 ( 52)  0.1288 ( 54)  0.1288 ( 56)
           0.1482 ( 57) -0.1332 ( 58) -0.1327 ( 61) -0.1332 ( 64) -0.1327 ( 65)
          -0.1005 ( 66) -0.1005 ( 67)  0.1373 ( 70)  0.1070 ( 71)  0.1096 ( 73)
           0.1070 ( 74)  0.1373 ( 76)  0.1096 ( 77) -0.1304 ( 81) -0.1046 ( 82)
          -0.1304 ( 86) -0.1046 ( 87) -0.1117 ( 94) -0.1117 ( 95)  0.1313 (111)
          -0.1340 (112)  0.1313 (113) -0.1340 (114) -0.1292 (128)  0.1516 (129)
          -0.1292 (130)  0.1516 (131)
 CRD 77=   0.1278 ( 17) -0.1278 ( 21) -0.1116 ( 24) -0.1438 ( 25)  0.1116 ( 27)
           0.1438 ( 28)  0.1290 ( 45) -0.1290 ( 49) -0.1647 ( 52) -0.1516 ( 54)
           0.1516 ( 56)  0.1647 ( 57)  0.1360 ( 58)  0.1535 ( 61) -0.1360 ( 64)
          -0.1535 ( 65) -0.1422 ( 70) -0.1210 ( 73)  0.1422 ( 76)  0.1210 ( 77)
           0.1376 ( 81)  0.1194 ( 82) -0.1376 ( 86) -0.1194 ( 87) -0.1153 ( 92)
           0.1153 ( 93)  0.1331 ( 94) -0.1331 ( 95) -0.1383 (111)  0.1640 (112)
           0.1383 (113) -0.1640 (114)  0.1537 (128) -0.1667 (129) -0.1537 (130)
           0.1667 (131)
 CRD 78=  -0.1663 (  9) -0.1038 ( 11) -0.1038 ( 13) -0.1663 ( 14)  0.1344 ( 17)
           0.1344 ( 21) -0.1417 ( 38)  0.1883 ( 39) -0.1164 ( 40) -0.1417 ( 41)
          -0.1164 ( 42)  0.1446 ( 44)  0.1476 ( 46)  0.1476 ( 48)  0.1446 ( 51)
          -0.1447 ( 66) -0.1447 ( 67) -0.1380 ( 68) -0.1380 ( 69)  0.1207 ( 71)
           0.1207 ( 74)  0.1344 ( 90)  0.1344 ( 91) -0.1381 (103)  0.1402 (104)
           0.1402 (108) -0.1381 (109) -0.1646 (116)  0.1304 (118)  0.1304 (119)
          -0.1646 (120)
 CRD 79=   0.2181 (  1)  0.1109 (  2)  0.1155 (  3) -0.1109 (  5) -0.2181 (  6)
          -0.1155 (  7) -0.1754 (  9) -0.1074 ( 10)  0.1074 ( 12)  0.1754 ( 14)
          -0.1001 ( 37) -0.1515 ( 38) -0.1469 ( 40)  0.1515 ( 41)  0.1469 ( 42)
           0.1001 ( 43)  0.1325 ( 44)  0.1471 ( 46)  0.1066 ( 47) -0.1471 ( 48)
          -0.1066 ( 50) -0.1325 ( 51) -0.1174 ( 66)  0.1174 ( 67)  0.1075 ( 68)
          -0.1075 ( 69)  0.1311 ( 71)  0.1342 ( 72) -0.1311 ( 74) -0.1342 ( 75)
          -0.1612 ( 88)  0.1612 ( 89)  0.1333 ( 90) -0.1333 ( 91)  0.1586 (103)
          -0.1765 (104)  0.1765 (108) -0.1586 (109) -0.1643 (116)  0.1613 (118)
          -0.1613 (119)  0.1643 (120)
 CRD 80=   0.1009 ( 18)  0.1009 ( 22)  0.1808 ( 29) -0.4485 ( 30)  0.1378 ( 31)
           0.1032 ( 32) -0.4485 ( 33)  0.1378 ( 34)  0.1032 ( 35)  0.1808 ( 36)
           0.1728 ( 78)  0.1621 ( 79)  0.1407 ( 80)  0.1407 ( 83)  0.1728 ( 84)
           0.1621 ( 85) -0.1603 ( 96) -0.1829 ( 97) -0.1324 ( 98) -0.1603 ( 99)
          -0.1829 (100) -0.1324 (101)
 CRD 81=   0.1812 ( 29) -0.4498 ( 30)  0.1364 ( 31)  0.1044 ( 32)  0.4498 ( 33)
          -0.1364 ( 34) -0.1044 ( 35) -0.1812 ( 36)  0.1727 ( 78)  0.1628 ( 79)
           0.1404 ( 80) -0.1404 ( 83) -0.1727 ( 84) -0.1628 ( 85) -0.1614 ( 96)
          -0.1822 ( 97) -0.1323 ( 98)  0.1614 ( 99)  0.1822 (100)  0.1323 (101)
 CRD 82=   0.1061 (  2) -0.1931 (  3)  0.1061 (  5) -0.1931 (  7)  0.1856 ( 10)
           0.1856 ( 12)  0.1656 ( 15) -0.1089 ( 16)  0.1656 ( 19) -0.1089 ( 20)
          -0.1636 ( 23) -0.1636 ( 26)  0.2208 ( 31) -0.1214 ( 32)  0.2208 ( 34)
          -0.1214 ( 35)  0.1372 ( 96)  0.1372 ( 99) -0.1444 (124) -0.1444 (125)
           0.1349 (134)  0.1349 (137) -0.1194 (138) -0.1274 (140) -0.1274 (144)
          -0.1194 (145)  0.1172 (148)  0.1172 (150)
 CRD 83=  -0.1055 ( 11)  0.1055 ( 13)  0.1393 ( 15) -0.1056 ( 17) -0.1393 ( 19)
           0.1056 ( 21) -0.1872 ( 23)  0.1145 ( 24)  0.1872 ( 26) -0.1145 ( 27)
          -0.1075 ( 29)  0.2884 ( 31) -0.1787 ( 32) -0.2884 ( 34)  0.1787 ( 35)
           0.1075 ( 36) -0.1218 ( 79)  0.1218 ( 85)  0.1879 ( 96) -0.1185 ( 97)
          -0.1879 ( 99)  0.1185 (100)  0.1158 (122) -0.1905 (124)  0.1905 (125)
          -0.1158 (126) -0.1159 (138)  0.1159 (145)  0.1347 (148) -0.1347 (150)
 CRD 84=   0.1510 (  1) -0.1043 (  2) -0.2245 (  4) -0.1043 (  5)  0.1510 (  6)
          -0.2245 (  8)  0.1656 (  9) -0.1035 ( 11) -0.1035 ( 13)  0.1656 ( 14)
          -0.1178 ( 16) -0.1098 ( 18) -0.1178 ( 20) -0.1098 ( 22)  0.1397 ( 25)
           0.1397 ( 28) -0.1123 ( 30)  0.1365 ( 32) -0.1123 ( 33)  0.1365 ( 35)
          -0.1451 ( 68) -0.1451 ( 69) -0.1521 ( 72) -0.1521 ( 75) -0.1083 ( 82)
          -0.1083 ( 87)  0.2018 (155)  0.2018 (158)  0.1539 (163)  0.1539 (167)
 CRD 85=   0.3220 ( 29) -0.2832 ( 32)  0.2832 ( 35) -0.3220 ( 36) -0.1346 ( 59)
           0.1346 ( 63)  0.1067 ( 78) -0.1801 ( 80)  0.1801 ( 83) -0.1067 ( 84)
          -0.1577 ( 97)  0.2400 ( 98)  0.1577 (100) -0.2400 (101) -0.1567 (122)
           0.2141 (123)  0.1567 (126) -0.2141 (127) -0.1140 (163)  0.1140 (167)
 CRD 86=  -0.3202 ( 29)  0.2728 ( 32)  0.2728 ( 35) -0.3202 ( 36)  0.1194 ( 59)
           0.1194 ( 63) -0.1235 ( 78)  0.1661 ( 80)  0.1661 ( 83) -0.1235 ( 84)
           0.1721 ( 97) -0.2176 ( 98)  0.1721 (100) -0.2176 (101)  0.1486 (122)
          -0.2113 (123)  0.1486 (126) -0.2113 (127)
 CRD 87=   0.1555 (  2) -0.1764 (  3)  0.1555 (  5) -0.1764 (  7) -0.1553 (  9)
           0.1008 ( 10)  0.1008 ( 12) -0.1553 ( 14)  0.1438 ( 17)  0.1438 ( 21)
          -0.1072 ( 24)  0.1047 ( 25) -0.1072 ( 27)  0.1047 ( 28)  0.1635 ( 29)
          -0.2186 ( 31) -0.2186 ( 34)  0.1635 ( 36)  0.1035 ( 68)  0.1035 ( 69)
           0.1188 ( 79)  0.1188 ( 85) -0.1567 ( 96) -0.1567 ( 99) -0.1365 (122)
           0.1130 (124)  0.1130 (125) -0.1365 (126)  0.1332 (134)  0.1332 (137)
          -0.1047 (155) -0.1047 (158)  0.1304 (163)  0.1304 (167)
 CRD 88=   0.1759 (  1) -0.1142 (  4) -0.1759 (  6)  0.1142 (  8)  0.1144 ( 10)
          -0.1360 ( 11) -0.1144 ( 12)  0.1360 ( 13)  0.1232 ( 15) -0.1285 ( 16)
           0.1185 ( 17) -0.1917 ( 18) -0.1232 ( 19)  0.1285 ( 20) -0.1185 ( 21)
           0.1917 ( 22)  0.1996 ( 25) -0.1996 ( 28)  0.1566 ( 29) -0.1566 ( 36)
          -0.1111 ( 72) -0.1452 ( 73)  0.1111 ( 75)  0.1452 ( 77) -0.1082 ( 82)
           0.1082 ( 87)  0.1379 (155) -0.1379 (158)  0.1640 (163) -0.1640 (167)
 CRD 89=  -0.1509 (  1)  0.3907 (  4)  0.1509 (  6) -0.3907 (  8) -0.1541 (  9)
           0.1541 ( 14) -0.1750 ( 18)  0.1750 ( 22) -0.1028 ( 38) -0.1249 ( 40)
           0.1028 ( 41)  0.1249 ( 42) -0.1221 ( 44) -0.1001 ( 46)  0.1001 ( 48)
           0.1221 ( 51) -0.1118 ( 68)  0.1118 ( 69)  0.1138 ( 71)  0.1074 ( 72)
          -0.1138 ( 74) -0.1074 ( 75) -0.1430 (103)  0.1000 (104) -0.1000 (108)
           0.1430 (109) -0.1033 (116)  0.1225 (118) -0.1225 (119)  0.1033 (120)
 CRD 90=   0.2292 (  4)  0.2292 (  8)  0.1103 ( 17) -0.3372 ( 18)  0.1103 ( 21)
          -0.3372 ( 22)  0.1320 ( 25)  0.1320 ( 28)  0.1199 ( 54)  0.1199 ( 56)
           0.1102 ( 58)  0.1102 ( 64) -0.1162 ( 81) -0.1162 ( 86) -0.1277 (111)
          -0.1277 (113)  0.1121 (118)  0.1121 (119) -0.1162 (128) -0.1162 (130)
 CRD 91=  -0.1363 (  4)  0.1363 (  8)  0.1026 ( 11) -0.1026 ( 13)  0.1466 ( 16)
          -0.3315 ( 18) -0.1466 ( 20)  0.3315 ( 22)  0.1243 ( 24) -0.1243 ( 27)
           0.1232 ( 31) -0.1232 ( 34)  0.1261 ( 54) -0.1261 ( 56)  0.1284 ( 58)
           0.1019 ( 59) -0.1019 ( 63) -0.1284 ( 64) -0.1124 ( 70)  0.1124 ( 76)
          -0.1222 ( 94)  0.1222 ( 95) -0.1007 (111)  0.1007 (112)  0.1007 (113)
          -0.1007 (114) -0.1511 (128)  0.1511 (130)
 CRD 92=   0.1734 (  2) -0.2844 (  4)  0.1734 (  5) -0.2844 (  8)  0.1656 ( 11)
           0.1656 ( 13)  0.1150 ( 16) -0.1976 ( 18)  0.1150 ( 20) -0.1976 ( 22)
           0.1381 ( 39)  0.1091 ( 40)  0.1091 ( 42)  0.1144 ( 44)  0.1109 ( 45)
           0.1109 ( 49)  0.1144 ( 51) -0.1240 ( 88) -0.1240 ( 89) -0.1369 ( 90)
          -0.1369 ( 91) -0.1026 ( 94) -0.1026 ( 95)  0.1183 (104)  0.1183 (108)
           0.1092 (116) -0.1031 (118) -0.1031 (119)  0.1092 (120) -0.1020 (128)
          -0.1020 (130) -0.1263 (155) -0.1263 (158)
 CRD 93=  -0.1538 (  1)  0.1156 (  2) -0.1156 (  5)  0.1538 (  6) -0.1660 (  9)
           0.1108 ( 11) -0.1108 ( 13)  0.1660 ( 14)  0.1033 ( 17) -0.1033 ( 21)
           0.1263 ( 25) -0.1263 ( 28) -0.1413 ( 88)  0.1413 ( 89) -0.1577 ( 90)
           0.1577 ( 91)  0.1277 ( 94) -0.1277 ( 95) -0.1225 (104)  0.1225 (108)
           0.1187 (116) -0.1187 (120)  0.1244 (134) -0.1244 (137) -0.1070 (138)
           0.1070 (145)  0.1849 (153) -0.1861 (155) -0.1849 (157)  0.1861 (158)
          -0.1299 (160)  0.1362 (163)  0.1299 (164) -0.1362 (167)
 CRD 94=   0.1120 (  1) -0.1187 (  3)  0.1120 (  6) -0.1187 (  7)  0.1072 ( 16)
          -0.1399 ( 17) -0.1031 ( 18)  0.1072 ( 20) -0.1399 ( 21) -0.1031 ( 22)
           0.1067 ( 24) -0.1449 ( 25)  0.1067 ( 27) -0.1449 ( 28)  0.1240 ( 88)
           0.1240 ( 89) -0.1507 ( 92) -0.1507 ( 93) -0.1563 ( 94) -0.1563 ( 95)
           0.1328 (112)  0.1328 (114)  0.1016 (117)  0.1016 (121) -0.1064 (123)
          -0.1064 (127)  0.1492 (129)  0.1492 (131)  0.1119 (138) -0.1243 (140)
          -0.1243 (144)  0.1119 (145)  0.1046 (148)  0.1046 (150)  0.1875 (160)
          -0.1734 (163)  0.1875 (164) -0.1734 (167)
 CRD 95=   0.1385 (  9) -0.1525 ( 10)  0.1525 ( 12) -0.1385 ( 14) -0.1465 ( 15)
           0.1431 ( 17)  0.1465 ( 19) -0.1431 ( 21) -0.1022 ( 32)  0.1022 ( 35)
           0.1508 ( 90) -0.1508 ( 91)  0.1593 ( 92) -0.1593 ( 93)  0.1034 (104)
          -0.1034 (108) -0.1200 (117)  0.1200 (121)  0.1101 (122)  0.1224 (123)
          -0.1101 (126) -0.1224 (127) -0.1399 (129)  0.1399 (131) -0.1496 (134)
           0.1496 (137) -0.1432 (148)  0.1432 (150) -0.1135 (153) -0.1046 (154)
           0.1135 (157)  0.1046 (159) -0.1484 (160)  0.1121 (163)  0.1484 (164)
          -0.1121 (167)
 CRD 96=   0.1135 (  1) -0.1193 (  3)  0.1135 (  6) -0.1193 (  7) -0.1520 ( 15)
           0.1652 ( 17) -0.1520 ( 19)  0.1652 ( 21) -0.1016 ( 25) -0.1016 ( 28)
          -0.1084 ( 70) -0.1084 ( 76)  0.1226 ( 88)  0.1226 ( 89)  0.1440 ( 92)
           0.1440 ( 93)  0.1258 (111)  0.1258 (113) -0.1185 (117) -0.1185 (121)
           0.1341 (122)  0.1200 (123)  0.1341 (126)  0.1200 (127) -0.1464 (128)
          -0.1464 (130)  0.1159 (138) -0.1058 (140) -0.1058 (144)  0.1159 (145)
          -0.1607 (148) -0.1607 (150) -0.1131 (153) -0.1131 (157) -0.1743 (161)
           0.1558 (162) -0.1743 (165)  0.1558 (166)
 CRD 97=   0.1383 (  1) -0.1023 (  3) -0.1383 (  6)  0.1023 (  7) -0.1391 (  9)
           0.1030 ( 10) -0.1030 ( 12)  0.1391 ( 14)  0.1321 ( 17) -0.1321 ( 21)
           0.1073 ( 23) -0.1262 ( 25) -0.1073 ( 26)  0.1262 ( 28)  0.1058 ( 88)
          -0.1058 ( 89) -0.1074 ( 90)  0.1074 ( 91) -0.1102 ( 94)  0.1102 ( 95)
          -0.1058 (103)  0.1058 (109)  0.1004 (111) -0.1004 (113) -0.1065 (118)
           0.1065 (119) -0.1268 (128)  0.1268 (130)  0.1201 (134) -0.1201 (137)
           0.1193 (138) -0.1194 (140)  0.1194 (144) -0.1193 (145) -0.1151 (148)
           0.1151 (150) -0.1657 (152)  0.1655 (154)  0.1657 (156) -0.1655 (159)
          -0.1564 (161)  0.1596 (162)  0.1564 (165) -0.1596 (166)
 CRD 98=   0.1576 (  1) -0.1576 (  6)  0.1282 ( 11) -0.1282 ( 13)  0.1253 ( 16)
          -0.1253 ( 20)  0.1522 ( 25) -0.1522 ( 28) -0.1035 ( 38)  0.1035 ( 41)
          -0.1093 ( 53)  0.1093 ( 55) -0.1039 ( 61)  0.1039 ( 65)  0.1211 ( 88)
          -0.1211 ( 89)  0.1263 ( 94) -0.1263 ( 95) -0.1163 (105)  0.1163 (106)
          -0.1184 (110)  0.1184 (115)  0.1712 (139)  0.1694 (141) -0.1712 (143)
          -0.1694 (146) -0.1998 (152) -0.1079 (153)  0.1047 (154)  0.1998 (156)
           0.1079 (157) -0.1047 (159) -0.1081 (160)  0.1059 (161) -0.2000 (162)
           0.1081 (164) -0.1059 (165)  0.2000 (166)
 CRD 99=   0.1297 (  2) -0.1402 (  3)  0.1297 (  5) -0.1402 (  7)  0.1792 (  9)
          -0.1562 ( 10) -0.1562 ( 12)  0.1792 ( 14) -0.1241 ( 37)  0.1045 ( 40)
           0.1045 ( 42) -0.1241 ( 43)  0.1145 ( 44) -0.1203 ( 46) -0.1203 ( 48)
           0.1145 ( 51) -0.1009 ( 71) -0.1009 ( 74)  0.1486 ( 90)  0.1486 ( 91)
          -0.1677 (102) -0.1677 (107)  0.1878 (132)  0.1338 (133)  0.1878 (135)
           0.1338 (136)  0.1141 (141)  0.1141 (146) -0.2256 (153) -0.2198 (154)
          -0.2256 (157) -0.2198 (159) -0.1284 (162) -0.1284 (166)
 CRD100=  -0.1495 (  1)  0.1234 (  2)  0.1234 (  5) -0.1495 (  6)  0.1179 (  9)
          -0.1388 ( 11) -0.1388 ( 13)  0.1179 ( 14) -0.1087 ( 16) -0.1087 ( 20)
          -0.1280 ( 25) -0.1280 ( 28)  0.1111 ( 38)  0.1111 ( 41)  0.1257 ( 47)
           0.1257 ( 50) -0.1329 ( 88) -0.1329 ( 89) -0.1054 ( 94) -0.1054 ( 95)
           0.1012 (105)  0.1012 (106)  0.1510 (132)  0.1510 (135) -0.1839 (139)
          -0.1443 (141) -0.1839 (143) -0.1443 (146)  0.2140 (152) -0.1758 (154)
           0.2140 (156) -0.1758 (159)  0.1691 (162)  0.1691 (166)
 CRD101=  -0.1136 ( 17)  0.1136 ( 21)  0.1472 ( 23) -0.1754 ( 24) -0.1472 ( 26)
           0.1754 ( 27)  0.1251 ( 52) -0.1251 ( 57)  0.1096 ( 60) -0.1096 ( 62)
           0.1082 ( 81) -0.1311 ( 82) -0.1082 ( 86)  0.1311 ( 87)  0.1681 (122)
           0.1704 (123) -0.1681 (126) -0.1704 (127) -0.1783 (128) -0.1918 (129)
           0.1783 (130)  0.1918 (131)  0.1099 (141) -0.1270 (142) -0.1099 (146)
           0.1270 (147) -0.2284 (149)  0.2284 (151)  0.1397 (160)  0.1865 (161)
          -0.1397 (164) -0.1865 (165)
 CRD102=  -0.1125 ( 17) -0.1125 ( 21)  0.1541 ( 23) -0.1741 ( 24)  0.1541 ( 26)
          -0.1741 ( 27)  0.1245 ( 52)  0.1245 ( 57)  0.1110 ( 60)  0.1110 ( 62)
           0.1129 ( 81) -0.1301 ( 82)  0.1129 ( 86) -0.1301 ( 87)  0.1705 (122)
           0.1722 (123)  0.1705 (126)  0.1722 (127) -0.1830 (128) -0.1921 (129)
          -0.1830 (130) -0.1921 (131) -0.1386 (142) -0.1386 (147) -0.2255 (149)
          -0.2255 (151)  0.1518 (160)  0.1867 (161)  0.1518 (164)  0.1867 (165)
 CRD103=  -0.1420 (  2)  0.1052 (  3)  0.1420 (  5) -0.1052 (  7)  0.1076 ( 15)
          -0.1076 ( 19)  0.1228 ( 68) -0.1228 ( 69)  0.1985 (103)  0.2144 (104)
          -0.2144 (108) -0.1985 (109) -0.1435 (111) -0.1292 (112)  0.1435 (113)
           0.1292 (114)  0.1482 (116)  0.1139 (118) -0.1139 (119) -0.1482 (120)
          -0.1999 (132)  0.1999 (135)  0.1506 (139) -0.1051 (141) -0.1350 (142)
          -0.1506 (143)  0.1051 (146)  0.1350 (147)  0.1167 (154) -0.1167 (159)
           0.1216 (160) -0.1216 (164)
 CRD104=   0.1219 ( 10) -0.1178 ( 11)  0.1219 ( 12) -0.1178 ( 13) -0.1298 ( 15)
           0.1162 ( 16) -0.1298 ( 19)  0.1162 ( 20) -0.1089 ( 70)  0.1039 ( 71)
          -0.1007 ( 72)  0.1039 ( 74) -0.1007 ( 75) -0.1089 ( 76)  0.2042 (111)
           0.1973 (112)  0.2042 (113)  0.1973 (114) -0.1994 (116) -0.2012 (118)
          -0.2012 (119) -0.1994 (120) -0.1368 (133) -0.1368 (136) -0.1507 (139)
           0.1432 (141)  0.1613 (142) -0.1507 (143)  0.1432 (146)  0.1613 (147)
           0.1107 (152)  0.1153 (153)  0.1107 (156)  0.1153 (157) -0.1350 (160)
          -0.1142 (162) -0.1350 (164) -0.1142 (166)
 CRD105=   0.1052 (  2) -0.1403 (  3) -0.1052 (  5)  0.1403 (  7) -0.1217 ( 10)
           0.1217 ( 12)  0.1058 ( 40) -0.1058 ( 42)  0.1112 ( 44) -0.1112 ( 51)
          -0.1181 ( 66)  0.1181 ( 67) -0.2094 (103) -0.1937 (104)  0.1937 (108)
           0.2094 (109) -0.1469 (111) -0.1467 (112)  0.1469 (113)  0.1467 (114)
           0.1377 (116)  0.1607 (118) -0.1607 (119) -0.1377 (120)  0.1155 (132)
          -0.2206 (133) -0.1155 (135)  0.2206 (136) -0.1057 (142)  0.1057 (147)
          -0.1765 (153) -0.1164 (154)  0.1765 (157)  0.1164 (159)

 THE DETERMINANT OF THE G MATRIX IS 10**(   -59)


                     --------------------
                     INTERNAL COORDINATES
                     --------------------

                 - - ATOMS - -         COORDINATE      COORDINATE
 NO.   TYPE    I  J  K  L  M  N        (BOHR,RAD)       (ANG,DEG)
 ----------------------------------------------------------------
   1 STRETCH   1 11                     2.7004630       1.4290236
   2 STRETCH   1 16                     2.0597474       1.0899715
   3 STRETCH   1 17                     2.0597081       1.0899507
   4 STRETCH   1  3                     2.8912653       1.5299918
   5 STRETCH   2 18                     2.0597474       1.0899715
   6 STRETCH   2 11                     2.7004630       1.4290236
   7 STRETCH   2 19                     2.0597081       1.0899507
   8 STRETCH   2  4                     2.8912653       1.5299918
   9 STRETCH   3 12                     2.7003643       1.4289714
  10 STRETCH   3 21                     2.0597389       1.0899670
  11 STRETCH   3 20                     2.0598542       1.0900280
  12 STRETCH   4 23                     2.0597389       1.0899670
  13 STRETCH   4 22                     2.0598542       1.0900280
  14 STRETCH   4 13                     2.7003643       1.4289714
  15 STRETCH   5 25                     2.0598826       1.0900430
  16 STRETCH   5 24                     2.0597890       1.0899935
  17 STRETCH   5 12                     2.7003632       1.4289708
  18 STRETCH   5  7                     2.8913640       1.5300440
  19 STRETCH   6 27                     2.0598826       1.0900430
  20 STRETCH   6 26                     2.0597890       1.0899935
  21 STRETCH   6 13                     2.7003632       1.4289708
  22 STRETCH   6  8                     2.8913640       1.5300440
  23 STRETCH   7 29                     2.0596762       1.0899338
  24 STRETCH   7 28                     2.0597411       1.0899681
  25 STRETCH   7 14                     2.7004980       1.4290421
  26 STRETCH   8 31                     2.0596762       1.0899338
  27 STRETCH   8 30                     2.0597411       1.0899681
  28 STRETCH   8 15                     2.7004980       1.4290421
  29 STRETCH   9 32                     2.0598920       1.0900480
  30 STRETCH   9 14                     2.7002454       1.4289085
  31 STRETCH   9 34                     2.0598922       1.0900481
  32 STRETCH   9 33                     2.0598780       1.0900406
  33 STRETCH  10 15                     2.7002454       1.4289085
  34 STRETCH  10 37                     2.0598922       1.0900481
  35 STRETCH  10 36                     2.0598780       1.0900406
  36 STRETCH  10 35                     2.0598920       1.0900480
  37 BEND      1  3 12                  1.9106046     109.4695825
  38 BEND      1  3 20                  1.9106128     109.4700518
  39 BEND      1 11  2                  1.9896787     114.0001940
  40 BEND      1  3 21                  1.9106343     109.4712844
  41 BEND      2  4 22                  1.9106128     109.4700518
  42 BEND      2  4 23                  1.9106343     109.4712844
  43 BEND      2  4 13                  1.9106046     109.4695825
  44 BEND      3  1 17                  1.9106373     109.4714562
  45 BEND      3 12  5                  1.9896982     114.0013077
  46 BEND      3  1 16                  1.9106025     109.4694616
  47 BEND      3  1 11                  1.9106428     109.4717707
  48 BEND      4  2 18                  1.9106025     109.4694616
  49 BEND      4 13  6                  1.9896982     114.0013077
  50 BEND      4  2 11                  1.9106428     109.4717707
  51 BEND      4  2 19                  1.9106373     109.4714562
  52 BEND      5  7 28                  1.9106213     109.4705359
  53 BEND      5  7 14                  1.9106198     109.4704491
  54 BEND      5  7 29                  1.9106246     109.4707262
  55 BEND      6  8 15                  1.9106198     109.4704491
  56 BEND      6  8 31                  1.9106246     109.4707262
  57 BEND      6  8 30                  1.9106213     109.4705359
  58 BEND      7  5 25                  1.9106595     109.4727229
  59 BEND      7 14  9                  1.9896439     113.9981981
  60 BEND      7  5 12                  1.9106891     109.4744189
  61 BEND      7  5 24                  1.9105798     109.4681584
  62 BEND      8  6 13                  1.9106891     109.4744189
  63 BEND      8 15 10                  1.9896439     113.9981981
  64 BEND      8  6 27                  1.9106595     109.4727229
  65 BEND      8  6 26                  1.9105798     109.4681584
  66 BEND     11  1 16                  1.9106363     109.4713977
  67 BEND     11  2 18                  1.9106363     109.4713977
  68 BEND     11  2 19                  1.9106530     109.4723526
  69 BEND     11  1 17                  1.9106530     109.4723526
  70 BEND     12  5 24                  1.9107087     109.4755423
  71 BEND     12  3 20                  1.9106347     109.4713070
  72 BEND     12  3 21                  1.9105835     109.4683725
  73 BEND     12  5 25                  1.9105973     109.4691594
  74 BEND     13  4 22                  1.9106347     109.4713070
  75 BEND     13  4 23                  1.9105835     109.4683725
  76 BEND     13  6 26                  1.9107087     109.4755423
  77 BEND     13  6 27                  1.9105973     109.4691594
  78 BEND     14  9 33                  1.9107133     109.4758064
  79 BEND     14  9 34                  1.9106721     109.4734461
  80 BEND     14  9 32                  1.9105895     109.4687170
  81 BEND     14  7 28                  1.9106017     109.4694133
  82 BEND     14  7 29                  1.9105821     109.4682918
  83 BEND     15 10 35                  1.9105895     109.4687170
  84 BEND     15 10 36                  1.9107133     109.4758064
  85 BEND     15 10 37                  1.9106721     109.4734461
  86 BEND     15  8 30                  1.9106017     109.4694133
  87 BEND     15  8 31                  1.9105821     109.4682918
  88 BEND     16  1 17                  1.9106274     109.4708849
  89 BEND     18  2 19                  1.9106274     109.4708849
  90 BEND     20  3 21                  1.9107293     109.4767254
  91 BEND     22  4 23                  1.9107293     109.4767254
  92 BEND     24  5 25                  1.9105652     109.4673218
  93 BEND     26  6 27                  1.9105652     109.4673218
  94 BEND     28  7 29                  1.9107499     109.4779073
  95 BEND     30  8 31                  1.9107499     109.4779073
  96 BEND     32  9 33                  1.9105704     109.4676203
  97 BEND     32  9 34                  1.9106316     109.4711265
  98 BEND     33  9 34                  1.9106225     109.4706072
  99 BEND     35 10 36                  1.9105704     109.4676203
 100 BEND     35 10 37                  1.9106316     109.4711265
 101 BEND     36 10 37                  1.9106225     109.4706072
 102 TORSION   1 11  2  4               3.1415697     179.9986869
 103 TORSION   1 11  2 18               1.0472045      60.0003960
 104 TORSION   1 11  2 19              -1.0471975     -59.9999944
 105 TORSION   1  3 12  5              -3.1415758    -179.9990359
 106 TORSION   2  4 13  6              -3.1415758    -179.9990359
 107 TORSION   2 11  1  3               3.1415697     179.9986869
 108 TORSION   2 11  1 17              -1.0471975     -59.9999944
 109 TORSION   2 11  1 16               1.0472045      60.0003960
 110 TORSION   3 12  5  7              -3.1415759    -179.9990419
 111 TORSION   3 12  5 24               1.0471994      60.0001032
 112 TORSION   3 12  5 25              -1.0471366     -59.9965057
 113 TORSION   4 13  6 26               1.0471994      60.0001032
 114 TORSION   4 13  6 27              -1.0471366     -59.9965057
 115 TORSION   4 13  6  8              -3.1415759    -179.9990419
 116 TORSION   5 12  3 21              -1.0472273     -60.0017048
 117 TORSION   5  7 14  9              -3.1415787    -179.9992000
 118 TORSION   5 12  3 20               1.0472559      60.0033458
 119 TORSION   6 13  4 22               1.0472559      60.0033458
 120 TORSION   6 13  4 23              -1.0472273     -60.0017048
 121 TORSION   6  8 15 10              -3.1415787    -179.9992000
 122 TORSION   7 14  9 33              -1.0472278     -60.0017318
 123 TORSION   7 14  9 34               1.0472270      60.0016885
 124 TORSION   7 14  9 32              -3.1415682    -179.9985972
 125 TORSION   8 15 10 35              -3.1415682    -179.9985972
 126 TORSION   8 15 10 36              -1.0472278     -60.0017318
 127 TORSION   8 15 10 37               1.0472270      60.0016885
 128 TORSION   9 14  7 28               1.0472537      60.0032177
 129 TORSION   9 14  7 29              -1.0472337     -60.0020714
 130 TORSION  10 15  8 30               1.0472537      60.0032177
 131 TORSION  10 15  8 31              -1.0472337     -60.0020714
 132 TORSION  11  1  3 21              -0.9598533     -54.9955441
 133 TORSION  11  2  4 13               1.1344641      65.0000037
 134 TORSION  11  1  3 20              -3.0543543    -175.0016093
 135 TORSION  11  2  4 23              -0.9598533     -54.9955441
 136 TORSION  11  1  3 12               1.1344641      65.0000037
 137 TORSION  11  2  4 22              -3.0543543    -175.0016093
 138 TORSION  12  5  7 28              -3.0543959    -175.0039913
 139 TORSION  12  3  1 17              -0.9599636     -55.0018638
 140 TORSION  12  3  1 16              -3.0543353    -175.0005198
 141 TORSION  12  5  7 29              -0.9598704     -54.9965239
 142 TORSION  12  5  7 14               1.1344485      64.9991139
 143 TORSION  13  4  2 19              -0.9599636     -55.0018638
 144 TORSION  13  4  2 18              -3.0543353    -175.0005198
 145 TORSION  13  6  8 30              -3.0543959    -175.0039913
 146 TORSION  13  6  8 31              -0.9598704     -54.9965239
 147 TORSION  13  6  8 15               1.1344485      64.9991139
 148 TORSION  14  7  5 24              -3.0542478    -174.9955099
 149 TORSION  14  7  5 25              -0.9599527     -55.0012403
 150 TORSION  15  8  6 26              -3.0542478    -174.9955099
 151 TORSION  15  8  6 27              -0.9599527     -55.0012403
 152 TORSION  16  1  3 21               1.1345326      65.0039324
 153 TORSION  16  1  3 20              -0.9599683     -55.0021328
 154 TORSION  17  1  3 20               1.1344033      64.9965232
 155 TORSION  17  1  3 21              -3.0542810    -174.9974116
 156 TORSION  18  2  4 23               1.1345326      65.0039324
 157 TORSION  18  2  4 22              -0.9599683     -55.0021328
 158 TORSION  19  2  4 23              -3.0542810    -174.9974116
 159 TORSION  19  2  4 22               1.1344033      64.9965232
 160 TORSION  24  5  7 28              -0.9599069     -54.9986151
 161 TORSION  24  5  7 29               1.1346185      65.0088523
 162 TORSION  25  5  7 28               1.1343882      64.9956546
 163 TORSION  25  5  7 29              -3.0542717    -174.9968780
 164 TORSION  26  6  8 30              -0.9599069     -54.9986151
 165 TORSION  26  6  8 31               1.1346185      65.0088523
 166 TORSION  27  6  8 30               1.1343882      64.9956546
 167 TORSION  27  6  8 31              -3.0542717    -174.9968780

     ------------------------------------------
     THE POINT GROUP IS C1 , NAXIS= 1, ORDER= 1
     ------------------------------------------

     DIMENSIONS OF THE SYMMETRY SUBSPACES ARE
 A   =  417

 ..... DONE SETTING UP THE RUN .....
 STEP CPU TIME =     0.03 TOTAL CPU TIME =        0.0 (    0.0 MIN)
 TOTAL WALL CLOCK TIME=        0.1 SECONDS, CPU UTILIZATION IS  60.00%


          -----------------------------
          STATIONARY POINT LOCATION RUN
          -----------------------------

 OBTAINING INITIAL HESSIAN, HESS=GUESS   
 DIAGONAL GUESS HESSIAN IN INTERNAL COORDS IS
     1  0.3608     2  0.3464     3  0.3464     4  0.3672     5  0.3464
     6  0.3608     7  0.3464     8  0.3672     9  0.3608    10  0.3464
    11  0.3463    12  0.3464    13  0.3463    14  0.3608    15  0.3463
    16  0.3464    17  0.3608    18  0.3671    19  0.3463    20  0.3464
    21  0.3608    22  0.3671    23  0.3464    24  0.3464    25  0.3608
    26  0.3464    27  0.3464    28  0.3608    29  0.3463    30  0.3609
    31  0.3463    32  0.3463    33  0.3609    34  0.3463    35  0.3463
    36  0.3463    37  0.2430    38  0.2241    39  0.2377    40  0.2241
    41  0.2241    42  0.2241    43  0.2430    44  0.2241    45  0.2377
    46  0.2241    47  0.2430    48  0.2241    49  0.2377    50  0.2430
    51  0.2241    52  0.2241    53  0.2430    54  0.2241    55  0.2430
    56  0.2241    57  0.2241    58  0.2241    59  0.2377    60  0.2430
    61  0.2241    62  0.2430    63  0.2377    64  0.2241    65  0.2241
    66  0.2194    67  0.2194    68  0.2194    69  0.2194    70  0.2194
    71  0.2194    72  0.2194    73  0.2194    74  0.2194    75  0.2194
    76  0.2194    77  0.2194    78  0.2194    79  0.2194    80  0.2194
    81  0.2194    82  0.2194    83  0.2194    84  0.2194    85  0.2194
    86  0.2194    87  0.2194    88  0.2034    89  0.2034    90  0.2034
    91  0.2034    92  0.2034    93  0.2034    94  0.2034    95  0.2034
    96  0.2034    97  0.2034    98  0.2034    99  0.2034   100  0.2034
   101  0.2034   102  0.2500   103  0.2500   104  0.2500   105  0.2500
   106  0.2500   107  0.2500   108  0.2500   109  0.2500   110  0.2500
   111  0.2500   112  0.2500   113  0.2500   114  0.2500   115  0.2500
   116  0.2500   117  0.2500   118  0.2500   119  0.2500   120  0.2500
   121  0.2500   122  0.2500   123  0.2500   124  0.2500   125  0.2500
   126  0.2500   127  0.2500   128  0.2500   129  0.2500   130  0.2500
   131  0.2500   132  0.2500   133  0.2500   134  0.2500   135  0.2500
   136  0.2500   137  0.2500   138  0.2500   139  0.2500   140  0.2500
   141  0.2500   142  0.2500   143  0.2500   144  0.2500   145  0.2500
   146  0.2500   147  0.2500   148  0.2500   149  0.2500   150  0.2500
   151  0.2500   152  0.2500   153  0.2500   154  0.2500   155  0.2500
   156  0.2500   157  0.2500   158  0.2500   159  0.2500   160  0.2500
   161  0.2500   162  0.2500   163  0.2500   164  0.2500   165  0.2500
   166  0.2500   167  0.2500
 TRANSFORMING HESSIAN TO SYMMETRY COORDINATES

          PARAMETERS CONTROLLING GEOMETRY SEARCH ARE
          METHOD =QA                  UPHESS =BFGS    
          NNEG   =         0          NFRZ   =         3
          NSTEP  =        50          IFOLOW =         1
          HESS   =GUESS               RESTAR =         F
          IHREP  =         0          HSSEND =         F
          NPRT   =         0          NPUN   =         0
          OPTTOL = 5.000E-04          RMIN   = 1.500E-03
          RMAX   = 1.000E-01          RLIM   = 7.000E-02
          DXMAX  = 3.000E-01          PURIFY =         F
          MOVIE  =         F          TRUPD  =         T
          TRMAX  = 5.000E-01          TRMIN  = 5.000E-02
          ITBMAT =         5          STPT   =         F
          STSTEP = 1.000E-02          PROJCT=          F
          FROZEN COORD(S)=   1   2   3


      ***** EQUILIBRIUM GEOMETRY LOCATED *****
            (SUBJECT TO   3 CONSTRAINT(S))
 COORDINATES OF ALL ATOMS ARE (ANGS)
   ATOM   CHARGE       X              Y              Z
 ------------------------------------------------------------
 C           6.0  -0.8976016886  -1.8613104571   0.7557228273
 C           6.0   0.8976157654  -1.8613234307  -0.7557144191
 C           6.0  -1.8095302942  -0.9509470777   1.5384578410
 C           6.0   1.8095362396  -0.9509612911  -1.5384615380
 C           6.0  -3.5237270658   0.6336422654   1.2996086394
[...]
1088   9  -9.251379   5.394735  -2.851388   0.000085   0.024110   0.003542
1089  32 -12.745045  -1.600018  -2.276948  -0.000291   0.067308  -0.004317
1090  32 -13.654448  -1.019957  -2.098552  -0.000695   0.149034  -0.004660
1091  32 -14.530742  -0.117378  -2.507604  -0.000630   0.149034  -0.004229
1092  32 -14.822468   0.695319  -3.509743  -0.000723   0.149034  -0.004850
1093  32 -14.412667   1.092310  -4.703194  -0.000867   0.149034  -0.005817
1094  32 -13.465636   0.914434  -5.609480  -0.000921   0.149034  -0.006179
1095  32 -12.361057   0.233004  -5.865257  -0.000653   0.149034  -0.004379
1096  32 -11.541775  -0.678781  -5.367978  -0.000663   0.149034  -0.004451
1097  32 -11.336255  -1.455372  -4.317011  -0.000698   0.149034  -0.004684
1098  32 -11.645737  -1.806496  -3.328961  -0.000256   0.067308  -0.003797
1099   9 -12.924061  -1.278973  -1.814675  -0.000529   0.147896  -0.003575
1100   9 -14.100110  -0.370995  -1.850812  -0.000535   0.147896  -0.003616
1101   9 -14.791833   0.644824  -2.686546  -0.000428   0.147896  -0.002897
1102   9 -14.721907   1.361225  -3.986816  -0.000686   0.147896  -0.004639
1103   9 -13.918365   1.490989  -5.230320  -0.000835   0.147896  -0.005645
1104   9 -12.703363   0.982092  -5.918517  -0.000661   0.147896  -0.004471
1105   9 -11.564015   0.038559  -5.775494  -0.000464   0.147896  -0.003140
1106   9 -10.957108  -0.961330  -4.858593  -0.000542   0.147896  -0.003668
1107   9 -11.125960  -1.616702  -3.535416  -0.000548   0.147896  -0.003704
1108  33 -11.848404   5.719489  -1.630590  -0.000240   0.070607  -0.003398
1109  33 -12.528558   5.648925  -2.534255  -0.000633   0.157291  -0.004022
1110  33 -13.594074   5.049006  -3.149689  -0.000885   0.157291  -0.005627
1111  33 -14.534623   4.072267  -2.961711  -0.000906   0.157291  -0.005763
1112  33 -14.947141   3.137282  -2.050878  -0.000700   0.157291  -0.004448
1113  33 -14.654848   2.644729  -0.807519  -0.000594   0.157291  -0.003774
1114  33 -13.783003   2.805688   0.235536  -0.000723   0.157291  -0.004595
1115   9 -11.739176   5.681761  -2.223627  -0.000440   0.154297  -0.002849
1116   9 -12.808644   5.345400  -3.275954  -0.000634   0.154297  -0.004106
1117   9 -14.000955   4.408308  -3.530014  -0.000859   0.154297  -0.005566
1118   9 -14.805155   3.272069  -2.876932  -0.000648   0.154297  -0.004197
1119   9 -14.876611   2.423607  -1.596581  -0.000432   0.154297  -0.002802
1120   9 -14.184702   2.226522  -0.237643  -0.000424   0.154297  -0.002748
1121   9 -13.287551   2.554937   0.569501  -0.000249   0.086261  -0.002882
1122  34  -8.032463   1.932958  -4.690807  -0.000353   0.070595  -0.004998
1123  34  -8.778335   1.610133  -5.480575  -0.000601   0.157274  -0.003819
1124  34  -9.915781   1.881058  -6.192539  -0.000534   0.157274  -0.003395
1125  34 -10.891385   2.829870  -6.340966  -0.000845   0.157274  -0.005372
1126  34 -11.286969   4.049873  -5.862236  -0.000946   0.157274  -0.006015
1127  34 -10.932970   5.018132  -4.961550  -0.000773   0.157274  -0.004915
1128  34  -9.981126   5.319617  -4.024972  -0.000615   0.157274  -0.003909
1129   9  -8.336750   1.418935  -4.781222  -0.000522   0.154265  -0.003381
1130   9  -9.495269   1.269058  -5.781109  -0.000343   0.154265  -0.002224
1131   9 -10.751183   1.994022  -6.292492  -0.000520   0.154265  -0.003372
1132   9 -11.566163   3.283080  -6.096173  -0.000796   0.154265  -0.005158
1133   9 -11.590880   4.583697  -5.276302  -0.000793   0.154265  -0.005142
1134   9 -10.814739   5.338382  -4.184305  -0.000445   0.154265  -0.002886
1135   9  -9.845669   5.390311  -3.395308  -0.000207   0.086248  -0.002402
1136  10  12.107041  -1.632347   1.893066   0.000028   0.009924   0.002817
1137  15  11.779088  -1.709009   1.570480   0.000116   0.009924   0.011646
1138  35  12.274782  -1.648176   2.141781  -0.000048   0.009924  -0.004800
1139  10  11.291450  -1.785547   2.673582   0.000034   0.009924   0.003405
1140  15  10.997979  -1.855732   2.317997   0.000164   0.009924   0.016558
1141  35  11.534277  -1.787272   2.850441  -0.000030   0.009924  -0.003009
1142  15  12.368080   1.075592  -1.157923   0.001802   0.175159   0.010289
1143  15  12.415807  -0.461318  -0.249933   0.005304   0.365744   0.014503
1144  15  11.830397  -1.632094   0.964726   0.001782   0.175159   0.010172
1145  10  12.917515   0.730217  -0.454106   0.002477   0.376128   0.006586
1146  10  12.569050  -1.024599   0.921555   0.001975   0.376128   0.005250
1147  15  10.387747  -1.903132   2.345366   0.001913   0.175118   0.010923
1148  15   8.956393  -1.111566   3.060976   0.005320   0.365648   0.014549
1149  15   7.771025   0.211150   3.242011   0.002094   0.175118   0.011956
1150  10  10.210053  -1.467910   3.179224   0.002003   0.376040   0.005326
1151  10   8.514188  -0.097668   3.760329   0.002660   0.376040   0.007073
1152  10  11.124462   5.550242   1.164177  -0.000271   0.082389  -0.003291
1153  30  10.695985   5.621009   0.334225  -0.000343   0.082389  -0.004169
1154  36  11.412080   5.559527   1.058521  -0.000335   0.082389  -0.004068
1155  10  12.666323   2.890767  -0.874749  -0.000217   0.082389  -0.002639
1156  30  12.046724   3.291190  -1.451964  -0.000284   0.082389  -0.003453
1157  36  12.810218   3.147951  -0.790349  -0.000387   0.082389  -0.004700
1158  30  10.329368   5.895264  -0.002451  -0.000023   0.014219  -0.001593
1159  10  10.964441   5.710434   1.213135   0.000084   0.020090   0.004163
1160  30  11.824472   3.347028  -1.964559  -0.000020   0.007710  -0.002640
1161  10  12.683344   2.754529  -1.055527   0.000052   0.010894   0.004787
1162  10   7.690222   1.960216   3.883007  -0.000198   0.082384  -0.002405
1163  31   7.063362   2.360519   3.313376  -0.000244   0.082384  -0.002964
1164  37   7.720117   2.195622   4.076991  -0.000366   0.082384  -0.004437
1165  10   9.221571   5.194208   2.990415  -0.000266   0.082384  -0.003228
1166  31   8.404856   5.193565   2.531446  -0.000298   0.082384  -0.003612
1167  37   9.108710   5.128134   3.267608  -0.000353   0.082384  -0.004284
1168  10   7.539780   1.803091   3.869072   0.000035   0.006058   0.005788
1169  31   8.028102   5.464846   2.207668  -0.000018   0.017045  -0.001080
1170  10   9.251346   5.394673   2.851468   0.000085   0.024083   0.003544
1171  35  12.744925  -1.600101   2.276951  -0.000291   0.067310  -0.004317
1172  35  13.654354  -1.020055   2.098485  -0.000695   0.149038  -0.004660
1173  35  14.530704  -0.117467   2.507490  -0.000630   0.149038  -0.004230
1174  35  14.822481   0.695251   3.509634  -0.000723   0.149038  -0.004850
1175  35  14.412700   1.092251   4.703121  -0.000867   0.149038  -0.005817
1176  35  13.465658   0.914360   5.609435  -0.000921   0.149038  -0.006179
1177  35  12.361060   0.232901   5.865200  -0.000653   0.149038  -0.004379
1178  35  11.541782  -0.678903   5.367872  -0.000663   0.149038  -0.004451
1179  35  11.336303  -1.455475   4.316847  -0.000698   0.149038  -0.004684
1180  35  11.645840  -1.806552   3.328770  -0.000256   0.067310  -0.003797
1181  10  12.923932  -1.279068   1.814658  -0.000529   0.147899  -0.003575
1182  10  14.100030  -0.371098   1.850715  -0.000535   0.147899  -0.003616
1183  10  14.791819   0.644742   2.686427  -0.000428   0.147899  -0.002897
1184  10  14.721934   1.361162   3.986725  -0.000686   0.147899  -0.004639
1185  10  13.918396   1.490923   5.230270  -0.000835   0.147899  -0.005646
1186  10  12.703372   0.981998   5.918477  -0.000661   0.147899  -0.004471
1187  10  11.564013   0.038434   5.775419  -0.000464   0.147899  -0.003140
1188  10  10.957131  -0.961457   4.858452  -0.000542   0.147899  -0.003668
1189  10  11.126048  -1.616781   3.535223  -0.000548   0.147899  -0.003704
1190  36  11.848347   5.719489   1.630666  -0.000240   0.070607  -0.003398
1191  36  12.528506   5.648913   2.534328  -0.000633   0.157291  -0.004022
1192  36  13.594035   5.048994   3.149744  -0.000885   0.157291  -0.005627
1193  36  14.534599   4.072273   2.961737  -0.000906   0.157291  -0.005763
1194  36  14.947128   3.137317   2.050876  -0.000700   0.157291  -0.004448
1195  36  14.654835   2.644793   0.807503  -0.000594   0.157291  -0.003774
1196  36  13.782979   2.805769  -0.235544  -0.000723   0.157291  -0.004595
1197  10  11.739121   5.681744   2.223702  -0.000440   0.154298  -0.002849
1198  10  12.808599   5.345373   3.276019  -0.000634   0.154298  -0.004106
1199  10  14.000928   4.408292   3.530051  -0.000859   0.154298  -0.005566
1200  10  14.805143   3.272080   2.876935  -0.000648   0.154298  -0.004197
1201  10  14.876605   2.423652   1.596559  -0.000432   0.154298  -0.002802
1202  10  14.184690   2.226595   0.237617  -0.000424   0.154298  -0.002748
1203  10  13.287529   2.555020  -0.569513  -0.000249   0.086262  -0.002882
1204  37   8.032481   1.932847   4.690815  -0.000353   0.070597  -0.004997
1205  37   8.778366   1.610021   5.480575  -0.000601   0.157276  -0.003819
1206  37   9.915818   1.880950   6.192536  -0.000534   0.157276  -0.003395
1207  37  10.891416   2.829772   6.340971  -0.000845   0.157276  -0.005372
1208  37  11.286986   4.049790   5.862256  -0.000946   0.157276  -0.006015
1209  37  10.932974   5.018064   4.961584  -0.000773   0.157276  -0.004915
1210  37   9.981121   5.319559   4.025013  -0.000615   0.157276  -0.003909
1211  10   8.336779   1.418822   4.781218  -0.000522   0.154268  -0.003381
1212  10   9.495311   1.268946   5.781097  -0.000343   0.154268  -0.002224
1213  10  10.751225   1.993919   6.292482  -0.000520   0.154268  -0.003372
1214  10  11.566193   3.282991   6.096177  -0.000796   0.154268  -0.005158
1215  10  11.590894   4.583625   5.276323  -0.000793   0.154268  -0.005142
1216  10  10.814739   5.338326   4.184339  -0.000445   0.154268  -0.002886
1217  10   9.845663   5.390262   3.395345  -0.000207   0.086249  -0.002402
1218  12  -2.341653   1.664572   0.532503   0.003951   0.347596   0.011366
1219  12  -2.879399   1.103070  -0.873041   0.012713   0.695465   0.018280
1220  12  -3.622923  -0.430641  -1.821627   0.012053   0.695465   0.017330
1221  11  -1.176133   1.040273  -0.367245   0.012075   0.695465   0.017362
1222  11  -1.894196  -0.015920  -1.841610   0.012678   0.695465   0.018230
1223  11  -2.478033  -1.441840  -2.295371   0.004167   0.347596   0.011989
1224  13   2.341689   1.664558  -0.532495   0.003939   0.347594   0.011331
1225  13   2.879441   1.103052   0.873040   0.012726   0.695462   0.018299
1226  13   3.622962  -0.430658   1.821618   0.012063   0.695462   0.017345
1227  11   1.176175   1.040266   0.367259   0.011868   0.695462   0.017064
1228  11   1.894241  -0.015930   1.841613   0.012791   0.695462   0.018392
1229  11   2.478071  -1.441848   2.295370   0.004295   0.347594   0.012355
1230  21   0.293895  -0.295420   4.008090  -0.000566   0.286928  -0.001974
1231  21  -0.316194   0.791381   3.243793  -0.000765   0.579470  -0.001319
1232  11   0.944987  -0.195900   2.607940   0.009038   0.706032   0.012801
1233  11   0.157440   0.887745   1.744274   0.004559   0.356367   0.012793
1234  23  -0.293902  -0.295477  -4.008098  -0.000567   0.286927  -0.001978
1235  23   0.316178   0.791339  -3.243819  -0.000769   0.579469  -0.001327
1236  11  -0.944991  -0.195945  -2.607948   0.008808   0.706030   0.012476
1237  11  -0.157453   0.887719  -1.744302   0.004830   0.356366   0.013553
1238  14  -7.080414  -0.157785  -2.649963   0.003840   0.347952   0.011035
1239  14  -7.715830  -1.480178  -1.990978   0.013008   0.696189   0.018684
1240  14  -8.584231  -2.244530  -0.417495   0.012088   0.696189   0.017364
1241  12  -5.995315  -1.045410  -1.880946   0.011905   0.696189   0.017101
1242  12  -6.839741  -2.380773  -0.732924   0.012772   0.696189   0.018346
1243  12  -7.518558  -2.669468   0.696272   0.004296   0.347952   0.012347
1244  17  -5.387031  -4.578320  -0.157242  -0.000576   0.287258  -0.002005
1245  17  -4.684289  -3.952438  -1.278996  -0.000781   0.580173  -0.001346
1246  12  -5.956362  -3.165033  -0.423830   0.009002   0.706780   0.012737
1247  12  -5.071043  -2.448469  -1.542175   0.004557   0.356754   0.012773
1248  29  -4.383249   3.365952  -0.878292  -0.000549   0.286687  -0.001914
1249  29  -4.974100   2.529959  -1.920664  -0.000736   0.578972  -0.001270
1250  12  -3.798040   1.935385  -0.810913   0.008843   0.705439   0.012535
1251  12  -4.570755   1.008855  -1.850800   0.004832   0.356065   0.013571
1252  15   7.080425  -0.157849   2.649943   0.003840   0.347951   0.011036
1253  15   7.715861  -1.480216   1.990936   0.013008   0.696186   0.018684
1254  15   8.584271  -2.244527   0.417444   0.012088   0.696186   0.017364
1255  13   5.995341  -1.045478   1.880914   0.011905   0.696186   0.017101
1256  13   6.839787  -2.380804   0.732872   0.012772   0.696186   0.018345
1257  13   7.518606  -2.669466  -0.696326   0.004296   0.347951   0.012347
1258  19   5.387073  -4.578338   0.157223  -0.000576   0.287265  -0.002004
1259  19   4.684322  -3.952436   1.279004  -0.000780   0.580187  -0.001345
1260  13   5.956394  -3.165047   0.423808   0.009003   0.706797   0.012737
1261  13   5.071058  -2.448460   1.542178   0.004557   0.356762   0.012773
1262  31   4.383215   3.365882   0.878333  -0.000549   0.286686  -0.001914
1263  31   4.974070   2.529883   1.920691  -0.000735   0.578970  -0.001270
1264  13   3.798021   1.935310   0.810928   0.008842   0.705437   0.012534
1265  13   4.570739   1.008775   1.850800   0.004833   0.356064   0.013573
1266  25 -10.472117  -0.117668   3.451523  -0.000555   0.286818  -0.001935
1267  25  -9.794582  -1.321578   2.973648  -0.000743   0.579248  -0.001282
1268  14 -10.980702  -0.491875   2.039269   0.009178   0.705742   0.013004
1269  14 -10.116731  -1.709193   1.481329   0.004471   0.356222   0.012551
1270  32 -11.939391  -1.818582  -2.671468  -0.000569   0.237415  -0.002395
1271  14 -11.347705  -1.923729  -1.728009   0.002054   0.289414   0.007097
1272  27  10.472102  -0.117573  -3.451546  -0.000555   0.286815  -0.001935
1273  27   9.794601  -1.321497  -2.973689  -0.000743   0.579242  -0.001282
1274  15  10.980704  -0.491789  -2.039305   0.009178   0.705735   0.013004
1275  15  10.116770  -1.709126  -1.481384   0.004471   0.356218   0.012552
1276  35  11.939412  -1.818632   2.671361  -0.000568   0.237341  -0.002394
1277  15  11.347669  -1.923772   1.727950   0.002053   0.289324   0.007097
1278  19   2.997352  -4.413345   2.431786  -0.000350   0.260623  -0.001341
1279  19   2.827555  -5.611025   2.237086  -0.001755   0.521449  -0.003365
1280  19   2.129077  -6.636332   1.416605  -0.001528   0.521449  -0.002930
1281  16   1.850620  -4.874998   3.316722  -0.001731   0.521449  -0.003319
1282  16   1.436110  -6.219241   2.833498  -0.001885   0.521449  -0.003615
1283  16   0.752078  -6.839361   2.028062  -0.000406   0.260623  -0.001558
1284  20  -3.342058  -5.045307   5.262190  -0.000389   0.169537  -0.002295
1285  16  -2.056033  -5.540964   4.874445  -0.000389   0.169537  -0.002293
1286  18  -0.752059  -6.839381  -2.028015  -0.000406   0.260621  -0.001559
1287  18  -1.436086  -6.219270  -2.833454  -0.001885   0.521445  -0.003615
1288  18  -1.850593  -4.875038  -3.316694  -0.001731   0.521445  -0.003320
1289  17  -2.129052  -6.636341  -1.416561  -0.001528   0.521445  -0.002930
1290  17  -2.827525  -5.611046  -2.237050  -0.001755   0.521445  -0.003366
1291  17  -2.997319  -4.413373  -2.431767  -0.000350   0.260621  -0.001343
1292  22   3.342033  -5.045316  -5.262207  -0.000389   0.169538  -0.002295
1293  18   2.056017  -5.540970  -4.874452  -0.000389   0.169538  -0.002293
1294  25  -8.195750  -2.496867   3.633128  -0.000348   0.261013  -0.001334
1295  25  -8.077203  -2.195208   4.817724  -0.001756   0.522240  -0.003363
1296  25  -7.389000  -1.309480   5.799584  -0.001525   0.522240  -0.002921
1297  20  -7.120992  -3.382630   4.239177  -0.001730   0.522240  -0.003312
1298  20  -6.750326  -2.789917   5.555795  -0.001888   0.522240  -0.003615
1299  20  -6.056716  -1.957606   6.134141  -0.000407   0.261013  -0.001561
1300  24  -4.351426   1.999470   5.835491  -0.000400   0.260784  -0.001534
1301  24  -3.598560   2.710199   5.181342  -0.001869   0.521767  -0.003582
1302  24  -3.094689   3.043925   3.822973  -0.001708   0.521767  -0.003274
1303  21  -2.997147   1.308645   5.764854  -0.001511   0.521767  -0.002896
1304  21  -2.209089   1.995130   4.707438  -0.001740   0.521767  -0.003335
1305  21  -1.970846   2.067062   3.508305  -0.000343   0.260784  -0.001314
1306  27   8.195766  -2.496818  -3.633180  -0.000348   0.261010  -0.001333
1307  27   8.077201  -2.195152  -4.817747  -0.001756   0.522233  -0.003362
1308  27   7.388991  -1.309450  -5.799581  -0.001525   0.522233  -0.002921
1309  22   7.121006  -3.382604  -4.239216  -0.001730   0.522233  -0.003312
1310  22   6.750324  -2.789897  -5.555801  -0.001888   0.522233  -0.003615
1311  22   6.056713  -1.957615  -6.134133  -0.000408   0.261010  -0.001561
1312  26   4.351391   1.999501  -5.835476  -0.000400   0.260782  -0.001534
1313  26   3.598525   2.710203  -5.181331  -0.001869   0.521762  -0.003582
1314  26   3.094650   3.043914  -3.822982  -0.001709   0.521762  -0.003275
1315  23   2.997119   1.308644  -5.764848  -0.001511   0.521762  -0.002896
1316  23   2.209060   1.995102  -4.707444  -0.001740   0.521762  -0.003335
1317  23   1.970811   2.067029  -3.508330  -0.000343   0.260782  -0.001315
1318  28  -8.191127   5.228765   3.525134  -0.000364   0.165285  -0.002201
1319  24  -6.952927   4.832705   4.127249  -0.000368   0.165285  -0.002225
1320  30   8.191067   5.228814  -3.525083  -0.000364   0.165316  -0.002202
1321  26   6.952864   4.832758  -4.127192  -0.000368   0.165316  -0.002226
1322  33 -13.000853   3.574155   0.858861  -0.000339   0.258585  -0.001313
1323  33 -12.816105   4.700583   0.460825  -0.001636   0.517314  -0.003162
1324  33 -12.058229   5.561658  -0.456433  -0.001328   0.517314  -0.002566
1325  28 -11.935718   4.211889   1.751832  -0.001623   0.517314  -0.003137
1326  28 -11.486010   5.433813   1.072234  -0.001790   0.517314  -0.003461
1327  28 -10.743400   5.907014   0.243974  -0.000436   0.258585  -0.001685
1328  34  -8.797392   5.156779  -3.620978  -0.000206   0.258549  -0.000798
1329  34  -8.056154   4.405595  -4.209879  -0.001478   0.517240  -0.002858
1330  34  -7.611530   3.016892  -4.382406  -0.001392   0.517240  -0.002691
1331  29  -7.485221   5.092863  -2.837684  -0.001382   0.517240  -0.002673
1332  29  -6.730470   3.948739  -3.364263  -0.001600   0.517240  -0.003092
1333  29  -6.550635   2.754809  -3.312247  -0.000348   0.258549  -0.001347
1334  36  13.000812   3.574241  -0.858845  -0.000339   0.258585  -0.001313
1335  36  12.816049   4.700653  -0.460779  -0.001636   0.517314  -0.003162
1336  36  12.058166   5.561691   0.456503  -0.001328   0.517314  -0.002566
1337  30  11.935658   4.211981  -1.751797  -0.001623   0.517314  -0.003137
1338  30  11.485935   5.433878  -1.072166  -0.001790   0.517314  -0.003461
1339  30  10.743325   5.907045  -0.243891  -0.000436   0.258585  -0.001685
1340  37   8.797379   5.156721   3.621027  -0.000206   0.258552  -0.000798
1341  37   8.056142   4.405517   4.209932  -0.001478   0.517246  -0.002858
1342  37   7.611530   3.016791   4.382440  -0.001392   0.517246  -0.002691
1343  31   7.485198   5.092805   2.837747  -0.001382   0.517246  -0.002673
1344  31   6.730452   3.948655   3.364321  -0.001600   0.517246  -0.003092
1345  31   6.550630   2.754710   3.312282  -0.000348   0.258552  -0.001347
 =====================================================


   1 warning(s) detected.
     A line exceeding 80 characters begins with "http://cactus.nci.ni".
 There may be a problem in your input file.

             15050305  WORDS OF DYNAMIC MEMORY USED
 EXECUTION OF GAMESS TERMINATED NORMALLY Sun Nov 27 14:57:46 2016
 DDI: 263640 bytes (0.3 MB / 0 MWords) used by master data server.

 ----------------------------------------
 CPU timing information for all processes
 ========================================
 0: 3974.372 + 1.04 = 3975.376
 ----------------------------------------
 ddikick.x: exited gracefully.
