----- GAMESS execution script -----

          ******************************************************
          *         GAMESS VERSION =  5 DEC 2014 (R1)          *
          *             FROM IOWA STATE UNIVERSITY             *
          * M.W.SCHMIDT, K.K.BALDRIDGE, J.A.BOATZ, S.T.ELBERT, *
          *   M.S.GORDON, J.H.JENSEN, S.KOSEKI, N.MATSUNAGA,   *
          *          K.A.NGUYEN, S.J.SU, T.L.WINDUS,           *
          *       TOGETHER WITH M.DUPUIS, J.A.MONTGOMERY       *
          *         J.COMPUT.CHEM.  14, 1347-1363(1993)        *
          **************** 64 BIT LINUX VERSION ****************

 EXECUTION OF GAMESS BEGUN Sun Nov 27 14:42:49 2016

            ECHO OF THE FIRST FEW INPUT CARDS -
 INPUT CARD>! SELECT RESTRICTED HARTREE-FOCK AS DEFAULT                                     
 INPUT CARD>$contrl scftyp=rhf $end                                                         
 INPUT CARD>                                                                                
 INPUT CARD>! THEORY: HF OR DFT                                                             
 INPUT CARD> $contrl mplevl=0 $end                                                          
 INPUT CARD>                                                                                
 INPUT CARD> $system timlim=10000 mwords=20 $end                                            
 INPUT CARD> $SCF DIRSCF=.TRUE. $end                                                        
 INPUT CARD>                                                                                
 INPUT CARD>                                                                                
 INPUT CARD>! BASIS SETS                                                                    
 INPUT CARD>! 6-311G(d,p)                                                                   
 INPUT CARD> $BASIS GBASIS=N311 NGAUSS=6 NDFUNC=1 NPFUNC=1 $END                             
 INPUT CARD>                                                                                
 INPUT CARD>! One of the following                                                          
 INPUT CARD> $guess guess=HUCKEL $end                                                       
 INPUT CARD>                                                                                
 INPUT CARD> $statpt projct=.FALSE. $end                                                    
 INPUT CARD> $STATPT IFREEZ(1)=1,2,3 $END                                                   
 INPUT CARD>                                                                                
 INPUT CARD>! Optimize the geometry with COSMO effects                                      
 INPUT CARD> $statpt opttol=0.0005 nstep=50 $end                                            
 INPUT CARD> $contrl nzvar=1 $end                                                           
 INPUT CARD> $zmat dlc=.t. auto=.t. $end                                                    
 INPUT CARD> $contrl runtyp=OPTIMIZE maxit=200 $end                                         
 INPUT CARD>                                                                                
 INPUT CARD>! Run COSMO on perfect conductor                                                
 INPUT CARD> $COSGMS PRFCND=.TRUE. $end                                                     
 INPUT CARD>                                                                                
 INPUT CARD>! Specifying RSOLV                                                              
 INPUT CARD> $COSGMS COSRAD = 1.4 $end                                                      
 INPUT CARD>                                                                                
 INPUT CARD>! available memory                                                              
 INPUT CARD> $SYSTEM MWORDS=40 $END                                                         
 INPUT CARD>                                                                                
 INPUT CARD> $DATA                                                                          
 INPUT CARD>2-Butene, (E)-, ID: C624646                                                     
 INPUT CARD>C1                                                                              
 INPUT CARD>C      6.0      1.9787000000    0.9171000000    0.8755000000                    
 INPUT CARD>C      6.0      2.9473000000    1.6691000000    1.4011000000                    
 INPUT CARD>C      6.0      4.3836000000    1.3350000000    1.2832000000                    
 INPUT CARD>C      6.0      0.5423000000    1.2506000000    0.9941000000                    
 INPUT CARD>H      1.0      2.2147000000    0.0000000000    0.3213000000                    
 INPUT CARD>H      1.0      2.7110000000    2.5861000000    1.9554000000                    
 INPUT CARD>H      1.0      4.5642000000    0.4141000000    0.7128000000                    
 INPUT CARD>H      1.0      4.9284000000    2.1469000000    0.7827000000                    
 INPUT CARD>H      1.0      4.8302000000    1.2016000000    2.2777000000                    
 INPUT CARD>H      1.0      0.0930000000    1.3765000000    0.0000000000                    
 INPUT CARD>H      1.0      0.0000000000    0.4413000000    1.5014000000                    
 INPUT CARD>H      1.0      0.3617000000    2.1749000000    1.5588000000                    
   40000000 WORDS OF MEMORY AVAILABLE

     BASIS OPTIONS
     -------------
     GBASIS=N311         IGAUSS=       6      POLAR=POPN311 
     NDFUNC=       1     NFFUNC=       0     DIFFSP=       F
     NPFUNC=       1      DIFFS=       F     BASNAM=        


     RUN TITLE
     ---------
 2-Butene, (E)-, ID: C624646                                                     

 THE POINT GROUP OF THE MOLECULE IS C1      
 THE ORDER OF THE PRINCIPAL AXIS IS     0

 ATOM      ATOMIC                      COORDINATES (BOHR)
           CHARGE         X                   Y                   Z
 C           6.0     3.7392008119        1.7330677033        1.6544551023
 C           6.0     5.5695894036        3.1541416461        2.6476950814
 C           6.0     8.2838028398        2.5227841936        2.4248963874
 C           6.0     1.0247984031        2.3632913202        1.8785766044
 H           1.0     4.1851761450        0.0000000000        0.6071689599
 H           1.0     5.1230471527        4.8870203768        3.6951701964
 H           1.0     8.6250873532        0.7825355315        1.3469966840
 H           1.0     9.3133255579        4.0570527230        1.4790885306
 H           1.0     9.1277544659        2.2706947468        4.3042288822
 H           1.0     0.1757445169        2.6012078221        0.0000000000
 H           1.0     0.0000000000        0.8339360784        2.8372345980
 H           1.0     0.6835138898        4.1099650507        2.9457048697

          INTERNUCLEAR DISTANCES (ANGS.)




     $CONTRL OPTIONS
     ---------------
 SCFTYP=RHF          RUNTYP=OPTIMIZE     EXETYP=RUN     
 MPLEVL=       0     CITYP =NONE         CCTYP =NONE         VBTYP =NONE    
 DFTTYP=NONE         TDDFT =NONE    
 MULT  =       1     ICHARG=       0     NZVAR =       1     COORD =UNIQUE  
 PP    =NONE         RELWFN=NONE         LOCAL =NONE         NUMGRD=       F
 ISPHER=      -1     NOSYM =       0     MAXIT =     200     UNITS =ANGS    
 PLTORB=       F     MOLPLT=       F     AIMPAC=       F     FRIEND=        
 NPRINT=       7     IREST =       0     GEOM  =INPUT   
 NORMF =       0     NORMP =       0     ITOL  =      20     ICUT  =       9
 INTTYP=BEST         GRDTYP=BEST         QMTTOL= 1.0E-06

     $SYSTEM OPTIONS
     ---------------
  REPLICATED MEMORY=    40000000 WORDS (ON EVERY NODE).
 DISTRIBUTED MEMDDI=           0 MILLION WORDS IN AGGREGATE,
 MEMDDI DISTRIBUTED OVER   1 PROCESSORS IS           0 WORDS/PROCESSOR.
 TOTAL MEMORY REQUESTED ON EACH PROCESSOR=    40000000 WORDS.
 TIMLIM=       10000.00 MINUTES, OR       6.9 DAYS.
 PARALL= F  BALTYP=  DLB     KDIAG=    0  COREFL= F
 MXSEQ2=     300 MXSEQ3=     150  mem10=         0

     $COSGMS OPTIONS
     ---------------
     EPSI  =   INFTY     NSPA  =      92     COSRAD=    1.40
     DISEX =   10.00     OUTCHG=DBLCAV       COSBUG=       F
     COSWRT=       F     DCOSMO=       F

     SYMMETRY COORDINATES WILL NOT BE USED FOR 
     THE COSMO CALCULATION, EVEN IF SPECIFIED:
         -- SWITCHING TO C1 POINT GROUP --


     DEFINITION OF CAVITY
     ---------------------------
     ATOM         COORDINATES           RADIUS 
     1    3.7392    1.7331    1.6545    2.0000
     2    5.5696    3.1541    2.6477    2.0000
     3    8.2838    2.5228    2.4249    2.0000
     4    1.0248    2.3633    1.8786    2.0000
     5    4.1852    0.0000    0.6072    1.3000
     6    5.1230    4.8870    3.6952    1.3000
     7    8.6251    0.7825    1.3470    1.3000
     8    9.3133    4.0571    1.4791    1.3000
     9    9.1278    2.2707    4.3042    1.3000
    10    0.1757    2.6012    0.0000    1.3000
    11    0.0000    0.8339    2.8372    1.3000
    12    0.6835    4.1100    2.9457    1.3000

          ----------------
          PROPERTIES INPUT
          ----------------

     MOMENTS            FIELD           POTENTIAL          DENSITY
 IEMOM =       1   IEFLD =       0   IEPOT =       0   IEDEN =       0
 WHERE =COMASS     WHERE =NUCLEI     WHERE =NUCLEI     WHERE =NUCLEI  
 OUTPUT=BOTH       OUTPUT=BOTH       OUTPUT=BOTH       OUTPUT=BOTH    
 IEMINT=       0   IEFINT=       0                     IEDINT=       0
                                                       MORB  =       0
          EXTRAPOLATION IN EFFECT
          SOSCF IN EFFECT
 ORBITAL PRINTING OPTION: NPREO=     1   124     2     1

     -------------------------------
     INTEGRAL TRANSFORMATION OPTIONS
     -------------------------------
     NWORD  =            0
     CUTOFF = 1.0E-09     MPTRAN =       0
     DIRTRF =       T     AOINTS =DUP     

          ----------------------
          INTEGRAL INPUT OPTIONS
          ----------------------
 NOPK  =       1 NORDER=       0 SCHWRZ=       T


 -----------------------------------------------
  STATISTICS ON AUTOMATIC COORDINATE GENERATION 
 -----------------------------------------------
  NUMBER OF USER SPECIFIED BONDS                             0
  NUMBER OF BONDS                                           11
  NUMBER OF ANGLES                                          18
  NUMBER OF TORSIONS                                        16
  NUMBER OF EXTRA COORD.                                     0
  NUMBER OF EXTRA COORD. FOR CONSTRAINTS                     0
  NUMBER OF CONSTRAINED COORD.                               0

  TOTAL NUMBER OF PRIMITIVES                                45
 -----------------------------------------------

   --- ENCODED Z MATRIX ---
 COORD  TYPE   I   J   K   L   M   N
    1      1    1   4
    2      1    1   2
    3      1    1   5
    4      1    2   6
    5      1    2   3
    6      1    3   8
    7      1    3   7
    8      1    3   9
    9      1    4  12
   10      1    4  11
   11      1    4  10
   12      2    1   4  11
   13      2    1   4  12
   14      2    1   2   3
   15      2    1   4  10
   16      2    1   2   6
   17      2    2   1   5
   18      2    2   3   9
   19      2    2   3   8
   20      2    2   1   4
   21      2    2   3   7
   22      2    3   2   6
   23      2    4   1   5
   24      2    7   3   9
   25      2    7   3   8
   26      2    8   3   9
   27      2   10   4  11
   28      2   10   4  12
   29      2   11   4  12
   30      3    1   2   3   8
   31      3    1   2   3   9
   32      3    1   2   3   7
   33      3    2   1   4  12
   34      3    2   1   4  10
   35      3    2   1   4  11
   36      3    3   2   1   5
   37      3    3   2   1   4
   38      3    4   1   2   6
   39      3    5   1   2   6
   40      3    5   1   4  10
   41      3    5   1   4  11
   42      3    5   1   4  12
   43      3    6   2   3   7
   44      3    6   2   3   8
   45      3    6   2   3   9

          INDEP./SYM. INTERNAL COORDINATES
          --------------------------------
 CRD  1=  -0.1771 ( 13)  0.5375 ( 14) -0.3335 ( 16)  0.3334 ( 17) -0.5374 ( 20)
           0.1772 ( 21) -0.2040 ( 22)  0.2040 ( 23)
 CRD  2=  -0.3930 (  1) -0.4062 (  2) -0.3930 (  5) -0.1922 ( 13) -0.3370 ( 14)
          -0.3371 ( 20) -0.1922 ( 21)  0.2436 ( 22)  0.2437 ( 23)  0.1037 ( 24)
           0.1037 ( 25)  0.1037 ( 28)  0.1037 ( 29)
 CRD  3=   0.3080 ( 12) -0.3089 ( 15)  0.3103 ( 18) -0.3068 ( 19) -0.1031 ( 30)
          -0.1013 ( 31) -0.1020 ( 34) -0.1023 ( 35)  0.3234 ( 36)  0.4837 ( 37)
           0.3234 ( 38)  0.1631 ( 39)  0.2011 ( 42)  0.2010 ( 43)
 CRD  4=   0.2893 (  1)  0.2892 (  5)  0.2610 ( 12) -0.2735 ( 13) -0.1723 ( 14)
           0.2599 ( 15) -0.1356 ( 16) -0.1356 ( 17)  0.2574 ( 18)  0.2635 ( 19)
          -0.1723 ( 20) -0.2735 ( 21)  0.3079 ( 22)  0.3080 ( 23) -0.1874 ( 26)
          -0.1874 ( 27)
 CRD  5=  -0.3702 (  1)  0.3703 (  5) -0.2330 ( 12)  0.1382 ( 13) -0.2299 ( 15)
          -0.3102 ( 16)  0.3100 ( 17)  0.2299 ( 18)  0.2330 ( 19) -0.1379 ( 21)
           0.2817 ( 22) -0.2815 ( 23) -0.1891 ( 26)  0.1891 ( 27)
 CRD  6=   0.1798 (  1) -0.4794 (  2)  0.1796 (  5)  0.1296 (  7)  0.1295 (  9)
           0.3365 ( 13) -0.2799 ( 16) -0.2802 ( 17)  0.3368 ( 21)  0.2874 ( 22)
           0.2876 ( 23) -0.1194 ( 24) -0.1170 ( 25) -0.1190 ( 28) -0.1173 ( 29)
 CRD  7=   0.1184 (  6) -0.1197 (  8)  0.1184 ( 10) -0.1192 ( 11)  0.4390 ( 12)
          -0.4413 ( 15) -0.4431 ( 18)  0.4386 ( 19)  0.1673 ( 24) -0.1697 ( 25)
           0.1678 ( 28) -0.1687 ( 29)
 CRD  8=   0.1682 ( 12) -0.1694 ( 15)  0.1680 ( 18) -0.1657 ( 19) -0.2985 ( 30)
          -0.2982 ( 31) -0.2616 ( 32) -0.2615 ( 33) -0.2986 ( 34) -0.2988 ( 35)
          -0.2244 ( 36) -0.2242 ( 38) -0.3787 ( 39) -0.1512 ( 40) -0.1514 ( 41)
          -0.1140 ( 42) -0.1143 ( 43) -0.1513 ( 44) -0.1509 ( 45)
 CRD  9=  -0.2474 (  1) -0.2472 (  3)  0.2473 (  4)  0.2474 (  5)  0.1444 (  7)
          -0.1445 (  9)  0.1173 ( 12) -0.4732 ( 13) -0.1265 ( 14)  0.1155 ( 15)
          -0.1132 ( 18) -0.1193 ( 19)  0.1264 ( 20)  0.4731 ( 21) -0.1760 ( 24)
          -0.1734 ( 25)  0.1751 ( 28)  0.1742 ( 29)
 CRD 10=   0.2798 (  2)  0.5074 (  3)  0.5073 (  4)  0.2226 ( 13) -0.2544 ( 14)
           0.1996 ( 16)  0.1995 ( 17) -0.2545 ( 20)  0.2225 ( 21)
 CRD 11=   0.1534 (  6) -0.1559 (  8) -0.1548 ( 10)  0.1546 ( 11) -0.2612 ( 12)
           0.2610 ( 15) -0.2630 ( 18)  0.2591 ( 19)  0.1873 ( 24) -0.1901 ( 25)
          -0.1890 ( 28)  0.1885 ( 29) -0.2179 ( 30) -0.2172 ( 31) -0.1615 ( 32)
          -0.1614 ( 33) -0.2174 ( 34) -0.2175 ( 35)  0.2111 ( 36)  0.3488 ( 37)
           0.2111 ( 38)
 CRD 12=  -0.3171 (  6) -0.3570 (  7) -0.3171 (  8)  0.3563 (  9)  0.3163 ( 10)
           0.3164 ( 11) -0.1597 ( 12) -0.1159 ( 13) -0.1596 ( 15)  0.1022 ( 16)
          -0.1021 ( 17)  0.1596 ( 18)  0.1603 ( 19)  0.1161 ( 21) -0.1199 ( 22)
           0.1197 ( 23) -0.1440 ( 24) -0.1448 ( 25) -0.1765 ( 26)  0.1762 ( 27)
           0.1441 ( 28)  0.1442 ( 29)
 CRD 13=   0.1072 (  1)  0.1071 (  5)  0.3404 (  6)  0.3607 (  7)  0.3403 (  8)
           0.3615 (  9)  0.3410 ( 10)  0.3409 ( 11) -0.1400 ( 12) -0.1246 ( 13)
          -0.1401 ( 15) -0.1395 ( 18) -0.1399 ( 19) -0.1243 ( 21)  0.1412 ( 24)
           0.1418 ( 25)  0.1476 ( 26)  0.1480 ( 27)  0.1419 ( 28)  0.1418 ( 29)
 CRD 14=   0.3847 (  6) -0.3278 (  8)  0.3055 ( 10) -0.3990 ( 11) -0.2609 ( 24)
           0.2210 ( 25) -0.2066 ( 28)  0.2702 ( 29)  0.1155 ( 30)  0.1611 ( 31)
          -0.1324 ( 32)  0.1303 ( 33) -0.1010 ( 34) -0.1738 ( 35) -0.1022 ( 40)
          -0.1750 ( 41)  0.1292 ( 42) -0.1313 ( 43)  0.1166 ( 44)  0.1622 ( 45)
 CRD 15=  -0.1719 (  6)  0.4727 (  7) -0.2982 (  8) -0.3457 (  9)  0.2315 ( 10)
           0.1069 ( 11)  0.1173 ( 24)  0.2023 ( 25) -0.3252 ( 26)  0.2377 ( 27)
          -0.1588 ( 28)  0.2072 ( 30) -0.1585 ( 31) -0.1577 ( 34)  0.1092 ( 35)
          -0.1578 ( 40)  0.1090 ( 41)  0.2073 ( 44) -0.1585 ( 45)
 CRD 16=  -0.2099 (  6)  0.3511 (  7) -0.1572 (  8)  0.4710 (  9) -0.2661 ( 10)
          -0.2197 ( 11)  0.1374 ( 24)  0.1020 ( 25) -0.2420 ( 26) -0.3245 ( 27)
           0.1759 ( 28)  0.1445 ( 29)  0.1271 ( 30) -0.1466 ( 31)  0.1924 ( 34)
          -0.1741 ( 35)  0.1924 ( 40) -0.1740 ( 41)  0.1270 ( 44) -0.1467 ( 45)
 CRD 17=   0.3738 (  6) -0.3759 (  8) -0.3798 ( 10)  0.3781 ( 11) -0.2337 ( 24)
           0.2345 ( 25)  0.2374 ( 28) -0.2362 ( 29) -0.1929 ( 32) -0.1942 ( 33)
          -0.1990 ( 42) -0.1978 ( 43)
 CRD 18=   0.2304 ( 30)  0.2305 ( 31)  0.2819 ( 32) -0.2821 ( 33) -0.2307 ( 34)
          -0.2304 ( 35) -0.2956 ( 40) -0.2953 ( 41) -0.3470 ( 42)  0.3468 ( 43)
           0.2953 ( 44)  0.2954 ( 45)
 CRD 19=   0.2591 (  1) -0.2591 (  5) -0.2219 (  6) -0.2199 (  8)  0.2210 ( 10)
           0.2206 ( 11)  0.1296 ( 12)  0.1294 ( 15) -0.3239 ( 16)  0.3239 ( 17)
          -0.1290 ( 18) -0.1299 ( 19)  0.3723 ( 22) -0.3723 ( 23)  0.1680 ( 26)
          -0.1679 ( 27)
 CRD 20=   0.6282 (  3) -0.6282 (  4)  0.1919 (  7) -0.1918 (  9) -0.1346 ( 13)
           0.1347 ( 21)  0.1363 ( 22) -0.1362 ( 23)
 CRD 21=  -0.3190 (  2)  0.1992 (  6)  0.1771 (  7)  0.1986 (  8)  0.1771 (  9)
           0.1988 ( 10)  0.1989 ( 11)  0.1825 ( 12)  0.1698 ( 13) -0.1217 ( 14)
           0.1825 ( 15)  0.2769 ( 16)  0.2769 ( 17)  0.1825 ( 18)  0.1826 ( 19)
          -0.1218 ( 20)  0.1698 ( 21) -0.1551 ( 22) -0.1551 ( 23) -0.1847 ( 24)
          -0.1851 ( 25) -0.2010 ( 26) -0.2010 ( 27) -0.1850 ( 28) -0.1848 ( 29)
 CRD 22=   0.5109 (  2) -0.3997 (  3) -0.3995 (  4) -0.1032 (  6)  0.2513 (  7)
           0.2512 (  9) -0.1020 ( 10) -0.1010 ( 11) -0.1804 ( 14) -0.1805 ( 20)
           0.1153 ( 22)  0.1152 ( 23)  0.1424 ( 26)  0.1426 ( 27)
 CRD 23=  -0.4788 (  1)  0.1230 (  3) -0.1234 (  4)  0.4788 (  5) -0.1504 (  6)
          -0.1701 (  7) -0.1517 (  8)  0.1704 (  9)  0.1509 ( 10)  0.1511 ( 11)
           0.1669 ( 12)  0.1539 ( 13)  0.1670 ( 15) -0.1667 ( 18) -0.1671 ( 19)
          -0.1538 ( 21)  0.1780 ( 24)  0.1770 ( 25)  0.1648 ( 26) -0.1647 ( 27)
          -0.1777 ( 28) -0.1775 ( 29)
 CRD 24=   0.1871 (  6) -0.1886 (  8) -0.1871 ( 10)  0.1870 ( 11)  0.1289 ( 24)
          -0.1308 ( 25) -0.1287 ( 28)  0.1298 ( 29)  0.1249 ( 32)  0.1245 ( 33)
          -0.2213 ( 36) -0.2216 ( 38) -0.4769 ( 39)  0.1963 ( 40)  0.1958 ( 41)
           0.3681 ( 42)  0.3688 ( 43)  0.1950 ( 44)  0.1968 ( 45)
 CRD 25=   0.3073 (  6) -0.3105 (  8)  0.3087 ( 10) -0.3099 ( 11)  0.2150 ( 24)
          -0.2175 ( 25)  0.2164 ( 28) -0.2167 ( 29) -0.1857 ( 30) -0.1820 ( 31)
           0.1601 ( 32) -0.1604 ( 33)  0.1835 ( 34)  0.1845 ( 35)  0.1300 ( 36)
          -0.1294 ( 38) -0.2845 ( 42)  0.2835 ( 43)
 CRD 26=   0.4486 (  1) -0.3130 (  2) -0.1395 (  3) -0.1396 (  4)  0.4485 (  5)
          -0.1094 ( 13) -0.1603 ( 14)  0.3186 ( 16)  0.3187 ( 17) -0.1603 ( 20)
          -0.1094 ( 21) -0.1583 ( 22) -0.1583 ( 23)  0.1170 ( 26)  0.1170 ( 27)
 CRD 27=  -0.1693 (  6)  0.3203 (  7) -0.1642 (  8) -0.3202 (  9)  0.1674 ( 10)
           0.1662 ( 11)  0.1861 ( 13)  0.1298 ( 14) -0.1298 ( 20) -0.1861 ( 21)
          -0.1622 ( 22)  0.1621 ( 23) -0.1095 ( 24) -0.1059 ( 25)  0.2313 ( 26)
          -0.2313 ( 27)  0.1081 ( 28)  0.1072 ( 29) -0.2000 ( 30)  0.2021 ( 31)
           0.2014 ( 34) -0.2007 ( 35)  0.2013 ( 40) -0.2008 ( 41) -0.2000 ( 44)
           0.2021 ( 45)
 CRD 28=  -0.2415 (  2)  0.1914 (  3)  0.1914 (  4) -0.1352 (  6)  0.2749 (  7)
          -0.1303 (  8)  0.2750 (  9) -0.1332 ( 10) -0.1324 ( 11)  0.1017 ( 12)
          -0.1838 ( 13)  0.2282 ( 14)  0.1012 ( 15)  0.1031 ( 19)  0.2282 ( 20)
          -0.1837 ( 21) -0.1699 ( 22) -0.1699 ( 23)  0.1860 ( 26)  0.1860 ( 27)
          -0.1786 ( 30)  0.1808 ( 31) -0.1800 ( 34)  0.1794 ( 35) -0.1798 ( 40)
           0.1797 ( 41) -0.1784 ( 44)  0.1810 ( 45)
 CRD 29=   0.2135 (  6) -0.2161 (  8) -0.2147 ( 10)  0.2150 ( 11)  0.1485 ( 12)
          -0.1487 ( 15)  0.1495 ( 18) -0.1477 ( 19)  0.1486 ( 24) -0.1502 ( 25)
          -0.1493 ( 28)  0.1495 ( 29)  0.2827 ( 32)  0.2828 ( 33) -0.3156 ( 37)
           0.2413 ( 39) -0.2807 ( 40) -0.2811 ( 41) -0.2827 ( 44) -0.2793 ( 45)
 CRD 30=   0.2017 ( 30)  0.2031 ( 31)  0.3266 ( 32) -0.3267 ( 33) -0.2025 ( 34)
          -0.2023 ( 35) -0.4317 ( 36)  0.4317 ( 38)  0.2094 ( 40)  0.2097 ( 41)
          -0.2103 ( 44) -0.2089 ( 45)

 THE DETERMINANT OF THE G MATRIX IS 10**(    -9)


                     --------------------
                     INTERNAL COORDINATES
                     --------------------

                 - - ATOMS - -         COORDINATE      COORDINATE
 NO.   TYPE    I  J  K  L  M  N        (BOHR,RAD)       (ANG,DEG)
 ----------------------------------------------------------------
   1 STRETCH   1  4                     2.7956024       1.4793692
   2 STRETCH   1  2                     2.5211702       1.3341459
   3 STRETCH   1  5                     2.0734575       1.0972265
   4 STRETCH   2  6                     2.0735170       1.0972580
   5 STRETCH   2  3                     2.7955690       1.4793515
   6 STRETCH   3  8                     2.0756805       1.0984029
   7 STRETCH   3  7                     2.0752851       1.0981937
   8 STRETCH   3  9                     2.0754985       1.0983066
   9 STRETCH   4 12                     2.0751161       1.0981042
  10 STRETCH   4 11                     2.0756118       1.0983665
  11 STRETCH   4 10                     2.0752221       1.0981603
  12 BEND      1  4 11                  1.9287042     110.5066111
  13 BEND      1  4 12                  1.9721538     112.9960909
  14 BEND      1  2  3                  2.1485991     123.1056576
  15 BEND      1  4 10                  1.9289308     110.5195960
  16 BEND      1  2  6                  2.1103178     120.9123014
  17 BEND      2  1  5                  2.1105844     120.9275768
  18 BEND      2  3  9                  1.9284301     110.4909079
  19 BEND      2  3  8                  1.9293702     110.5447670
  20 BEND      2  1  4                  2.1487002     123.1114546
  21 BEND      2  3  7                  1.9719086     112.9820395
  22 BEND      3  2  6                  2.0242680     115.9820156
  23 BEND      4  1  5                  2.0239007     115.9609681
  24 BEND      7  3  9                  1.8771518     107.5528778
  25 BEND      7  3  8                  1.8771622     107.5534735
  26 BEND      8  3  9                  1.8762121     107.4990352
  27 BEND     10  4 11                  1.8760867     107.4918476
  28 BEND     10  4 12                  1.8773037     107.5615787
  29 BEND     11  4 12                  1.8770434     107.5466640
  30 TORSION   1  2  3  8               2.1141548     121.1321467
  31 TORSION   1  2  3  9              -2.0943187    -119.9956214
  32 TORSION   1  2  3  7               0.0095760       0.5486647
  33 TORSION   2  1  4 12              -0.0023559      -0.1349833
  34 TORSION   2  1  4 10               2.1022590     120.4505710
  35 TORSION   2  1  4 11              -2.1064747    -120.6921110
  36 TORSION   3  2  1  5              -0.0008902      -0.0510067
  37 TORSION   3  2  1  4               3.1408542     179.9576913
  38 TORSION   4  1  2  6               0.0003144       0.0180156
  39 TORSION   5  1  2  6              -3.1414300    -179.9906824
  40 TORSION   5  1  4 10              -1.0391888     -59.5411303
  41 TORSION   5  1  4 11               1.0352628      59.3161877
  42 TORSION   5  1  4 12               3.1393816     179.8733153
  43 TORSION   6  2  3  7              -3.1330215    -179.5089097
  44 TORSION   6  2  3  8              -1.0284427     -58.9254277
  45 TORSION   6  2  3  9               1.0462691      59.9468041

     ------------------------------------------
     THE POINT GROUP IS C1 , NAXIS= 1, ORDER= 1
     ------------------------------------------

     DIMENSIONS OF THE SYMMETRY SUBSPACES ARE
 A   =  124

 ..... DONE SETTING UP THE RUN .....
 STEP CPU TIME =     0.01 TOTAL CPU TIME =        0.0 (    0.0 MIN)
 TOTAL WALL CLOCK TIME=        0.0 SECONDS, CPU UTILIZATION IS  50.00%


          -----------------------------
          STATIONARY POINT LOCATION RUN
          -----------------------------

 OBTAINING INITIAL HESSIAN, HESS=GUESS   
 DIAGONAL GUESS HESSIAN IN INTERNAL COORDS IS
     1  0.4051     2  0.5373     3  0.3415     4  0.3415     5  0.4052
     6  0.3408     7  0.3409     8  0.3408     9  0.3410    10  0.3408
    11  0.3409    12  0.2266    13  0.2266    14  0.2668    15  0.2266
    16  0.2358    17  0.2358    18  0.2266    19  0.2266    20  0.2668
    21  0.2266    22  0.2267    23  0.2267    24  0.2026    25  0.2026
    26  0.2026    27  0.2026    28  0.2026    29  0.2026    30  0.2500
    31  0.2500    32  0.2500    33  0.2500    34  0.2500    35  0.2500
    36  0.2500    37  0.2500    38  0.2500    39  0.2500    40  0.2500
    41  0.2500    42  0.2500    43  0.2500    44  0.2500    45  0.2500
 TRANSFORMING HESSIAN TO SYMMETRY COORDINATES

          PARAMETERS CONTROLLING GEOMETRY SEARCH ARE
          METHOD =QA                  UPHESS =BFGS    
          NNEG   =         0          NFRZ   =         3
          NSTEP  =        50          IFOLOW =         1
          HESS   =GUESS               RESTAR =         F
          IHREP  =         0          HSSEND =         F
          NPRT   =         0          NPUN   =         0
          OPTTOL = 5.000E-04          RMIN   = 1.500E-03
          RMAX   = 1.000E-01          RLIM   = 7.000E-02
          DXMAX  = 3.000E-01          PURIFY =         F
          MOVIE  =         F          TRUPD  =         T
          TRMAX  = 5.000E-01          TRMIN  = 5.000E-02
          ITBMAT =         5          STPT   =         F
          STSTEP = 1.000E-02          PROJCT=          F
          FROZEN COORD(S)=   1   2   3


      ***** EQUILIBRIUM GEOMETRY LOCATED *****
            (SUBJECT TO   3 CONSTRAINT(S))
 COORDINATES OF ALL ATOMS ARE (ANGS)
   ATOM   CHARGE       X              Y              Z
 ------------------------------------------------------------
 C           6.0   1.9812766869   0.9246867382   0.8802326055
 C           6.0   2.9447227496   1.6616027124   1.3962406469
 C           6.0   4.4036893775   1.3362770538   1.2853479585
 C           6.0   0.5221866565   1.2492166850   0.9920769657
 H           1.0   2.2426045423   0.0259043220   0.3388214512
 H           1.0   2.6834406625   2.5604101913   1.9376424800
 H           1.0   4.5462488359   0.4228975626   0.7175601015
 H           1.0   4.9426989324   2.1397678934   0.7902815484
 H           1.0   4.8462000049   1.2049461526   2.2693779406
 H           1.0   0.0771228704   1.3734877706   0.0083240609
 H           1.0  -0.0145868065   0.4482292597   1.4936640379
 H           1.0   0.3797630262   2.1659570082   1.5544500901


                     --------------------
                     INTERNAL COORDINATES
                     --------------------

                 - - ATOMS - -         COORDINATE      COORDINATE
 NO.   TYPE    I  J  K  L  M  N        (BOHR,RAD)       (ANG,DEG)
 ----------------------------------------------------------------
   1 STRETCH   1  4                     2.8325553       1.4989238
   2 STRETCH   1  2                     2.4909555       1.3181570
   3 STRETCH   1  5                     2.0433768       1.0813085
   4 STRETCH   2  6                     2.0433865       1.0813136
   5 STRETCH   2  3                     2.8325206       1.4989055
   6 STRETCH   3  8                     2.0538284       1.0868393
   7 STRETCH   3  7                     2.0501292       1.0848817
   8 STRETCH   3  9                     2.0539665       1.0869124
   9 STRETCH   4 12                     2.0501226       1.0848783
  10 STRETCH   4 11                     2.0538950       1.0868745
  11 STRETCH   4 10                     2.0538938       1.0868739
  12 BEND      1  4 11                  1.9343741     110.8314695
  13 BEND      1  4 12                  1.9277533     110.4521285
  14 BEND      1  2  3                  2.1665466     124.1339780
  15 BEND      1  4 10                  1.9345940     110.8440701
  16 BEND      1  2  6                  2.0761102     118.9523510
  17 BEND      2  1  5                  2.0760665     118.9498474
  18 BEND      2  3  9                  1.9342707     110.8255487
  19 BEND      2  3  8                  1.9347483     110.8529130
  20 BEND      2  1  4                  2.1666693     124.1410072
  21 BEND      2  3  7                  1.9276792     110.4478826
  22 BEND      3  2  6                  2.0405281     116.9136461
  23 BEND      4  1  5                  2.0404495     116.9091453
  24 BEND      7  3  9                  1.8950460     108.5781394
  25 BEND      7  3  8                  1.8953167     108.5936457
  26 BEND      8  3  9                  1.8752904     107.4462247
  27 BEND     10  4 11                  1.8752141     107.4418537
  28 BEND     10  4 12                  1.8952764     108.5913413
  29 BEND     11  4 12                  1.8951375     108.5833779
  30 TORSION   1  2  3  8               2.1108533     120.9429872
  31 TORSION   1  2  3  9              -2.0915738    -119.8383535
  32 TORSION   1  2  3  7               0.0093134       0.5336197
  33 TORSION   2  1  4 12              -0.0021813      -0.1249774
  34 TORSION   2  1  4 10               2.0992559     120.2785024
  35 TORSION   2  1  4 11              -2.1032998    -120.5102029
  36 TORSION   3  2  1  5              -0.0010584      -0.0606433
  37 TORSION   3  2  1  4               3.1405989     179.9430642
  38 TORSION   4  1  2  6               0.0000399       0.0022856
  39 TORSION   5  1  2  6               3.1415678     179.9985781
  40 TORSION   5  1  4 10              -1.0422733     -59.7178595
  41 TORSION   5  1  4 11               1.0383563      59.4934352
  42 TORSION   5  1  4 12               3.1394749     179.8786607
  43 TORSION   6  2  3  7              -3.1332935    -179.5244948
  44 TORSION   6  2  3  8              -1.0317536     -59.1151273
  45 TORSION   6  2  3  9               1.0490045      60.1035321

          INTERNUCLEAR DISTANCES (ANGS.)


 =====================================================
   GAMESS/COSab RESULTS
 =====================================================

   Dielectric Constant                  = INFTY
   Basic Grid Size                      =                 1082
   Number of Segments                   =                   92
   Number of Segments located on spheres=                  206
   Number of Segments of the cavity     =                  466
   Solvent Radius (rsolv)               = 1.40
   Outlying Charge Error Method         = double cavity

 =====================================================

  Total solvated Energy (a.u.)          =  -156.1531294797
  Total Energy corrected (a.u.)         =  -156.1530850185

  Outlying charge effect (a.u.)         =     0.0000444612
  Outlying charge effect (kcal/mol)     =     0.0278998418

  Dielectric Energy (a.u.)              =    -0.0027196914
  Dielectric energy corr. (a.u.)        =    -0.0026752302

  Sum of polarization charges           =     0.0233207959
  Sum of polarization charges(cor.)     =    -0.0233207959

  Total surface area of cavity (A**2)   =  112.38
  Total volume of cavity (A**3)         =   95.30

 =====================================================
 NPS=                   466
NR.  ATOM  (X, Y, Z)(a.u.)                  CHARGE(e)  AREA(A**2) SIGMA(e/A**2)
   1   1   3.600711   4.600226  -0.811501   0.001979   0.185824   0.010650
   2   1   3.042203   1.601452  -2.047450   0.000531   0.232280   0.002287
   3   1   3.836191  -1.485928   3.618222   0.001757   0.371649   0.004728
   4   1   3.808325  -1.892100   2.680335   0.000938   0.278737   0.003364
   5   1   5.513787   1.110596  -1.614852   0.000617   0.139368   0.004430
   6   1   2.950312   0.505115  -1.816686   0.000325   0.278737   0.001166
   7   1   2.172123  -1.627744   1.014053  -0.000119   0.092912  -0.001285
   8   1   3.873634   1.682679  -2.113287   0.001186   0.325193   0.003648
   9   1   5.251840   2.042837  -1.789671   0.001878   0.325193   0.005777
  10   1   4.909434  -1.264706   3.626404   0.002721   0.371649   0.007320
  11   1   2.900994  -1.681358   3.011386   0.000766   0.278737   0.002748
  12   1   2.300014  -1.716644   2.109875   0.000061   0.092912   0.000653
  13   1   3.414420   2.694974  -1.980467   0.001074   0.278737   0.003854
  14   1   3.525332   3.897415  -1.437229   0.001483   0.232280   0.006383
  15   1   4.366956   3.881476  -1.393078   0.000747   0.185824   0.004019
  16   1   4.999563   2.972949  -1.684152   0.002489   0.232280   0.010714
  17   1   4.178580  -0.605676   4.588881   0.004403   0.511017   0.008617
  18   1   3.062426  -0.930253   4.242109   0.001282   0.325193   0.003944
  19   1   5.058030  -1.645226   2.687050   0.000888   0.232280   0.003822
  20   1   4.535143   1.206129  -1.992496   0.001444   0.325193   0.004440
  21   1   2.760991  -1.889185   1.968454   0.000236   0.185824   0.001273
  22   1   3.246297   0.326773   5.130131   0.003243   0.418105   0.007756
  23   1   4.206529   3.004844  -1.870621   0.002191   0.325193   0.006739
  24   2   6.081660   4.070912  -0.987836   0.001284   0.185824   0.006908
  25   2   6.582273   6.481816   1.195985   0.000529   0.232280   0.002276
  26   2   5.123843   2.840505   6.380193   0.001734   0.371649   0.004666
  27   2   5.212114   3.858002   6.332333   0.000940   0.278737   0.003371
  28   2   4.059033   6.449556   1.607117   0.000614   0.139368   0.004405
  29   2   6.593368   6.759539   2.285204   0.000323   0.278737   0.001157
  30   2   7.000964   5.139156   5.506381  -0.000119   0.092912  -0.001283
  31   2   5.765583   6.549930   1.021089   0.001201   0.325193   0.003693
  32   2   4.385956   6.175660   0.720352   0.001918   0.325193   0.005899
  33   2   4.067770   2.793299   6.091509   0.002582   0.371649   0.006946
  34   2   6.096852   3.418591   6.369923   0.000760   0.278737   0.002727
  35   2   6.772207   4.206817   6.057288   0.000062   0.092912   0.000670
  36   2   6.265938   5.954695   0.215732   0.001096   0.278737   0.003933
  37   2   6.173426   4.939219  -0.628971   0.001573   0.232280   0.006774
  38   2   5.331581   4.952961  -0.669505   0.002118   0.185824   0.011395
  39   2   4.678407   5.652795  -0.041863   0.001899   0.232280   0.008174
  40   2   4.745775   1.599532   5.991216   0.004619   0.511017   0.009038
  41   2   5.868755   1.992968   6.226853   0.001341   0.325193   0.004123
  42   2   3.982065   3.810329   6.004524   0.000903   0.232280   0.003889
  43   2   5.070936   6.690753   1.441707   0.001444   0.325193   0.004440
  44   2   6.316767   4.435342   6.108476   0.000237   0.185824   0.001273
  45   2   5.676237   0.649121   5.478846   0.003291   0.418105   0.007871
  46   2   5.485355   5.761741  -0.082567   0.002148   0.325193   0.006605
  47   3   8.593515   5.457440   4.797992   0.000170   0.185824   0.000917
  48   3  11.593056   4.082207   3.505330   0.001877   0.418105   0.004488
  49   3   7.521176  -0.683835   4.258027   0.000607   0.278737   0.002176
  50   3   7.885007   2.504543  -1.325115   0.000594   0.232280   0.002558
  51   3  11.215935   2.304009   0.008404   0.001497   0.418105   0.003581
  52   3  11.250180   0.380311   3.481627   0.001121   0.371649   0.003016
  53   3   8.572941   4.712942   5.500588   0.000119   0.232280   0.000511
  54   3   8.649795   6.167838   3.381723   0.000206   0.232280   0.000885
  55   3   9.282506   5.677014   4.280237   0.000681   0.325193   0.002094
  56   3  10.352740   5.167187   4.211998   0.001402   0.325193   0.004313
  57   3  10.778989  -0.324109   2.786432   0.001233   0.371649   0.003318
  58   3  10.801945   1.460581  -0.216706   0.000890   0.278737   0.003194
  59   3   8.445513   1.783059  -1.274847   0.000626   0.232280   0.002695
  60   3   7.919449  -1.113163   3.369598   0.000851   0.325193   0.002617
  61   3  10.873429   5.066359   3.575999   0.000805   0.232280   0.003464
  62   3  10.994500   4.459554   4.272583   0.000727   0.185824   0.003912
  63   3   8.822226   2.819755  -1.305611   0.001016   0.278737   0.003646
  64   3  10.267450   2.361210  -0.807034   0.001248   0.278737   0.004479
  65   3  11.624812   1.431296   0.953324   0.001083   0.464561   0.002331
  66   3  11.685480   0.802296   2.393151   0.000972   0.464561   0.002093
  67   3  10.156478  -0.477206   3.808702   0.001616   0.371649   0.004347
  68   3   8.499092  -0.817904   4.182967   0.000769   0.232280   0.003309
  69   3   7.808490  -0.186167   5.011470   0.000882   0.325193   0.002713
  70   3   8.116255   3.517208  -1.212183   0.000888   0.325193   0.002732
  71   3  11.886280   2.692926   1.183842   0.000865   0.418105   0.002068
  72   3  12.019593   3.303776   2.492894   0.001084   0.418105   0.002593
  73   3  11.914280   2.854945   3.555601   0.001248   0.464561   0.002686
  74   3  11.795343   1.457848   3.467836   0.000655   0.325193   0.002016
  75   3   9.431315   5.980406   3.484718   0.000432   0.232280   0.001859
  76   3   9.584011   5.122721   4.866953   0.000635   0.232280   0.002732
  77   3  11.379716   0.505567   1.504681   0.000511   0.278737   0.001833
  78   3   9.489309   2.028322  -1.131126   0.001111   0.278737   0.003985
  79   3   9.251142  -0.997959   3.432918   0.001225   0.325193   0.003766
  80   3   7.365432   0.557157   5.510606   0.000134   0.092912   0.001440
  81   3   7.878373   4.326714  -0.863786   0.000256   0.139368   0.001837
  82   3   9.635345   3.070512  -1.072664   0.000569   0.185824   0.003064
  83   3  12.062049   2.009440   2.260143   0.000742   0.464561   0.001596
  84   3   9.090227  -0.545918   4.493425   0.000862   0.232280   0.003711
  85   4  -1.541951   2.722698   4.660211   0.001839   0.418105   0.004398
  86   4   1.383046   5.590863  -0.046990   0.000794   0.278737   0.002847
  87   4   0.398012  -0.628830  -0.361405   0.000395   0.278737   0.001416
  88   4  -2.530975   1.076028   1.365519   0.001432   0.418105   0.003425
  89   4  -1.814982   4.887299   1.649875   0.001139   0.371649   0.003065
  90   4   1.540130   2.817840   5.585433   0.000280   0.139368   0.002006
  91   4   1.479123   1.019981   5.373962   0.000614   0.185824   0.003306
  92   4   1.117213   2.049579   5.639131   0.000771   0.325193   0.002371
  93   4   0.062797   2.480945   5.537556   0.001570   0.371649   0.004224
  94   4  -1.683394   4.700030   0.577897   0.001197   0.371649   0.003221
  95   4  -2.288808   1.267740   0.338448   0.000918   0.278737   0.003293
  96   4  -0.317861  -0.161185  -0.619705   0.000726   0.278737   0.002603
  97   4   0.743798   5.203272  -0.604123   0.000600   0.232280   0.002582
  98   4  -0.685418   2.085180   5.252945   0.000823   0.232280   0.003545
  99   4  -0.660157   3.154380   5.182617   0.001018   0.278737   0.003651
 100   4   2.026805   5.241692  -0.339365   0.000589   0.185824   0.003170
 101   4   0.768921   0.051211  -1.109052   0.000236   0.232280   0.001014
 102   4  -0.696796  -0.680934   0.392055   0.001081   0.325193   0.003326
 103   4  -1.835018   0.170533   0.639864   0.001635   0.371649   0.004398
 104   4  -2.732008   2.319159   1.201599   0.001107   0.464561   0.002383
 105   4  -2.473292   3.838109   1.515094   0.000944   0.464561   0.002032
 106   4  -0.835646   5.546154   0.971564   0.001525   0.371649   0.004102
 107   4   0.425425   5.709198   0.214476   0.000888   0.232280   0.003822
 108   4   1.512593   5.950851   0.817201   0.000640   0.278737   0.002295
 109   4   0.286297  -1.127035   0.598270   0.000514   0.325193   0.001579
 110   4  -2.726579   1.976499   2.464366   0.000774   0.371649   0.002082
 111   4  -2.361276   2.455448   3.625706   0.001067   0.418105   0.002553
 112   4  -2.026186   3.546410   3.824209   0.001246   0.464561   0.002683
 113   4  -2.161890   4.302846   2.648149   0.000637   0.325193   0.001960
 114   4   0.795127   1.262272   5.486000   0.000589   0.232280   0.002535
 115   4   1.002790   3.112349   5.578679   0.000536   0.185824   0.002883
 116   4  -2.488769   3.276253   0.705773   0.000523   0.278737   0.001877
 117   4  -1.223605   0.024659  -0.110550   0.001089   0.278737   0.003905
 118   4   1.615675   4.762669  -0.974655   0.000374   0.185824   0.002015
 119   4  -0.405368   5.389294   0.093284   0.001091   0.278737   0.003915
 120   4   0.740540  -1.374129   1.350518   0.000056   0.139368   0.000401
 121   4  -2.660647   3.125964   2.503150   0.000652   0.418105   0.001560
 122   4   0.453242   5.975023   0.907235   0.000610   0.185824   0.003283
 123   5   4.404688  -2.124740  -0.492107  -0.003451   0.490692  -0.007032
 124   5   3.604996  -0.831641  -1.564046  -0.001443   0.353299  -0.004083
 125   5   3.070434  -2.046308   0.109293  -0.001867   0.372926  -0.005005
 126   5   4.889941  -2.219085   1.322858  -0.001350   0.353299  -0.003822
 127   5   5.240793  -0.335442  -1.569142  -0.001303   0.353299  -0.003688
 128   5   3.286019  -1.627315  -0.882578  -0.002399   0.412182  -0.005820
 129   5   3.898720  -2.377027   0.826363  -0.001946   0.431809  -0.004507
 130   5   5.328335  -2.130142   0.327920  -0.002682   0.372926  -0.007192
 131   5   5.349572  -1.482218  -0.926494  -0.002929   0.392554  -0.007461
 132   5   4.506819  -1.024519  -1.552986  -0.001909   0.353299  -0.005403
 133   6   4.886185   6.828628   5.089977  -0.003451   0.490692  -0.007034
 134   6   5.846840   7.165836   3.533024  -0.001441   0.353299  -0.004080
 135   6   6.164452   6.183323   5.402523  -0.001868   0.372926  -0.005008
 136   6   4.238242   5.275813   5.931050  -0.001353   0.353299  -0.003831
 137   6   4.247456   7.038666   2.943219  -0.001302   0.353299  -0.003685
 138   6   6.060461   6.894394   4.572220  -0.002399   0.412182  -0.005821
 139   6   5.259285   5.735539   5.940840  -0.001948   0.431809  -0.004510
 140   6   3.894873   6.149009   5.374608  -0.002682   0.372926  -0.007192
 141   6   4.019863   6.981899   4.241257  -0.002931   0.392554  -0.007467
 142   6   4.938368   7.291344   3.630678  -0.001910   0.353299  -0.005406
 143   7   9.591148  -1.115192   0.185335  -0.002485   0.431809  -0.005755
 144   7   8.417194  -1.578220   1.950076  -0.001204   0.333671  -0.003609
 145   7  10.295851  -0.967283   1.261834  -0.001204   0.372926  -0.003229
 146   7  10.046535   0.203245  -0.531311  -0.000823   0.294415  -0.002796
 147   7   8.564101   0.278762  -1.044753  -0.001167   0.314043  -0.003715
 148   7   8.535619  -1.574278   0.724444  -0.002753   0.431809  -0.006375
 149   7   9.471045  -1.465462   1.719917  -0.001444   0.431809  -0.003344
 150   7  10.498934  -0.344438   0.313047  -0.001230   0.372926  -0.003299
 151   7   9.368691  -0.073489  -0.804811  -0.001219   0.314043  -0.003881
 152   7   8.584697  -0.859991  -0.455724  -0.002574   0.392554  -0.006557
 153   8  10.571065   5.812605   0.314048  -0.003653   0.588831  -0.006204
 154   8  10.926573   5.728534   2.317963  -0.000900   0.372926  -0.002413
 155   8   9.279854   6.492616   1.676806  -0.001179   0.353299  -0.003336
 156   8   8.879143   5.532393  -0.405473  -0.001239   0.353299  -0.003507
 157   8  10.456209   4.237639  -0.686544  -0.000963   0.372926  -0.002583
 158   8  11.706507   4.381776   0.926014  -0.001166   0.412182  -0.002829
 159   8  10.249619   6.316859   1.694611  -0.002166   0.490692  -0.004414
 160   8   9.192510   6.270023   0.465725  -0.002148   0.490692  -0.004377
 161   8   9.745472   5.090628  -0.691669  -0.001948   0.471065  -0.004135
 162   8  11.209495   4.534471  -0.023271  -0.001966   0.471065  -0.004175
 163   8  11.449518   5.303117   1.495334  -0.002058   0.490692  -0.004194
 164   9  10.229779   2.010283   6.482861  -0.003800   0.608459  -0.006246
 165   9   8.687832   2.604105   6.677450  -0.001499   0.353299  -0.004243
 166   9  10.067642   3.869408   5.923115  -0.000871   0.333671  -0.002611
 167   9  11.422020   2.583201   5.191565  -0.000976   0.353299  -0.002763
 168   9  10.605959   0.554464   5.274026  -0.000978   0.372926  -0.002622
 169   9   8.702170   0.633758   6.056833  -0.000922   0.353299  -0.002610
 170   9   9.305757   3.369959   6.483671  -0.002008   0.490692  -0.004092
 171   9  10.843033   3.201239   5.818718  -0.001970   0.490692  -0.004014
 172   9  11.197382   1.524950   5.433210  -0.002111   0.510320  -0.004136
 173   9   9.825704   0.620732   5.975494  -0.002061   0.490692  -0.004199
 174   9   8.771422   1.564454   6.607533  -0.002116   0.490692  -0.004313
 175  10  -0.912627   2.932280  -2.175517  -0.003798   0.608459  -0.006242
 176  10   0.737736   2.825878  -2.357375  -0.001470   0.353299  -0.004160
 177  10   0.016432   4.512419  -1.515243  -0.000847   0.333671  -0.002538
 178  10  -1.764003   3.883298  -0.838415  -0.000984   0.353299  -0.002784
 179  10  -1.884770   1.708129  -1.044767  -0.000955   0.372926  -0.002560
 180  10  -0.118268   1.016229  -1.847409  -0.000995   0.353299  -0.002818
 181  10   0.500880   3.769310  -2.112937  -0.002056   0.490692  -0.004191
 182  10  -0.970330   4.231538  -1.437857  -0.001955   0.490692  -0.003984
 183  10  -2.006753   2.845097  -1.141662  -0.002116   0.510320  -0.004146
 184  10  -1.142071   1.476458  -1.751856  -0.002079   0.490692  -0.004237
 185  10   0.220194   1.917731  -2.344400  -0.002092   0.490692  -0.004264
 186  11  -1.276702  -0.979609   3.889481  -0.003646   0.588831  -0.006191
 187  11  -1.049229   0.678606   5.050389  -0.000917   0.372926  -0.002460
 188  11   0.435843  -0.522541   4.808735  -0.001089   0.353299  -0.003083
 189  11   0.077936  -1.606991   2.780349  -0.001304   0.353299  -0.003692
 190  11  -1.682946  -0.806106   2.072957  -0.000956   0.372926  -0.002564
 191  11  -2.382290   0.535424   3.449758  -0.001169   0.412182  -0.002836
 192  11  -0.502606  -0.262871   4.962149  -0.002174   0.490692  -0.004431
 193  11   0.138183  -1.338726   3.931733  -0.002184   0.490692  -0.004451
 194  11  -0.888377  -1.434802   2.527011  -0.001939   0.471065  -0.004116
 195  11  -2.162627  -0.366128   2.892594  -0.001982   0.471065  -0.004208
 196  11  -1.842303   0.375373   4.409880  -0.002035   0.490692  -0.004147
 197  12  -0.279753   6.036947   4.060726  -0.002486   0.431809  -0.005758
 198  12   0.700774   4.588010   5.343700  -0.001206   0.333671  -0.003613
 199  12  -1.069645   5.045930   4.327729  -0.001210   0.372926  -0.003246
 200  12  -0.592089   6.130483   2.526800  -0.000823   0.294415  -0.002794
 201  12   0.932711   6.474194   2.372593  -0.001171   0.314043  -0.003729
 202  12   0.694506   5.693404   4.801224  -0.002758   0.431809  -0.006387
 203  12  -0.319658   4.805323   5.047420  -0.001453   0.431809  -0.003366
 204  12  -1.149830   5.637307   3.341211  -0.001232   0.372926  -0.003303
 205  12   0.090847   6.458345   2.719048  -0.001219   0.314043  -0.003881
 206  12   0.793668   6.443827   3.646910  -0.002571   0.392554  -0.006551
 207   1   5.625698  -0.323644   4.355143   0.000913   0.046555   0.019611
 208   2   5.945489  -0.112314   4.549040   0.000580   0.046555   0.012464
 209   3   6.424978  -0.183984   4.485495   0.000424   0.046555   0.009106
 210   1   5.970764   3.119450  -1.206209   0.000781   0.046555   0.016785
 211   2   6.294421   3.369357  -1.074624   0.000570   0.046555   0.012238
 212   3   6.769534   3.254016  -1.067630   0.000452   0.046555   0.009703
 213   1   3.360794   5.000991  -0.244394   0.000564   0.046551   0.012116
 214   2   3.680612   5.212300  -0.050522   0.000761   0.046551   0.016339
 215   4   2.881290   5.072375  -0.180557   0.000427   0.046551   0.009183
 216   1   3.016392   1.515171   5.376738   0.000636   0.046551   0.013663
 217   2   3.340026   1.765108   5.508320   0.000882   0.046551   0.018957
 218   4   2.541208   1.630284   5.370059   0.000425   0.046551   0.009125
 219   2   4.082418   1.343514   5.576546   0.002797   0.221821   0.012608
 220   2   5.308173   0.188933   4.936794   0.002586   0.221821   0.011658
 221   1   4.248552   0.455419   4.961637   0.006710   0.464045   0.014461
 222   2   5.677635   3.886498  -1.033519   0.002594   0.222355   0.011666
 223   2   4.449099   5.043629  -0.392217   0.002702   0.222355   0.012150
 224   1   4.609952   4.087209  -0.899688   0.006858   0.465353   0.014738
 225   1   6.354715  -1.178752   2.415703   0.000148   0.069203   0.002138
 226   3   7.159800  -1.114774   2.564799   0.000034   0.069203   0.000491
 227   7   7.286753  -1.193688   2.299879  -0.000204   0.069203  -0.002947
 228   1   6.563857   1.019805  -1.068498   0.000200   0.069203   0.002892
 229   3   7.374115   1.138159  -1.005578   0.000018   0.069203   0.000266
 230   7   7.481991   0.858709  -0.952693  -0.000195   0.069203  -0.002819
 231   3   6.818010  -0.673806   3.808405   0.001603   0.566359   0.002830
 232   1   5.767965  -1.039587   3.255333   0.002865   0.566359   0.005059
 233   3   7.189459   2.037973  -1.167716   0.001265   0.549817   0.002301
 234   1   5.984399   2.238296  -1.369025   0.003554   0.549817   0.006464
 235   1   2.097133  -0.494024  -0.900990  -0.000072   0.014473  -0.004965
 236   4   1.632970  -0.359406  -0.830851  -0.000049   0.014473  -0.003394
 237   5   2.336447  -0.675147  -0.901112  -0.000077   0.014473  -0.005287
 238   1   2.002379  -1.452922   0.645118  -0.000058   0.014473  -0.004004
 239   4   1.539549  -1.304818   0.693512  -0.000049   0.014473  -0.003417
 240   5   2.250305  -1.546899   0.504483  -0.000068   0.014473  -0.004703
 241   1   2.496238   3.676670  -1.468999   0.000159   0.025867   0.006162
 242   4   2.024258   3.802993  -1.468889   0.000054   0.025867   0.002081
 243  10   1.761655   3.722408  -1.597094  -0.000022   0.025867  -0.000854
 244   1   1.825336   0.685906  -1.543278  -0.000031   0.025867  -0.001198
 245   4   1.344626   0.773314  -1.544134  -0.000048   0.025867  -0.001865
 246  10   1.142933   0.964252  -1.665596  -0.000091   0.025867  -0.003535
 247   1   1.609521  -1.486231   1.943148  -0.000021   0.025882  -0.000797
 248   4   1.126539  -1.421688   1.979002  -0.000046   0.025882  -0.001778
 249  11   0.904666  -1.434793   2.185134  -0.000070   0.025882  -0.002707
 250   1   2.117962  -0.132767   4.648633   0.000108   0.025882   0.004176
 251   4   1.641594  -0.050616   4.719683   0.000038   0.025882   0.001455
 252  11   1.373563  -0.186595   4.680200  -0.000038   0.025882  -0.001482
 253   4   2.378785   4.608508  -0.774545   0.000742   0.282995   0.002623
 254   1   2.988183   4.208882  -1.053038   0.001217   0.282995   0.004299
 255   4   1.377822   0.280408  -1.274196  -0.000127   0.189745  -0.000667
 256   1   2.027575  -0.060372  -1.197026  -0.000205   0.189745  -0.001082
 257   4   1.200943  -1.368608   1.202929  -0.000111   0.187230  -0.000592
 258   1   1.892777  -1.553378   1.376395  -0.000113   0.187230  -0.000604
 259   4   1.934055   0.604984   5.039923   0.000588   0.285268   0.002060
 260   1   2.695053   0.764219   5.117508   0.001420   0.285268   0.004979
 261   1   6.119516   0.631086  -1.145259  -0.000013   0.082211  -0.000154
 262   5   6.067964   0.332642  -1.127849  -0.000217   0.082211  -0.002642
 263   7   7.016234   0.507198  -0.895881  -0.000107   0.082211  -0.001297
 264   1   5.931866  -1.382243   2.106445  -0.000032   0.082211  -0.000387
 265   5   5.897390  -1.497469   1.827942  -0.000218   0.082211  -0.002657
 266   7   6.851417  -1.261147   1.960152  -0.000106   0.082211  -0.001295
 267   5   2.778710  -0.716518  -1.178290  -0.000328   0.071360  -0.004602
 268   5   3.661163  -0.160155  -1.675955  -0.000621   0.160101  -0.003882
 269   5   5.007317   0.199894  -1.623906  -0.000489   0.160101  -0.003056
 270   1   2.844842  -0.159306  -1.409757  -0.000632   0.154828  -0.004079
 271   1   4.217233   0.480363  -1.809234  -0.000197   0.154828  -0.001270
 272   1   5.447882   0.672603  -1.534360   0.000020   0.087182   0.000234
 273   5   5.241512  -1.829834   1.858637  -0.000204   0.071615  -0.002847
 274   5   4.116382  -2.080232   1.731243  -0.000517   0.160807  -0.003215
 275   5   2.958119  -1.951002   0.957644  -0.000804   0.160807  -0.004997
 276   1   4.758981  -1.793356   2.226803  -0.000213   0.155261  -0.001371
 277   1   3.266615  -1.946771   1.761151  -0.000407   0.155261  -0.002624
 278   1   2.364522  -1.685390   0.891819  -0.000227   0.087494  -0.002590
 279   7   7.376678  -1.345367   2.153651  -0.000009   0.027529  -0.000336
 280   1   6.006083  -1.461077   2.332225   0.000157   0.038901   0.004041
 281   7   7.558456   0.609907  -1.011570  -0.000035   0.038699  -0.000893
 282   1   6.225210   0.841795  -1.316323   0.000240   0.054685   0.004390
 283  10   1.597719   3.363800  -1.851644  -0.000411   0.203214  -0.002024
 284  10   1.306379   1.919880  -1.958626  -0.001794   0.416894  -0.004302
 285   1   2.587028   2.627938  -1.828857   0.000713   0.555868   0.001282
 286   1   2.191308   0.996107  -1.804611   0.000262   0.286384   0.000914
 287  11   0.868883  -1.466531   2.652250  -0.000573   0.203316  -0.002819
 288  11   1.138661  -0.883392   3.982915  -0.001649   0.417119  -0.003954
 289   1   2.061514  -1.384511   2.955197   0.000215   0.556129   0.000386
 290   1   2.316795  -0.581999   4.409082   0.000843   0.286528   0.002943
 291   2   7.307466   6.338960   3.659136  -0.000072   0.014464  -0.004945
 292   3   7.770236   6.190610   3.611032  -0.000049   0.014464  -0.003397
 293   6   7.059462   6.433061   3.799569  -0.000076   0.014464  -0.005286
 294   2   7.211132   5.380312   5.204164  -0.000058   0.014464  -0.003982
 295   3   7.675257   5.245444   5.134330  -0.000048   0.014464  -0.003343
 296   6   6.971883   5.561536   5.204182  -0.000068   0.014464  -0.004696
 297   2   7.199601   5.039441  -0.329696   0.000156   0.025851   0.006026
 298   3   7.676028   4.957286  -0.400269   0.000048   0.025851   0.001870
 299   8   7.944218   5.092490  -0.359373  -0.000025   0.025851  -0.000986
 300   2   7.703157   6.373060   2.383036  -0.000033   0.025851  -0.001259
 301   3   8.186136   6.308259   2.347763  -0.000048   0.025851  -0.001863
 302   8   8.408609   6.322385   2.142374  -0.000091   0.025851  -0.003539
 303   2   7.477786   4.179059   5.855859  -0.000019   0.025891  -0.000732
 304   3   7.958392   4.091146   5.857146  -0.000047   0.025891  -0.001824
 305   9   8.159482   3.899090   5.977883  -0.000069   0.025891  -0.002663
 306   2   6.803323   1.187060   5.759872   0.000113   0.025891   0.004350
 307   3   7.275156   1.060229   5.759910   0.000032   0.025891   0.001228
 308   9   7.537475   1.139796   5.889362  -0.000039   0.025891  -0.001489
 309   3   8.100513   6.287596   2.889304  -0.000102   0.183646  -0.000553
 310   2   7.428106   6.406432   3.162490  -0.000200   0.183646  -0.001089
 311   3   7.960507   4.786094   5.452367  -0.000096   0.193619  -0.000497
 312   2   7.245554   4.744791   5.635592  -0.000119   0.193619  -0.000617
 313   3   6.995827   0.512827   5.296969   0.000608   0.278083   0.002187
 314   2   6.242852   0.421890   5.125551   0.001315   0.278083   0.004728
 315   3   7.300387   3.977511  -0.860656   0.000753   0.290065   0.002596
 316   2   6.699039   4.445092  -0.675701   0.001301   0.290065   0.004487
 317   2   2.743698   3.885432   5.364334   0.000155   0.069203   0.002239
 318   4   1.933362   3.767243   5.301637   0.000035   0.069203   0.000506
 319  12   1.825644   4.046425   5.247056  -0.000201   0.069203  -0.002911
 320   2   2.956281   6.063346   1.867858   0.000192   0.069203   0.002780
 321   4   2.151204   5.999037   1.718663   0.000014   0.069203   0.000209
 322  12   2.024095   6.079555   1.983021  -0.000200   0.069203  -0.002884
 323   4   2.185114   2.460990   5.478601   0.001613   0.556165   0.002901
 324   2   3.259239   3.053424   5.656947   0.002828   0.556165   0.005086
 325   4   2.401298   5.731274   0.845946   0.001237   0.560016   0.002208
 326   2   3.630127   5.754208   0.678070   0.003554   0.560016   0.006347
 327   2   3.380901   6.272056   2.193176  -0.000010   0.082222  -0.000117
 328   6   3.415040   6.387116   2.471799  -0.000219   0.082222  -0.002662
 329  12   2.460872   6.151812   2.337712  -0.000105   0.082222  -0.001281
 330   2   3.185242   4.257503   5.443249  -0.000036   0.082222  -0.000444
 331   6   3.237187   4.555903   5.426090  -0.000217   0.082222  -0.002640
 332  12   2.289024   4.382419   5.192268  -0.000109   0.082222  -0.001322
 333   6   6.641556   6.723878   3.674460  -0.000330   0.071582  -0.004610
 334   6   5.835726   6.969263   2.878188  -0.000626   0.160714  -0.003895
 335   6   4.507787   6.834027   2.461843  -0.000493   0.160714  -0.003068
 336   2   6.625741   6.686059   3.067939  -0.000636   0.155208  -0.004101
 337   2   5.326778   6.832436   2.198052  -0.000199   0.155208  -0.001283
 338   2   4.085487   6.566027   2.041293   0.000019   0.087454   0.000220
 339   6   3.868970   4.642369   5.792074  -0.000203   0.071429  -0.002842
 340   6   4.983198   4.807446   6.055742  -0.000514   0.160290  -0.003210
 341   6   6.207085   5.376759   5.701231  -0.000800   0.160290  -0.004989
 342   2   4.318217   4.271323   5.963203  -0.000214   0.154948  -0.001382
 343   2   5.831455   4.674641   6.023912  -0.000406   0.154948  -0.002622
 344   2   6.816896   5.284023   5.487806  -0.000226   0.087266  -0.002587
 345   8   8.109992   5.468018  -0.132310  -0.000437   0.203108  -0.002152
 346   8   8.327215   6.177518   1.143809  -0.001803   0.416662  -0.004328
 347   2   7.082423   5.825180   0.448255   0.000686   0.555592   0.001234
 348   2   7.380753   6.493049   1.958950   0.000255   0.286235   0.000890
 349   9   8.150746   3.491379   6.210946  -0.000562   0.203382  -0.002763
 350   9   7.794708   2.056968   6.236117  -0.001628   0.417265  -0.003901
 351   2   6.942124   3.251422   6.159616   0.000232   0.556301   0.000417
 352   2   6.601818   1.609713   6.042112   0.000876   0.286622   0.003055
 353  12   1.742460   4.259068   5.310469  -0.000017   0.034542  -0.000490
 354   2   3.085666   4.082463   5.608782   0.000184   0.048812   0.003775
 355  12   1.937798   6.241145   2.158704  -0.000024   0.031666  -0.000754
 356   2   3.303522   6.342009   1.937555   0.000208   0.044748   0.004653
 357   6   6.901558   5.898371   5.009251  -0.000733   0.178435  -0.004110
 358   6   6.953263   6.412907   4.179986  -0.000713   0.178435  -0.003996
 359   3   7.984575   5.774915   4.424304  -0.000613   0.491654  -0.001247
 360   7   8.168591   0.828036  -1.062117  -0.000193   0.070967  -0.002724
 361   7   9.301047   0.923538  -0.931403  -0.000328   0.158621  -0.002069
 362   7  10.423964   0.632818  -0.181787  -0.000460   0.158621  -0.002899
 363   7  10.810825  -0.023049   0.970412  -0.000502   0.158621  -0.003163
 364   7  10.291831  -0.756193   2.019473  -0.000419   0.158621  -0.002644
 365   7   9.094777  -1.244824   2.504948  -0.000319   0.158621  -0.002010
 366   7   7.962109  -1.342554   2.377765  -0.000197   0.070967  -0.002779
 367   3   8.549560   1.298128  -1.084578  -0.000254   0.154565  -0.001642
 368   3  10.030929   1.245343  -0.627714  -0.000037   0.154565  -0.000242
 369   3  10.929490   0.681971   0.504172  -0.000243   0.154565  -0.001570
 370   3  10.850850  -0.144715   1.814277  -0.000285   0.154565  -0.001841
 371   3   9.829525  -0.871867   2.727573  -0.000120   0.154565  -0.000773
 372   3   8.313792  -1.180329   2.843201  -0.000277   0.154565  -0.001790
 373   8   8.937354   6.356819   2.216146  -0.000180   0.068776  -0.002624
 374   8   9.871601   6.041034   2.720798  -0.000401   0.152490  -0.002632
 375   8  10.984453   5.295140   2.721838  -0.000371   0.152490  -0.002431
 376   8  11.663969   4.394322   1.999632  -0.000374   0.152490  -0.002453
 377   8  11.631927   3.707411   0.849882  -0.000434   0.152490  -0.002846
 378   8  10.901445   3.515660  -0.256656  -0.000305   0.152490  -0.001999
 379   8   9.771615   3.897577  -0.866918  -0.000392   0.152490  -0.002571
 380   8   8.705036   4.696792  -0.731037  -0.000457   0.152490  -0.002999
 381   3   9.048578   6.171202   2.772344  -0.000401   0.150966  -0.002657
 382   3  10.354913   5.559674   3.202119  -0.000152   0.150966  -0.001008
 383   3  11.417564   4.583379   2.774558  -0.000129   0.150966  -0.000851
 384   3  11.801435   3.642054   1.664722  -0.000209   0.150966  -0.001383
 385   3  11.349353   3.121117   0.327025  -0.000158   0.150966  -0.001047
 386   3  10.246421   3.233862  -0.690823  -0.000063   0.150966  -0.000418
 387   3   8.944225   3.934126  -0.972072  -0.000121   0.150966  -0.000802
 388   3   8.073381   4.724476  -0.637468  -0.000028   0.084025  -0.000339
 389   9   7.994488   0.864403   5.927620  -0.000144   0.068757  -0.002098
 390   9   8.785311   0.226701   5.486886  -0.000404   0.152432  -0.002649
 391   9   9.997056   0.116759   4.927297  -0.000285   0.152432  -0.001871
 392   9  11.062235   0.832196   4.543767  -0.000426   0.152432  -0.002795
 393   9  11.545093   2.080332   4.493195  -0.000455   0.152432  -0.002985
 394   9  11.248095   3.350565   4.796270  -0.000328   0.152432  -0.002151
 395   9  10.292742   4.123252   5.329006  -0.000337   0.152432  -0.002211
 396   9   9.069860   4.082292   5.873465  -0.000520   0.152432  -0.003409
 397   3   7.978856   0.440830   5.507577  -0.000243   0.150938  -0.001609
 398   3   9.208624  -0.152188   4.875415  -0.000129   0.150938  -0.000852
 399   3  10.558495   0.206778   4.316289  -0.000058   0.150938  -0.000386
 400   3  11.476246   1.370879   4.058932  -0.000223   0.150938  -0.001480
 401   3  11.586432   2.863889   4.208628  -0.000212   0.150938  -0.001405
 402   3  10.843978   4.075030   4.704136  -0.000048   0.150938  -0.000320
 403   3   9.552616   4.508833   5.342750  -0.000177   0.150938  -0.001172
 404   3   8.453250   4.233399   5.800373  -0.000128   0.084001  -0.001529
 405   5   2.356182  -1.526705   0.123808  -0.000735   0.178530  -0.004116
 406   5   2.407040  -1.012035  -0.706036  -0.000714   0.178530  -0.003997
 407   4   1.324406  -0.889170  -0.120105  -0.000597   0.491905  -0.001215
 408  10   0.612500   0.913143  -1.712762  -0.000188   0.068771  -0.002734
 409  10  -0.380144   0.651419  -1.296752  -0.000454   0.152473  -0.002977
 410  10  -1.529081   1.039693  -0.727927  -0.000294   0.152473  -0.001926
 411  10  -2.190429   2.120058  -0.292262  -0.000423   0.152473  -0.002772
 412  10  -2.093490   3.450305  -0.168080  -0.000459   0.152473  -0.003011
 413  10  -1.277940   4.485943  -0.406211  -0.000336   0.152473  -0.002205
 414  10  -0.077598   4.803072  -0.909185  -0.000345   0.152473  -0.002259
 415  10   1.016219   4.271884  -1.471127  -0.000448   0.152473  -0.002941
 416   4   0.440788   0.501253  -1.316501  -0.000381   0.150961  -0.002521
 417   4  -0.931805   0.457102  -0.701119  -0.000085   0.150961  -0.000564
 418   4  -2.005061   1.327807  -0.105591  -0.000091   0.150961  -0.000603
 419   4  -2.339680   2.756975   0.226323  -0.000223   0.150961  -0.001479
 420   4  -1.798696   4.159627   0.158766  -0.000197   0.150961  -0.001303
 421   4  -0.603544   4.961635  -0.280610  -0.000065   0.150961  -0.000431
 422   4   0.756584   4.834727  -0.911961  -0.000226   0.150961  -0.001494
 423   4   1.637336   4.140107  -1.398157  -0.000011   0.084019  -0.000134
 424  11   0.900027  -0.074704   4.902502  -0.000140   0.068759  -0.002036
 425  11   0.117454   0.644530   5.213593  -0.000353   0.152440  -0.002313
 426  11  -1.042843   1.264109   4.961322  -0.000356   0.152440  -0.002335
 427  11  -2.026374   1.356890   4.056963  -0.000376   0.152440  -0.002467
 428  11  -2.430702   0.884911   2.870556  -0.000426   0.152440  -0.002793
 429  11  -2.090388   0.041293   1.887550  -0.000313   0.152440  -0.002056
 430  11  -1.144679  -0.828777   1.510165  -0.000409   0.152440  -0.002680
 431  11   0.019465  -1.369288   1.892818  -0.000524   0.152440  -0.003439
 432   4   0.929586   0.486438   5.103366  -0.000280   0.150938  -0.001858
 433   4  -0.269519   1.383094   5.252035  -0.000083   0.150938  -0.000551
 434   4  -1.540496   1.805420   4.566322  -0.000119   0.150938  -0.000790
 435   4  -2.363295   1.580611   3.326801  -0.000216   0.150938  -0.001434
 436   4  -2.401246   0.800653   2.040655  -0.000170   0.150938  -0.001127
 437   4  -1.638822  -0.215315   1.234141  -0.000134   0.150938  -0.000890
 438   4  -0.387986  -1.051584   1.237265  -0.000205   0.150938  -0.001355
 439   4   0.647814  -1.404706   1.781817  -0.000132   0.084004  -0.001576
 440  12   1.348845   6.228422   1.903810  -0.000193   0.070972  -0.002725
 441  12   0.216131   6.130647   1.776334  -0.000337   0.158635  -0.002127
 442  12  -0.981641   5.645524   2.263816  -0.000467   0.158635  -0.002943
 443  12  -1.501786   4.918741   3.316848  -0.000501   0.158635  -0.003156
 444  12  -1.115968   4.269345   4.473166  -0.000434   0.158635  -0.002738
 445  12   0.006444   3.982411   5.225163  -0.000334   0.158635  -0.002105
 446  12   1.138958   4.078131   5.355938  -0.000202   0.070972  -0.002848
 447   4   0.997379   6.063715   1.439057  -0.000199   0.154573  -0.001289
 448   4  -0.518729   5.756832   1.555362  -0.000130   0.154573  -0.000842
 449   4  -1.541175   5.035546   2.472224  -0.000233   0.154573  -0.001507
 450   4  -1.621122   4.216491   3.787155  -0.000244   0.154573  -0.001581
 451   4  -0.723474   3.659219   4.922920  -0.000114   0.154573  -0.000740
 452   4   0.757715   3.608364   5.380936  -0.000190   0.154573  -0.001231
 453   7   7.360064  -1.525833   1.716202  -0.000221   0.221037  -0.001002
 454   7   7.524919  -1.473851   0.658993  -0.001341   0.442071  -0.003032
 455   7   7.589165  -0.784549  -0.454290  -0.001394   0.442071  -0.003153
 456   7   7.515774   0.144799  -0.982017  -0.000243   0.221037  -0.001098
 457   5   6.050360  -1.769016   1.086596  -0.001063   0.442071  -0.002405
 458   5   6.203682  -1.453590  -0.176599  -0.001597   0.442071  -0.003612
 459   5   6.172489  -0.458672  -1.029726  -0.001095   0.442071  -0.002477
 460  12   1.789652   4.745279   5.277713  -0.000237   0.221044  -0.001073
 461  12   1.718206   5.674861   4.750333  -0.001358   0.442084  -0.003072
 462  12   1.785194   6.364581   3.637609  -0.001378   0.442084  -0.003118
 463  12   1.952009   6.416940   2.580827  -0.000230   0.221044  -0.001040
 464   6   3.133687   5.347320   5.328208  -0.001059   0.442084  -0.002395
 465   6   3.105096   6.342585   4.475574  -0.001597   0.442084  -0.003613
 466   6   3.261030   6.658468   3.212935  -0.001101   0.442084  -0.002491
 =====================================================

              1471473  WORDS OF DYNAMIC MEMORY USED
 EXECUTION OF GAMESS TERMINATED NORMALLY Sun Nov 27 14:44:17 2016
 DDI: 263640 bytes (0.3 MB / 0 MWords) used by master data server.

 ----------------------------------------
 CPU timing information for all processes
 ========================================
 0: 88.192 + 0.80 = 88.272
 ----------------------------------------
 ddikick.x: exited gracefully.
