----- GAMESS execution script -----

          ******************************************************
          *         GAMESS VERSION =  5 DEC 2014 (R1)          *
          *             FROM IOWA STATE UNIVERSITY             *
          * M.W.SCHMIDT, K.K.BALDRIDGE, J.A.BOATZ, S.T.ELBERT, *
          *   M.S.GORDON, J.H.JENSEN, S.KOSEKI, N.MATSUNAGA,   *
          *          K.A.NGUYEN, S.J.SU, T.L.WINDUS,           *
          *       TOGETHER WITH M.DUPUIS, J.A.MONTGOMERY       *
          *         J.COMPUT.CHEM.  14, 1347-1363(1993)        *
          **************** 64 BIT LINUX VERSION ****************

 EXECUTION OF GAMESS BEGUN Sun Nov 27 14:44:20 2016

            ECHO OF THE FIRST FEW INPUT CARDS -
 INPUT CARD>! SELECT RESTRICTED HARTREE-FOCK AS DEFAULT                                     
 INPUT CARD>$contrl scftyp=rhf $end                                                         
 INPUT CARD>                                                                                
 INPUT CARD>! THEORY: HF OR DFT                                                             
 INPUT CARD> $contrl mplevl=0 $end                                                          
 INPUT CARD>                                                                                
 INPUT CARD> $system timlim=10000 mwords=20 $end                                            
 INPUT CARD> $SCF DIRSCF=.TRUE. $end                                                        
 INPUT CARD>                                                                                
 INPUT CARD>                                                                                
 INPUT CARD>! BASIS SETS                                                                    
 INPUT CARD>! 6-311G(d,p)                                                                   
 INPUT CARD> $BASIS GBASIS=N311 NGAUSS=6 NDFUNC=1 NPFUNC=1 $END                             
 INPUT CARD>                                                                                
 INPUT CARD>! One of the following                                                          
 INPUT CARD> $guess guess=HUCKEL $end                                                       
 INPUT CARD>                                                                                
 INPUT CARD> $statpt projct=.FALSE. $end                                                    
 INPUT CARD> $STATPT IFREEZ(1)=1,2,3 $END                                                   
 INPUT CARD>                                                                                
 INPUT CARD>! Optimize the geometry with COSMO effects                                      
 INPUT CARD> $statpt opttol=0.0005 nstep=50 $end                                            
 INPUT CARD> $contrl nzvar=1 $end                                                           
 INPUT CARD> $zmat dlc=.t. auto=.t. $end                                                    
 INPUT CARD> $contrl runtyp=OPTIMIZE maxit=200 $end                                         
 INPUT CARD>                                                                                
 INPUT CARD>! Run COSMO on perfect conductor                                                
 INPUT CARD> $COSGMS PRFCND=.TRUE. $end                                                     
 INPUT CARD>                                                                                
 INPUT CARD>! Specifying RSOLV                                                              
 INPUT CARD> $COSGMS COSRAD = 1.4 $end                                                      
 INPUT CARD>                                                                                
 INPUT CARD>! available memory                                                              
 INPUT CARD> $SYSTEM MWORDS=40 $END                                                         
 INPUT CARD>                                                                                
 INPUT CARD> $DATA                                                                          
 INPUT CARD>                                                                                
 INPUT CARD>C1                                                                              
 INPUT CARD>C      6.0     -1.2686000000    0.7330000000    1.6057000000                    
 INPUT CARD>O      8.0     -1.2484000000    1.2535000000    2.9588000000                    
 INPUT CARD>C      6.0     -2.1548000000    1.6451000000    0.7411000000                    
 INPUT CARD>C      6.0      0.1812000000    0.7056000000    1.1101000000                    
 INPUT CARD>C      6.0     -2.1906000000    0.7663000000    3.8119000000                    
 INPUT CARD>O      8.0     -2.9985000000   -0.1154000000    3.5604000000                    
 INPUT CARD>C      6.0     -2.0822000000    1.4527000000    5.1393000000                    
 INPUT CARD>O      8.0     -3.5326000000    1.5647000000    1.1537000000                    
 INPUT CARD>O      8.0      0.2920000000    0.0234000000   -0.1491000000                    
 INPUT CARD>C      6.0     -4.2119000000    0.4850000000    0.6744000000                    
 INPUT CARD>C      6.0     -5.5910000000    0.4421000000    1.2565000000                    
 INPUT CARD>O      8.0     -3.7571000000   -0.3487000000   -0.0971000000                    
   40000000 WORDS OF MEMORY AVAILABLE

     BASIS OPTIONS
     -------------
     GBASIS=N311         IGAUSS=       6      POLAR=POPN311 
     NDFUNC=       1     NFFUNC=       0     DIFFSP=       F
     NPFUNC=       1      DIFFS=       F     BASNAM=        


     RUN TITLE
     ---------
                                                                                 

 THE POINT GROUP OF THE MOLECULE IS C1      
 THE ORDER OF THE PRINCIPAL AXIS IS     0

 ATOM      ATOMIC                      COORDINATES (BOHR)
           CHARGE         X                   Y                   Z
 C           6.0    -2.3973063880        1.3851691490        3.0343330185
 O           8.0    -2.3591339231        2.3687715256        5.5913212525
 C           6.0    -4.0719815583        3.1087882224        1.4004759295
 C           6.0     0.3424183490        1.3333906569        2.0977848190
 C           6.0    -4.1396337487        1.4480970244        7.2034464926
 O           8.0    -5.6663433742       -0.2180743790        6.7281804067
 C           6.0    -3.9347874516        2.7452049424        9.7118687687
 O           8.0    -6.6756460242        2.9568542530        2.1801768720
 O           8.0     0.5517999884        0.0442195881       -0.2817581448
 C           6.0    -7.9593368877        0.9165171040        1.2744312061
 C           6.0   -10.5654579974        0.8354478592        2.3744407036
 O           8.0    -7.0998895085       -0.6589474519       -0.1834923934
 C           6.0     0.7311349846        1.5227412009       -2.3734958406
 C           6.0     0.8362037496       -0.0589594508       -4.7194016817
 O           8.0     0.7264106697        3.8344430017       -2.3727399502
 H           1.0    -3.1290082905       -0.5531227966        3.0186482928
 H           1.0    -3.9353543694        2.6747181630       -0.6168065624
 H           1.0    -3.5097880770        5.0860085234        1.6495418147
 H           1.0     1.5015762698        0.2751441038        3.4512065714
 H           1.0     1.1640712084        3.2367226718        2.0482739981
 H           1.0    -5.6164546081        2.3209614581       10.8364447040
 H           1.0    -3.8482380014        4.7919671597        9.4435276784
 H           1.0    -2.2578446101        2.0732183811       10.7102110080
 H           1.0   -11.4215038698        2.7147803540        2.3132135816
 H           1.0   -10.4796644375        0.1490993804        4.3191577175
 H           1.0   -11.7418124247       -0.4378495114        1.2498647683
 H           1.0     2.4989736462        0.4669512916       -5.8245134394
 H           1.0    -0.8881712142        0.2403731456       -5.8156317272
 H           1.0     0.9786890890       -2.0669822854       -4.2494268286

          INTERNUCLEAR DISTANCES (ANGS.)




     $CONTRL OPTIONS
     ---------------
 SCFTYP=RHF          RUNTYP=OPTIMIZE     EXETYP=RUN     
 MPLEVL=       0     CITYP =NONE         CCTYP =NONE         VBTYP =NONE    
 DFTTYP=NONE         TDDFT =NONE    
 MULT  =       1     ICHARG=       0     NZVAR =       1     COORD =UNIQUE  
 PP    =NONE         RELWFN=NONE         LOCAL =NONE         NUMGRD=       F
 ISPHER=      -1     NOSYM =       0     MAXIT =     200     UNITS =ANGS    
 PLTORB=       F     MOLPLT=       F     AIMPAC=       F     FRIEND=        
 NPRINT=       7     IREST =       0     GEOM  =INPUT   
 NORMF =       0     NORMP =       0     ITOL  =      20     ICUT  =       9
 INTTYP=BEST         GRDTYP=BEST         QMTTOL= 1.0E-06

     $SYSTEM OPTIONS
     ---------------
  REPLICATED MEMORY=    40000000 WORDS (ON EVERY NODE).
 DISTRIBUTED MEMDDI=           0 MILLION WORDS IN AGGREGATE,
 MEMDDI DISTRIBUTED OVER   1 PROCESSORS IS           0 WORDS/PROCESSOR.
 TOTAL MEMORY REQUESTED ON EACH PROCESSOR=    40000000 WORDS.
 TIMLIM=       10000.00 MINUTES, OR       6.9 DAYS.
 PARALL= F  BALTYP=  DLB     KDIAG=    0  COREFL= F
 MXSEQ2=     300 MXSEQ3=     150  mem10=         0

     $COSGMS OPTIONS
     ---------------
     EPSI  =   INFTY     NSPA  =      92     COSRAD=    1.40
     DISEX =   10.00     OUTCHG=DBLCAV       COSBUG=       F
     COSWRT=       F     DCOSMO=       F

     SYMMETRY COORDINATES WILL NOT BE USED FOR 
     THE COSMO CALCULATION, EVEN IF SPECIFIED:
         -- SWITCHING TO C1 POINT GROUP --


     DEFINITION OF CAVITY
     ---------------------------
     ATOM         COORDINATES           RADIUS 
     1   -2.3973    1.3852    3.0343    2.0000
     2   -2.3591    2.3688    5.5913    1.7200
     3   -4.0720    3.1088    1.4005    2.0000
     4    0.3424    1.3334    2.0978    2.0000
     5   -4.1396    1.4481    7.2034    2.0000
     6   -5.6663   -0.2181    6.7282    1.7200
     7   -3.9348    2.7452    9.7119    2.0000
     8   -6.6756    2.9569    2.1802    1.7200
     9    0.5518    0.0442   -0.2818    1.7200
    10   -7.9593    0.9165    1.2744    2.0000
    11  -10.5655    0.8354    2.3744    2.0000
    12   -7.0999   -0.6589   -0.1835    1.7200
    13    0.7311    1.5227   -2.3735    2.0000
    14    0.8362   -0.0590   -4.7194    2.0000
    15    0.7264    3.8344   -2.3727    1.7200
    16   -3.1290   -0.5531    3.0186    1.3000
    17   -3.9354    2.6747   -0.6168    1.3000
    18   -3.5098    5.0860    1.6495    1.3000
    19    1.5016    0.2751    3.4512    1.3000
    20    1.1641    3.2367    2.0483    1.3000
    21   -5.6165    2.3210   10.8364    1.3000
    22   -3.8482    4.7920    9.4435    1.3000
    23   -2.2578    2.0732   10.7102    1.3000
    24  -11.4215    2.7148    2.3132    1.3000
    25  -10.4797    0.1491    4.3192    1.3000
    26  -11.7418   -0.4378    1.2499    1.3000
    27    2.4990    0.4670   -5.8245    1.3000
    28   -0.8882    0.2404   -5.8156    1.3000
    29    0.9787   -2.0670   -4.2494    1.3000

          ----------------
          PROPERTIES INPUT
          ----------------

     MOMENTS            FIELD           POTENTIAL          DENSITY
 IEMOM =       1   IEFLD =       0   IEPOT =       0   IEDEN =       0
 WHERE =COMASS     WHERE =NUCLEI     WHERE =NUCLEI     WHERE =NUCLEI  
 OUTPUT=BOTH       OUTPUT=BOTH       OUTPUT=BOTH       OUTPUT=BOTH    
 IEMINT=       0   IEFINT=       0                     IEDINT=       0
                                                       MORB  =       0
          EXTRAPOLATION IN EFFECT
          SOSCF IN EFFECT
 ORBITAL PRINTING OPTION: NPREO=     1   369     2     1

     -------------------------------
     INTEGRAL TRANSFORMATION OPTIONS
     -------------------------------
     NWORD  =            0
     CUTOFF = 1.0E-09     MPTRAN =       0
     DIRTRF =       T     AOINTS =DUP     

          ----------------------
          INTEGRAL INPUT OPTIONS
          ----------------------
 NOPK  =       1 NORDER=       0 SCHWRZ=       T


 -----------------------------------------------
  STATISTICS ON AUTOMATIC COORDINATE GENERATION 
 -----------------------------------------------
  NUMBER OF USER SPECIFIED BONDS                             0
  NUMBER OF BONDS                                           28
  NUMBER OF ANGLES                                          48
  NUMBER OF TORSIONS                                        51
  NUMBER OF EXTRA COORD.                                     0
  NUMBER OF EXTRA COORD. FOR CONSTRAINTS                     0
  NUMBER OF CONSTRAINED COORD.                               0

  TOTAL NUMBER OF PRIMITIVES                               127
 -----------------------------------------------

   --- ENCODED Z MATRIX ---
 COORD  TYPE   I   J   K   L   M   N
    1      1    1   2
    2      1    1   4
    3      1    1   3
    4      1    1  16
    5      1    2   5
    6      1    3   8
    7      1    3  18
    8      1    3  17
    9      1    4  20
   10      1    4  19
   11      1    4   9
   12      1    5   7
   13      1    5   6
   14      1    7  23
   15      1    7  21
   16      1    7  22
   17      1    8  10
   18      1    9  13
   19      1   10  12
   20      1   10  11
   21      1   11  26
   22      1   11  25
   23      1   11  24
   24      1   13  15
   25      1   13  14
   26      1   14  29
   27      1   14  28
   28      1   14  27
   29      2    1   4  20
   30      2    1   3  17
   31      2    1   3  18
   32      2    1   3   8
   33      2    1   4   9
   34      2    1   4  19
   35      2    1   2   5
   36      2    2   5   7
   37      2    2   1   4
   38      2    2   5   6
   39      2    2   1  16
   40      2    2   1   3
   41      2    3   1  16
   42      2    3   1   4
   43      2    3   8  10
   44      2    4   9  13
   45      2    4   1  16
   46      2    5   7  22
   47      2    5   7  21
   48      2    5   7  23
   49      2    6   5   7
   50      2    8  10  12
   51      2    8   3  17
   52      2    8   3  18
   53      2    8  10  11
   54      2    9   4  20
   55      2    9   4  19
   56      2    9  13  14
   57      2    9  13  15
   58      2   10  11  24
   59      2   10  11  25
   60      2   10  11  26
   61      2   11  10  12
   62      2   13  14  27
   63      2   13  14  28
   64      2   13  14  29
   65      2   14  13  15
   66      2   17   3  18
   67      2   19   4  20
   68      2   21   7  22
   69      2   21   7  23
   70      2   22   7  23
   71      2   24  11  25
   72      2   24  11  26
   73      2   25  11  26
   74      2   27  14  28
   75      2   27  14  29
   76      2   28  14  29
   77      3    1   3   8  10
   78      3    1   2   5   6
   79      3    1   2   5   7
   80      3    1   4   9  13
   81      3    2   5   7  22
   82      3    2   1   4   9
   83      3    2   5   7  21
   84      3    2   1   3  18
   85      3    2   5   7  23
   86      3    2   1   4  20
   87      3    2   1   3   8
   88      3    2   1   4  19
   89      3    2   1   3  17
   90      3    3   1   4   9
   91      3    3   8  10  11
   92      3    3   8  10  12
   93      3    3   1   2   5
   94      3    3   1   4  19
   95      3    3   1   4  20
   96      3    4   9  13  14
   97      3    4   9  13  15
   98      3    4   1   3   8
   99      3    4   1   2   5
  100      3    4   1   3  17
  101      3    4   1   3  18
  102      3    5   2   1  16
  103      3    6   5   7  22
  104      3    6   5   7  23
  105      3    6   5   7  21
  106      3    8   3   1  16
  107      3    8  10  11  24
  108      3    8  10  11  25
  109      3    8  10  11  26
  110      3    9  13  14  27
  111      3    9  13  14  28
  112      3    9  13  14  29
  113      3    9   4   1  16
  114      3   10   8   3  17
  115      3   10   8   3  18
  116      3   12  10  11  26
  117      3   12  10  11  25
  118      3   12  10  11  24
  119      3   13   9   4  19
  120      3   13   9   4  20
  121      3   15  13  14  29
  122      3   15  13  14  28
  123      3   15  13  14  27
  124      3   16   1   3  17
  125      3   16   1   4  20
  126      3   16   1   4  19
  127      3   16   1   3  18

          INDEP./SYM. INTERNAL COORDINATES
          --------------------------------
 CRD  1=   0.2092 ( 32) -0.4494 ( 33)  0.1463 ( 34)  0.1603 ( 35)  0.1022 ( 37)
           0.1283 ( 40) -0.2891 ( 42) -0.4494 ( 43) -0.1617 ( 51)  0.1499 ( 53)
           0.1667 ( 54)  0.1333 ( 55) -0.1153 ( 80) -0.1655 ( 87)  0.1365 ( 93)
           0.1562 ( 96) -0.2004 ( 98) -0.1092 (100) -0.1076 (119)
 CRD  2=  -0.2755 ( 32) -0.2947 ( 33) -0.5737 ( 35)  0.2185 ( 36)  0.2737 ( 37)
          -0.1330 ( 38) -0.1625 ( 40)  0.2146 ( 44)  0.1321 ( 51)  0.1341 ( 54)
           0.1152 ( 84)  0.1642 ( 87)  0.1617 ( 89) -0.1090 ( 91)  0.1027 ( 96)
          -0.1004 (101)
 CRD  3=  -0.1013 (  3)  0.1025 ( 31) -0.3534 ( 32)  0.1472 ( 35) -0.1372 ( 40)
          -0.1712 ( 43) -0.5702 ( 44)  0.1229 ( 51)  0.1267 ( 52)  0.1218 ( 55)
           0.2396 ( 56) -0.1511 ( 57)  0.1323 ( 79)  0.2350 ( 82)  0.1019 ( 86)
           0.1223 ( 88)  0.1496 ( 90) -0.1255 ( 91) -0.1593 ( 93) -0.1124 ( 99)
           0.1064 (113)
 CRD  4=  -0.1165 ( 30)  0.3260 ( 32) -0.1111 ( 33)  0.1001 ( 34) -0.1598 ( 35)
           0.1253 ( 37) -0.2841 ( 42)  0.4690 ( 43) -0.3512 ( 44)  0.1312 ( 50)
          -0.1634 ( 52) -0.2028 ( 53)  0.1225 ( 56)  0.1165 ( 79) -0.1486 ( 80)
           0.1337 ( 82)  0.1106 ( 87)  0.1088 ( 90)  0.1642 ( 91)  0.1271 ( 92)
           0.1382 ( 93) -0.1014 ( 99)  0.1114 (106)
 CRD  5=  -0.1511 (  1) -0.1301 (  2) -0.1214 (  5) -0.2163 ( 11) -0.1497 ( 18)
          -0.1318 ( 25)  0.1321 ( 31) -0.2061 ( 33) -0.1607 ( 35) -0.2744 ( 37)
           0.2732 ( 40) -0.1472 ( 41)  0.1259 ( 42)  0.1324 ( 43) -0.1724 ( 44)
          -0.1016 ( 48) -0.1545 ( 56)  0.1071 ( 65)  0.1738 ( 77) -0.2214 ( 78)
          -0.3181 ( 79) -0.1251 ( 82) -0.1314 ( 86) -0.1096 ( 88)  0.1081 ( 90)
           0.1236 ( 94)  0.1018 ( 95)  0.1719 ( 96)  0.1465 ( 97)
 CRD  6=  -0.1446 (  1) -0.1198 (  5) -0.1373 ( 11) -0.1020 ( 18)  0.1210 ( 30)
          -0.1506 ( 31) -0.2443 ( 33)  0.1559 ( 35) -0.2535 ( 36)  0.1201 ( 38)
           0.1021 ( 39) -0.2051 ( 40)  0.1895 ( 42)  0.2666 ( 43) -0.1076 ( 46)
           0.1342 ( 49)  0.1010 ( 54) -0.1917 ( 56)  0.1006 ( 65) -0.2807 ( 77)
           0.1884 ( 78)  0.2320 ( 79) -0.1088 ( 90) -0.1345 ( 91) -0.1766 ( 92)
           0.1740 ( 96)  0.1285 ( 97)  0.1142 ( 99) -0.1183 (114) -0.1267 (115)
 CRD  7=   0.1802 (  2)  0.2010 (  6)  0.1246 ( 17)  0.1315 ( 20)  0.1540 ( 29)
           0.2199 ( 32) -0.1207 ( 34) -0.2021 ( 35)  0.1512 ( 36) -0.1115 ( 38)
           0.2285 ( 42) -0.1169 ( 45) -0.1326 ( 50) -0.1062 ( 51)  0.2702 ( 53)
           0.1417 ( 56) -0.1366 ( 61)  0.1036 ( 78)  0.1149 ( 79)  0.2844 ( 80)
           0.2021 ( 91)  0.1606 ( 92)  0.2289 ( 96)  0.2448 ( 97)  0.1736 ( 99)
           0.1650 (119)  0.1390 (120)
 CRD  8=   0.2914 (  1)  0.2524 (  5)  0.1147 ( 11)  0.1820 ( 12)  0.1288 ( 18)
           0.1086 ( 29) -0.1240 ( 32) -0.1097 ( 33)  0.3829 ( 35)  0.1340 ( 36)
           0.1070 ( 40)  0.2439 ( 43)  0.2051 ( 44) -0.1495 ( 49)  0.1761 ( 50)
          -0.2483 ( 53)  0.1986 ( 80) -0.1114 ( 91)  0.2412 ( 96)  0.2325 ( 97)
           0.1038 (119)  0.1388 (120)
 CRD  9=  -0.1606 (  1) -0.1324 (  3) -0.1859 (  6) -0.1306 ( 12) -0.1858 ( 17)
          -0.1225 ( 20) -0.1017 ( 30)  0.1288 ( 31) -0.2834 ( 36)  0.1704 ( 38)
          -0.1685 ( 43)  0.1809 ( 44) -0.1508 ( 46)  0.1130 ( 49) -0.1554 ( 53)
          -0.1000 ( 58)  0.1339 ( 61)  0.2778 ( 77)  0.2269 ( 78)  0.2309 ( 79)
           0.1259 ( 80)  0.2159 ( 91)  0.2415 ( 92)  0.1609 ( 93)  0.1293 ( 99)
           0.1498 (102)  0.1777 (114)  0.1753 (115)
 CRD 10=   0.1538 (  2) -0.1606 (  3)  0.1521 (  6)  0.1216 ( 17)  0.1400 ( 18)
           0.1100 ( 20)  0.1041 ( 35) -0.2163 ( 36)  0.1373 ( 38) -0.1078 ( 40)
           0.1879 ( 43)  0.2510 ( 44)  0.1127 ( 77) -0.2340 ( 78) -0.1293 ( 79)
          -0.1353 ( 81)  0.1081 ( 82) -0.1131 ( 83)  0.1761 ( 91)  0.1500 ( 92)
          -0.3497 ( 93) -0.3795 ( 99) -0.2322 (102)  0.1024 (115)
 CRD 11=  -0.1622 (  1) -0.1303 (  5)  0.2688 ( 11) -0.1427 ( 12)  0.1009 ( 18)
           0.2714 ( 25) -0.1244 ( 35) -0.1911 ( 36) -0.1254 ( 48)  0.1256 ( 49)
          -0.1683 ( 53)  0.1330 ( 54)  0.4503 ( 56) -0.2416 ( 57)  0.2608 ( 64)
          -0.2096 ( 65) -0.1052 ( 77) -0.1676 ( 79) -0.1045 ( 82)
 CRD 12=  -0.1617 (  3) -0.1253 (  5) -0.2208 (  6) -0.2297 ( 20) -0.1057 ( 31)
           0.1528 ( 32)  0.1084 ( 33) -0.1191 ( 35)  0.1258 ( 36) -0.1323 ( 38)
          -0.1052 ( 40) -0.1676 ( 43)  0.1482 ( 50) -0.1900 ( 51) -0.2980 ( 53)
          -0.1209 ( 56) -0.2311 ( 58)  0.1531 ( 61) -0.1702 ( 77) -0.1126 ( 78)
           0.1451 ( 80)  0.1746 ( 91) -0.2009 ( 93) -0.1551 ( 99) -0.1374 (102)
          -0.1261 (107) -0.1568 (109) -0.1190 (115)  0.1173 (119)
 CRD 13=   0.2519 (  2)  0.2926 (  3)  0.1459 (  5) -0.1760 ( 18)  0.1398 ( 31)
          -0.1330 ( 33)  0.1719 ( 34)  0.1702 ( 35) -0.1601 ( 40)  0.2882 ( 42)
          -0.1774 ( 45) -0.1619 ( 53) -0.1032 ( 57) -0.1375 ( 58)  0.1332 ( 77)
          -0.1708 ( 80) -0.1001 ( 90)  0.1910 ( 91)  0.1820 ( 92) -0.1269 ( 93)
          -0.1259 ( 97)  0.1416 ( 99) -0.1140 (101)  0.1931 (114) -0.2083 (120)
 CRD 14=  -0.3324 (  2) -0.2073 (  5)  0.2590 ( 17)  0.1143 ( 18) -0.1166 ( 32)
          -0.1341 ( 33)  0.1278 ( 36) -0.1406 ( 37) -0.1810 ( 38)  0.1370 ( 39)
           0.1061 ( 42)  0.1552 ( 43)  0.1454 ( 44) -0.1285 ( 47)  0.1761 ( 48)
           0.1530 ( 50)  0.1214 ( 52)  0.1059 ( 55) -0.1151 ( 58) -0.1049 ( 62)
           0.1677 ( 63)  0.1067 ( 77)  0.1688 ( 79) -0.1125 ( 84) -0.2044 ( 87)
          -0.1229 ( 89)  0.1093 ( 91) -0.1924 ( 96) -0.1364 ( 97) -0.1187 ( 98)
          -0.1726 (119)
 CRD 15=  -0.2778 (  3)  0.1181 (  5)  0.1574 ( 17) -0.1850 ( 18)  0.1593 ( 29)
          -0.1042 ( 32)  0.2047 ( 37)  0.1189 ( 41)  0.1278 ( 43) -0.1253 ( 44)
          -0.1026 ( 45)  0.1152 ( 47) -0.2066 ( 48)  0.1260 ( 52)  0.1547 ( 59)
          -0.2243 ( 62)  0.1653 ( 63) -0.1593 ( 79)  0.1837 ( 80)  0.1550 ( 83)
           0.1274 ( 85) -0.1029 ( 90)  0.1249 ( 91) -0.1982 ( 96) -0.1344 ( 98)
          -0.1402 (100) -0.1064 (109)  0.1830 (110)  0.1829 (111)  0.1160 (112)
           0.1078 (119)
 CRD 16=   0.1142 (  2)  0.2087 (  3)  0.1696 ( 29)  0.1678 ( 32) -0.1110 ( 36)
          -0.2393 ( 46)  0.1284 ( 48)  0.1130 ( 58) -0.3218 ( 59)  0.1785 ( 60)
          -0.2307 ( 62)  0.2382 ( 63)  0.1283 ( 80) -0.1325 ( 81) -0.1706 ( 83)
          -0.1093 ( 85) -0.1936 ( 91) -0.1891 ( 96) -0.1222 ( 98)  0.1435 (108)
           0.1768 (109)  0.1840 (110)  0.1788 (111)  0.1078 (112)  0.1271 (119)
 CRD 17=   0.1424 (  2)  0.2315 ( 12)  0.1776 ( 18) -0.2251 ( 38)  0.1759 ( 46)
           0.3252 ( 47) -0.2862 ( 48)  0.2945 ( 49) -0.1059 ( 54) -0.1780 ( 59)
           0.1810 ( 60)  0.1273 ( 62) -0.1769 ( 64) -0.1712 ( 68) -0.1019 ( 79)
           0.1113 ( 81)  0.1344 ( 82)  0.2022 ( 83)  0.1896 ( 85) -0.1029 (120)
 CRD 18=  -0.2053 ( 12)  0.3836 ( 20) -0.1230 ( 25)  0.1433 ( 38)  0.1492 ( 46)
          -0.2532 ( 47) -0.2129 ( 49) -0.2873 ( 50)  0.1133 ( 57)  0.4361 ( 60)
           0.3822 ( 61) -0.1102 ( 62) -0.1355 ( 65)  0.1216 ( 69) -0.1446 ( 72)
          -0.1711 ( 73)
 CRD 19=   0.1654 ( 20)  0.4363 ( 25) -0.1046 ( 44) -0.1086 ( 50) -0.3637 ( 57)
           0.1775 ( 60)  0.1423 ( 61)  0.3400 ( 62)  0.2225 ( 63) -0.1782 ( 64)
           0.4530 ( 65) -0.2065 ( 74) -0.1102 ( 75)
 CRD 20=   0.1037 (  2) -0.3488 ( 12)  0.1203 ( 18) -0.2368 ( 20)  0.1063 ( 25)
           0.2211 ( 38)  0.2144 ( 46) -0.3475 ( 47) -0.1824 ( 48) -0.2896 ( 49)
           0.1925 ( 50)  0.1085 ( 58) -0.1741 ( 59) -0.1456 ( 60) -0.2104 ( 61)
           0.1197 ( 62)  0.1349 ( 63) -0.1617 ( 64)  0.1970 ( 69)  0.1183 ( 73)
           0.1029 ( 81)  0.1182 ( 83)
 CRD 21=   0.1439 (  3)  0.1005 (  8)  0.1260 ( 10) -0.2315 ( 17)  0.1971 ( 18)
           0.1002 ( 25)  0.1470 ( 29)  0.1388 ( 31) -0.1962 ( 33) -0.1394 ( 50)
          -0.1348 ( 52)  0.1622 ( 55)  0.2728 ( 59) -0.1894 ( 60)  0.1030 ( 61)
          -0.1367 ( 62)  0.3742 ( 63) -0.1484 ( 64) -0.1149 ( 77)  0.1171 ( 87)
           0.1332 ( 90) -0.1209 ( 96)  0.1260 ( 98) -0.1062 (107) -0.1441 (108)
          -0.1676 (109)  0.1190 (110)  0.1034 (113) -0.1855 (115)
 CRD 22=   0.1776 (  2) -0.1985 ( 12)  0.2366 ( 17)  0.1211 ( 18) -0.1329 ( 32)
           0.1244 ( 33) -0.1504 ( 35) -0.1242 ( 39)  0.1435 ( 40) -0.2921 ( 46)
           0.1393 ( 52) -0.1690 ( 54) -0.3082 ( 58)  0.1764 ( 59)  0.1234 ( 60)
           0.1955 ( 62) -0.1336 ( 63) -0.1124 ( 64)  0.1054 ( 70) -0.1039 ( 73)
           0.1150 ( 90) -0.1338 ( 98)  0.1091 (102) -0.1448 (106) -0.1390 (109)
          -0.1014 (111) -0.1207 (115) -0.1169 (120)
 CRD 23=   0.1765 (  2)  0.2204 (  3)  0.1171 (  4)  0.1050 ( 17) -0.2914 ( 29)
           0.1361 ( 30)  0.3285 ( 34) -0.1038 ( 42)  0.1528 ( 45)  0.1906 ( 46)
          -0.1614 ( 48)  0.1430 ( 54) -0.1891 ( 55) -0.2538 ( 58)  0.1032 ( 60)
          -0.1873 ( 62)  0.1609 ( 63)  0.1020 ( 78)  0.1095 ( 96)  0.1704 ( 97)
           0.2484 (119)  0.1721 (120)
 CRD 24=   0.3066 (  2) -0.3193 (  3) -0.1047 ( 18)  0.1167 ( 24)  0.1434 ( 25)
           0.1251 ( 29) -0.2823 ( 30)  0.1363 ( 34) -0.1970 ( 41)  0.1287 ( 45)
          -0.1663 ( 47)  0.2381 ( 48)  0.1378 ( 51)  0.3086 ( 64)  0.1032 ( 65)
           0.1051 ( 66) -0.1124 ( 70) -0.1089 ( 76)  0.1156 ( 94)  0.1791 (102)
          -0.2041 (114) -0.1297 (120)
 CRD 25=  -0.1343 (  2)  0.1967 (  3)  0.1337 (  7) -0.1005 (  8) -0.3185 ( 30)
           0.3708 ( 31)  0.1110 ( 37) -0.1306 ( 45)  0.2580 ( 46) -0.1225 ( 48)
           0.1571 ( 51) -0.2205 ( 52)  0.1615 ( 59)  0.1447 ( 62) -0.1628 ( 63)
           0.1134 ( 77) -0.1196 ( 91) -0.1487 ( 92) -0.1316 ( 98) -0.1388 (100)
          -0.1470 (101) -0.1189 (102) -0.1501 (114) -0.2244 (115)
 CRD 26=  -0.1112 (  1)  0.1369 (  2)  0.1009 ( 11)  0.1875 ( 12)  0.2364 ( 13)
           0.1076 ( 14) -0.1345 ( 15) -0.2429 ( 24) -0.1894 ( 25) -0.1195 ( 26)
          -0.1461 ( 36)  0.1221 ( 46) -0.2977 ( 47)  0.3717 ( 48)  0.1255 ( 49)
           0.1520 ( 56)  0.1259 ( 63) -0.3964 ( 64) -0.1146 ( 65) -0.2329 ( 70)
           0.1548 ( 75)  0.1279 ( 76) -0.1225 ( 79)
 CRD 27=  -0.1437 (  2)  0.1068 (  5)  0.1519 (  6) -0.3953 ( 19) -0.2800 ( 20)
           0.1474 ( 21) -0.1169 ( 23) -0.1371 ( 30) -0.1474 ( 34) -0.1037 ( 50)
           0.1181 ( 51)  0.2269 ( 53)  0.1013 ( 55) -0.4348 ( 58) -0.1606 ( 59)
           0.2866 ( 60) -0.1233 ( 61)  0.2849 ( 71)  0.1053 ( 98)  0.1264 (106)
          -0.1199 (119)
 CRD 28=   0.1902 (  3)  0.1353 ( 12)  0.2300 ( 13)  0.2304 ( 24)  0.1612 ( 25)
           0.2567 ( 29)  0.2352 ( 30) -0.1175 ( 31) -0.1978 ( 34) -0.1515 ( 36)
          -0.1076 ( 39)  0.1186 ( 41)  0.2826 ( 46) -0.1707 ( 47) -0.1053 ( 51)
          -0.2043 ( 54)  0.1625 ( 55) -0.1106 ( 56) -0.1149 ( 63)  0.2727 ( 64)
          -0.1572 ( 70) -0.1409 ( 75)  0.1104 (113)  0.1450 (114)
 CRD 29=   0.1253 ( 13) -0.1575 ( 22)  0.1887 ( 31) -0.1515 ( 32)  0.1122 ( 46)
           0.2256 ( 58) -0.4137 ( 59)  0.1924 ( 60) -0.1258 ( 66) -0.1950 ( 72)
           0.1017 ( 73)  0.3220 ( 91)  0.1704 ( 92) -0.2717 (107) -0.2679 (108)
          -0.2584 (109) -0.1881 (115) -0.1074 (116) -0.1169 (117) -0.1207 (118)
 CRD 30=  -0.1145 (  7)  0.1517 (  9) -0.1337 ( 24) -0.1033 ( 27)  0.1434 ( 28)
          -0.1373 ( 31) -0.1938 ( 33)  0.1835 ( 34) -0.1064 ( 41)  0.1273 ( 56)
           0.3430 ( 62) -0.2856 ( 63) -0.1426 ( 67) -0.1245 ( 75)  0.1887 ( 76)
          -0.3061 ( 96) -0.1767 ( 97)  0.2270 (110)  0.2309 (111)  0.2352 (112)
           0.1347 (119)  0.1075 (121)  0.1031 (122)
 CRD 31=   0.1127 (  3) -0.2044 (  9)  0.1652 ( 10)  0.1071 ( 14)  0.1452 ( 18)
           0.1870 ( 24) -0.1116 ( 29)  0.1606 ( 34) -0.1297 ( 40)  0.1506 ( 41)
          -0.1564 ( 45) -0.2452 ( 46)  0.2492 ( 48)  0.1091 ( 57) -0.1022 ( 63)
           0.1196 ( 64)  0.1463 ( 68) -0.1067 ( 75) -0.1744 ( 78) -0.2841 ( 79)
           0.2084 ( 81)  0.1282 ( 82)  0.2081 ( 83)  0.2092 ( 85)  0.1003 (103)
           0.1011 (104)  0.1000 (105)  0.1250 (110)  0.1257 (111)  0.1260 (112)
           0.1218 (113)  0.1301 (119)  0.1088 (120)
 CRD 32=   0.1896 (  2)  0.5504 (  4) -0.2722 (  5)  0.1663 (  9) -0.1054 ( 10)
          -0.2660 ( 13)  0.2318 ( 29)  0.1188 ( 31) -0.1301 ( 32) -0.1955 ( 38)
          -0.1467 ( 42)  0.1414 ( 51) -0.1130 ( 54) -0.1157 ( 84) -0.1407 ( 89)
          -0.1133 ( 90) -0.1015 ( 94) -0.1101 ( 95) -0.1016 (120)
 CRD 33=   0.2475 (  1) -0.2368 (  4) -0.1646 (  7)  0.2430 (  8)  0.3043 ( 14)
           0.2502 ( 15)  0.3267 ( 16)  0.1326 ( 21)  0.1463 ( 22)  0.1616 ( 23)
          -0.1243 ( 38) -0.1033 ( 46) -0.2346 ( 47) -0.1466 ( 48)  0.2120 ( 49)
          -0.1050 ( 50) -0.1056 ( 60)  0.1044 ( 61)  0.1783 ( 68)  0.2074 ( 69)
           0.1018 ( 70)  0.1160 ( 94) -0.1221 (100) -0.1064 (101)
 CRD 34=   0.1016 (  9)  0.1773 ( 11) -0.1620 ( 21) -0.1768 ( 22) -0.1908 ( 23)
           0.4303 ( 26)  0.3653 ( 27)  0.3676 ( 28) -0.1132 ( 57)  0.1082 ( 60)
          -0.2049 ( 62) -0.2180 ( 63) -0.1185 ( 64)  0.1690 ( 65) -0.1032 ( 73)
           0.2250 ( 74)  0.1581 ( 75)  0.1661 ( 76)
 CRD 35=  -0.1469 (  6) -0.1299 (  7)  0.1567 ( 14)  0.1445 ( 15)  0.1625 ( 16)
          -0.1079 ( 19) -0.3419 ( 21) -0.3691 ( 22) -0.3927 ( 23) -0.2243 ( 26)
          -0.1938 ( 27) -0.1942 ( 28)  0.1188 ( 58)  0.1611 ( 59)  0.2115 ( 60)
          -0.1361 ( 61)  0.1012 ( 62)  0.1091 ( 63) -0.1246 ( 71) -0.1714 ( 72)
          -0.1998 ( 73) -0.1114 ( 74)
 CRD 36=   0.1593 (  1) -0.2030 (  4) -0.1831 (  5) -0.2168 (  7)  0.2960 (  8)
          -0.1544 (  9) -0.1551 ( 10) -0.1850 ( 12) -0.1463 ( 13) -0.3215 ( 14)
          -0.3454 ( 15) -0.3191 ( 16) -0.1175 ( 17) -0.1284 ( 19) -0.1163 ( 21)
          -0.1157 ( 22) -0.1127 ( 23)  0.1087 ( 46) -0.1081 ( 70)  0.1033 ( 94)
          -0.1497 (100) -0.1458 (101)
 CRD 37=  -0.1568 (  1)  0.2432 (  6)  0.3582 (  7)  0.2532 (  8) -0.3148 (  9)
           0.1109 ( 10) -0.1275 ( 11)  0.1183 ( 14)  0.1086 ( 18) -0.1339 ( 20)
          -0.1595 ( 21) -0.1394 ( 22) -0.1435 ( 23)  0.1009 ( 27) -0.1552 ( 30)
          -0.1307 ( 31)  0.1081 ( 34)  0.1080 ( 51) -0.1043 ( 53)  0.1223 ( 61)
           0.1399 ( 66) -0.1039 ( 83) -0.1070 ( 85) -0.1306 ( 86) -0.1324 ( 88)
          -0.1419 ( 94) -0.1401 ( 95) -0.1071 (114)  0.1469 (115)  0.1043 (119)
 CRD 38=   0.1155 (  1)  0.2032 (  6)  0.2362 (  7)  0.3063 (  8)  0.3669 (  9)
           0.3075 ( 10)  0.3129 ( 11) -0.1022 ( 20) -0.1126 ( 23) -0.1671 ( 25)
          -0.1745 ( 26) -0.1435 ( 27) -0.1668 ( 28) -0.1187 ( 29) -0.1447 ( 34)
          -0.1133 ( 56)  0.1018 ( 61)  0.1702 ( 65)  0.1394 ( 67) -0.1383 (119)
 CRD 39=  -0.1238 ( 10) -0.1095 ( 14)  0.1880 ( 21) -0.1878 ( 23)  0.5126 ( 26)
          -0.2365 ( 27) -0.2612 ( 28) -0.1463 ( 71)  0.1223 ( 73) -0.3502 ( 74)
           0.1632 ( 75)  0.1822 ( 76) -0.2029 (110)  0.1823 (111)  0.1875 (122)
          -0.1977 (123)
 CRD 40=  -0.1071 ( 10) -0.3842 ( 15)  0.3627 ( 16)  0.3163 ( 21) -0.2648 ( 23)
          -0.1997 ( 26)  0.1609 ( 28) -0.2402 ( 69)  0.2583 ( 70) -0.2190 ( 71)
           0.1740 ( 73)  0.1353 ( 74)  0.1220 ( 81) -0.1662 ( 85)  0.1185 (103)
          -0.1697 (104)  0.1443 (108)  0.1453 (117)
 CRD 41=   0.3930 ( 15) -0.3068 ( 16)  0.3904 ( 21) -0.3033 ( 23) -0.1473 ( 26)
           0.1057 ( 28)  0.2030 ( 69) -0.2560 ( 70) -0.2559 ( 71)  0.2005 ( 73)
          -0.1175 ( 81)  0.1688 ( 85) -0.1171 (103)  0.1692 (104) -0.1132 (107)
           0.1727 (108)  0.1720 (117) -0.1138 (118)
 CRD 42=   0.2006 (  7) -0.2690 ( 10) -0.1101 ( 11) -0.4436 ( 14)  0.2262 ( 15)
           0.2178 ( 16) -0.1781 ( 21) -0.1081 ( 26)  0.2317 ( 28)  0.3037 ( 68)
          -0.1532 ( 69) -0.1502 ( 70) -0.1156 ( 76) -0.1260 ( 81)  0.2089 ( 83)
          -0.1373 (103)  0.1976 (105)
 CRD 43=   0.1717 ( 21) -0.5946 ( 22)  0.3921 ( 23) -0.1234 ( 71)  0.3966 ( 72)
          -0.2701 ( 73) -0.1977 (107)  0.2454 (109)  0.2350 (116) -0.2081 (118)
 CRD 44=  -0.1745 ( 14)  0.1246 ( 16)  0.5220 ( 27) -0.4672 ( 28)  0.1168 ( 68)
          -0.3462 ( 75)  0.3149 ( 76)  0.1390 (110)  0.1041 (111) -0.2501 (112)
          -0.2610 (121)  0.1281 (123)
 CRD 45=  -0.1090 (  4) -0.2523 (  7) -0.1201 (  8)  0.3833 ( 10)  0.1282 ( 11)
          -0.3342 ( 14)  0.2579 ( 16) -0.1991 ( 27)  0.2205 ( 68) -0.1740 ( 69)
          -0.1783 ( 81) -0.1246 ( 85) -0.1562 ( 86) -0.1340 ( 88) -0.1050 ( 89)
          -0.1170 ( 94) -0.1391 ( 95) -0.1056 (100) -0.1785 (103) -0.1249 (104)
          -0.1284 (124) -0.1418 (125) -0.1196 (126)
 CRD 46=  -0.4856 (  9) -0.3029 ( 10)  0.4033 ( 11) -0.1676 ( 25) -0.1685 ( 27)
          -0.1638 ( 28)  0.2029 ( 55) -0.1301 ( 57)  0.2212 ( 65) -0.2618 ( 67)
           0.1301 ( 86) -0.1713 ( 88) -0.1786 ( 94)  0.1228 ( 95) -0.1057 (120)
           0.1160 (125) -0.1854 (126)
 CRD 47=  -0.4692 (  6)  0.2192 (  7)  0.4643 (  8)  0.1877 ( 20)  0.2376 ( 21)
           0.1162 ( 22)  0.1280 ( 50) -0.2125 ( 52)  0.1146 ( 53)  0.1072 ( 60)
          -0.2430 ( 61)  0.2484 ( 66) -0.1806 ( 84)  0.1071 ( 89)  0.1096 (100)
          -0.1781 (101) -0.2039 (127)
 CRD 48=  -0.4810 (  1) -0.1713 (  4) -0.2869 (  7)  0.2445 (  8)  0.1517 (  9)
          -0.2285 ( 10)  0.1577 ( 11)  0.1556 ( 12) -0.1205 ( 13)  0.1772 ( 15)
           0.1046 ( 17)  0.1756 ( 19)  0.1015 ( 24)  0.1171 ( 36) -0.1085 ( 39)
          -0.1087 ( 43) -0.1816 ( 49)  0.1281 ( 51) -0.1067 ( 89) -0.1003 (100)
          -0.1845 (124)  0.1825 (125)  0.1245 (126) -0.1411 (127)
 CRD 49=  -0.2364 (  1) -0.3115 (  4) -0.1568 (  5) -0.1727 (  6)  0.3797 (  7)
          -0.2090 (  8)  0.1210 (  9) -0.1004 ( 10) -0.2748 ( 13) -0.1981 ( 17)
          -0.3557 ( 19)  0.1078 ( 30)  0.1689 ( 35) -0.1010 ( 39)  0.2264 ( 43)
          -0.1647 ( 50) -0.1597 ( 51)  0.1313 ( 89) -0.1070 ( 98) -0.1233 (106)
 CRD 50=   0.2147 (  1)  0.1253 (  4)  0.2337 (  9) -0.2885 ( 10)  0.1923 ( 11)
           0.1360 ( 13)  0.2573 ( 18)  0.4881 ( 24) -0.1018 ( 29) -0.3146 ( 44)
           0.2055 ( 54)  0.2206 ( 57) -0.1230 ( 65) -0.1498 ( 82) -0.1558 ( 90)
          -0.1753 (113)
 CRD 51=   0.1850 (  4)  0.1241 (  5)  0.1008 (  8)  0.2870 ( 13) -0.2429 ( 19)
          -0.1823 ( 35)  0.1854 ( 38) -0.1233 ( 41)  0.1765 ( 43)  0.1261 ( 45)
          -0.1558 ( 49) -0.1617 ( 50)  0.1416 ( 61)  0.1109 ( 81) -0.2011 ( 84)
           0.1038 ( 85) -0.2029 ( 87) -0.1642 ( 89) -0.1327 ( 98) -0.1308 (101)
           0.1339 (103)  0.1267 (104)  0.1098 (105) -0.1979 (106)  0.1312 (107)
           0.1261 (108)  0.1018 (109) -0.1223 (115)  0.1331 (116)  0.1574 (117)
           0.1625 (118) -0.1592 (124) -0.1961 (127)
 CRD 52=   0.2308 (  4) -0.1117 (  6)  0.1697 ( 10)  0.1365 ( 11)  0.1394 ( 13)
          -0.1467 ( 19) -0.1277 ( 27)  0.1404 ( 34)  0.1047 ( 38) -0.1024 ( 45)
           0.1201 ( 80) -0.1026 ( 81) -0.1038 ( 85) -0.1286 ( 96) -0.1353 (103)
          -0.1365 (104) -0.1108 (105) -0.1410 (110) -0.1573 (111) -0.1976 (112)
           0.1159 (115) -0.1150 (117) -0.1183 (118)  0.2144 (119) -0.2961 (121)
          -0.2558 (122) -0.2395 (123)  0.1071 (125)  0.1101 (126)
 CRD 53=  -0.1195 (  3)  0.1091 (  6)  0.2099 ( 19) -0.1420 ( 22)  0.1241 ( 31)
          -0.1039 ( 66) -0.1629 ( 77)  0.1113 ( 80)  0.1078 ( 87)  0.1478 ( 91)
          -0.1004 ( 96)  0.1870 (107)  0.1677 (108)  0.1106 (109) -0.1321 (112)
          -0.1314 (114) -0.2396 (115)  0.2440 (116)  0.3011 (117)  0.3204 (118)
           0.1637 (119) -0.2277 (121) -0.1891 (122) -0.1819 (123)
 CRD 54=   0.1092 (  2) -0.1254 (  3)  0.1671 (  4)  0.1136 ( 14) -0.1108 ( 24)
          -0.1587 ( 79) -0.1232 ( 80) -0.1841 ( 81)  0.1177 ( 82) -0.1055 ( 83)
          -0.1716 ( 85)  0.1199 ( 86)  0.1542 ( 88)  0.1564 ( 93)  0.1687 ( 99)
           0.1041 (102) -0.3217 (103) -0.3092 (104) -0.2431 (105)  0.1016 (112)
           0.1214 (113)  0.1175 (116)  0.1480 (117)  0.1591 (118) -0.1348 (119)
           0.1987 (121)  0.1600 (122)  0.1573 (123)  0.1237 (125)  0.1580 (126)
 CRD 55=  -0.1171 (  5) -0.1603 (  6) -0.1808 ( 13)  0.1108 ( 14)  0.2539 ( 17)
           0.2857 ( 19) -0.1961 ( 21) -0.1422 ( 22) -0.2150 ( 23)  0.1157 ( 24)
           0.1601 ( 38)  0.1592 ( 43) -0.3281 ( 50)  0.1747 ( 53) -0.1152 ( 57)
          -0.1759 ( 58) -0.1674 ( 59) -0.1800 ( 60)  0.1522 ( 61) -0.1025 ( 70)
           0.1728 ( 71)  0.2007 ( 72)  0.1546 ( 73)
 CRD 56=   0.1289 (  1) -0.1606 (  5)  0.1111 (  6) -0.1150 ( 11) -0.2064 ( 13)
           0.1082 ( 14)  0.1206 ( 15)  0.1400 ( 16) -0.1612 ( 17)  0.1846 ( 18)
          -0.1435 ( 19)  0.1268 ( 21)  0.1288 ( 23)  0.2313 ( 24) -0.1508 ( 26)
          -0.1025 ( 27) -0.1584 ( 28) -0.1083 ( 35) -0.1226 ( 36)  0.2166 ( 38)
          -0.1007 ( 43)  0.1148 ( 44)  0.1197 ( 46)  0.1162 ( 47)  0.1144 ( 48)
           0.2065 ( 50) -0.1033 ( 53)  0.1325 ( 56) -0.2391 ( 57)  0.1030 ( 58)
           0.1135 ( 60) -0.1022 ( 61) -0.1352 ( 62) -0.1233 ( 63) -0.1301 ( 64)
           0.1052 ( 65) -0.1241 ( 68) -0.1056 ( 69) -0.1231 ( 70) -0.1266 ( 72)
           0.1270 ( 74)  0.1526 ( 75)  0.1135 ( 76)  0.1073 (127)
 CRD 57=  -0.1868 (  1)  0.1963 (  5) -0.1740 ( 11)  0.2542 ( 13) -0.1598 ( 14)
          -0.1419 ( 15) -0.1562 ( 16)  0.2257 ( 18)  0.2034 ( 24) -0.1567 ( 26)
          -0.1294 ( 27) -0.1798 ( 28)  0.1350 ( 35)  0.1568 ( 36) -0.2693 ( 38)
           0.1544 ( 44) -0.1463 ( 46) -0.1434 ( 47) -0.1476 ( 48)  0.1128 ( 49)
           0.1482 ( 56) -0.2871 ( 57) -0.1574 ( 62) -0.1462 ( 63) -0.1383 ( 64)
           0.1376 ( 65)  0.1366 ( 68)  0.1446 ( 69)  0.1591 ( 70)  0.1538 ( 74)
           0.1641 ( 75)  0.1293 ( 76)
 CRD 58=  -0.1826 (  4) -0.3654 (  5) -0.1285 (  6)  0.1018 (  7)  0.1356 (  9)
           0.3533 ( 13) -0.1050 ( 14)  0.1563 ( 15) -0.2264 ( 17)  0.1261 ( 18)
           0.2528 ( 19) -0.1418 ( 24)  0.1145 ( 29)  0.1224 ( 34) -0.1423 ( 49)
           0.1026 ( 51) -0.1049 ( 54) -0.1028 ( 67)  0.1081 ( 70)  0.1155 ( 71)
          -0.1120 ( 89) -0.1314 (102)  0.1358 (103)  0.1159 (106)  0.1108 (119)
          -0.1163 (120)  0.1227 (121)  0.1276 (127)
 CRD 59=   0.1309 (  4) -0.1934 (  6) -0.1275 (  7) -0.1206 (  9)  0.1923 ( 10)
          -0.1247 ( 14)  0.1203 ( 16) -0.3833 ( 18) -0.1224 ( 22)  0.3310 ( 24)
          -0.1554 ( 26)  0.1156 ( 27) -0.1161 ( 30) -0.1163 ( 31)  0.1126 ( 41)
          -0.1044 ( 45)  0.1290 ( 52) -0.1283 ( 65) -0.1036 ( 74) -0.1084 ( 83)
          -0.1520 (102)  0.1652 (103)  0.1593 (104) -0.1322 (114)  0.1163 (117)
           0.1293 (118)  0.1591 (125)  0.1260 (126)
 CRD 60=  -0.2866 (  5)  0.1195 (  6)  0.2330 ( 13) -0.1410 ( 16) -0.2127 ( 17)
          -0.4366 ( 18)  0.1656 ( 19)  0.3614 ( 24) -0.1936 ( 26)  0.1272 ( 28)
          -0.1220 ( 34)  0.1011 ( 44)  0.1004 ( 55)  0.1185 ( 56) -0.1365 ( 65)
           0.1392 ( 76) -0.1195 (104) -0.1059 (121) -0.1012 (123)
 CRD 61=   0.3276 (  5) -0.1085 (  8) -0.2474 ( 13) -0.1037 ( 15)  0.1046 ( 16)
          -0.5363 ( 17)  0.4016 ( 19)  0.1744 ( 21) -0.1540 ( 23)  0.1140 ( 43)
           0.1211 ( 53) -0.1590 ( 61)  0.1648 ( 71) -0.1045 (106) -0.1098 (124)
 CRD 62=   0.1135 (  1)  0.2701 (  2)  0.1963 (  3) -0.1766 (  5) -0.1343 (  6)
          -0.1454 (  8) -0.1245 ( 10) -0.2370 ( 11)  0.1063 ( 13)  0.1347 ( 18)
          -0.1539 ( 22) -0.2139 ( 27)  0.1065 ( 28) -0.1753 ( 29) -0.1351 ( 30)
          -0.1306 ( 31) -0.1504 ( 34)  0.1293 ( 51)  0.1715 ( 54)  0.1356 ( 55)
           0.1414 ( 66)  0.1269 ( 67) -0.1106 ( 75)  0.1185 ( 76) -0.1252 (109)
           0.1382 (110)  0.1673 (115)  0.1145 (117)  0.1406 (118) -0.1861 (119)
           0.1375 (120) -0.2218 (121)
 CRD 63=  -0.1173 (  1) -0.1077 (  3)  0.2678 (  4) -0.2217 (  5) -0.1189 (  7)
           0.1220 (  8) -0.1923 (  9)  0.3981 ( 12) -0.2247 ( 14)  0.1483 ( 18)
          -0.2344 ( 25)  0.1086 ( 26)  0.1204 ( 38) -0.1313 ( 46) -0.1247 ( 47)
          -0.1030 ( 48) -0.1313 ( 51)  0.1308 ( 67)  0.1490 ( 69)  0.1799 ( 70)
          -0.1423 ( 82)  0.1321 ( 84) -0.1087 ( 86)  0.1825 ( 89)  0.1201 ( 94)
           0.1135 (103) -0.1073 (113) -0.1038 (119)  0.1178 (124)
 CRD 64=   0.1026 (  2) -0.1711 (  3) -0.2586 ( 12)  0.1171 ( 13)  0.1244 ( 15)
           0.1663 ( 16)  0.2005 ( 19) -0.5108 ( 20)  0.1132 ( 21)  0.2110 ( 22)
          -0.1017 ( 38)  0.1020 ( 48) -0.2034 ( 50)  0.1041 ( 53)  0.1559 ( 58)
           0.1248 ( 59)  0.1434 ( 60) -0.1862 ( 68) -0.1530 ( 71) -0.1978 ( 73)
          -0.1201 ( 78) -0.1410 ( 83)  0.1356 (103)  0.1023 (125)
 CRD 65=  -0.3491 ( 12)  0.1412 ( 13)  0.1072 ( 18) -0.1044 ( 19)  0.2522 ( 20)
           0.2031 ( 24) -0.5241 ( 25)  0.1116 ( 26)  0.1139 ( 27)  0.1516 ( 28)
          -0.1483 ( 38)  0.1105 ( 44)  0.1053 ( 50)  0.1149 ( 56) -0.2189 ( 57)
           0.1371 ( 62)  0.1449 ( 63)  0.1458 ( 64)  0.1046 ( 65) -0.1054 ( 69)
          -0.1597 ( 74) -0.1495 ( 75) -0.1237 ( 76)
 CRD 66=  -0.1176 (  2)  0.2181 (  3) -0.1323 (  8)  0.1808 ( 12)  0.1326 ( 14)
          -0.1031 ( 15) -0.1604 ( 16)  0.1365 ( 19) -0.3551 ( 20)  0.1355 ( 21)
           0.1768 ( 23)  0.1485 ( 24) -0.3148 ( 25)  0.1239 ( 27)  0.1105 ( 44)
          -0.1510 ( 50) -0.1330 ( 57)  0.1259 ( 59)  0.1075 ( 66)  0.1731 ( 68)
          -0.1957 ( 72) -0.1171 ( 74)  0.1308 ( 78)  0.1559 ( 83) -0.1409 (103)
          -0.1225 (109)  0.1460 (115)  0.1108 (118)
 CRD 67=   0.2190 (  1)  0.1592 (  2) -0.1100 (  3) -0.2046 (  4)  0.1957 (  7)
          -0.1850 ( 11)  0.2951 ( 12) -0.1621 ( 13) -0.1257 ( 14) -0.1159 ( 15)
           0.1473 ( 22) -0.1660 ( 25) -0.2071 ( 35) -0.1053 ( 36) -0.1023 ( 37)
           0.1731 ( 38)  0.1090 ( 41)  0.1289 ( 51) -0.1153 ( 66)  0.1572 ( 69)
           0.1258 ( 72)  0.1122 ( 86) -0.2140 ( 89)  0.1299 ( 92)  0.1318 (109)
           0.1206 (113) -0.1218 (118) -0.1284 (124)  0.1539 (125)
 CRD 68=  -0.2073 (  1)  0.1107 (  5) -0.1816 (  6)  0.1537 (  8) -0.1599 ( 10)
           0.1874 ( 11) -0.2446 ( 27)  0.2509 ( 28)  0.1907 ( 39) -0.1036 ( 45)
           0.1222 ( 52) -0.1781 ( 54) -0.1057 ( 66) -0.1717 ( 75)  0.1805 ( 76)
          -0.1460 ( 80) -0.1031 ( 87) -0.1067 ( 89) -0.1241 ( 95)  0.1126 ( 96)
           0.2119 ( 97)  0.1112 (101)  0.1142 (106)  0.1552 (110)  0.1631 (111)
          -0.1069 (112) -0.2053 (121)  0.1106 (124) -0.2336 (125)  0.2622 (127)
 CRD 69=  -0.1166 (  3)  0.1968 (  6) -0.2166 ( 14)  0.1910 ( 16) -0.2664 ( 22)
           0.2192 ( 23)  0.1359 ( 30) -0.1808 ( 52) -0.1491 ( 68)  0.1407 ( 69)
          -0.1822 ( 72)  0.1633 ( 73) -0.1366 ( 78) -0.1278 ( 79) -0.1858 ( 83)
          -0.1194 ( 84) -0.1635 ( 91) -0.1795 ( 92)  0.1054 ( 93) -0.1012 (101)
           0.1251 (102) -0.1767 (105) -0.2254 (109)  0.2162 (114) -0.2084 (116)
          -0.1212 (127)
 CRD 70=   0.2137 (  2) -0.1266 (  6)  0.2000 (  8) -0.1270 ( 11) -0.1714 ( 15)
           0.1466 ( 16)  0.2346 ( 21) -0.1602 ( 22)  0.1562 ( 27) -0.1577 ( 28)
           0.1058 ( 39)  0.1105 ( 55) -0.1234 ( 60)  0.1129 ( 61) -0.1479 ( 66)
           0.1071 ( 69) -0.1259 ( 70)  0.1634 ( 71) -0.1220 ( 72)  0.1085 ( 75)
          -0.1143 ( 76)  0.1284 ( 85) -0.1097 ( 91) -0.1356 ( 96)  0.1014 (101)
           0.1227 (104)  0.1532 (107) -0.1341 (108)  0.1173 (112) -0.1553 (117)
           0.1320 (118)  0.1435 (120) -0.1115 (122) -0.1063 (123) -0.1165 (126)
           0.1815 (127)
 CRD 71=  -0.1399 ( 18)  0.1173 ( 23)  0.1454 ( 24)  0.3907 ( 26) -0.2161 ( 27)
          -0.1662 ( 28)  0.1871 ( 56)  0.1036 ( 62)  0.1202 ( 63) -0.2250 ( 64)
          -0.2043 ( 65)  0.2831 ( 74) -0.1590 ( 75) -0.1245 ( 76)  0.2497 (110)
          -0.2356 (111) -0.2166 (122)  0.2688 (123)
 CRD 72=   0.2192 ( 15) -0.1534 ( 16)  0.1430 ( 17) -0.1392 ( 19)  0.3180 ( 21)
          -0.2320 ( 23)  0.1035 ( 26) -0.1147 ( 27) -0.1238 ( 36) -0.1315 ( 47)
           0.1199 ( 49) -0.1773 ( 53)  0.1317 ( 58) -0.1902 ( 60)  0.1774 ( 61)
          -0.1104 ( 69)  0.1632 ( 70)  0.2356 ( 71) -0.1674 ( 73)  0.1223 ( 81)
          -0.1586 ( 85)  0.1222 (103) -0.1588 (104)  0.1713 (107) -0.2358 (108)
          -0.2381 (117)  0.1690 (118)  0.1138 (123)
 CRD 73=   0.1561 (  2)  0.1873 (  5) -0.1323 (  6)  0.1330 (  8) -0.1422 ( 13)
          -0.1004 ( 14)  0.2943 ( 15) -0.1938 ( 16) -0.1161 ( 21)  0.1758 ( 23)
          -0.1020 ( 28) -0.1664 ( 36)  0.1008 ( 39)  0.1136 ( 46) -0.1813 ( 47)
           0.1710 ( 49)  0.1004 ( 53) -0.1407 ( 66) -0.1410 ( 69)  0.2177 ( 70)
           0.1211 ( 73)  0.1656 ( 81) -0.2144 ( 85) -0.1197 ( 89)  0.1656 (103)
          -0.2144 (104)  0.1235 (108) -0.1189 (116)  0.1478 (127)
 CRD 74=   0.2663 (  3) -0.1923 ( 10) -0.2083 ( 14)  0.1580 ( 16) -0.1534 ( 18)
           0.1323 ( 22)  0.1501 ( 26) -0.1819 ( 28)  0.1078 ( 44)  0.1081 ( 48)
          -0.1250 ( 54)  0.1049 ( 56)  0.1088 ( 62) -0.1491 ( 68)  0.1106 ( 69)
           0.1061 ( 74) -0.1345 ( 76) -0.1707 ( 79)  0.1141 ( 81)  0.1519 ( 82)
          -0.1332 ( 83)  0.1066 ( 90)  0.1265 ( 91) -0.1035 ( 95)  0.1707 (102)
          -0.2346 (105) -0.1344 (111) -0.1322 (114)  0.1391 (116)  0.1292 (120)
          -0.1878 (122) -0.1674 (125)
 CRD 75=  -0.2555 (  7)  0.1838 (  8)  0.2653 (  9) -0.2676 ( 11) -0.1282 ( 17)
          -0.1065 ( 30)  0.1126 ( 31)  0.1415 ( 33)  0.1449 ( 43) -0.1525 ( 51)
           0.1226 ( 52)  0.1367 ( 55) -0.2443 ( 67)  0.1429 ( 77)  0.1036 ( 86)
          -0.1573 ( 87) -0.2297 ( 88)  0.1306 ( 89) -0.2646 ( 94)  0.1007 ( 96)
          -0.2182 ( 98) -0.1907 (106) -0.1120 (114)  0.1174 (119)  0.1224 (125)
          -0.2110 (126)
 CRD 76=  -0.1780 (  2)  0.1839 (  3) -0.1956 (  6) -0.1259 (  9)  0.2160 ( 10)
          -0.1257 ( 14)  0.1011 ( 16)  0.1156 ( 29) -0.1072 ( 34) -0.1389 ( 41)
          -0.1017 ( 44)  0.1604 ( 45)  0.1007 ( 48)  0.1085 ( 54) -0.1074 ( 55)
          -0.1152 ( 66) -0.1435 ( 79)  0.1693 ( 80)  0.1495 ( 81)  0.1761 ( 84)
           0.1137 ( 85)  0.1829 ( 86)  0.1073 ( 88) -0.1350 ( 90) -0.1207 ( 93)
           0.1221 ( 95) -0.1376 ( 99) -0.1129 (100)  0.1331 (101)  0.1060 (102)
          -0.1119 (104) -0.2466 (105) -0.1340 (112) -0.2098 (113)  0.1399 (122)
           0.1310 (123) -0.2107 (124)
 CRD 77=   0.1099 (  1) -0.1893 (  2)  0.1125 (  4) -0.1520 (  6) -0.1151 ( 22)
           0.1101 ( 34) -0.1517 ( 39)  0.1765 ( 42)  0.1163 ( 59) -0.1111 ( 77)
          -0.1371 ( 78) -0.1084 ( 81)  0.2231 ( 84) -0.1315 ( 86)  0.1087 ( 87)
           0.2668 ( 92)  0.1362 ( 99) -0.1041 (100)  0.1115 (101)  0.1253 (102)
           0.1464 (105) -0.1438 (106)  0.2157 (107)  0.1633 (108)  0.1637 (113)
          -0.1175 (114) -0.1353 (115) -0.2913 (116) -0.1719 (117) -0.1195 (118)
          -0.2450 (124)
 CRD 78=   0.1090 (  7)  0.1260 ( 32) -0.1016 ( 59) -0.1061 ( 66)  0.1093 ( 77)
          -0.2404 ( 78) -0.1567 ( 81)  0.1169 ( 84) -0.1276 ( 85) -0.3114 ( 92)
          -0.2025 ( 97)  0.1379 ( 99) -0.1467 (100)  0.1811 (102)  0.1238 (104)
           0.2029 (105) -0.2030 (107) -0.1603 (108) -0.1593 (112)  0.2308 (114)
           0.1049 (115)  0.2616 (116)  0.1632 (117)  0.1204 (118)  0.1137 (119)
           0.1410 (120)  0.1435 (122)  0.1566 (123) -0.1442 (124)
 CRD 79=   0.1751 (  2) -0.1026 ( 32) -0.1052 ( 62)  0.1176 ( 63) -0.1193 ( 77)
           0.1820 ( 80) -0.1179 ( 84)  0.1970 ( 92) -0.4172 ( 97)  0.1080 (106)
           0.1193 (107) -0.1301 (110) -0.1479 (111) -0.2921 (112) -0.1310 (114)
          -0.1481 (116)  0.1505 (119)  0.3047 (120)  0.1207 (121)  0.2649 (122)
           0.2827 (123)  0.1376 (124)
 CRD 80=   0.1389 (  1) -0.2333 (  3) -0.1265 ( 10)  0.1147 ( 34) -0.1104 ( 37)
          -0.1629 ( 39)  0.1454 ( 42)  0.1014 ( 77)  0.3576 ( 78)  0.1844 ( 81)
           0.1634 ( 85) -0.2392 ( 86) -0.1432 ( 92) -0.2108 ( 93) -0.1526 ( 95)
          -0.1062 ( 97)  0.1046 (101) -0.2705 (102) -0.1186 (103) -0.1396 (104)
          -0.2183 (105)  0.2301 (113)  0.1100 (114)  0.1319 (120) -0.1083 (124)
           0.1784 (126)
 CRD 81=   0.2009 (  1) -0.2111 (  4) -0.1579 (  7)  0.1209 (  8) -0.1334 (  9)
           0.1364 ( 11)  0.1291 ( 29) -0.1267 ( 30)  0.1482 ( 31) -0.1456 ( 33)
          -0.1128 ( 37) -0.1712 ( 40)  0.1322 ( 41)  0.1638 ( 45)  0.1074 ( 67)
           0.1866 ( 77) -0.1614 ( 78)  0.1054 ( 80) -0.1932 ( 87)  0.2306 ( 88)
          -0.2372 ( 90)  0.1620 ( 93) -0.2624 ( 95)  0.2903 (100)  0.2363 (101)
           0.1112 (102) -0.2268 (106)  0.2108 (126)

 THE DETERMINANT OF THE G MATRIX IS 10**(   -55)


                     --------------------
                     INTERNAL COORDINATES
                     --------------------

                 - - ATOMS - -         COORDINATE      COORDINATE
 NO.   TYPE    I  J  K  L  M  N        (BOHR,RAD)       (ANG,DEG)
 ----------------------------------------------------------------
   1 STRETCH   1  2                     2.7399123       1.4498993
   2 STRETCH   1  4                     2.8958410       1.5324132
   3 STRETCH   1  3                     2.9060091       1.5377939
   4 STRETCH   1 16                     2.0718613       1.0963819
   5 STRETCH   2  5                     2.5723081       1.3612069
   6 STRETCH   3  8                     2.7221473       1.4404984
   7 STRETCH   3 18                     2.0706268       1.0957286
   8 STRETCH   3 17                     2.0679730       1.0943243
   9 STRETCH   4 20                     2.0737014       1.0973556
  10 STRETCH   4 19                     2.0725065       1.0967233
  11 STRETCH   4  9                     2.7144111       1.4364046
  12 STRETCH   5  7                     2.8313660       1.4982945
  13 STRETCH   5  6                     2.3092958       1.2220268
  14 STRETCH   7 23                     2.0640713       1.0922596
  15 STRETCH   7 21                     2.0670409       1.0938310
  16 STRETCH   7 22                     2.0660913       1.0933285
  17 STRETCH   8 10                     2.5751142       1.3626918
  18 STRETCH   9 13                     2.5677916       1.3588169
  19 STRETCH  10 12                     2.3122023       1.2235649
  20 STRETCH  10 11                     2.8299223       1.4975305
  21 STRETCH  11 26                     2.0663414       1.0934609
  22 STRETCH  11 25                     2.0640637       1.0922556
  23 STRETCH  11 24                     2.0660237       1.0932927
  24 STRETCH  13 15                     2.3117068       1.2233026
  25 STRETCH  13 14                     2.8312701       1.4982437
  26 STRETCH  14 29                     2.0672044       1.0939176
  27 STRETCH  14 28                     2.0651366       1.0928233
  28 STRETCH  14 27                     2.0646205       1.0925502
  29 BEND      1  4 20                  1.9456914     111.4799047
  30 BEND      1  3 17                  1.9669595     112.6984776
  31 BEND      1  3 18                  1.9201312     110.0154117
  32 BEND      1  3  8                  1.9359071     110.9193050
  33 BEND      1  4  9                  1.9444117     111.4065846
  34 BEND      1  4 19                  1.9040090     109.0916778
  35 BEND      1  2  5                  2.0339246     116.5352926
  36 BEND      2  5  7                  1.9189806     109.9494875
  37 BEND      2  1  4                  1.8703121     107.1609891
  38 BEND      2  5  6                  2.1979803     125.9349945
  39 BEND      2  1 16                  1.9260542     110.3547761
  40 BEND      2  1  3                  1.8963159     108.6509003
  41 BEND      3  1 16                  1.9252825     110.3105589
  42 BEND      3  1  4                  1.9540982     111.9615823
  43 BEND      3  8 10                  2.0045487     114.8521798
  44 BEND      4  9 13                  2.0331233     116.4893858
  45 BEND      4  1 16                  1.8911967     108.3575885
  46 BEND      5  7 22                  1.9196289     109.9866369
  47 BEND      5  7 21                  1.9061583     109.2148271
  48 BEND      5  7 23                  1.9157365     109.7636183
  49 BEND      6  5  7                  2.1660268     124.1041949
  50 BEND      8 10 12                  2.1850572     125.1945529
  51 BEND      8  3 17                  1.9080373     109.3224837
  52 BEND      8  3 18                  1.8530641     106.1727502
  53 BEND      8 10 11                  1.9230921     110.1850617
  54 BEND      9  4 20                  1.9653787     112.6079047
  55 BEND      9  4 19                  1.8617045     106.6678125
  56 BEND      9 13 14                  1.9346513     110.8473553
  57 BEND      9 13 15                  2.1838707     125.1265767
  58 BEND     10 11 24                  1.9219686     110.1206863
  59 BEND     10 11 25                  1.9150335     109.7233392
  60 BEND     10 11 26                  1.9074985     109.2916107
  61 BEND     11 10 12                  2.1747229     124.6024466
  62 BEND     13 14 27                  1.9082501     109.3346761
  63 BEND     13 14 28                  1.9048403     109.1393084
  64 BEND     13 14 29                  1.9356842     110.9065370
  65 BEND     14 13 15                  2.1639752     123.9866461
  66 BEND     17  3 18                  1.8753121     107.4474669
  67 BEND     19  4 20                  1.8365571     105.2269692
  68 BEND     21  7 22                  1.8839526     107.9425318
  69 BEND     21  7 23                  1.9081704     109.3301097
  70 BEND     22  7 23                  1.9297592     110.5670590
  71 BEND     24 11 25                  1.9258273     110.3417744
  72 BEND     24 11 26                  1.8844270     107.9697127
  73 BEND     25 11 26                  1.9087173     109.3614445
  74 BEND     27 14 28                  1.9298843     110.5742241
  75 BEND     27 14 29                  1.8897912     108.2770626
  76 BEND     28 14 29                  1.8955040     108.6043771
  77 TORSION   1  3  8 10              -1.4108626     -80.8364707
  78 TORSION   1  2  5  6               0.0727966       4.1709388
  79 TORSION   1  2  5  7              -3.0895322    -177.0171568
  80 TORSION   1  4  9 13               1.7596562     100.8208748
  81 TORSION   2  5  7 22               0.8521580      48.8250580
  82 TORSION   2  1  4  9               2.9935805     171.5195283
  83 TORSION   2  5  7 21               2.9166760     167.1132229
  84 TORSION   2  1  3 18               0.8784475      50.3313365
  85 TORSION   2  5  7 23              -1.2747605     -73.0383960
  86 TORSION   2  1  4 20              -1.0778158     -61.7542977
  87 TORSION   2  1  3  8              -1.1665205     -66.8367021
  88 TORSION   2  1  4 19               0.9428790      54.0229878
  89 TORSION   2  1  3 17               2.9708384     170.2165004
  90 TORSION   3  1  4  9              -1.2119705     -69.4407941
  91 TORSION   3  8 10 11               3.0588199     175.2574701
  92 TORSION   3  8 10 12              -0.0568507      -3.2573057
  93 TORSION   3  1  2  5               1.5978073      91.5476155
  94 TORSION   3  1  4 19               3.0205133     173.0626654
  95 TORSION   3  1  4 20               0.9998185      57.2853799
  96 TORSION   4  9 13 14              -3.1032104    -177.8008598
  97 TORSION   4  9 13 15              -0.0002524      -0.0144632
  98 TORSION   4  1  3  8               3.0544426     175.0066683
  99 TORSION   4  1  2  5              -2.5708477    -147.2987215
 100 TORSION   4  1  3 17               0.9086162      52.0598708
 101 TORSION   4  1  3 18              -1.1837747     -67.8252930
 102 TORSION   5  2  1 16              -0.5151270     -29.5146044
 103 TORSION   6  5  7 22              -2.3097116    -132.3367245
 104 TORSION   6  5  7 23               1.8465552     105.7998215
 105 TORSION   6  5  7 21              -0.2451936     -14.0485595
 106 TORSION   8  3  1 16               0.9468883      54.2527056
 107 TORSION   8 10 11 24               0.7865499      45.0659896
 108 TORSION   8 10 11 25              -1.3365265     -76.5773278
 109 TORSION   8 10 11 26               2.8538447     163.5132574
 110 TORSION   9 13 14 27              -2.2030354    -126.2246294
 111 TORSION   9 13 14 28               1.9671948     112.7119571
 112 TORSION   9 13 14 29              -0.1203648      -6.8963961
 113 TORSION   9  4  1 16               0.9152416      52.4394798
 114 TORSION  10  8  3 17               0.7686337      44.0394668
 115 TORSION  10  8  3 18               2.7867032     159.6663316
 116 TORSION  12 10 11 26              -0.3134838     -17.9612960
 117 TORSION  12 10 11 25               1.7793303     101.9481188
 118 TORSION  12 10 11 24              -2.3807786    -136.4085638
 119 TORSION  13  9  4 19              -2.4473994    -140.2256590
 120 TORSION  13  9  4 20              -0.4413265     -25.2861437
 121 TORSION  15 13 14 29               3.0593364     175.2870655
 122 TORSION  15 13 14 28              -1.1362893     -65.1045813
 123 TORSION  15 13 14 27               0.9766659      55.9588322
 124 TORSION  16  1  3 17              -1.1989381     -68.6940919
 125 TORSION  16  1  4 20               3.1270306     179.1656538
 126 TORSION  16  1  4 19              -1.1354599     -65.0570607
 127 TORSION  16  1  3 18               2.9918564     171.4207442

     ------------------------------------------
     THE POINT GROUP IS C1 , NAXIS= 1, ORDER= 1
     ------------------------------------------

     DIMENSIONS OF THE SYMMETRY SUBSPACES ARE
 A   =  369

 ..... DONE SETTING UP THE RUN .....
 STEP CPU TIME =     0.02 TOTAL CPU TIME =        0.0 (    0.0 MIN)
 TOTAL WALL CLOCK TIME=        0.0 SECONDS, CPU UTILIZATION IS 100.00%


          -----------------------------
          STATIONARY POINT LOCATION RUN
          -----------------------------

 OBTAINING INITIAL HESSIAN, HESS=GUESS   
 DIAGONAL GUESS HESSIAN IN INTERNAL COORDS IS
     1  0.3464     2  0.3655     3  0.3616     4  0.3421     5  0.4116
     6  0.3528     7  0.3425     8  0.3435     9  0.3415    10  0.3419
    11  0.3556    12  0.3905    13  0.5395    14  0.3448    15  0.3438
    16  0.3441    17  0.4104    18  0.4135    19  0.5379    20  0.3911
    21  0.3440    22  0.3449    23  0.3442    24  0.5382    25  0.3905
    26  0.3437    27  0.3445    28  0.3447    29  0.2235    30  0.2234
    31  0.2233    32  0.2417    33  0.2423    34  0.2235    35  0.2408
    36  0.2499    37  0.2414    38  0.2568    39  0.2179    40  0.2411
    41  0.2232    42  0.2478    43  0.2413    44  0.2418    45  0.2236
    46  0.2258    47  0.2257    48  0.2258    49  0.2600    50  0.2566
    51  0.2185    52  0.2184    53  0.2498    54  0.2186    55  0.2186
    56  0.2501    57  0.2569    58  0.2258    59  0.2259    60  0.2258
    61  0.2600    62  0.2258    63  0.2258    64  0.2257    65  0.2600
    66  0.2029    67  0.2027    68  0.2030    69  0.2031    70  0.2031
    71  0.2031    72  0.2031    73  0.2031    74  0.2031    75  0.2031
    76  0.2031    77  0.2500    78  0.2500    79  0.2500    80  0.2500
    81  0.2500    82  0.2500    83  0.2500    84  0.2500    85  0.2500
    86  0.2500    87  0.2500    88  0.2500    89  0.2500    90  0.2500
    91  0.2500    92  0.2500    93  0.2500    94  0.2500    95  0.2500
    96  0.2500    97  0.2500    98  0.2500    99  0.2500   100  0.2500
   101  0.2500   102  0.2500   103  0.2500   104  0.2500   105  0.2500
   106  0.2500   107  0.2500   108  0.2500   109  0.2500   110  0.2500
   111  0.2500   112  0.2500   113  0.2500   114  0.2500   115  0.2500
   116  0.2500   117  0.2500   118  0.2500   119  0.2500   120  0.2500
   121  0.2500   122  0.2500   123  0.2500   124  0.2500   125  0.2500
   126  0.2500   127  0.2500
 TRANSFORMING HESSIAN TO SYMMETRY COORDINATES

          PARAMETERS CONTROLLING GEOMETRY SEARCH ARE
          METHOD =QA                  UPHESS =BFGS    
          NNEG   =         0          NFRZ   =         3
          NSTEP  =        50          IFOLOW =         1
          HESS   =GUESS               RESTAR =         F
          IHREP  =         0          HSSEND =         F
          NPRT   =         0          NPUN   =         0
          OPTTOL = 5.000E-04          RMIN   = 1.500E-03
          RMAX   = 1.000E-01          RLIM   = 7.000E-02
          DXMAX  = 3.000E-01          PURIFY =         F
          MOVIE  =         F          TRUPD  =         T
          TRMAX  = 5.000E-01          TRMIN  = 5.000E-02
          ITBMAT =         5          STPT   =         F
          STSTEP = 1.000E-02          PROJCT=          F
          FROZEN COORD(S)=   1   2   3


      ***** EQUILIBRIUM GEOMETRY LOCATED *****
            (SUBJECT TO   3 CONSTRAINT(S))
 COORDINATES OF ALL ATOMS ARE (ANGS)
   ATOM   CHARGE       X              Y              Z
 ------------------------------------------------------------
 C           6.0  -1.3164276770   0.7568277323   1.5724575573
 O           8.0  -1.3396678147   1.2694614256   2.9007508819
 C           6.0  -2.1923194464   1.6365037899   0.6978269388
 C           6.0   0.1427115657   0.7541032779   1.1390292418
 C           6.0  -2.1501859634   0.7339385922   3.8054668166
 O           8.0  -2.8317255127  -0.2160625598   3.5942094248
 C           6.0  -2.0798582166   1.4687254823   5.1101483015
 O           8.0  -3.5542908136   1.5366897473   1.0895707220
 O           8.0   0.2332560050   0.1018650815  -0.1229100599
 C           6.0  -4.2495457431   0.4872987914   0.6785358305
 C           6.0  -5.6255443987   0.4602996553   1.2678569842
 O           8.0  -3.8042955323  -0.3352839018  -0.0561835716
 C           6.0   0.4334211399   0.8065596488  -1.2250756605
 C           6.0   0.3529928305  -0.0296576854  -2.4682281555
 O           8.0   0.6236708606   1.9808033781  -1.2260896528
 H           1.0  -1.6835494245  -0.2555923011   1.5705825649
 H           1.0  -2.0975501275   1.3642991195  -0.3405166056
 H           1.0  -1.9292615784   2.6753959370   0.8272257906
 H           1.0   0.7214589283   0.1656710457   1.8342165580
 H           1.0   0.5514584589   1.7500036639   1.0823187493
 H           1.0  -2.8767669809   1.1346062340   5.7583716970
 H           1.0  -2.1527784290   2.5350561566   4.9370255283
 H           1.0  -1.1208214542   1.2651387415   5.5743021545
 H           1.0  -6.0694319898   1.4465691287   1.2373103798
 H           1.0  -5.5365469536   0.1579995883   2.3062838456
 H           1.0  -6.2366685924  -0.2532701147   0.7347865325
 H           1.0   1.2275524851   0.1595087370  -3.0776409284
 H           1.0  -0.5190424608   0.2954315148  -3.0266655656
 H           1.0   0.2674726941  -1.0816756772  -2.2421190500


                     --------------------
                     INTERNAL COORDINATES
                     --------------------

                 - - ATOMS - -         COORDINATE      COORDINATE
 NO.   TYPE    I  J  K  L  M  N        (BOHR,RAD)       (ANG,DEG)
 ----------------------------------------------------------------
   1 STRETCH   1  2                     2.6909171       1.4239721
   2 STRETCH   1  4                     2.8764552       1.5221547
   3 STRETCH   1  3                     2.8696440       1.5185503
   4 STRETCH   1 16                     2.0351008       1.0769291
   5 STRETCH   2  5                     2.5085963       1.3274921
   6 STRETCH   3  8                     2.6847361       1.4207012
   7 STRETCH   3 18                     2.0398893       1.0794630
   8 STRETCH   3 17                     2.0363794       1.0776056
   9 STRETCH   4 20                     2.0371454       1.0780110
  10 STRETCH   4 19                     2.0392292       1.0791137
  11 STRETCH   4  9                     2.6898600       1.4234127
  12 STRETCH   5  7                     2.8327311       1.4990169
  13 STRETCH   5  6                     2.2452204       1.1881195
  14 STRETCH   7 23                     2.0498413       1.0847294
  15 STRETCH   7 21                     2.0413352       1.0802281
  16 STRETCH   7 22                     2.0461029       1.0827511
  17 STRETCH   8 10                     2.5024071       1.3242169
  18 STRETCH   9 13                     2.5008933       1.3234159
  19 STRETCH  10 12                     2.2476641       1.1894127
  20 STRETCH  10 11                     2.8291670       1.4971308
  21 STRETCH  11 26                     2.0412703       1.0801938
  22 STRETCH  11 25                     2.0507108       1.0851895
  23 STRETCH  11 24                     2.0446597       1.0819874
  24 STRETCH  13 15                     2.2479356       1.1895564
  25 STRETCH  13 14                     2.8353172       1.5003854
  26 STRETCH  14 29                     2.0398372       1.0794354
  27 STRETCH  14 28                     2.0510108       1.0853483
  28 STRETCH  14 27                     2.0458171       1.0825999
  29 BEND      1  4 20                  1.9571319     112.1353951
  30 BEND      1  3 17                  1.9368408     110.9728013
  31 BEND      1  3 18                  1.9261382     110.3595897
  32 BEND      1  3  8                  1.9320376     110.6976014
  33 BEND      1  4  9                  1.8904546     108.3150706
  34 BEND      1  4 19                  1.9088492     109.3690021
  35 BEND      1  2  5                  2.0949338     120.0308662
  36 BEND      2  5  7                  1.9463425     111.5172118
  37 BEND      2  1  4                  1.8565737     106.3738365
  38 BEND      2  5  6                  2.1550969     123.4779546
  39 BEND      2  1 16                  1.9118694     109.5420480
  40 BEND      2  1  3                  1.8957933     108.6209546
  41 BEND      3  1 16                  1.9251205     110.3012822
  42 BEND      3  1  4                  1.9713726     112.9513313
  43 BEND      3  8 10                  2.0639585     118.2561102
  44 BEND      4  9 13                  2.0989849     120.2629737
  45 BEND      4  1 16                  1.9013912     108.9416896
  46 BEND      5  7 22                  1.9181629     109.9026370
  47 BEND      5  7 21                  1.9135258     109.6369534
  48 BEND      5  7 23                  1.8985376     108.7781902
  49 BEND      6  5  7                  2.1817007     125.0022415
  50 BEND      8 10 12                  2.1451019     122.9052861
  51 BEND      8  3 17                  1.9094899     109.4057099
  52 BEND      8  3 18                  1.8423015     105.5561017
  53 BEND      8 10 11                  1.9548251     112.0032305
  54 BEND      9  4 20                  1.9311031     110.6440569
  55 BEND      9  4 19                  1.8620564     106.6879728
  56 BEND      9 13 14                  1.9661756     112.6535626
  57 BEND      9 13 15                  2.1537915     123.4031629
  58 BEND     10 11 24                  1.9278414     110.4571753
  59 BEND     10 11 25                  1.8821206     107.8375695
  60 BEND     10 11 26                  1.9152007     109.7329149
  61 BEND     11 10 12                  2.1830808     125.0813135
  62 BEND     13 14 27                  1.9025675     109.0090854
  63 BEND     13 14 28                  1.8780532     107.6045229
  64 BEND     13 14 29                  1.9539728     111.9543939
  65 BEND     14 13 15                  2.1628034     123.9195083
  66 BEND     17  3 18                  1.9147182     109.7052733
  67 BEND     19  4 20                  1.9116524     109.5296173
  68 BEND     21  7 22                  1.9293047     110.5410155
  69 BEND     21  7 23                  1.9149653     109.7194277
  70 BEND     22  7 23                  1.8889345     108.2279741
  71 BEND     24 11 25                  1.8908167     108.3358165
  72 BEND     24 11 26                  1.9349094     110.8621396
  73 BEND     25 11 26                  1.9119842     109.5486229
  74 BEND     27 14 28                  1.8829318     107.8840465
  75 BEND     27 14 29                  1.9307289     110.6226158
  76 BEND     28 14 29                  1.9135044     109.6357263
  77 TORSION   1  3  8 10              -1.3941854     -79.8809421
  78 TORSION   1  2  5  6               0.0688071       3.9423572
  79 TORSION   1  2  5  7              -3.0825587    -176.6176026
  80 TORSION   1  4  9 13               1.8459843     105.7671088
  81 TORSION   2  5  7 22               0.8305272      47.5857049
  82 TORSION   2  1  4  9               3.0226328     173.1841039
  83 TORSION   2  5  7 21               2.9544988     169.2803136
  84 TORSION   2  1  3 18               0.8809822      50.4765624
  85 TORSION   2  5  7 23              -1.2346287     -70.7390160
  86 TORSION   2  1  4 20              -1.1245720     -64.4332321
  87 TORSION   2  1  3  8              -1.1520998     -66.0104588
  88 TORSION   2  1  4 19               0.9995813      57.2717913
  89 TORSION   2  1  3 17               3.0073335     172.3075147
  90 TORSION   3  1  4  9              -1.1824333     -67.7484375
  91 TORSION   3  8 10 11               3.0537774     174.9685574
  92 TORSION   3  8 10 12              -0.0684971      -3.9245957
  93 TORSION   3  1  2  5               1.7105066      98.0048116
  94 TORSION   3  1  4 19               3.0777005     176.3392499
  95 TORSION   3  1  4 20               0.9535471      54.6342265
  96 TORSION   4  9 13 14              -3.0334361    -173.8030875
  97 TORSION   4  9 13 15               0.0782648       4.4842432
  98 TORSION   4  1  3  8               3.0758228     176.2316622
  99 TORSION   4  1  2  5              -2.4457737    -140.1325123
 100 TORSION   4  1  3 17               0.9520707      54.5496357
 101 TORSION   4  1  3 18              -1.1742805     -67.2813166
 102 TORSION   5  2  1 16              -0.3932651     -22.5324298
 103 TORSION   6  5  7 22              -2.3210172    -132.9844878
 104 TORSION   6  5  7 23               1.8970122     108.6907914
 105 TORSION   6  5  7 21              -0.1970456     -11.2898790
 106 TORSION   8  3  1 16               0.9434539      54.0559264
 107 TORSION   8 10 11 24               0.7608578      43.5939386
 108 TORSION   8 10 11 25              -1.3023524     -74.6192953
 109 TORSION   8 10 11 26               2.8992557     166.1151134
 110 TORSION   9 13 14 27              -2.2655398    -129.8058673
 111 TORSION   9 13 14 28               1.9799981     113.4455342
 112 TORSION   9 13 14 29              -0.1236843      -7.0865869
 113 TORSION   9  4  1 16               0.9631867      55.1865356
 114 TORSION  10  8  3 17               0.7455748      42.7182878
 115 TORSION  10  8  3 18               2.8046975     160.6973323
 116 TORSION  12 10 11 26              -0.2621564     -15.0204554
 117 TORSION  12 10 11 25               1.8194208     104.2451358
 118 TORSION  12 10 11 24              -2.4005543    -137.5416302
 119 TORSION  13  9  4 19              -2.3839667    -136.5912281
 120 TORSION  13  9  4 20              -0.3057952     -17.5207720
 121 TORSION  15 13 14 29               3.0479801     174.6363949
 122 TORSION  15 13 14 28              -1.1315229     -64.8314840
 123 TORSION  15 13 14 27               0.9061246      51.9171145
 124 TORSION  16  1  3 17              -1.1802981     -67.6261001
 125 TORSION  16  1  4 20               3.0991672     177.5691997
 126 TORSION  16  1  4 19              -1.0598647     -60.7257770
 127 TORSION  16  1  3 18               2.9765360     170.5429476

          INTERNUCLEAR DISTANCES (ANGS.)


 =====================================================
   GAMESS/COSab RESULTS
 =====================================================

   Dielectric Constant                  = INFTY
   Basic Grid Size                      =                 1082
   Number of Segments                   =                   92
   Number of Segments located on spheres=                  401
   Number of Segments of the cavity     =                  935
   Solvent Radius (rsolv)               = 1.40
   Outlying Charge Error Method         = double cavity

 =====================================================

  Total solvated Energy (a.u.)          =  -798.4298180956
  Total Energy corrected (a.u.)         =  -798.4294050444

  Outlying charge effect (a.u.)         =     0.0004130512
  Outlying charge effect (kcal/mol)     =     0.2591937276

  Dielectric Energy (a.u.)              =    -0.0275469565
  Dielectric energy corr. (a.u.)        =    -0.0271339054

  Sum of polarization charges           =     0.0224603759
  Sum of polarization charges(cor.)     =    -0.0224603759

  Total surface area of cavity (A**2)   =  237.54
  Total volume of cavity (A**3)         =  257.93

 =====================================================
 NPS=                   935
NR.  ATOM  (X, Y, Z)(a.u.)                  CHARGE(e)  AREA(A**2) SIGMA(e/A**2)
   1   1  -1.407002  -1.873109   4.456294  -0.000436   0.046456  -0.009382
   2   2   0.362885   2.924443   6.863794   0.001474   0.103077   0.014303
   3   2  -1.244058   5.331178   6.037279   0.003250   0.206154   0.015766
   4   2  -1.081089   5.307529   5.455892   0.002045   0.137436   0.014877
   5   2   0.009964   4.152414   6.496680   0.001983   0.137436   0.014429
   6   2  -0.450600   4.797777   6.174129   0.004494   0.274871   0.016348
   7   2  -1.971843   5.600442   5.521547   0.003126   0.206154   0.015163
   8   2   0.178505   3.573750   6.837989   0.001416   0.103077   0.013733
   9   2   0.320094   2.132009   7.018245   0.001004   0.068718   0.014618
  10   2  -0.317600   4.385161   6.792228   0.000219   0.068718   0.003189
  11   3  -5.729019   5.470209  -1.154170  -0.000707   0.232280  -0.003043
  12   3  -5.430642   4.734501  -1.832468  -0.001017   0.325193  -0.003126
  13   3  -6.201198   4.666190  -1.432882  -0.000983   0.232280  -0.004231
  14   3  -4.755279   5.683554  -1.363803  -0.000429   0.232280  -0.001847
  15   3  -3.764208   5.809618  -1.280971  -0.000427   0.185824  -0.002300
  16   3  -6.066034   5.816248  -0.460945  -0.000629   0.232280  -0.002706
  17   3  -5.271832   6.189241  -0.530662  -0.000720   0.232280  -0.003099
  18   3  -4.402129   5.144238  -1.844768  -0.000768   0.232280  -0.003306
  19   3  -5.893614   6.288376   0.315798  -0.000701   0.232280  -0.003018
  20   3  -4.345234   6.174469  -0.859596  -0.000288   0.185824  -0.001551
  21   4   4.036144   1.340362   1.851121  -0.000910   0.325193  -0.002799
  22   4   2.398264   3.285810   4.660638  -0.000974   0.325193  -0.002996
  23   4   2.935088   2.328729   4.675002  -0.000463   0.185824  -0.002493
  24   4   3.974448   0.974369   2.748961  -0.000692   0.232280  -0.002979
  25   4   0.062956  -2.146641   3.370885  -0.000544   0.139368  -0.003904
  26   4   0.031474  -2.318546   2.613990  -0.000581   0.139368  -0.004168
  27   4   3.889419   0.463099   1.646136  -0.000763   0.232280  -0.003285
  28   4   3.951578   2.048041   2.735331  -0.000550   0.325193  -0.001691
  29   4   3.225552   2.918337   3.973767  -0.000406   0.325193  -0.001249
  30   4   2.130348   2.474609   5.270248  -0.000890   0.278737  -0.003194
  31   4   3.908660   2.374854   1.778400  -0.001209   0.278737  -0.004336
  32   4   1.816928   3.807777   4.645028  -0.000536   0.139368  -0.003848
  33   4   3.659271   2.051847   3.702311  -0.000345   0.278737  -0.001237
  34   4   3.683783  -0.190154   2.013735  -0.000751   0.185824  -0.004042
  35   4   0.698078  -2.295243   2.662511  -0.000500   0.139368  -0.003589
  36   4   3.644784   2.952116   2.901444  -0.000491   0.232280  -0.002113
  37   5  -1.977295  -1.694062   7.854873  -0.000783   0.232280  -0.003372
  38   5  -0.636356   0.036884   8.038567  -0.001065   0.092912  -0.011465
  39   5  -1.909920  -1.710395   6.959331  -0.000612   0.139368  -0.004391
  40   5  -3.243985  -1.422568   9.582867  -0.000221   0.092912  -0.002383
  41   5  -1.353321  -1.187706   7.749507  -0.002587   0.278737  -0.009281
  42   5  -2.131927  -1.324712   8.980445  -0.002726   0.464561  -0.005867
  43   5  -1.137288  -0.637532   8.465807  -0.002276   0.278737  -0.008165
  44   6  -7.098941  -3.094844   6.251309   0.004017   0.274871   0.014613
  45   6  -6.345111  -2.176728   9.331624   0.004261   0.240512   0.017717
  46   6  -4.065134  -3.346238   7.320486   0.004233   0.343589   0.012320
  47   6  -7.695662  -2.649052   7.008934   0.003774   0.240512   0.015690
  48   6  -7.097759  -3.032155   7.585439   0.005328   0.377948   0.014097
  49   6  -6.962348  -2.606781   8.562774   0.005494   0.343589   0.015990
  50   6  -6.200647  -3.542107   6.642852   0.005337   0.412307   0.012944
  51   6  -4.999051  -3.639311   6.826559   0.004424   0.343589   0.012876
  52   6  -6.568127  -3.159470   5.561328   0.004043   0.240512   0.016812
  53   6  -5.786085  -3.226775   5.232681   0.003115   0.171795   0.018131
  54   6  -8.093326  -1.225171   8.334127   0.004143   0.240512   0.017224
  55   6  -7.472034  -1.645986   8.921550   0.004300   0.240512   0.017877
  56   6  -5.754025  -2.870783   8.874970   0.005123   0.343589   0.014910
  57   6  -4.756063  -3.287094   8.178784   0.005441   0.412307   0.013196
  58   6  -4.006203  -3.298753   6.158861   0.004724   0.343589   0.013749
  59   6  -4.719306  -3.275765   5.398147   0.003153   0.171795   0.018355
  60   6  -8.086554  -0.218159   8.537395   0.002546   0.137436   0.018525
  61   6  -6.787697  -1.672866   9.419209   0.002716   0.171795   0.015809
  62   6  -5.497425  -2.168000   9.520924   0.003527   0.206154   0.017109
  63   6  -3.809737  -2.589595   8.644233   0.001716   0.206154   0.008326
  64   6  -3.493254  -2.807674   7.956427   0.002566   0.240512   0.010670
  65   6  -3.161483  -2.810354   6.793194   0.004556   0.377948   0.012055
  66   6  -7.840685  -2.102225   8.015820   0.004859   0.274871   0.017679
  67   6  -5.954816  -3.428739   7.829935   0.006169   0.446666   0.013811
  68   6  -5.357954  -3.518536   5.848134   0.003842   0.274871   0.013977
  69   6  -7.722688  -0.854041   8.969646   0.002902   0.137436   0.021113
  70   6  -4.610751  -2.499223   9.167863   0.004601   0.343589   0.013390
  71   7  -3.100210   1.083851  12.932980   0.000350   0.278737   0.001256
  72   7  -4.344486   4.827342  12.803619  -0.000303   0.371649  -0.000815
  73   7  -6.990051   4.984943   9.858809   0.000566   0.464561   0.001219
  74   7  -0.624308   4.484288   8.997793  -0.000018   0.232280  -0.000078
  75   7  -0.721588   4.771934   9.703836   0.000065   0.232280   0.000282
  76   7  -1.212750   5.267870   8.828014  -0.000158   0.185824  -0.000851
  77   7  -7.229455   4.281177  10.721248   0.000145   0.278737   0.000519
  78   7  -5.195054   4.093372  12.965547  -0.000385   0.418105  -0.000920
  79   7  -3.924576   0.809413  12.884595   0.000288   0.325193   0.000886
  80   7  -1.389287   5.149969  11.136308   0.000389   0.418105   0.000930
  81   7  -1.736652   5.729920  10.518859   0.000036   0.232280   0.000154
  82   7  -3.913190  -0.610676  11.335443  -0.000353   0.278737  -0.001266
  83   7  -3.457863  -0.111440  12.049830   0.000387   0.325193   0.001189
  84   7  -3.235481   2.185761  13.324697   0.000348   0.418105   0.000833
  85   7  -3.898139   3.667663  13.329273  -0.000185   0.418105  -0.000443
  86   7  -5.454888   5.018537  12.289031   0.000088   0.325193   0.000271
  87   7  -6.434892   5.255661  11.020695   0.000434   0.371649   0.001167
  88   7  -7.422647   4.189596   9.359361   0.000035   0.325193   0.000107
  89   7  -7.596271   3.384773   8.968223  -0.000648   0.139368  -0.004649
  90   7  -2.853675   0.328130  12.328011   0.000026   0.232280   0.000111
  91   7  -2.085405   4.741209  12.305609  -0.000141   0.418105  -0.000338
  92   7  -3.205088   4.845103  12.734909  -0.000380   0.464561  -0.000817
  93   7  -4.195738   5.681552  12.058563  -0.000333   0.418105  -0.000797
  94   7  -6.743077   5.016741   8.495046  -0.000743   0.278737  -0.002666
  95   7  -1.259857   5.447938   9.759945   0.000315   0.278737   0.001130
  96   7  -7.679104   3.255275   9.625683  -0.000497   0.232280  -0.002141
  97   7  -6.315028   4.720223  11.851221   0.000195   0.278737   0.000699
  98   7  -4.178874   2.615433  13.424652  -0.000120   0.371649  -0.000323
  99   7  -4.445157  -0.281170  11.819214  -0.000316   0.232280  -0.001361
 100   7  -2.647753   5.638062  11.765046  -0.000113   0.418105  -0.000269
 101   7  -2.622607  -0.494911  11.027393  -0.000546   0.464561  -0.001174
[...]
 676   7  -0.400491   3.980368   9.673969  -0.000970   0.153429  -0.006323
 677   7  -0.930315   4.530611  11.010020  -0.000832   0.153429  -0.005420
 678   7  -1.647482   4.088671  12.297992  -0.000972   0.153429  -0.006338
 679   7  -2.242590   2.845213  12.982223  -0.000968   0.153429  -0.006310
 680   7  -2.458893   1.336695  12.767517  -0.000778   0.153429  -0.005073
 681   7  -2.203074   0.213929  11.746505  -0.000945   0.153429  -0.006157
 682   7  -1.744051  -0.148040  10.639317  -0.000676   0.085908  -0.007864
 683  25  -9.910529   1.502763   6.729869  -0.001014   0.386876  -0.002621
 684   7  -8.001163   2.585610   8.562444  -0.000587   0.635044  -0.000925
 685   8  -9.214253   4.562990   0.507485   0.000156   0.089645   0.001737
 686  10  -9.511439   4.302106   0.309465  -0.000557   0.089645  -0.006208
 687  24 -10.151782   4.390753   0.676837  -0.000809   0.089645  -0.009023
 688  10  -8.746082   4.194958  -0.363802  -0.000808   0.256979  -0.003145
 689   8  -8.123148   4.537863  -0.304828   0.000998   0.240836   0.004144
 690   8  -9.240911   4.510716   3.834329   0.000486   0.062028   0.007834
 691  11  -9.987407   4.273685   3.992861  -0.000145   0.062028  -0.002344
 692  24 -10.202528   4.406823   3.827548  -0.000306   0.062028  -0.004941
 693  11  -9.621777   3.884812   4.629177   0.000147   0.316870   0.000463
 694   8  -8.661006   4.453543   4.281607   0.003066   0.287267   0.010673
 695  18  -5.563436   6.670467   1.936375  -0.001144   0.193315  -0.005918
 696  18  -5.279501   6.481616   2.875404  -0.001191   0.193315  -0.006159
 697   8  -6.388506   6.127461   2.608077   0.001588   0.465069   0.003414
 698  22  -5.475023   5.802078   7.172580  -0.001520   0.397189  -0.003827
 699   8  -6.583612   5.303427   4.827101   0.002405   0.540476   0.004449
 700  24 -10.345700   4.745135   3.547427  -0.000775   0.243192  -0.003188
 701  24 -10.430159   5.039071   2.288819  -0.002596   0.490049  -0.005298
 702  24 -10.494265   4.758138   1.026047  -0.001168   0.243192  -0.004802
 703   8  -9.007540   5.153458   3.069546   0.005198   0.597040   0.008706
 704   8  -9.108998   5.162338   1.347648   0.003872   0.597040   0.006485
 705   9  -2.376372  -2.084283   0.341129   0.001384   0.328562   0.004213
 706  12  -3.906081  -2.241477   0.367382   0.003597   0.328562   0.010947
 707  16  -3.099706  -2.210223   1.024273  -0.002200   0.328562  -0.006697
 708  12  -4.247531  -2.675045  -0.482583   0.004282   0.335786   0.012751
 709   9  -2.002614  -2.447402  -0.382698   0.003321   0.335786   0.009889
 710   9   3.147185  -1.434255  -1.372533  -0.000006   0.052081  -0.000114
 711  13   3.317101  -1.274891  -1.746226  -0.000499   0.052081  -0.009578
 712  14   3.259464  -1.524591  -2.163521  -0.000538   0.052081  -0.010328
 713  13   3.721519  -0.275754  -0.888095  -0.001540   0.298507  -0.005158
 714   9   3.400991  -0.869232  -0.585269   0.001290   0.279755   0.004610
 715   9   2.216236  -2.448322  -1.614511   0.000275   0.066408   0.004146
 716  14   2.354092  -2.618578  -2.387414  -0.000327   0.066408  -0.004927
 717  29   2.162180  -2.841195  -2.454190  -0.000374   0.066408  -0.005637
 718  14   3.006503  -2.075746  -2.310753  -0.000960   0.325446  -0.002950
 719   9   2.685115  -2.083804  -1.179754   0.001682   0.294981   0.005701
 720  16  -2.516776  -2.540963   1.501732  -0.001531   0.239552  -0.006392
 721  16  -1.873307  -2.615517   2.214315  -0.001499   0.239552  -0.006259
 722   9  -1.134408  -2.579191   0.900163   0.002828   0.590031   0.004792
 723  19   2.337862  -1.788484   2.567561  -0.002181   0.314681  -0.006931
 724   9   2.422517  -1.868376   1.438877   0.001467   0.383502   0.003825
 725  29   1.847514  -3.210761  -2.362791  -0.000939   0.256014  -0.003669
 726  29   0.485440  -3.511459  -2.216847  -0.002676   0.517464  -0.005170
 727  29  -0.875078  -3.223985  -2.399365  -0.001028   0.256014  -0.004015
 728   9   1.394671  -2.898631  -1.031324   0.005682   0.625199   0.009089
 729   9  -0.461217  -2.907645  -1.056255   0.006790   0.625199   0.010860
 730  10 -10.278258   0.116069  -1.657793   0.000015   0.036768   0.000420
 731  11 -10.706990   0.113409  -1.424526  -0.000207   0.036768  -0.005618
 732  12 -10.039009  -0.155890  -1.809520   0.000252   0.036768   0.006867
 733  10  -8.427158  -2.629995   2.538460  -0.000096   0.036768  -0.002623
 734  11  -8.880833  -2.595653   2.715183  -0.000285   0.036768  -0.007752
 735  12  -8.259555  -2.795671   2.224320   0.000173   0.036768   0.004707
 736  10 -10.215708   3.797672  -0.143709  -0.000407   0.025981  -0.015666
 737  11 -10.673683   3.820539   0.023303  -0.000331   0.025981  -0.012751
 738  24 -10.840297   3.984084   0.212973  -0.000315   0.025981  -0.012114
 739  11  -9.092446  -2.562221   3.125443  -0.000448   0.066477  -0.006734
 740  10  -8.419912  -2.520510   2.920186  -0.000344   0.066477  -0.005180
 741  11 -10.729946   3.384989  -0.425410  -0.001466   0.217152  -0.006753
 742  11 -11.016219   1.514219  -1.179535  -0.003394   0.442925  -0.007663
 743  10 -10.217998   2.702768  -1.038782  -0.005298   0.442925  -0.011961
 744  10 -10.434147   0.765874  -1.632208  -0.000994   0.217152  -0.004578
 745  10  -6.967617   2.095947  -2.231216   0.000000   0.101902   0.000005
 746  12  -6.823664   1.766534  -2.397838   0.000683   0.101902   0.006706
 747  17  -6.099652   2.343030  -2.323615  -0.000511   0.101902  -0.005013
 748  12  -7.723303  -2.944060   2.161291   0.000655   0.060275   0.010868
 749  10  -8.037609  -2.671061   2.552412   0.000104   0.064315   0.001619
 750  12  -9.529334   0.020926  -2.252752   0.001272   0.146843   0.008664
 751  12  -8.155203   1.048629  -2.570624   0.002404   0.313166   0.007676
 752  10  -9.300448   0.856936  -2.162795   0.000815   0.305124   0.002670
 753  10  -7.809839   1.848022  -2.369083   0.000341   0.156686   0.002177
 754  17  -5.814901   2.910867  -2.385438  -0.001198   0.154682  -0.007743
 755  10  -7.116679   2.682442  -2.138474  -0.000611   0.218044  -0.002800
 756  24 -10.770602   4.320710   0.520097  -0.000972   0.126323  -0.007691
 757  10  -9.891802   4.048395  -0.106040  -0.001032   0.178220  -0.005792
 758  11 -10.353950  -2.772429   1.291975  -0.000107   0.063275  -0.001687
 759  12  -9.684104  -2.880496   0.838804   0.000845   0.063275   0.013356
 760  26 -10.612533  -2.758408   1.137762  -0.000278   0.063275  -0.004400
 761  11 -11.085431  -0.271787  -1.216751  -0.000320   0.063275  -0.005057
 762  12 -10.373463  -0.523854  -1.525456   0.000289   0.063275   0.004560
 763  26 -11.275677  -0.491387  -1.136588  -0.000370   0.063275  -0.005843
 764  12  -8.626645  -3.046780   1.560689   0.004285   0.476496   0.008992
 765  11  -9.766647  -2.826631   1.956518  -0.000617   0.525951  -0.001173
 766  12 -10.031787  -0.453391  -1.930400   0.000674   0.073539   0.009165
 767  11 -10.992898  -0.021316  -1.415843  -0.000095   0.081204  -0.001164
 768  24 -11.375621   4.019418   0.247967  -0.000450   0.069087  -0.006517
 769  24 -12.397163   3.560753   0.283173  -0.000976   0.153813  -0.006349
 770  24 -13.441036   3.113786   1.020458  -0.000964   0.153813  -0.006268
 771  24 -13.859660   2.964998   2.299387  -0.000996   0.153813  -0.006476
 772  24 -13.476446   3.177153   3.580471  -0.000993   0.153813  -0.006458
 773  24 -12.453044   3.660757   4.323316  -0.000857   0.153813  -0.005571
 774  24 -11.221155   4.211813   4.214569  -0.001067   0.153813  -0.006936
 775  11 -11.613617   3.540067  -0.018282  -0.001010   0.151006  -0.006687
 776  11 -12.963199   2.944114   0.351034  -0.000712   0.151006  -0.004713
 777  11 -13.831677   2.590336   1.548327  -0.000725   0.151006  -0.004799
 778  11 -13.852704   2.627965   3.068546  -0.000875   0.151006  -0.005795
 779  11 -13.017410   3.041129   4.270421  -0.000788   0.151006  -0.005220
 780  11 -11.678146   3.655543   4.646968  -0.000721   0.151006  -0.004778
 781  11 -10.591087   4.134136   4.303218  -0.000374   0.084405  -0.004429
 782  25 -10.571019   2.018756   6.106653  -0.000513   0.070746  -0.007250
 783  25 -11.607301   1.545836   6.057794  -0.001115   0.157983  -0.007059
 784  25 -12.375398   0.432853   5.799624  -0.001195   0.157983  -0.007565
 785  25 -12.267767  -0.882447   5.407506  -0.001140   0.157983  -0.007218
 786  25 -11.331300  -1.827010   5.052281  -0.000887   0.157983  -0.005617
 787  25 -10.234863  -2.089207   4.881987  -0.000585   0.070746  -0.008263
 788  11 -11.091603   2.191624   5.852357  -0.000795   0.154218  -0.005153
 789  11 -12.327393   1.276214   5.691784  -0.000898   0.154218  -0.005821
 790  11 -12.720310  -0.168393   5.304922  -0.000966   0.154218  -0.006265
 791  11 -12.099167  -1.512806   4.860321  -0.000762   0.154218  -0.004941
 792  11 -10.734585  -2.171287   4.551686  -0.000883   0.154218  -0.005723
 793  26 -11.196998  -2.862587   1.479821  -0.000394   0.066668  -0.005909
 794  26 -11.989149  -2.730775   2.211495  -0.000851   0.147496  -0.005773
 795  26 -13.072344  -2.102601   2.612403  -0.000864   0.147496  -0.005861
 796  26 -13.913741  -1.143900   2.293682  -0.000874   0.147496  -0.005924
 797  26 -14.179641  -0.234894   1.381737  -0.000893   0.147496  -0.006051
 798  26 -13.764589   0.263905   0.238246  -0.000841   0.147496  -0.005705
 799  26 -12.833193   0.154672  -0.683280  -0.000836   0.147496  -0.005667
 800  26 -11.937430  -0.331348  -1.059601  -0.000461   0.066668  -0.006910
 801  11 -11.185203  -2.809799   2.065233  -0.000756   0.146590  -0.005159
 802  11 -12.356307  -2.409277   2.871647  -0.000618   0.146590  -0.004219
 803  11 -13.495449  -1.470025   2.920293  -0.000711   0.146590  -0.004851
 804  11 -14.150845  -0.364552   2.191876  -0.000809   0.146590  -0.005518
 805  11 -14.062563   0.468710   0.975289  -0.000715   0.146590  -0.004877
 806  11 -13.265617   0.699290  -0.246969  -0.000656   0.146590  -0.004476
 807  11 -12.076076   0.235737  -0.990149  -0.000911   0.146590  -0.006214
 808  14  -2.794537  -2.267060  -3.901995   0.000149   0.458582   0.000325
 809  14  -3.243033  -1.524554  -4.580924  -0.000254   0.458582  -0.000555
 810  12  -5.311129  -1.936462  -2.771613   0.009002   0.767036   0.011736
 811  16  -4.318013  -2.789513   2.525272  -0.001702   0.307233  -0.005540
 812  16  -3.605880  -2.657870   1.590438  -0.001620   0.307233  -0.005273
 813  12  -5.112858  -2.942716   1.150277   0.008519   0.758290   0.011235
 814  17  -5.404675   2.178351  -2.754255  -0.001765   0.243857  -0.007237
 815  12  -6.521974   1.416532  -2.758609   0.003056   0.300772   0.010159
 816  26 -11.412765  -0.957516  -1.141666  -0.000860   0.266561  -0.003228
 817  26 -11.218928  -2.131141  -0.423893  -0.002330   0.537827  -0.004333
 818  26 -10.867335  -2.822123   0.728969  -0.000683   0.266561  -0.002562
 819  12 -10.083620  -1.569967  -1.522760   0.006646   0.654958   0.010147
 820  12  -9.711270  -2.842881  -0.245731   0.007951   0.654958   0.012139
 821  28  -3.544971  -0.460653  -5.293013  -0.000762   0.244781  -0.003111
 822  28  -3.692621   0.460882  -5.260642  -0.002253   0.486467  -0.004631
 823  12  -5.867043  -0.568025  -3.515933   0.005714   0.672723   0.008494
 824  12  -5.979802   0.472953  -3.419613   0.002769   0.338769   0.008173
 825  29  -1.688362  -3.072848  -2.863546  -0.000150   0.203684  -0.000737
 826  29  -1.964150  -3.019106  -3.395611  -0.000216   0.203684  -0.001063
 827  12  -4.592852  -2.696734  -1.660278   0.005581   0.567139   0.009840
 828  13   4.360886   0.754886  -3.707840  -0.000449   0.027802  -0.016155
 829  14   4.375333   0.481126  -4.112930  -0.000344   0.027802  -0.012380
 830  27   4.424488   0.528226  -4.406302  -0.000376   0.027802  -0.013527
 831  14   4.303826   0.008431  -3.655094  -0.001585   0.230022  -0.006892
 832  14   3.706634  -1.249127  -2.770535  -0.001522   0.230022  -0.006619
 833  13   3.993216  -0.212025  -2.640421  -0.006086   0.471394  -0.012912
 834  13  -2.125110   3.618649  -3.625929  -0.000509   0.112320  -0.004533
 835  15  -1.964296   3.975668  -3.563776   0.000309   0.112320   0.002755
 836  17  -2.921801   3.646559  -3.042803  -0.001254   0.112320  -0.011165
 837  13   4.014950   2.510051  -4.122597  -0.000195   0.064019  -0.003047
 838  15   3.953101   2.894461  -4.066162   0.000244   0.064019   0.003819
 839  27   4.014990   2.134964  -4.756252  -0.000536   0.064019  -0.008365
 840  13  -1.766095   3.415549  -4.354123  -0.000298   0.055249  -0.005399
 841  15  -1.588183   3.758875  -4.284580   0.000167   0.055249   0.003014
 842  28  -1.894613   2.995936  -4.936978  -0.000621   0.055249  -0.011247
 843  15   4.130219   3.263083  -1.055813   0.000999   0.141845   0.007045
 844  15   4.255727   3.241304  -2.741103   0.002232   0.300939   0.007416
 845  13   4.253320   2.687317  -1.675554   0.000647   0.294824   0.002194
 846  13   4.237391   2.688401  -3.420585   0.000408   0.151353   0.002694
 847  15  -1.609291   4.190422  -4.001932   0.000229   0.019477   0.011750
 848  13  -1.823249   3.669761  -4.041433   0.000014   0.020783   0.000653
 849  13  -2.281899   3.088121  -3.967411  -0.002105   0.208251  -0.010107
 850  17  -3.068793   3.087203  -3.366401  -0.002741   0.208251  -0.013164
 851  28  -2.407855   2.658789  -4.551295  -0.002419   0.208251  -0.011616
 852  17  -3.557603   3.593545  -3.008423  -0.000498   0.026813  -0.018564
 853  13  -2.339469   3.481595  -3.800506   0.000057   0.038047   0.001497
 854  27   4.332158   1.322206  -4.917437  -0.002892   0.301333  -0.009599
 855  13   4.341518   1.492234  -3.798259  -0.002559   0.424303  -0.006031
 856  28  -2.244927   2.698947  -5.277972  -0.000462   0.029243  -0.015815
 857  13  -1.979770   3.281586  -4.396007  -0.000117   0.041323  -0.002825
 858  14   2.349035   3.015103  -6.162737  -0.000154   0.054203  -0.002844
 859  15   2.368642   3.606125  -5.606138   0.000488   0.054203   0.009006
 860  27   2.575600   2.841374  -6.260635  -0.000318   0.054203  -0.005863
 861  14  -0.635861   3.276665  -5.959560  -0.000275   0.048411  -0.005670
 862  15  -0.468447   3.851626  -5.411396   0.000184   0.048411   0.003797
 863  28  -0.885986   3.133746  -6.052626  -0.000446   0.048411  -0.009205
 864  15   1.817847   4.214628  -5.533992   0.004539   0.364917   0.012438
 865  15   0.176152   4.361646  -5.414204   0.004234   0.364917   0.011602
 866  14   0.864280   3.346206  -6.136971   0.000147   0.801911   0.000183
 867  27   4.544475   0.169324  -4.780137  -0.000477   0.066717  -0.007146
 868  27   4.401771  -0.781128  -5.279961  -0.000953   0.147404  -0.006465
 869  27   3.874688  -1.482953  -6.254227  -0.000960   0.147404  -0.006512
 870  27   3.114644  -1.401691  -7.319731  -0.000987   0.147404  -0.006696
 871  27   2.420351  -0.569280  -8.057713  -0.000982   0.147404  -0.006659
 872  27   2.064675   0.687129  -8.178134  -0.000857   0.147404  -0.005814
 873  27   2.187405   1.873746  -7.633666  -0.000975   0.147404  -0.006616
 874  27   2.591121   2.511262  -6.856406  -0.000501   0.066717  -0.007510
 875  14   4.390005  -0.360360  -4.576006  -0.001012   0.146912  -0.006886
 876  14   4.026722  -1.490878  -5.448275  -0.000709   0.146912  -0.004824
 877  14   3.265241  -1.858011  -6.655029  -0.000746   0.146912  -0.005081
 878  14   2.404837  -1.317470  -7.721995  -0.000889   0.146912  -0.006050
 879  14   1.783662  -0.081698  -8.229837  -0.000798   0.146912  -0.005433
 880  14   1.645848   1.363628  -7.978966  -0.000666   0.146912  -0.004537
 881  14   2.045559   2.450470  -7.067976  -0.000787   0.146912  -0.005359
 882  28  -1.012741   2.833696  -6.647457  -0.000494   0.067396  -0.007323
 883  28  -0.725081   2.185299  -7.474114  -0.000926   0.148953  -0.006219
 884  28  -0.778089   1.012585  -8.074034  -0.001061   0.148953  -0.007120
 885  28  -1.288412  -0.199527  -7.982777  -0.001114   0.148953  -0.007481
 886  28  -2.053909  -0.970915  -7.236488  -0.001125   0.148953  -0.007554
 887  28  -2.771364  -0.996030  -6.130776  -0.001067   0.148953  -0.007161
 888  14  -0.486371   2.714689  -6.888948  -0.000955   0.148382  -0.006435
 889  14  -0.266029   1.624791  -7.867506  -0.000735   0.148382  -0.004956
 890  14  -0.599436   0.213333  -8.168558  -0.000879   0.148382  -0.005925
 891  14  -1.354530  -0.960600  -7.672856  -0.000949   0.148382  -0.006398
 892  14  -2.232214  -1.432010  -6.576750  -0.000806   0.148382  -0.005430
 893  14  -2.817932  -1.232377  -5.545915  -0.000536   0.082339  -0.006514
 894  29  -1.725582  -3.069988  -4.132059  -0.000469   0.065653  -0.007137
 895  29  -1.349589  -3.310062  -5.106851  -0.000821   0.144873  -0.005668
 896  29  -0.352345  -3.561396  -5.899059  -0.000920   0.144873  -0.006349
 897  29   0.939490  -3.677885  -5.952455  -0.000939   0.144873  -0.006481
 898  29   2.027038  -3.614545  -5.246420  -0.000833   0.144873  -0.005750
 899  29   2.490312  -3.395835  -4.053607  -0.000882   0.144873  -0.006090
 900  29   2.326232  -3.160494  -3.020690  -0.000417   0.065653  -0.006353
 901  14  -1.831800  -2.835489  -4.656025  -0.000727   0.144720  -0.005022
 902  14  -1.054644  -3.154945  -5.848428  -0.000769   0.144720  -0.005316
 903  14   0.298407  -3.372361  -6.348256  -0.000841   0.144720  -0.005812
 904  14   1.704836  -3.403777  -5.962488  -0.000792   0.144720  -0.005475
 905  14   2.621511  -3.237060  -4.840098  -0.000671   0.144720  -0.004633
 906  14   2.694433  -2.936592  -3.414529  -0.000780   0.144720  -0.005392
 907  17  -3.469843   4.136876  -2.750290  -0.001161   0.229222  -0.005063
 908  15  -2.041399   4.493134  -3.504731   0.001370   0.289065   0.004741
 909  15   0.152156   5.849170   0.328270   0.003603   0.311575   0.011565
 910  18  -0.933889   5.962443   1.090077  -0.002046   0.311575  -0.006566
 911  20   0.150935   5.659903   1.205322  -0.001761   0.311575  -0.005652
 912  18  -1.533532   6.611822   0.873482  -0.001441   0.295004  -0.004883
 913  18  -2.302579   6.629370  -0.088628  -0.002579   0.590614  -0.004367
 914  15  -0.306606   6.470691  -0.675768   0.007402   0.756627   0.009782
 915  15  -1.171791   6.370641  -1.717627   0.003200   0.380574   0.008409
 916  20   3.373150   4.053075   1.225393  -0.000758   0.203943  -0.003718
 917  20   2.717539   5.037859   1.303346  -0.001739   0.410975  -0.004231
 918  20   1.429785   5.692246   1.328488  -0.001750   0.410975  -0.004259
 919  15   3.388145   4.674346   0.024244   0.005778   0.497025   0.011625
 920  15   2.267103   5.792401   0.100962   0.006913   0.497025   0.013908
 921  15   1.027454   6.145594   0.097495   0.003811   0.250653   0.015203
 922  27   2.994047   2.800339  -6.277241  -0.000750   0.224954  -0.003334
 923  27   3.818215   2.381399  -5.596343  -0.002353   0.451897  -0.005208
 924  15   3.126881   3.812994  -5.117668   0.004622   0.556821   0.008302
 925  15   3.959889   3.295757  -4.337195   0.001762   0.280201   0.006288
 926  28  -1.702466   3.022236  -5.646879  -0.002736   0.445452  -0.006142
 927  15  -0.976096   4.177990  -4.926985   0.003168   0.555788   0.005701
 928  28  -3.453703   1.671640  -5.067917  -0.002228   0.354676  -0.006282
 929  28  -2.896597   2.475177  -5.060274  -0.001450   0.354676  -0.004089
 930  17  -4.138346   2.724926  -3.352295  -0.006001   0.707757  -0.008479
 931  20   0.170834   5.859896   1.947886  -0.001398   0.265513  -0.005266
 932  20   0.020020   5.689581   2.796643  -0.001521   0.265513  -0.005729
 933  18  -1.411638   6.308242   2.211532  -0.003827   0.530798  -0.007210
 934  22  -4.151057   6.296525   6.914820  -0.000356   0.382018  -0.000933
 935  18  -4.124543   6.368743   4.043760  -0.000334   0.382018  -0.000875
 =====================================================

             11404365  WORDS OF DYNAMIC MEMORY USED
 EXECUTION OF GAMESS TERMINATED NORMALLY Sun Nov 27 16:41:28 2016
 DDI: 263640 bytes (0.3 MB / 0 MWords) used by master data server.

 ----------------------------------------
 CPU timing information for all processes
 ========================================
 0: 7024.768 + 1.592 = 7026.360
 ----------------------------------------
 ddikick.x: exited gracefully.
