----- GAMESS execution script -----

          ******************************************************
          *         GAMESS VERSION =  5 DEC 2014 (R1)          *
          *             FROM IOWA STATE UNIVERSITY             *
          * M.W.SCHMIDT, K.K.BALDRIDGE, J.A.BOATZ, S.T.ELBERT, *
          *   M.S.GORDON, J.H.JENSEN, S.KOSEKI, N.MATSUNAGA,   *
          *          K.A.NGUYEN, S.J.SU, T.L.WINDUS,           *
          *       TOGETHER WITH M.DUPUIS, J.A.MONTGOMERY       *
          *         J.COMPUT.CHEM.  14, 1347-1363(1993)        *
          **************** 64 BIT LINUX VERSION ****************

 EXECUTION OF GAMESS BEGUN Sun Nov 27 15:58:02 2016

            ECHO OF THE FIRST FEW INPUT CARDS -
 INPUT CARD>! SELECT RESTRICTED HARTREE-FOCK AS DEFAULT                                     
 INPUT CARD>$contrl scftyp=rhf $end                                                         
 INPUT CARD>                                                                                
 INPUT CARD>! THEORY: HF OR DFT                                                             
 INPUT CARD> $contrl mplevl=0 $end                                                          
 INPUT CARD>                                                                                
 INPUT CARD> $system timlim=10000 mwords=20 $end                                            
 INPUT CARD> $SCF DIRSCF=.TRUE. $end                                                        
 INPUT CARD>                                                                                
 INPUT CARD>                                                                                
 INPUT CARD>! BASIS SETS                                                                    
 INPUT CARD>! 6-311G(d,p)                                                                   
 INPUT CARD> $BASIS GBASIS=N311 NGAUSS=6 NDFUNC=1 NPFUNC=1 $END                             
 INPUT CARD>                                                                                
 INPUT CARD>! One of the following                                                          
 INPUT CARD> $guess guess=HUCKEL $end                                                       
 INPUT CARD>                                                                                
 INPUT CARD> $statpt projct=.FALSE. $end                                                    
 INPUT CARD> $STATPT IFREEZ(1)=1,2,3 $END                                                   
 INPUT CARD>                                                                                
 INPUT CARD>! Optimize the geometry with COSMO effects                                      
 INPUT CARD> $statpt opttol=0.0005 nstep=50 $end                                            
 INPUT CARD> $contrl nzvar=1 $end                                                           
 INPUT CARD> $zmat dlc=.t. auto=.t. $end                                                    
 INPUT CARD> $contrl runtyp=OPTIMIZE maxit=200 $end                                         
 INPUT CARD>                                                                                
 INPUT CARD>! Run COSMO on perfect conductor                                                
 INPUT CARD> $COSGMS PRFCND=.TRUE. $end                                                     
 INPUT CARD>                                                                                
 INPUT CARD>! Specifying RSOLV                                                              
 INPUT CARD> $COSGMS COSRAD = 1.4 $end                                                      
 INPUT CARD>                                                                                
 INPUT CARD>! available memory                                                              
 INPUT CARD> $SYSTEM MWORDS=40 $END                                                         
 INPUT CARD>                                                                                
 INPUT CARD> $DATA                                                                          
 INPUT CARD>Trichloroethylene, ID: C79016                                                   
 INPUT CARD>C1                                                                              
 INPUT CARD>C      6.0      1.3779000000    1.0858000000    0.0562000000                    
 INPUT CARD>C      6.0      2.5956000000    1.6397000000    0.0984000000                    
 INPUT CARD>Cl    17.0      3.9922000000    0.7108000000    0.0683000000                    
 INPUT CARD>Cl    17.0      2.8317000000    3.2944000000    0.1842000000                    
 INPUT CARD>Cl    17.0      0.0000000000    2.0314000000    0.0876000000                    
 INPUT CARD>H      1.0      1.2376000000    0.0000000000    0.0000000000                    
 INPUT CARD> $END                                                                           
 INPUT CARD>                                                                                
 INPUT CARD>                                                                                
   40000000 WORDS OF MEMORY AVAILABLE

     BASIS OPTIONS
     -------------
     GBASIS=N311         IGAUSS=       6      POLAR=POPN311 
     NDFUNC=       1     NFFUNC=       0     DIFFSP=       F
     NPFUNC=       1      DIFFS=       F     BASNAM=        


     RUN TITLE
     ---------
 Trichloroethylene, ID: C79016                                                   

 THE POINT GROUP OF THE MOLECULE IS C1      
 THE ORDER OF THE PRINCIPAL AXIS IS     0

 ATOM      ATOMIC                      COORDINATES (BOHR)
           CHARGE         X                   Y                   Z
 C           6.0     2.6038534385        2.0518644775        0.1062026005
 C           6.0     4.9049727737        3.0985837021        0.1859490372
 CL         17.0     7.5441640882        1.3432172321        0.1290682850
 CL         17.0     5.3511370794        6.2255132940        0.3480875269
 CL         17.0     0.0000000000        3.8387893715        0.1655399965
 H           1.0     2.3387248824        0.0000000000        0.0000000000

          INTERNUCLEAR DISTANCES (ANGS.)




     $CONTRL OPTIONS
     ---------------
 SCFTYP=RHF          RUNTYP=OPTIMIZE     EXETYP=RUN     
 MPLEVL=       0     CITYP =NONE         CCTYP =NONE         VBTYP =NONE    
 DFTTYP=NONE         TDDFT =NONE    
 MULT  =       1     ICHARG=       0     NZVAR =       1     COORD =UNIQUE  
 PP    =NONE         RELWFN=NONE         LOCAL =NONE         NUMGRD=       F
 ISPHER=      -1     NOSYM =       0     MAXIT =     200     UNITS =ANGS    
 PLTORB=       F     MOLPLT=       F     AIMPAC=       F     FRIEND=        
 NPRINT=       7     IREST =       0     GEOM  =INPUT   
 NORMF =       0     NORMP =       0     ITOL  =      20     ICUT  =       9
 INTTYP=BEST         GRDTYP=BEST         QMTTOL= 1.0E-06

     $SYSTEM OPTIONS
     ---------------
  REPLICATED MEMORY=    40000000 WORDS (ON EVERY NODE).
 DISTRIBUTED MEMDDI=           0 MILLION WORDS IN AGGREGATE,
 MEMDDI DISTRIBUTED OVER   1 PROCESSORS IS           0 WORDS/PROCESSOR.
 TOTAL MEMORY REQUESTED ON EACH PROCESSOR=    40000000 WORDS.
 TIMLIM=       10000.00 MINUTES, OR       6.9 DAYS.
 PARALL= F  BALTYP=  DLB     KDIAG=    0  COREFL= F
 MXSEQ2=     300 MXSEQ3=     150  mem10=         0

     $COSGMS OPTIONS
     ---------------
     EPSI  =   INFTY     NSPA  =      92     COSRAD=    1.40
     DISEX =   10.00     OUTCHG=DBLCAV       COSBUG=       F
     COSWRT=       F     DCOSMO=       F

     SYMMETRY COORDINATES WILL NOT BE USED FOR 
     THE COSMO CALCULATION, EVEN IF SPECIFIED:
         -- SWITCHING TO C1 POINT GROUP --


     DEFINITION OF CAVITY
     ---------------------------
     ATOM         COORDINATES           RADIUS 
     1    2.6039    2.0519    0.1062    2.0000
     2    4.9050    3.0986    0.1859    2.0000
     3    7.5442    1.3432    0.1291    2.0500
     4    5.3511    6.2255    0.3481    2.0500
     5    0.0000    3.8388    0.1655    2.0500
     6    2.3387    0.0000    0.0000    1.3000

          ----------------
          PROPERTIES INPUT
          ----------------

     MOMENTS            FIELD           POTENTIAL          DENSITY
 IEMOM =       1   IEFLD =       0   IEPOT =       0   IEDEN =       0
 WHERE =COMASS     WHERE =NUCLEI     WHERE =NUCLEI     WHERE =NUCLEI  
 OUTPUT=BOTH       OUTPUT=BOTH       OUTPUT=BOTH       OUTPUT=BOTH    
 IEMINT=       0   IEFINT=       0                     IEDINT=       0
                                                       MORB  =       0
          EXTRAPOLATION IN EFFECT
          SOSCF IN EFFECT
 ORBITAL PRINTING OPTION: NPREO=     1   125     2     1

     -------------------------------
     INTEGRAL TRANSFORMATION OPTIONS
     -------------------------------
     NWORD  =            0
     CUTOFF = 1.0E-09     MPTRAN =       0
     DIRTRF =       T     AOINTS =DUP     

          ----------------------
          INTEGRAL INPUT OPTIONS
          ----------------------
 NOPK  =       1 NORDER=       0 SCHWRZ=       T


 -----------------------------------------------
  STATISTICS ON AUTOMATIC COORDINATE GENERATION 
 -----------------------------------------------
  NUMBER OF USER SPECIFIED BONDS                             0
  NUMBER OF BONDS                                            5
  NUMBER OF ANGLES                                           6
  NUMBER OF TORSIONS                                         4
  NUMBER OF EXTRA COORD.                                     0
  NUMBER OF EXTRA COORD. FOR CONSTRAINTS                     0
  NUMBER OF CONSTRAINED COORD.                               0

  TOTAL NUMBER OF PRIMITIVES                                15
 -----------------------------------------------

   --- ENCODED Z MATRIX ---
 COORD  TYPE   I   J   K   L   M   N
    1      1    1   2
    2      1    1   6
    3      1    1   5
    4      1    2   4
    5      1    2   3
    6      2    1   2   3
    7      2    1   2   4
    8      2    2   1   6
    9      2    2   1   5
   10      2    3   2   4
   11      2    5   1   6
   12      3    3   2   1   5
   13      3    3   2   1   6
   14      3    4   2   1   6
   15      3    4   2   1   5

          INDEP./SYM. INTERNAL COORDINATES
          --------------------------------
 CRD  1=  -0.4620 (  6)  0.5313 (  7) -0.3814 (  8)  0.5489 (  9) -0.1675 ( 11)
 CRD  2=  -0.5232 (  1) -0.4336 (  6) -0.1539 (  7) -0.2019 (  8) -0.1110 (  9)
           0.5875 ( 10)  0.3129 ( 11)
 CRD  3=  -0.3712 (  2)  0.1635 (  3) -0.1438 (  4)  0.4106 (  5)  0.1992 (  6)
          -0.4672 (  7) -0.1698 (  8)  0.4533 (  9)  0.2680 ( 10) -0.2835 ( 11)
 CRD  4=  -0.7655 ( 12) -0.3966 ( 13) -0.1227 ( 14) -0.4916 ( 15)
 CRD  5=  -0.3330 (  1) -0.1638 (  2)  0.2281 (  3) -0.5099 (  4) -0.2097 (  5)
           0.3012 (  6) -0.3985 (  8) -0.3613 ( 10)  0.3462 ( 11)
 CRD  6=   0.2925 (  1)  0.4133 (  2)  0.6014 (  3)  0.2089 (  4)  0.3105 (  5)
          -0.2853 (  8)  0.3763 ( 11)
 CRD  7=  -0.4044 ( 12)  0.8421 ( 14)  0.3443 ( 15)
 CRD  8=  -0.4556 (  2) -0.3031 (  3)  0.4755 (  4)  0.4645 (  5)  0.1157 (  6)
           0.1478 (  7) -0.1753 (  8) -0.1391 (  9) -0.2634 ( 10)  0.3143 ( 11)
 CRD  9=   0.4744 (  2) -0.4702 (  3) -0.4684 (  4)  0.5558 (  5)
 CRD 10=  -0.6968 (  1)  0.3624 (  2)  0.1845 (  3)  0.3694 (  4)  0.1204 (  5)
           0.1834 (  6)  0.1948 (  9) -0.1901 ( 10) -0.2863 ( 11)
 CRD 11=  -0.7642 ( 13) -0.1606 ( 14)  0.6243 ( 15)
 CRD 12=  -0.1625 (  1) -0.3019 (  2)  0.4505 (  3) -0.2933 (  4)  0.3793 (  5)
          -0.2890 (  6)  0.3241 (  7)  0.4071 (  8) -0.2782 (  9) -0.1290 ( 11)

 THE DETERMINANT OF THE G MATRIX IS 10**(   -12)


                     --------------------
                     INTERNAL COORDINATES
                     --------------------

                 - - ATOMS - -         COORDINATE      COORDINATE
 NO.   TYPE    I  J  K  L  M  N        (BOHR,RAD)       (ANG,DEG)
 ----------------------------------------------------------------
   1 STRETCH   1  2                     2.5292550       1.3384242
   2 STRETCH   1  6                     2.0716467       1.0962683
   3 STRETCH   1  5                     3.1585874       1.6714526
   4 STRETCH   2  4                     3.1627583       1.6736597
   5 STRETCH   2  3                     3.1701542       1.6775735
   6 BEND      1  2  3                  2.1266893     121.8503187
   7 BEND      1  2  4                  2.1401847     122.6235500
   8 BEND      2  1  6                  2.1269759     121.8667414
   9 BEND      2  1  5                  2.1121497     121.0172643
  10 BEND      3  2  4                  2.0163114     115.5261313
  11 BEND      5  1  6                  2.0440597     117.1159940
  12 TORSION   3  2  1  5               3.1414248     179.9903842
  13 TORSION   3  2  1  6              -0.0000522      -0.0029888
  14 TORSION   4  2  1  6               3.1415155     179.9955800
  15 TORSION   4  2  1  5              -0.0001928      -0.0110470

     ------------------------------------------
     THE POINT GROUP IS C1 , NAXIS= 1, ORDER= 1
     ------------------------------------------

     DIMENSIONS OF THE SYMMETRY SUBSPACES ARE
 A   =  125

 ..... DONE SETTING UP THE RUN .....
 STEP CPU TIME =     0.00 TOTAL CPU TIME =        0.0 (    0.0 MIN)
 TOTAL WALL CLOCK TIME=        0.0 SECONDS, CPU UTILIZATION IS   0.00%


          -----------------------------
          STATIONARY POINT LOCATION RUN
          -----------------------------

 OBTAINING INITIAL HESSIAN, HESS=GUESS   
 DIAGONAL GUESS HESSIAN IN INTERNAL COORDS IS
     1  0.5329     2  0.3422     3  0.4277     4  0.4259     5  0.4227
     6  0.2785     7  0.2788     8  0.2356     9  0.2790    10  0.2795
    11  0.2365    12  0.2500    13  0.2500    14  0.2500    15  0.2500
 TRANSFORMING HESSIAN TO SYMMETRY COORDINATES

          PARAMETERS CONTROLLING GEOMETRY SEARCH ARE
          METHOD =QA                  UPHESS =BFGS    
          NNEG   =         0          NFRZ   =         3
          NSTEP  =        50          IFOLOW =         1
          HESS   =GUESS               RESTAR =         F
          IHREP  =         0          HSSEND =         F
          NPRT   =         0          NPUN   =         0
          OPTTOL = 5.000E-04          RMIN   = 1.500E-03
          RMAX   = 1.000E-01          RLIM   = 7.000E-02
          DXMAX  = 3.000E-01          PURIFY =         F
          MOVIE  =         F          TRUPD  =         T
          TRMAX  = 5.000E-01          TRMIN  = 5.000E-02
          ITBMAT =         5          STPT   =         F
          STSTEP = 1.000E-02          PROJCT=          F
          FROZEN COORD(S)=   1   2   3


      ***** EQUILIBRIUM GEOMETRY LOCATED *****
            (SUBJECT TO   3 CONSTRAINT(S))
 COORDINATES OF ALL ATOMS ARE (ANGS)
   ATOM   CHARGE       X              Y              Z
 ------------------------------------------------------------
 C           6.0   1.3929926010   1.0524091911   0.0547163910
 C           6.0   2.5725976473   1.6231607037   0.0972881954
 CL         17.0   4.0141519242   0.6877525902   0.0674007144
 CL         17.0   2.8327278307   3.3274198432   0.1858711422
 CL         17.0  -0.0203362190   2.0390127692   0.0877398464
 H           1.0   1.2400563854  -0.0156505827  -0.0007305259


                     --------------------
                     INTERNAL COORDINATES
                     --------------------

                 - - ATOMS - -         COORDINATE      COORDINATE
 NO.   TYPE    I  J  K  L  M  N        (BOHR,RAD)       (ANG,DEG)
 ----------------------------------------------------------------
   1 STRETCH   1  2                     2.4776590       1.3111208
   2 STRETCH   1  6                     2.0416174       1.0803775
   3 STRETCH   1  5                     3.2577777       1.7239419
   4 STRETCH   2  4                     3.2621804       1.7262717
   5 STRETCH   2  3                     3.2478889       1.7187089
   6 BEND      1  2  3                  2.1142844     121.1395745
   7 BEND      1  2  4                  2.1736613     124.5416183
   8 BEND      2  1  6                  2.1644312     124.0127731
   9 BEND      2  1  5                  2.0804077     119.1985835
  10 BEND      3  2  4                  1.9952396     114.3188071
  11 BEND      5  1  6                  2.0383464     116.7886432
  12 TORSION   3  2  1  5               3.1414372     179.9910938
  13 TORSION   3  2  1  6              -0.0000684      -0.0039197
  14 TORSION   4  2  1  6               3.1415356     179.9967338
  15 TORSION   4  2  1  5              -0.0001440      -0.0082527

          INTERNUCLEAR DISTANCES (ANGS.)


 =====================================================
   GAMESS/COSab RESULTS
 =====================================================

   Dielectric Constant                  = INFTY
   Basic Grid Size                      =                 1082
   Number of Segments                   =                   92
   Number of Segments located on spheres=                  199
   Number of Segments of the cavity     =                  317
   Solvent Radius (rsolv)               = 1.40
   Outlying Charge Error Method         = double cavity

 =====================================================

  Total solvated Energy (a.u.)          = -1454.8217698699
  Total Energy corrected (a.u.)         = -1454.8219286293

  Outlying charge effect (a.u.)         =    -0.0001587594
  Outlying charge effect (kcal/mol)     =    -0.0996231367

  Dielectric Energy (a.u.)              =    -0.0051574252
  Dielectric energy corr. (a.u.)        =    -0.0053161846

  Sum of polarization charges           =     0.0184829740
  Sum of polarization charges(cor.)     =    -0.0184829740

  Total surface area of cavity (A**2)   =  129.14
  Total volume of cavity (A**3)         =  118.82

 =====================================================
 NPS=                   317
NR.  ATOM  (X, Y, Z)(a.u.)                  CHARGE(e)  AREA(A**2) SIGMA(e/A**2)
   1   1   1.004949   0.552725  -2.990722  -0.000686   0.278737  -0.002462
   2   1   2.192709   0.131387   3.365462  -0.000644   0.371649  -0.001733
   3   1   1.829313  -0.593983   2.743236  -0.001383   0.278737  -0.004963
   4   1   3.326031  -0.600641  -2.560839  -0.000739   0.139368  -0.005302
   5   1   0.724770  -0.226764  -2.291759  -0.002240   0.278737  -0.008038
   6   1   0.012051  -0.478303   1.257398  -0.000922   0.092912  -0.009921
   7   1   1.865861   0.269788  -3.174085  -0.000810   0.325193  -0.002492
   8   1   3.324187   0.189385  -3.147443  -0.000041   0.325193  -0.000125
   9   1   3.254534  -0.084376   3.201662  -0.000027   0.371649  -0.000073
  10   1   1.071186   0.106337   2.984954  -0.001518   0.325193  -0.004669
  11   1   0.355195  -0.129994   2.250381  -0.000011   0.092912  -0.000118
  12   1   1.734082   1.396543  -3.519675  -0.000937   0.325193  -0.002883
  13   1   2.462612   2.696140  -3.605390   0.000296   0.325193   0.000912
  14   1   3.149905   2.202704  -3.634344   0.000421   0.185824   0.002265
  15   1   3.395005   1.094095  -3.488579   0.000324   0.232280   0.001393
  16   1   3.056153   1.131954   3.759967   0.000876   0.557473   0.001571
  17   1   1.648111   1.142656   3.652979  -0.000558   0.418105  -0.001335
  18   1   3.061848  -0.855246   2.555216  -0.001019   0.232280  -0.004388
  19   1   2.362336  -0.317868  -2.878355  -0.001230   0.325193  -0.003781
  20   1   0.697427  -0.504854   2.182358  -0.001014   0.185824  -0.005456
  21   1   2.494399   2.432147   3.854207   0.000144   0.371649   0.000387
  22   1   2.627820   1.336984  -3.619435   0.000033   0.325193   0.000103
  23   2   5.835291   3.452627  -3.447622  -0.000746   0.139368  -0.005351
  24   2   4.280986   3.797805  -3.478621   0.000057   0.232280   0.000247
  25   2   5.116525   3.676807  -3.537413  -0.000036   0.185824  -0.000195
  26   2   5.342345   2.699445  -3.546803   0.000241   0.139368   0.001731
  27   2   4.790911   2.182124   3.857493   0.000519   0.325193   0.001597
  28   2   4.071131   3.468547   3.857885   0.000045   0.232280   0.000195
  29   2   5.322216   3.219691   3.932015  -0.000876   0.418105  -0.002095
  30   2   4.790313   2.697218  -3.576770   0.000255   0.232280   0.001098
  31   3  10.894587  -0.713245   0.046746  -0.004100   0.536887  -0.007637
  32   3  10.242640   2.119717   2.824641   0.001870   0.488079   0.003831
  33   3  10.812236   3.116925  -1.010174   0.001731   0.488079   0.003547
  34   3   9.083164   0.394767  -3.328925   0.001820   0.488079   0.003729
  35   3   7.385781  -2.404461  -0.989307   0.001631   0.488079   0.003341
  36   3   7.956500  -1.307447   2.968655   0.001701   0.439271   0.003872
  37   3  11.052719   0.010683   1.278599  -0.003144   0.585695  -0.005369
  38   3  10.900650   1.095629   2.121486  -0.000341   0.488079  -0.000698
  39   3  11.368656   0.579802  -0.294528  -0.003139   0.585695  -0.005359
  40   3  11.339642   1.924053  -0.597197  -0.000333   0.488079  -0.000682
  41   3  10.633203  -0.568631  -1.365700  -0.003180   0.585695  -0.005430
  42   3   9.853930  -0.398835  -2.514102  -0.000317   0.536887  -0.000590
  43   3   9.984137  -1.690694  -0.431578  -0.003211   0.536887  -0.005980
  44   3   8.790869  -2.297003  -0.659307  -0.000697   0.488079  -0.001429
  45   3  10.153209  -1.431800   1.104173  -0.003929   0.683311  -0.005749
  46   3   9.182942  -1.583758   2.162553  -0.000440   0.585695  -0.000751
  47   3  10.824977   2.679522   1.742944   0.001656   0.536887   0.003085
  48   3  11.066296   2.981307   0.381313   0.001573   0.536887   0.002929
  49   3  10.666762   2.331247  -1.982107   0.001711   0.585695   0.002922
  50   3   9.955909   1.297065  -2.936810   0.001872   0.585695   0.003196
  51   3   8.440060  -0.889108  -2.952672   0.001984   0.585695   0.003387
  52   3   7.907251  -1.871978  -2.073695   0.001703   0.585695   0.002908
  53   3   7.459262  -2.568297   0.301649   0.001595   0.536887   0.002971
  54   3   7.720354  -2.177839   1.829219   0.001837   0.585695   0.003136
  55   3   8.857260  -0.497945   3.314694   0.002200   0.634503   0.003467
  56   3   9.844339   0.820665   3.238040   0.001839   0.634503   0.002898
  57   3   9.834211   3.358135   2.517770   0.002245   0.488079   0.004599
  58   3  10.414673   3.906339  -0.329987   0.001280   0.292848   0.004372
  59   3   9.967001   3.700634  -1.762554   0.001907   0.390463   0.004883
  60   3   9.103228   3.423928  -2.734758   0.001127   0.292848   0.003848
  61   3   8.031209   2.840408  -3.398949   0.001386   0.536887   0.002581
  62   3   8.456683   1.633610  -3.632568   0.002981   0.585695   0.005089
  63   3   7.693249   0.225243  -3.593037   0.002946   0.585695   0.005030
  64   3   6.463089   0.292567  -3.440966   0.001239   0.439271   0.002821
  65   3   5.964360  -0.908001  -2.612170   0.000857   0.341655   0.002509
  66   3   6.443384  -1.881020  -1.766286   0.002000   0.439271   0.004553
  67   3   6.225834  -2.313790  -0.190964   0.001815   0.439271   0.004133
  68   3   6.167900  -1.569278   2.310634   0.001466   0.390463   0.003755
  69   3   6.818339  -1.340917   2.856114   0.001872   0.390463   0.004794
  70   3   7.303989  -0.323415   3.633613   0.002346   0.488079   0.004807
  71   3   6.796831   0.889605   3.897922   0.001304   0.488079   0.002671
  72   3   7.734705   2.256286   3.878378   0.001240   0.536887   0.002310
  73   3   9.151008   2.062239   3.587935   0.002419   0.488079   0.004956
  74   3  11.381288   1.520615   0.870096  -0.001043   0.585695  -0.001781
  75   3  10.897589   0.790420  -1.816611  -0.001344   0.683311  -0.001967
  76   3   9.332974  -1.584707  -1.779109  -0.001140   0.585695  -0.001947
  77   3   8.815649  -2.319337   0.757746  -0.000961   0.634503  -0.001515
  78   3  10.190878  -0.363370   2.462857  -0.000998   0.585695  -0.001703
  79   3  10.382052   3.770548   1.167649   0.001832   0.390463   0.004692
  80   3   9.597440   2.588325  -2.922117   0.002394   0.488079   0.004904
  81   3   6.954881  -1.062756  -2.877381   0.002302   0.488079   0.004717
  82   3   6.478793  -2.234637   1.263623   0.001995   0.439271   0.004541
  83   3   8.316445   0.895418   3.910218   0.003328   0.634503   0.005245
  84   3   6.997937   1.592102  -3.690542   0.001072   0.488079   0.002197
  85   3   6.185104  -0.185671   3.419743   0.000748   0.341655   0.002188
  86   3   8.752690   3.116699   3.343543   0.001277   0.341655   0.003738
  87   4   6.046893  10.092979   0.569154  -0.004164   0.536887  -0.007755
  88   4   7.883349   7.790412  -2.168186   0.001792   0.488079   0.003671
  89   4   8.786136   7.452364   1.717090   0.001715   0.488079   0.003513
  90   4   5.476513   7.918493   3.863145   0.001732   0.488079   0.003548
  91   4   2.670471   8.896069   1.355538   0.000972   0.390463   0.002488
  92   4   3.846093   8.442749  -2.493582   0.001389   0.390463   0.003558
  93   4   6.761702   9.759918  -0.632785  -0.003250   0.585695  -0.005548
  94   4   7.517259   8.945188  -1.455003  -0.000446   0.488079  -0.000915
  95   4   7.305974   9.575912   0.969823  -0.003239   0.585695  -0.005531
  96   4   8.271170   8.650813   1.304562  -0.000405   0.488079  -0.000829
  97   4   5.900420   9.765727   1.967614  -0.003269   0.585695  -0.005582
  98   4   5.443695   9.042514   3.073637  -0.000400   0.536887  -0.000746
  99   4   4.686311  10.053605   0.969636  -0.003170   0.536887  -0.005905
 100   4   3.529232   9.642258   1.006530  -0.000878   0.439271  -0.001998
 101   4   5.079181  10.046341  -0.546855  -0.003963   0.683311  -0.005799
 102   4   4.381682   9.451606  -1.662410  -0.000459   0.585695  -0.000783
 103   4   8.625708   7.823695  -1.041083   0.001616   0.536887   0.003011
 104   4   8.933251   7.767627   0.339359   0.001549   0.536887   0.002886
 105   4   8.048549   7.842648   2.658763   0.001619   0.585695   0.002764
 106   4   6.751123   7.977642   3.544633   0.001725   0.585695   0.002945
 107   4   4.205782   8.402147   3.387889   0.001345   0.488079   0.002756
 108   4   3.062025   8.624140   2.425034   0.001356   0.536887   0.002526
 109   4   2.746879   9.118291  -0.100551   0.000722   0.439271   0.001644
 110   4   2.948220   8.749029  -1.428353   0.001571   0.585695   0.002682
 111   4   5.040179   8.514828  -2.803162   0.002101   0.634503   0.003311
 112   4   6.674247   8.369786  -2.636669   0.001677   0.634503   0.002643
 113   4   8.517356   6.652987  -1.853605   0.002264   0.488079   0.004639
 114   4   9.183327   6.603915   0.837740   0.001759   0.390463   0.004504
 115   4   8.616628   6.414307   2.434668   0.001937   0.390463   0.004960
 116   4   7.781078   5.930154   3.348618   0.001128   0.292848   0.003850
 117   4   6.596105   5.503134   3.935441   0.001357   0.536887   0.002528
 118   4   6.007605   6.668866   4.150447   0.002632   0.536887   0.004902
 119   4   4.474297   6.969283   4.062171   0.002632   0.536887   0.004901
 120   4   3.860173   5.977297   3.912460   0.000932   0.390463   0.002388
 121   4   3.156013   7.716746  -2.501599   0.001766   0.341655   0.005170
 122   4   4.156450   7.249182  -3.205634   0.002270   0.488079   0.004650
 123   4   5.201758   6.161814  -3.517672   0.001118   0.390463   0.002864
 124   4   6.446418   5.843968  -3.338582   0.001121   0.488079   0.002296
 125   4   7.158787   7.034737  -2.993746   0.002345   0.488079   0.004804
 126   4   8.081903   8.988184  -0.167785  -0.001140   0.585695  -0.001947
 127   4   7.063122   9.045620   2.467425  -0.001499   0.683311  -0.002194
 128   4   4.255790   9.463289   2.280080  -0.001120   0.585695  -0.001913
 129   4   3.693328   9.709166  -0.388801  -0.000814   0.439271  -0.001854
 130   4   5.977916   9.397194  -1.873455  -0.001123   0.585695  -0.001917
 131   4   9.087646   6.760287  -0.563730   0.001600   0.341655   0.004684
 132   4   7.476048   6.850456   3.542479   0.002320   0.488079   0.004754
 133   4   3.329968   7.554657   3.402455   0.002507   0.488079   0.005137
 134   4   5.762459   7.263182  -3.375492   0.002899   0.585695   0.004950
 135   4   5.080708   5.593659   4.152733   0.001145   0.488079   0.002346
 136   4   4.062469   6.140018  -3.298385   0.000687   0.341655   0.002011
 137   4   7.665992   6.029024  -2.745640   0.001271   0.341655   0.003721
 138   5  -3.149205   6.159877   0.264062  -0.003463   0.536887  -0.006450
 139   5  -0.134389   6.830823  -2.310453   0.002427   0.488079   0.004973
 140   5  -0.145982   7.358538   1.811507   0.000859   0.292848   0.002932
 141   5  -1.624135   4.626459   3.614717   0.002121   0.488079   0.004345
 142   5  -3.449598   2.203286   0.971516   0.002168   0.488079   0.004442
 143   5  -2.437097   3.454569  -2.849970   0.002064   0.439271   0.004698
 144   5  -2.472925   6.673366  -0.895900  -0.002522   0.585695  -0.004305
 145   5  -1.334741   6.973680  -1.728789   0.000221   0.536887   0.000411
 146   5  -2.190202   7.030838   0.694770  -0.002386   0.536887  -0.004445
 147   5  -1.086599   7.427099   1.231583  -0.000012   0.439271  -0.000027
 148   5  -2.992917   5.859088   1.667394  -0.002553   0.585695  -0.004358
 149   5  -2.604395   5.109671   2.782000   0.000129   0.536887   0.000241
 150   5  -3.736629   4.916446   0.613252  -0.002572   0.536887  -0.004791
 151   5  -3.860928   3.569266   0.727327  -0.000120   0.488079  -0.000246
 152   5  -3.478327   5.291570  -0.885650  -0.003160   0.683311  -0.004624
 153   5  -3.197196   4.422078  -2.003516   0.000127   0.585695   0.000216
 154   5  -0.145399   7.482085  -1.185876   0.001191   0.341655   0.003486
 155   5  -0.260971   7.711981   0.425750   0.001059   0.341655   0.003099
 156   5  -0.303767   6.815662   2.647888   0.002414   0.536887   0.004497
 157   5  -1.096673   5.800216   3.343320   0.002232   0.585695   0.003811
 158   5  -2.549703   3.584705   3.103293   0.002436   0.585695   0.004160
 159   5  -3.211340   2.796905   2.121392   0.002292   0.585695   0.003914
 160   5  -3.559518   2.313426  -0.322546   0.002199   0.536887   0.004097
 161   5  -3.214562   2.821886  -1.797866   0.002414   0.585695   0.004121
 162   5  -2.008483   4.616094  -3.081387   0.002612   0.634503   0.004116
 163   5  -1.120879   5.933640  -2.917603   0.002472   0.634503   0.003895
 164   5   0.974603   4.522599   3.844535   0.001646   0.488079   0.003371
 165   5  -0.258849   4.482894   3.981862   0.003295   0.585695   0.005625
 166   5  -1.220030   3.215736   3.799658   0.003617   0.634503   0.005701
 167   5  -0.755966   1.905146   3.436537   0.002053   0.536887   0.003824
 168   5  -1.347793   0.868032   2.259088   0.001420   0.488079   0.002910
 169   5  -2.527245   1.348860   1.760033   0.003449   0.585695   0.005888
 170   5  -2.710052   1.047879   0.175506   0.004025   0.683311   0.005891
 171   5  -1.756683   0.492334  -0.705794   0.001131   0.390463   0.002897
 172   5  -1.533407   0.987773  -1.970044   0.002043   0.536887   0.003805
 173   5  -2.042557   2.141639  -2.673469   0.003760   0.634503   0.005925
 174   5  -1.187374   3.225367  -3.480174   0.002993   0.536887   0.005574
 175   5   0.081239   3.272122  -3.662436   0.001912   0.488079   0.003917
 176   5   0.929221   4.541774  -3.521590   0.001272   0.439271   0.002895
 177   5   0.466533   5.800264  -3.144978   0.003033   0.536887   0.005648
 178   5  -1.221684   7.505567  -0.351321  -0.000370   0.585695  -0.000632
 179   5  -1.859383   6.572489   2.238708  -0.000758   0.683311  -0.001110
 180   5  -3.465998   4.245939   1.927887  -0.000534   0.585695  -0.000911
 181   5  -3.814872   3.696981  -0.683602  -0.000210   0.634503  -0.000331
 182   5  -2.431262   5.831718  -2.150908  -0.000521   0.585695  -0.000889
 183   5   0.248895   5.888030   3.449744   0.002307   0.439271   0.005253
 184   5  -2.067553   2.046691   2.927444   0.003429   0.585695   0.005854
 185   5  -2.720247   1.497127  -1.338937   0.003479   0.585695   0.005939
 186   5  -0.484233   4.680929  -3.592318   0.003606   0.634503   0.005683
 187   5   0.248261   3.113487   3.957646   0.001579   0.488079   0.003235
 188   5  -1.687844   0.400543   0.770867   0.001216   0.439271   0.002769
 189   5  -0.704231   1.937345  -3.134749   0.001426   0.488079   0.002922
 190   6   1.858572  -2.436478  -0.084254  -0.007363   0.510320  -0.014429
 191   6   1.005079  -1.480327  -1.464048  -0.004182   0.372926  -0.011213
 192   6   0.466627  -1.499983   0.590896  -0.004288   0.333671  -0.012851
 193   6   2.284187  -1.818344   1.681432  -0.004256   0.392554  -0.010841
 194   6   2.854870  -1.728694  -1.700349  -0.004381   0.372926  -0.011748
 195   6   0.662648  -1.770775  -0.423839  -0.006689   0.471065  -0.014199
 196   6   1.285465  -1.920530   1.156281  -0.006220   0.490692  -0.012676
 197   6   2.885774  -2.268717   0.851331  -0.006636   0.471065  -0.014088
 198   6   2.970002  -2.332393  -0.584016  -0.005989   0.431809  -0.013870
 199   6   1.875346  -1.942907  -1.469449  -0.005651   0.431809  -0.013086
 200   1   4.440857   0.926675   3.377511  -0.000103   0.055541  -0.001852
 201   2   4.828708   1.099111   3.428604  -0.000244   0.055541  -0.004393
 202   3   5.301183   0.806641   3.384849  -0.000332   0.055541  -0.005982
 203   1   4.518808   1.257476  -3.217015  -0.000096   0.055541  -0.001725
 204   2   4.907553   1.433699  -3.241439  -0.000235   0.055541  -0.004225
 205   3   5.379210   1.137761  -3.216040  -0.000325   0.055541  -0.005856
 206   1   2.690327   3.924009  -3.162104  -0.000330   0.057084  -0.005788
 207   2   3.077948   4.097465  -3.111957  -0.000314   0.057084  -0.005504
 208   5   2.227096   4.234143  -3.118127  -0.000360   0.057084  -0.006298
 209   1   2.611495   3.586476   3.547060  -0.000302   0.057084  -0.005298
 210   2   2.999980   3.763631   3.523672  -0.000312   0.057084  -0.005463
 211   5   2.149056   3.900003   3.523583  -0.000363   0.057084  -0.006352
 212   2   4.442234   2.059827  -3.412937   0.000201   0.205348   0.000978
 213   2   3.707947   3.573284  -3.357479  -0.000042   0.205348  -0.000205
 214   1   3.523227   2.547516  -3.349983   0.000375   0.425106   0.000882
 215   2   3.624565   3.216932   3.730061  -0.000023   0.205262  -0.000113
 216   2   4.358840   1.705269   3.650861   0.000133   0.205262   0.000650
 217   1   3.441137   2.197594   3.615536   0.000441   0.424905   0.001037
 218   1   3.928142  -1.120099   1.909330  -0.000935   0.068860  -0.013572
 219   3   4.792594  -1.180493   1.867531  -0.000680   0.068860  -0.009870
 220   6   3.785933  -1.305900   1.718738  -0.001069   0.068860  -0.015522
 221   1   3.974074  -0.925086  -1.973815  -0.000923   0.068860  -0.013400
 222   3   4.837370  -0.990388  -1.917892  -0.000686   0.068860  -0.009966
 223   6   3.827629  -1.128876  -1.806203  -0.000883   0.068860  -0.012817
 224   3   5.433436   0.179785   3.300184  -0.000477   0.351197  -0.001358
 225   3   5.275625  -0.984097   2.451404  -0.000406   0.351197  -0.001156
 226   1   4.133675  -0.192474   2.815259  -0.002910   0.694201  -0.004192
 227   3   5.333800  -0.737134  -2.467553  -0.000421   0.351139  -0.001200
 228   3   5.510181   0.505494  -3.191469  -0.000473   0.351139  -0.001346
 229   1   4.199798   0.088186  -2.777112  -0.002867   0.694084  -0.004131
 230   1  -0.186552  -0.316162  -0.931122  -0.000386   0.016296  -0.023690
 231   5  -0.620927   0.033716  -0.907269  -0.000301   0.016296  -0.018451
 232   6  -0.016434  -0.552057  -0.859209  -0.000340   0.016296  -0.020891
 233   1  -0.207224  -0.404922   0.835641  -0.000344   0.016296  -0.021110
 234   5  -0.641334  -0.053905   0.836839  -0.000311   0.016296  -0.019089
 235   6  -0.035197  -0.632623   0.744442  -0.000283   0.016296  -0.017389
 236   5  -0.889560   0.243056   1.374680  -0.000725   0.232120  -0.003123
 237   5  -0.185480   1.201482   2.873480  -0.001793   0.467518  -0.003836
 238   5   1.079522   2.986450   3.684840  -0.001465   0.467518  -0.003134
 239   1   0.024079   0.134992   1.951436  -0.004251   0.465033  -0.009142
 240   1   1.070475   1.584539   3.427848  -0.002734   0.465033  -0.005879
 241   1   2.152487   3.125343   3.702349  -0.000696   0.229184  -0.003038
 242   5   1.582271   3.943210  -3.381584  -0.000431   0.232144  -0.001857
 243   5   0.489825   2.375096  -3.286817  -0.001664   0.467568  -0.003558
 244   5  -0.596068   0.775782  -1.979664  -0.002126   0.467568  -0.004546
 245   1   1.817727   2.883169  -3.388185  -0.002181   0.465083  -0.004688
 246   1   0.544188   1.038902  -2.793496  -0.003353   0.465083  -0.007210
 247   1  -0.189109  -0.057470  -1.421963  -0.002109   0.229207  -0.009201
 248   6   3.077427  -1.441667   1.863760  -0.001104   0.074065  -0.014912
 249   6   1.896809  -1.278942   1.985651  -0.002349   0.167778  -0.013999
 250   6   0.638379  -1.063911   1.314591  -0.002584   0.167778  -0.015399
 251   1   2.723184  -1.074680   2.213053  -0.002043   0.159244  -0.012826
 252   1   1.135106  -0.836529   2.005887  -0.002187   0.159244  -0.013736
 253   1   0.141814  -0.650062   1.153771  -0.001086   0.090486  -0.011997
 254   6   0.341905  -0.894941  -1.122477  -0.001150   0.074075  -0.015528
 255   6   1.249967  -0.984654  -1.898975  -0.002415   0.167808  -0.014394
 256   6   2.668957  -1.178931  -2.070575  -0.002170   0.167808  -0.012932
 257   1   0.533348  -0.562777  -1.607496  -0.002518   0.159262  -0.015811
 258   1   1.963816  -0.729163  -2.348004  -0.002172   0.159262  -0.013641
 259   1   3.265406  -0.922217  -2.219334  -0.001039   0.090499  -0.011483
 260   2   6.556730   3.980185  -3.096336  -0.001103   0.079509  -0.013870
 261   3   7.018700   3.668027  -3.070323  -0.000855   0.079509  -0.010753
 262   4   6.631977   4.531933  -3.031291  -0.000919   0.079509  -0.011558
 263   2   6.477777   3.645292   3.578000  -0.001120   0.079509  -0.014084
 264   3   6.940602   3.336758   3.531783  -0.000923   0.079509  -0.011612
 265   4   6.553884   4.200690   3.570298  -0.000860   0.079509  -0.010818
 266   3   6.049039   1.510839  -3.440006  -0.000599   0.256565  -0.002335
 267   3   6.928456   2.863964  -3.373053  -0.001007   0.256565  -0.003926
 268   2   5.819379   2.618118  -3.319285  -0.003429   0.517390  -0.006627
 269   3   6.844205   2.506561   3.750305  -0.001013   0.256554  -0.003947
 270   3   5.965090   1.154624   3.660752  -0.000614   0.256554  -0.002395
 271   2   5.737013   2.268669   3.646064  -0.003432   0.517366  -0.006634
 272   2   3.332456   4.580883  -3.011533  -0.000942   0.141390  -0.006660
 273   4   3.417889   5.137040  -2.969150  -0.000832   0.141390  -0.005885
 274   5   2.479882   4.709143  -2.960336  -0.000822   0.141390  -0.005812
 275   2   3.256328   4.255163   3.478039  -0.000945   0.141390  -0.006687
 276   4   3.342075   4.812669   3.493560  -0.000838   0.141390  -0.005928
 277   5   2.405035   4.388906   3.420005  -0.000826   0.141390  -0.005844
 278   4   5.959210   5.019903  -3.275838  -0.001025   0.259367  -0.003951
 279   4   4.352598   5.264599  -3.265781  -0.000733   0.259367  -0.002827
 280   2   5.035100   4.347728  -3.237893  -0.003694   0.523181  -0.007061
 281   4   4.269291   4.908813   3.823260  -0.000767   0.259298  -0.002959
 282   4   5.875103   4.662507   3.846516  -0.001039   0.259298  -0.004006
 283   2   4.953136   3.998566   3.719801  -0.003565   0.523032  -0.006817
 284   5   1.966064   4.128164   3.658706  -0.000024   0.037041  -0.000659
 285   2   3.182499   3.954570   3.634072   0.000051   0.036457   0.001396
 286   5   2.050885   4.498987  -3.227086  -0.000003   0.036803  -0.000070
 287   2   3.258799   4.273328  -3.205446   0.000045   0.036223   0.001248
 288   4   7.019335   4.628483   3.620038  -0.000789   0.337842  -0.002334
 289   4   8.328838   5.254786   2.724028   0.000383   0.676029   0.000566
 290   4   9.219317   5.735273   0.898355   0.001594   0.676029   0.002358
 291   4   8.944306   5.705044  -1.170547   0.001183   0.676029   0.001750
 292   4   7.609744   5.175743  -2.685700  -0.001263   0.676029  -0.001869
 293   3   8.089907   3.643288   3.258779  -0.001304   0.676029  -0.001928
 294   3   9.459222   4.319997   1.836124   0.001101   0.676029   0.001629
 295   3   9.782938   4.556818  -0.212296   0.001544   0.676029   0.002285
 296   3   8.936355   4.262523  -2.097393   0.000321   0.676029   0.000474
 297   3   7.649101   3.730595  -3.082236  -0.000803   0.337842  -0.002376
 298   6   3.761509  -1.512411  -1.569485  -0.002380   0.219216  -0.010859
 299   6   3.855610  -1.991287  -0.457110  -0.005838   0.441470  -0.013224
 300   6   3.779576  -1.833660   1.011256  -0.005627   0.441470  -0.012745
 301   3   5.307764  -1.691254  -1.318696  -0.000466   0.631366  -0.000738
 302   3   5.356306  -2.046392   0.371126  -0.000320   0.631366  -0.000506
 303   3   5.219366  -1.635524   1.704879  -0.000070   0.319657  -0.000220
 304   5   1.826897   4.868035   3.619194   0.000259   0.363949   0.000713
 305   5   1.187276   6.330258   3.017418   0.003148   0.727652   0.004326
 306   5   0.689533   7.555327   1.404416   0.003793   0.727652   0.005213
 307   5   0.713969   7.659874  -0.678560   0.003875   0.727652   0.005325
 308   5   1.250757   6.601865  -2.394017   0.003208   0.727652   0.004409
 309   5   1.906001   5.206485  -3.124029   0.000270   0.363949   0.000741
 310   4   2.913997   6.042568   3.475463   0.001151   0.727652   0.001581
 311   4   2.219395   7.665335   2.364395   0.003442   0.727652   0.004730
 312   4   1.969869   8.366305   0.415885   0.003449   0.727652   0.004741
 313   4   2.265744   7.863642  -1.586640   0.003280   0.727652   0.004507
 314   4   2.988061   6.359450  -2.838032   0.001063   0.727652   0.001461
 315   6  -0.015213  -0.831848   0.406412  -0.002599   0.185769  -0.013989
 316   6  -0.004111  -0.784178  -0.542471  -0.002561   0.185769  -0.013788
 317   5  -0.942664   0.010332  -0.037834  -0.002501   0.526322  -0.004752
 =====================================================

              1235954  WORDS OF DYNAMIC MEMORY USED
 EXECUTION OF GAMESS TERMINATED NORMALLY Sun Nov 27 15:59:34 2016
 DDI: 263640 bytes (0.3 MB / 0 MWords) used by master data server.

 ----------------------------------------
 CPU timing information for all processes
 ========================================
 0: 91.868 + 0.68 = 91.936
 ----------------------------------------
 ddikick.x: exited gracefully.
