----- GAMESS execution script -----

          ******************************************************
          *         GAMESS VERSION =  5 DEC 2014 (R1)          *
          *             FROM IOWA STATE UNIVERSITY             *
          * M.W.SCHMIDT, K.K.BALDRIDGE, J.A.BOATZ, S.T.ELBERT, *
          *   M.S.GORDON, J.H.JENSEN, S.KOSEKI, N.MATSUNAGA,   *
          *          K.A.NGUYEN, S.J.SU, T.L.WINDUS,           *
          *       TOGETHER WITH M.DUPUIS, J.A.MONTGOMERY       *
          *         J.COMPUT.CHEM.  14, 1347-1363(1993)        *
          **************** 64 BIT LINUX VERSION ****************

 EXECUTION OF GAMESS BEGUN Sun Nov 27 16:41:52 2016

            ECHO OF THE FIRST FEW INPUT CARDS -
 INPUT CARD>! SELECT RESTRICTED HARTREE-FOCK AS DEFAULT                                     
 INPUT CARD>$contrl scftyp=rhf $end                                                         
 INPUT CARD>                                                                                
 INPUT CARD>! THEORY: HF OR DFT                                                             
 INPUT CARD> $contrl mplevl=0 $end                                                          
 INPUT CARD>                                                                                
 INPUT CARD> $system timlim=10000 mwords=20 $end                                            
 INPUT CARD> $SCF DIRSCF=.TRUE. $end                                                        
 INPUT CARD>                                                                                
 INPUT CARD>                                                                                
 INPUT CARD>! BASIS SETS                                                                    
 INPUT CARD>! 6-311G(d,p)                                                                   
 INPUT CARD> $BASIS GBASIS=N311 NGAUSS=6 NDFUNC=1 NPFUNC=1 $END                             
 INPUT CARD>                                                                                
 INPUT CARD>! One of the following                                                          
 INPUT CARD> $guess guess=HUCKEL $end                                                       
 INPUT CARD>                                                                                
 INPUT CARD> $statpt projct=.FALSE. $end                                                    
 INPUT CARD> $STATPT IFREEZ(1)=1,2,3 $END                                                   
 INPUT CARD>                                                                                
 INPUT CARD>! Optimize the geometry with COSMO effects                                      
 INPUT CARD> $statpt opttol=0.0005 nstep=50 $end                                            
 INPUT CARD> $contrl nzvar=1 $end                                                           
 INPUT CARD> $zmat dlc=.t. auto=.t. $end                                                    
 INPUT CARD> $contrl runtyp=OPTIMIZE maxit=200 $end                                         
 INPUT CARD>                                                                                
 INPUT CARD>! Run COSMO on perfect conductor                                                
 INPUT CARD> $COSGMS PRFCND=.TRUE. $end                                                     
 INPUT CARD>                                                                                
 INPUT CARD>! Specifying RSOLV                                                              
 INPUT CARD> $COSGMS COSRAD = 1.4 $end                                                      
 INPUT CARD>                                                                                
 INPUT CARD>! available memory                                                              
 INPUT CARD> $SYSTEM MWORDS=40 $END                                                         
 INPUT CARD>                                                                                
 INPUT CARD> $DATA                                                                          
 INPUT CARD>http://cactus.nci.nih.gov/chemical/structure/TRIMETHYLENE%20DICYANIDE/file?forma
 INPUT CARD>C1                                                                              
 INPUT CARD>C      6.0      1.2492000000   -0.7833000000    0.0000000000                    
 INPUT CARD>C      6.0      0.0000000000    0.1000000000    0.0000000000                    
 INPUT CARD>C      6.0     -1.2492000000   -0.7833000000    0.0000000000                    
 INPUT CARD>C      6.0     -2.4511000000    0.0665000000    0.0000000000                    
 INPUT CARD>N      7.0     -3.3787000000    0.7224000000    0.0000000000                    
 INPUT CARD>C      6.0      2.4511000000    0.0665000000    0.0000000000                    
 INPUT CARD>N      7.0      3.3787000000    0.7224000000    0.0000000000                    
 INPUT CARD>H      1.0      1.2492000000   -1.4126000000    0.8900000000                    
 INPUT CARD>H      1.0      1.2492000000   -1.4126000000   -0.8900000000                    
 INPUT CARD>H      1.0      0.0000000000    0.7293000000    0.8900000000                    
 INPUT CARD>H      1.0      0.0000000000    0.7293000000   -0.8900000000                    
 INPUT CARD>H      1.0     -1.2492000000   -1.4126000000   -0.8900000000                    
   40000000 WORDS OF MEMORY AVAILABLE

     BASIS OPTIONS
     -------------
     GBASIS=N311         IGAUSS=       6      POLAR=POPN311 
     NDFUNC=       1     NFFUNC=       0     DIFFSP=       F
     NPFUNC=       1      DIFFS=       F     BASNAM=        


     RUN TITLE
     ---------
 http://cactus.nci.nih.gov/chemical/structure/TRIMETHYLENE%20DICYANIDE/file?forma

 THE POINT GROUP OF THE MOLECULE IS C1      
 THE ORDER OF THE PRINCIPAL AXIS IS     0

 ATOM      ATOMIC                      COORDINATES (BOHR)
           CHARGE         X                   Y                   Z
 C           6.0     2.3606457039       -1.4802223662        0.0000000000
 C           6.0     0.0000000000        0.1889725988        0.0000000000
 C           6.0    -2.3606457039       -1.4802223662        0.0000000000
 C           6.0    -4.6319073685        0.1256667782        0.0000000000
 N           7.0    -6.3848171947        1.3651380535        0.0000000000
 C           6.0     4.6319073685        0.1256667782        0.0000000000
 N           7.0     6.3848171947        1.3651380535        0.0000000000
 H           1.0     2.3606457039       -2.6694269303        1.6818561291
 H           1.0     2.3606457039       -2.6694269303       -1.6818561291
 H           1.0     0.0000000000        1.3781771628        1.6818561291
 H           1.0     0.0000000000        1.3781771628       -1.6818561291
 H           1.0    -2.3606457039       -2.6694269303       -1.6818561291
 H           1.0    -2.3606457039       -2.6694269303        1.6818561291

          INTERNUCLEAR DISTANCES (ANGS.)




     $CONTRL OPTIONS
     ---------------
 SCFTYP=RHF          RUNTYP=OPTIMIZE     EXETYP=RUN     
 MPLEVL=       0     CITYP =NONE         CCTYP =NONE         VBTYP =NONE    
 DFTTYP=NONE         TDDFT =NONE    
 MULT  =       1     ICHARG=       0     NZVAR =       1     COORD =UNIQUE  
 PP    =NONE         RELWFN=NONE         LOCAL =NONE         NUMGRD=       F
 ISPHER=      -1     NOSYM =       0     MAXIT =     200     UNITS =ANGS    
 PLTORB=       F     MOLPLT=       F     AIMPAC=       F     FRIEND=        
 NPRINT=       7     IREST =       0     GEOM  =INPUT   
 NORMF =       0     NORMP =       0     ITOL  =      20     ICUT  =       9
 INTTYP=BEST         GRDTYP=BEST         QMTTOL= 1.0E-06

     $SYSTEM OPTIONS
     ---------------
  REPLICATED MEMORY=    40000000 WORDS (ON EVERY NODE).
 DISTRIBUTED MEMDDI=           0 MILLION WORDS IN AGGREGATE,
 MEMDDI DISTRIBUTED OVER   1 PROCESSORS IS           0 WORDS/PROCESSOR.
 TOTAL MEMORY REQUESTED ON EACH PROCESSOR=    40000000 WORDS.
 TIMLIM=       10000.00 MINUTES, OR       6.9 DAYS.
 PARALL= F  BALTYP=  DLB     KDIAG=    0  COREFL= F
 MXSEQ2=     300 MXSEQ3=     150  mem10=         0

     $COSGMS OPTIONS
     ---------------
     EPSI  =   INFTY     NSPA  =      92     COSRAD=    1.40
     DISEX =   10.00     OUTCHG=DBLCAV       COSBUG=       F
     COSWRT=       F     DCOSMO=       F

     SYMMETRY COORDINATES WILL NOT BE USED FOR 
     THE COSMO CALCULATION, EVEN IF SPECIFIED:
         -- SWITCHING TO C1 POINT GROUP --


     DEFINITION OF CAVITY
     ---------------------------
     ATOM         COORDINATES           RADIUS 
     1    2.3606   -1.4802    0.0000    2.0000
     2    0.0000    0.1890    0.0000    2.0000
     3   -2.3606   -1.4802    0.0000    2.0000
     4   -4.6319    0.1257    0.0000    2.0000
     5   -6.3848    1.3651    0.0000    1.8300
     6    4.6319    0.1257    0.0000    2.0000
     7    6.3848    1.3651    0.0000    1.8300
     8    2.3606   -2.6694    1.6819    1.3000
     9    2.3606   -2.6694   -1.6819    1.3000
    10    0.0000    1.3782    1.6819    1.3000
    11    0.0000    1.3782   -1.6819    1.3000
    12   -2.3606   -2.6694   -1.6819    1.3000
    13   -2.3606   -2.6694    1.6819    1.3000

          ----------------
          PROPERTIES INPUT
          ----------------

     MOMENTS            FIELD           POTENTIAL          DENSITY
 IEMOM =       1   IEFLD =       0   IEPOT =       0   IEDEN =       0
 WHERE =COMASS     WHERE =NUCLEI     WHERE =NUCLEI     WHERE =NUCLEI  
 OUTPUT=BOTH       OUTPUT=BOTH       OUTPUT=BOTH       OUTPUT=BOTH    
 IEMINT=       0   IEFINT=       0                     IEDINT=       0
                                                       MORB  =       0
          EXTRAPOLATION IN EFFECT
          SOSCF IN EFFECT
 ORBITAL PRINTING OPTION: NPREO=     1   169     2     1

     -------------------------------
     INTEGRAL TRANSFORMATION OPTIONS
     -------------------------------
     NWORD  =            0
     CUTOFF = 1.0E-09     MPTRAN =       0
     DIRTRF =       T     AOINTS =DUP     

          ----------------------
          INTEGRAL INPUT OPTIONS
          ----------------------
 NOPK  =       1 NORDER=       0 SCHWRZ=       T


 -----------------------------------------------
  STATISTICS ON AUTOMATIC COORDINATE GENERATION 
 -----------------------------------------------
  NUMBER OF USER SPECIFIED BONDS                             0
  NUMBER OF BONDS                                           12
  NUMBER OF ANGLES                                          20
  NUMBER OF TORSIONS                                        24
  NUMBER OF EXTRA COORD.                                     0
  NUMBER OF EXTRA COORD. FOR CONSTRAINTS                     0
  NUMBER OF CONSTRAINED COORD.                               0

  TOTAL NUMBER OF PRIMITIVES                                56
 -----------------------------------------------

   --- ENCODED Z MATRIX ---
 COORD  TYPE   I   J   K   L   M   N
    1      1    1   2
    2      1    1   6
    3      1    1   9
    4      1    1   8
    5      1    2  11
    6      1    2  10
    7      1    2   3
    8      1    3  13
    9      1    3   4
   10      1    3  12
   11      1    4   5
   12      1    6   7
   13      2    1   2  11
   14      2    1   2   3
   15      2    1   2  10
   16      2    1   6   7
   17      2    2   1   9
   18      2    2   1   8
   19      2    2   3   4
   20      2    2   3  12
   21      2    2   1   6
   22      2    2   3  13
   23      2    3   2  10
   24      2    3   2  11
   25      2    3   4   5
   26      2    4   3  12
   27      2    4   3  13
   28      2    6   1   9
   29      2    6   1   8
   30      2    8   1   9
   31      2   10   2  11
   32      2   12   3  13
   33      3    1   2   3  13
   34      3    1   2   3  12
   35      3    1   2   3   4
   36      3    2   1   6   7
   37      3    2   3   4   5
   38      3    3   2   1   8
   39      3    3   2   1   9
   40      3    3   2   1   6
   41      3    4   3   2  10
   42      3    4   3   2  11
   43      3    5   4   3  12
   44      3    5   4   3  13
   45      3    6   1   2  10
   46      3    6   1   2  11
   47      3    7   6   1   8
   48      3    7   6   1   9
   49      3    8   1   2  10
   50      3    8   1   2  11
   51      3    9   1   2  10
   52      3    9   1   2  11
   53      3   10   2   3  12
   54      3   10   2   3  13
   55      3   11   2   3  12
   56      3   11   2   3  13

          INDEP./SYM. INTERNAL COORDINATES
          --------------------------------
 CRD  1=  -0.1585 ( 13)  0.5330 ( 14) -0.1585 ( 15) -0.1989 ( 16)  0.1271 ( 17)
           0.1271 ( 18) -0.4234 ( 19)  0.1271 ( 20) -0.4234 ( 21)  0.1271 ( 22)
          -0.1585 ( 23) -0.1585 ( 24) -0.1989 ( 25)  0.1136 ( 26)  0.1136 ( 27)
           0.1136 ( 28)  0.1136 ( 29)  0.1010 ( 31)
 CRD  2=  -0.3670 (  1) -0.1716 (  2) -0.3670 (  7) -0.1716 (  9)  0.1447 ( 13)
          -0.4862 ( 14)  0.1447 ( 15) -0.1596 ( 16) -0.2617 ( 19) -0.2617 ( 21)
           0.1447 ( 23)  0.1447 ( 24) -0.1596 ( 25)  0.1501 ( 26)  0.1501 ( 27)
           0.1501 ( 28)  0.1501 ( 29)
 CRD  3=   0.2925 ( 16) -0.1455 ( 17) -0.1455 ( 18) -0.5203 ( 19)  0.1455 ( 20)
           0.5203 ( 21)  0.1455 ( 22) -0.2925 ( 25)  0.1635 ( 26)  0.1635 ( 27)
          -0.1635 ( 28) -0.1635 ( 29)
 CRD  4=  -0.1190 (  5)  0.1190 (  6) -0.1194 ( 13)  0.1194 ( 15) -0.1689 ( 17)
           0.1689 ( 18) -0.1689 ( 20)  0.1689 ( 22)  0.1194 ( 23) -0.1194 ( 24)
           0.1936 ( 33)  0.1936 ( 34)  0.4171 ( 35)  0.1779 ( 36) -0.1779 ( 37)
          -0.1936 ( 38) -0.1936 ( 39) -0.4171 ( 40)  0.1978 ( 41)  0.1978 ( 42)
          -0.1978 ( 45) -0.1978 ( 46)
 CRD  5=   0.2554 ( 13) -0.2554 ( 15)  0.2102 ( 17) -0.2102 ( 18) -0.2102 ( 20)
           0.2102 ( 22)  0.2554 ( 23) -0.2554 ( 24)  0.1602 ( 26) -0.1602 ( 27)
          -0.1602 ( 28)  0.1602 ( 29) -0.2085 ( 33) -0.2085 ( 34) -0.2761 ( 35)
          -0.1062 ( 36) -0.1062 ( 37) -0.2085 ( 38) -0.2085 ( 39) -0.2761 ( 40)
          -0.1197 ( 41) -0.1197 ( 42) -0.1197 ( 45) -0.1197 ( 46)
 CRD  6=   0.4957 (  1) -0.1423 (  2) -0.4957 (  7)  0.1423 (  9)  0.1344 ( 13)
           0.1344 ( 15)  0.1741 ( 17)  0.1741 ( 18) -0.1741 ( 20) -0.1741 ( 22)
          -0.1344 ( 23) -0.1344 ( 24) -0.1280 ( 30)  0.1280 ( 32)  0.1391 ( 43)
          -0.1391 ( 44) -0.1391 ( 47)  0.1391 ( 48) -0.1105 ( 49)  0.1105 ( 52)
          -0.1105 ( 54)  0.1105 ( 55)
 CRD  7=   0.3363 ( 17) -0.3363 ( 18)  0.3363 ( 20) -0.3363 ( 22) -0.2869 ( 26)
           0.2869 ( 27) -0.2869 ( 28)  0.2869 ( 29)  0.1139 ( 35) -0.1575 ( 36)
           0.1575 ( 37) -0.1139 ( 40)  0.1536 ( 41)  0.1536 ( 42) -0.1536 ( 45)
          -0.1536 ( 46)
 CRD  8=   0.3074 (  1) -0.3630 (  2)  0.1698 (  5)  0.1698 (  6)  0.3074 (  7)
          -0.3630 (  9) -0.2354 ( 11) -0.2354 ( 12) -0.1612 ( 14)  0.1882 ( 17)
           0.1882 ( 18)  0.1882 ( 20)  0.1882 ( 22) -0.1021 ( 30) -0.1295 ( 31)
          -0.1021 ( 32) -0.1161 ( 43)  0.1161 ( 44) -0.1161 ( 47)  0.1161 ( 48)
 CRD  9=   0.3210 (  1)  0.3420 (  2)  0.1243 (  3)  0.1243 (  4)  0.1473 (  5)
           0.1473 (  6)  0.3210 (  7)  0.1243 (  8)  0.3420 (  9)  0.1243 ( 10)
           0.2255 ( 11)  0.2255 ( 12)  0.1016 ( 13) -0.2682 ( 14)  0.1016 ( 15)
          -0.2326 ( 16) -0.1207 ( 19) -0.1207 ( 21)  0.1016 ( 23)  0.1016 ( 24)
          -0.2326 ( 25) -0.1382 ( 31)
 CRD 10=  -0.1944 (  1) -0.4897 (  2) -0.1089 (  3) -0.1089 (  4)  0.1944 (  7)
           0.1089 (  8)  0.4897 (  9)  0.1089 ( 10)  0.3233 ( 11) -0.3233 ( 12)
           0.1566 ( 16) -0.1566 ( 25) -0.1041 ( 50)  0.1041 ( 51)  0.1041 ( 53)
          -0.1041 ( 56)
 CRD 11=  -0.1245 (  3)  0.1245 (  4) -0.1245 (  8)  0.1245 ( 10)  0.2422 ( 13)
          -0.2422 ( 15) -0.2828 ( 17)  0.2828 ( 18)  0.2828 ( 20) -0.2828 ( 22)
           0.2422 ( 23) -0.2422 ( 24) -0.2149 ( 26)  0.2149 ( 27)  0.2149 ( 28)
          -0.2149 ( 29) -0.1594 ( 33) -0.1594 ( 34)  0.1432 ( 36)  0.1432 ( 37)
          -0.1594 ( 38) -0.1594 ( 39)
 CRD 12=  -0.2532 (  3)  0.2532 (  4) -0.2532 (  8)  0.2532 ( 10) -0.1702 ( 13)
           0.1702 ( 15) -0.1455 ( 17)  0.1455 ( 18)  0.1455 ( 20) -0.1455 ( 22)
          -0.1702 ( 23)  0.1702 ( 24)  0.1174 ( 26) -0.1174 ( 27) -0.1174 ( 28)
           0.1174 ( 29) -0.1752 ( 35)  0.1668 ( 36)  0.1668 ( 37) -0.1752 ( 40)
          -0.2795 ( 41) -0.2795 ( 42) -0.2795 ( 45) -0.2795 ( 46)
 CRD 13=  -0.3163 (  3)  0.3163 (  4)  0.4326 (  5) -0.4326 (  6)  0.3163 (  8)
          -0.3163 ( 10) -0.1469 ( 33) -0.1469 ( 34)  0.1469 ( 38)  0.1469 ( 39)
           0.1228 ( 41)  0.1228 ( 42) -0.1228 ( 45) -0.1228 ( 46)
 CRD 14=   0.1313 (  2) -0.1313 (  9) -0.1254 ( 11)  0.1254 ( 12)  0.5764 ( 16)
           0.1286 ( 17)  0.1286 ( 18)  0.1975 ( 19) -0.1286 ( 20) -0.1975 ( 21)
          -0.1286 ( 22) -0.5764 ( 25) -0.1342 ( 30)  0.1342 ( 32)
 CRD 15=  -0.1079 (  2) -0.1287 (  3) -0.1287 (  4) -0.1287 (  8) -0.1079 (  9)
          -0.1287 ( 10) -0.1058 ( 11) -0.1058 ( 12) -0.5818 ( 16) -0.1071 ( 17)
          -0.1071 ( 18)  0.2103 ( 19) -0.1071 ( 20)  0.2103 ( 21) -0.1071 ( 22)
          -0.5818 ( 25)  0.1180 ( 30)  0.1180 ( 32)
 CRD 16=  -0.4307 (  3) -0.4307 (  4)  0.4307 (  8)  0.4307 ( 10) -0.2058 ( 30)
           0.2058 ( 32)  0.1129 ( 43) -0.1129 ( 44) -0.1129 ( 47)  0.1129 ( 48)
 CRD 17=  -0.4149 (  3) -0.4149 (  4) -0.4149 (  8) -0.4149 ( 10) -0.2234 ( 30)
          -0.2234 ( 32) -0.1142 ( 43)  0.1142 ( 44) -0.1142 ( 47)  0.1142 ( 48)
 CRD 18=  -0.6199 (  5) -0.6199 (  6) -0.2351 ( 31) -0.1079 ( 50)  0.1079 ( 51)
          -0.1079 ( 53)  0.1079 ( 56)
 CRD 19=  -0.2301 (  3)  0.2301 (  4) -0.2301 (  8)  0.2301 ( 10)  0.1325 ( 13)
          -0.1325 ( 15)  0.1325 ( 23) -0.1325 ( 24)  0.1289 ( 26) -0.1289 ( 27)
          -0.1289 ( 28)  0.1289 ( 29)  0.1646 ( 33)  0.1646 ( 34)  0.1646 ( 38)
           0.1646 ( 39)  0.1123 ( 41)  0.1123 ( 42)  0.1123 ( 45)  0.1123 ( 46)
           0.2458 ( 49)  0.2458 ( 50)  0.2458 ( 51)  0.2458 ( 52)  0.2458 ( 53)
           0.2458 ( 54)  0.2458 ( 55)  0.2458 ( 56)
 CRD 20=   0.2535 (  3) -0.2535 (  4)  0.3945 (  5) -0.3945 (  6) -0.2535 (  8)
           0.2535 ( 10)  0.1030 ( 33)  0.1030 ( 34) -0.1030 ( 38) -0.1030 ( 39)
           0.1361 ( 41)  0.1361 ( 42) -0.1361 ( 45) -0.1361 ( 46) -0.1912 ( 49)
          -0.1912 ( 50) -0.1912 ( 51) -0.1912 ( 52)  0.1912 ( 53)  0.1912 ( 54)
           0.1912 ( 55)  0.1912 ( 56)
 CRD 21=  -0.1118 (  2)  0.1118 (  9) -0.4835 ( 11)  0.4835 ( 12) -0.1207 ( 13)
          -0.1207 ( 15) -0.1480 ( 16)  0.1140 ( 17)  0.1140 ( 18) -0.1140 ( 20)
          -0.1140 ( 22)  0.1207 ( 23)  0.1207 ( 24)  0.1480 ( 25)  0.1789 ( 26)
           0.1789 ( 27) -0.1789 ( 28) -0.1789 ( 29) -0.1704 ( 50)  0.1704 ( 51)
           0.1704 ( 53) -0.1704 ( 56)
 CRD 22=   0.1124 (  1)  0.2347 (  2)  0.1124 (  7)  0.2347 (  9) -0.5838 ( 11)
          -0.5838 ( 12)  0.1161 ( 26)  0.1161 ( 27)  0.1161 ( 28)  0.1161 ( 29)
 CRD 23=   0.3485 (  2) -0.3485 (  9)  0.3546 ( 11) -0.3546 ( 12) -0.1701 ( 13)
          -0.1701 ( 15) -0.1323 ( 16)  0.1016 ( 17)  0.1016 ( 18) -0.1224 ( 19)
          -0.1016 ( 20)  0.1224 ( 21) -0.1016 ( 22)  0.1701 ( 23)  0.1701 ( 24)
           0.1323 ( 25)  0.1222 ( 26)  0.1222 ( 27) -0.1222 ( 28) -0.1222 ( 29)
           0.1042 ( 41) -0.1042 ( 42)  0.1246 ( 43) -0.1246 ( 44)  0.1042 ( 45)
          -0.1042 ( 46) -0.1246 ( 47)  0.1246 ( 48) -0.1166 ( 50)  0.1166 ( 51)
           0.1166 ( 53) -0.1166 ( 56)
 CRD 24=  -0.2612 (  3)  0.2612 (  4) -0.2532 (  5)  0.2532 (  6)  0.2612 (  8)
          -0.2612 ( 10)  0.1238 ( 26) -0.1238 ( 27)  0.1238 ( 28) -0.1238 ( 29)
           0.1151 ( 33)  0.1151 ( 34) -0.1151 ( 38) -0.1151 ( 39) -0.2306 ( 49)
          -0.2306 ( 50) -0.2306 ( 51) -0.2306 ( 52)  0.2306 ( 53)  0.2306 ( 54)
           0.2306 ( 55)  0.2306 ( 56)
 CRD 25=   0.2717 (  1) -0.1967 (  2) -0.1424 (  3) -0.1424 (  4)  0.2717 (  7)
          -0.1424 (  8) -0.1967 (  9) -0.1424 ( 10)  0.1212 ( 11)  0.1212 ( 12)
           0.1842 ( 16) -0.1923 ( 17) -0.1923 ( 18) -0.1128 ( 19) -0.1923 ( 20)
          -0.1128 ( 21) -0.1923 ( 22)  0.1842 ( 25)  0.1508 ( 26)  0.1508 ( 27)
           0.1508 ( 28)  0.1508 ( 29)  0.1959 ( 30) -0.1240 ( 31)  0.1959 ( 32)
           0.2123 ( 43) -0.2123 ( 44)  0.2123 ( 47) -0.2123 ( 48)
 CRD 26=   0.3352 (  3) -0.3352 (  4)  0.3352 (  8) -0.3352 ( 10)  0.1067 ( 13)
          -0.1067 ( 15) -0.1428 ( 17)  0.1428 ( 18)  0.1428 ( 20) -0.1428 ( 22)
           0.1067 ( 23) -0.1067 ( 24)  0.1314 ( 26) -0.1314 ( 27) -0.1314 ( 28)
           0.1314 ( 29) -0.1955 ( 35)  0.1702 ( 36)  0.1702 ( 37) -0.1955 ( 40)
          -0.1301 ( 41) -0.1301 ( 42) -0.1301 ( 45) -0.1301 ( 46)  0.1183 ( 49)
           0.1183 ( 50)  0.1183 ( 51)  0.1183 ( 52)  0.1183 ( 53)  0.1183 ( 54)
           0.1183 ( 55)  0.1183 ( 56)
 CRD 27=   0.4097 (  1) -0.1624 (  3) -0.1624 (  4) -0.4097 (  7)  0.1624 (  8)
           0.1624 ( 10) -0.1281 ( 13) -0.1281 ( 15)  0.1225 ( 16) -0.1072 ( 17)
          -0.1072 ( 18)  0.1072 ( 20)  0.1072 ( 22)  0.1281 ( 23)  0.1281 ( 24)
          -0.1225 ( 25)  0.2415 ( 30) -0.2415 ( 32) -0.1680 ( 43)  0.1680 ( 44)
           0.1680 ( 47) -0.1680 ( 48) -0.1607 ( 50)  0.1607 ( 51)  0.1607 ( 53)
          -0.1607 ( 56)
 CRD 28=   0.1641 (  1) -0.2999 (  2)  0.1130 (  3)  0.1130 (  4) -0.1597 (  5)
          -0.1597 (  6)  0.1641 (  7)  0.1130 (  8) -0.2999 (  9)  0.1130 ( 10)
           0.1047 ( 11)  0.1047 ( 12)  0.1198 ( 26)  0.1198 ( 27)  0.1198 ( 28)
           0.1198 ( 29) -0.1855 ( 30)  0.2727 ( 31) -0.1855 ( 32) -0.1378 ( 33)
           0.1378 ( 34)  0.1378 ( 38) -0.1378 ( 39)  0.1213 ( 41) -0.1213 ( 42)
          -0.1213 ( 45)  0.1213 ( 46)  0.2591 ( 50) -0.2591 ( 51)  0.2591 ( 53)
          -0.2591 ( 56)
 CRD 29=  -0.2055 (  1)  0.2670 (  2) -0.1043 (  3) -0.1043 (  4)  0.2055 (  7)
           0.1043 (  8) -0.2670 (  9)  0.1043 ( 10)  0.1629 ( 13)  0.1629 ( 15)
           0.1283 ( 19) -0.1283 ( 21) -0.1629 ( 23) -0.1629 ( 24)  0.1143 ( 26)
           0.1143 ( 27) -0.1143 ( 28) -0.1143 ( 29)  0.1701 ( 30) -0.1701 ( 32)
          -0.1614 ( 33)  0.1614 ( 34) -0.1614 ( 38)  0.1614 ( 39) -0.2611 ( 49)
           0.2611 ( 52) -0.2611 ( 54)  0.2611 ( 55)
 CRD 30=   0.1944 (  1)  0.1428 (  2) -0.1735 (  5) -0.1735 (  6)  0.1944 (  7)
           0.1428 (  9) -0.2460 ( 14) -0.1595 ( 19) -0.1595 ( 21)  0.1465 ( 30)
           0.2833 ( 31)  0.1465 ( 32)  0.1210 ( 33) -0.1210 ( 34) -0.1210 ( 38)
           0.1210 ( 39)  0.1678 ( 41) -0.1678 ( 42) -0.1678 ( 45)  0.1678 ( 46)
          -0.2888 ( 49)  0.2888 ( 52)  0.2888 ( 54) -0.2888 ( 55)
 CRD 31=   0.1240 (  3) -0.1240 (  4) -0.2663 (  5)  0.2663 (  6) -0.1240 (  8)
           0.1240 ( 10)  0.1757 ( 13) -0.1757 ( 15) -0.1489 ( 17)  0.1489 ( 18)
          -0.1489 ( 20)  0.1489 ( 22) -0.1757 ( 23)  0.1757 ( 24) -0.2713 ( 33)
          -0.2713 ( 34) -0.1167 ( 35)  0.1427 ( 36) -0.1427 ( 37)  0.2713 ( 38)
           0.2713 ( 39)  0.1167 ( 40)  0.2061 ( 41)  0.2061 ( 42) -0.2061 ( 45)
          -0.2061 ( 46)
 CRD 32=  -0.4082 ( 36) -0.4083 ( 37) -0.4083 ( 43) -0.4083 ( 44) -0.4082 ( 47)
          -0.4082 ( 48)
 CRD 33=   0.4083 ( 36) -0.4082 ( 37) -0.4082 ( 43) -0.4082 ( 44)  0.4083 ( 47)
           0.4083 ( 48)

 THE DETERMINANT OF THE G MATRIX IS 10**(     0)


                     --------------------
                     INTERNAL COORDINATES
                     --------------------

                 - - ATOMS - -         COORDINATE      COORDINATE
 NO.   TYPE    I  J  K  L  M  N        (BOHR,RAD)       (ANG,DEG)
 ----------------------------------------------------------------
   1 STRETCH   1  2                     2.8911693       1.5299410
   2 STRETCH   1  6                     2.7816379       1.4719795
   3 STRETCH   1  9                     2.0598174       1.0900085
   4 STRETCH   1  8                     2.0598174       1.0900085
   5 STRETCH   2 11                     2.0598174       1.0900085
   6 STRETCH   2 10                     2.0598174       1.0900085
   7 STRETCH   2  3                     2.8911693       1.5299410
   8 STRETCH   3 13                     2.0598174       1.0900085
   9 STRETCH   3  4                     2.7816379       1.4719795
  10 STRETCH   3 12                     2.0598174       1.0900085
  11 STRETCH   4  5                     2.1468540       1.1360663
  12 STRETCH   6  7                     2.1468540       1.1360663
  13 BEND      1  2 11                  1.9106191     109.4704114
  14 BEND      1  2  3                  1.9106522     109.4723086
  15 BEND      1  2 10                  1.9106191     109.4704114
  16 BEND      1  6  7                  3.1415617     179.9982276
  17 BEND      2  1  9                  1.9106191     109.4704114
  18 BEND      2  1  8                  1.9106191     109.4704114
  19 BEND      2  3  4                  1.9106825     109.4740415
  20 BEND      2  3 12                  1.9106191     109.4704114
  21 BEND      2  1  6                  1.9106825     109.4740415
  22 BEND      2  3 13                  1.9106191     109.4704114
  23 BEND      3  2 10                  1.9106191     109.4704114
  24 BEND      3  2 11                  1.9106191     109.4704114
  25 BEND      3  4  5                  3.1415617     179.9982276
  26 BEND      4  3 12                  1.9106040     109.4695450
  27 BEND      4  3 13                  1.9106040     109.4695450
  28 BEND      6  1  9                  1.9106040     109.4695450
  29 BEND      6  1  8                  1.9106040     109.4695450
  30 BEND      8  1  9                  1.9106707     109.4733696
  31 BEND     10  2 11                  1.9106707     109.4733696
  32 BEND     12  3 13                  1.9106707     109.4733696
  33 TORSION   1  2  3 13               1.0472119      60.0008204
  34 TORSION   1  2  3 12              -1.0472119     -60.0008204
  35 TORSION   1  2  3  4               3.1415927     180.0000000
  36 TORSION   2  1  6  7               0.0000000       0.0000000
  37 TORSION   2  3  4  5               0.0000000       0.0000000
  38 TORSION   3  2  1  8              -1.0472119     -60.0008204
  39 TORSION   3  2  1  9               1.0472119      60.0008204
  40 TORSION   3  2  1  6               3.1415927     180.0000000
  41 TORSION   4  3  2 10               1.0472119      60.0008204
  42 TORSION   4  3  2 11              -1.0472119     -60.0008204
  43 TORSION   5  4  3 12              -2.0943901    -119.9997116
  44 TORSION   5  4  3 13               2.0943901     119.9997116
  45 TORSION   6  1  2 10              -1.0472119     -60.0008204
  46 TORSION   6  1  2 11               1.0472119      60.0008204
  47 TORSION   7  6  1  8              -2.0943901    -119.9997116
  48 TORSION   7  6  1  9               2.0943901     119.9997116
  49 TORSION   8  1  2 10               1.0471689      59.9983592
  50 TORSION   8  1  2 11               3.1415927     180.0000000
  51 TORSION   9  1  2 10               3.1415927     180.0000000
  52 TORSION   9  1  2 11              -1.0471689     -59.9983592
  53 TORSION  10  2  3 12               3.1415927     180.0000000
  54 TORSION  10  2  3 13              -1.0471689     -59.9983592
  55 TORSION  11  2  3 12               1.0471689      59.9983592
  56 TORSION  11  2  3 13               3.1415927     180.0000000

     ------------------------------------------
     THE POINT GROUP IS C1 , NAXIS= 1, ORDER= 1
     ------------------------------------------

     DIMENSIONS OF THE SYMMETRY SUBSPACES ARE
 A   =  169

 ..... DONE SETTING UP THE RUN .....
 STEP CPU TIME =     0.00 TOTAL CPU TIME =        0.0 (    0.0 MIN)
 TOTAL WALL CLOCK TIME=        0.0 SECONDS, CPU UTILIZATION IS   0.00%


          -----------------------------
          STATIONARY POINT LOCATION RUN
          -----------------------------

 OBTAINING INITIAL HESSIAN, HESS=GUESS   
 DIAGONAL GUESS HESSIAN IN INTERNAL COORDS IS
     1  0.3672     2  0.4110     3  0.3464     4  0.3464     5  0.3464
     6  0.3464     7  0.3672     8  0.3464     9  0.4110    10  0.3464
    11  0.6892    12  0.6892    13  0.2241    14  0.2485    15  0.2241
    16  0.2740    17  0.2241    18  0.2241    19  0.2526    20  0.2241
    21  0.2526    22  0.2241    23  0.2241    24  0.2241    25  0.2740
    26  0.2276    27  0.2276    28  0.2276    29  0.2276    30  0.2034
    31  0.2034    32  0.2034    33  0.2500    34  0.2500    35  0.2500
    36  0.2500    37  0.2500    38  0.2500    39  0.2500    40  0.2500
    41  0.2500    42  0.2500    43  0.2500    44  0.2500    45  0.2500
    46  0.2500    47  0.2500    48  0.2500    49  0.2500    50  0.2500
    51  0.2500    52  0.2500    53  0.2500    54  0.2500    55  0.2500
    56  0.2500
 TRANSFORMING HESSIAN TO SYMMETRY COORDINATES

          PARAMETERS CONTROLLING GEOMETRY SEARCH ARE
          METHOD =QA                  UPHESS =BFGS    
          NNEG   =         0          NFRZ   =         3
          NSTEP  =        50          IFOLOW =         1
          HESS   =GUESS               RESTAR =         F
          IHREP  =         0          HSSEND =         F
          NPRT   =         0          NPUN   =         0
          OPTTOL = 5.000E-04          RMIN   = 1.500E-03
          RMAX   = 1.000E-01          RLIM   = 7.000E-02
          DXMAX  = 3.000E-01          PURIFY =         F
          MOVIE  =         F          TRUPD  =         T
          TRMAX  = 5.000E-01          TRMIN  = 5.000E-02
          ITBMAT =         5          STPT   =         F
          STSTEP = 1.000E-02          PROJCT=          F
          FROZEN COORD(S)=   1   2   3


      ***** EQUILIBRIUM GEOMETRY LOCATED *****
            (SUBJECT TO   3 CONSTRAINT(S))
 COORDINATES OF ALL ATOMS ARE (ANGS)
   ATOM   CHARGE       X              Y              Z
 ------------------------------------------------------------
 C           6.0   1.2430341085  -0.7756531215   0.0000014716
 C           6.0  -0.0000013957   0.1119034037  -0.0000007084
 C           6.0  -1.2430397011  -0.7756474261  -0.0000027730
 C           6.0  -2.4553639870   0.0497071634  -0.0000004695
 N           7.0  -3.3620348354   0.7235258481   0.0000026378
 C           6.0   2.4553593167   0.0496975264   0.0000009349
 N           7.0   3.3620470017   0.7235381743  -0.0000009924
 H           1.0   1.2633185343  -1.4115227356   0.8769427544
 H           1.0   1.2634216145  -1.4115954993  -0.8769542971
 H           1.0   0.0000403309   0.7495456678   0.8761739173
 H           1.0  -0.0000484868   0.7495357850  -0.8761819352
 H           1.0  -1.2633302964  -1.4115216170  -0.8769412399
 H           1.0  -1.2634319211  -1.4115848554   0.8769563277


                     --------------------
                     INTERNAL COORDINATES
                     --------------------

                 - - ATOMS - -         COORDINATE      COORDINATE
 NO.   TYPE    I  J  K  L  M  N        (BOHR,RAD)       (ANG,DEG)
 ----------------------------------------------------------------
   1 STRETCH   1  2                     2.8863323       1.5273814
   2 STRETCH   1  6                     2.7714854       1.4666070
   3 STRETCH   1  9                     2.0474462       1.0834619
   4 STRETCH   1  8                     2.0473397       1.0834056
   5 STRETCH   2 11                     2.0477765       1.0836367
   6 STRETCH   2 10                     2.0477774       1.0836372
   7 STRETCH   2  3                     2.8863303       1.5273803
   8 STRETCH   3 13                     2.0474460       1.0834618
   9 STRETCH   3  4                     2.7714881       1.4666085
  10 STRETCH   3 12                     2.0473407       1.0834061
  11 STRETCH   4  5                     2.1347077       1.1296387
  12 STRETCH   6  7                     2.1347579       1.1296653
  13 BEND      1  2 11                  1.9198034     109.9966329
  14 BEND      1  2  3                  1.9014451     108.9447804
  15 BEND      1  2 10                  1.9197355     109.9927391
  16 BEND      1  6  7                  3.1001879     177.6276834
  17 BEND      2  1  9                  1.9351976     110.8786540
  18 BEND      2  1  8                  1.9350953     110.8727912
  19 BEND      2  3  4                  1.9237951     110.2253376
  20 BEND      2  3 12                  1.9351005     110.8730943
  21 BEND      2  1  6                  1.9237935     110.2252502
  22 BEND      2  3 13                  1.9351966     110.8785971
  23 BEND      3  2 10                  1.9198024     109.9965777
  24 BEND      3  2 11                  1.9197237     109.9920635
  25 BEND      3  4  5                  3.1001972     177.6282157
  26 BEND      4  3 12                  1.8910615     108.3498404
  27 BEND      4  3 13                  1.8909946     108.3460120
  28 BEND      6  1  9                  1.8910008     108.3463640
  29 BEND      6  1  8                  1.8910617     108.3498543
  30 BEND      8  1  9                  1.8863136     108.0778081
  31 BEND     10  2 11                  1.8833776     107.9095897
  32 BEND     12  3 13                  1.8863139     108.0778252
  33 TORSION   1  2  3 13               1.0477213      60.0300058
  34 TORSION   1  2  3 12              -1.0477062     -60.0291406
  35 TORSION   1  2  3  4               3.1415894     179.9998157
  36 TORSION   2  1  6  7              -0.0000307      -0.0017607
  37 TORSION   2  3  4  5              -0.0000265      -0.0015203
  38 TORSION   3  2  1  8              -1.0477089     -60.0292978
  39 TORSION   3  2  1  9               1.0477153      60.0296644
  40 TORSION   3  2  1  6               3.1415908     179.9998937
  41 TORSION   4  3  2 10               1.0360941      59.3638168
  42 TORSION   4  3  2 11              -1.0360654     -59.3621745
  43 TORSION   5  4  3 12              -2.1203178    -121.4852611
  44 TORSION   5  4  3 13               2.1203405     121.4865592
  45 TORSION   6  1  2 10              -1.0360580     -59.3617492
  46 TORSION   6  1  2 11               1.0361093      59.3646911
  47 TORSION   7  6  1  8              -2.1203147    -121.4850840
  48 TORSION   7  6  1  9               2.1203404     121.4865583
  49 TORSION   8  1  2 10               1.0578276      60.6090593
  50 TORSION   8  1  2 11               3.1299949     179.3354996
  51 TORSION   9  1  2 10              -3.1299335    -179.3319785
  52 TORSION   9  1  2 11              -1.0577662     -60.6055382
  53 TORSION  10  2  3 12               3.1299838     179.3348605
  54 TORSION  10  2  3 13              -1.0577741     -60.6059930
  55 TORSION  11  2  3 12               1.0578243      60.6088692
  56 TORSION  11  2  3 13              -3.1299336    -179.3319844

          INTERNUCLEAR DISTANCES (ANGS.)


 =====================================================
   GAMESS/COSab RESULTS
 =====================================================

   Dielectric Constant                  = INFTY
   Basic Grid Size                      =                 1082
   Number of Segments                   =                   92
   Number of Segments located on spheres=                  259
   Number of Segments of the cavity     =                  539
   Solvent Radius (rsolv)               = 1.40
   Outlying Charge Error Method         = double cavity

 =====================================================

  Total solvated Energy (a.u.)          =  -301.8240245663
  Total Energy corrected (a.u.)         =  -301.8239218365

  Outlying charge effect (a.u.)         =     0.0001027297
  Outlying charge effect (kcal/mol)     =     0.0644639394

  Dielectric Energy (a.u.)              =    -0.0317818014
  Dielectric energy corr. (a.u.)        =    -0.0316790716

  Sum of polarization charges           =     0.0171894586
  Sum of polarization charges(cor.)     =    -0.0171894586

  Total surface area of cavity (A**2)   =  145.24
  Total volume of cavity (A**3)         =  131.98

 =====================================================
 NPS=                   539
NR.  ATOM  (X, Y, Z)(a.u.)                  CHARGE(e)  AREA(A**2) SIGMA(e/A**2)
   1   1   3.548295  -5.032854  -0.349177  -0.000762   0.418105  -0.001822
   2   1   2.319144  -0.769227  -3.714597  -0.000559   0.092912  -0.006013
   3   1   3.268762  -5.086372   0.574096  -0.000639   0.278737  -0.002292
   4   1   2.633196  -0.861242   3.719943  -0.000871   0.139368  -0.006251
   5   1   1.321847  -5.094997  -0.240801  -0.000693   0.232280  -0.002984
   6   1   2.224956  -5.238349  -0.191261  -0.000541   0.371649  -0.001455
   7   1   4.620526  -4.482719   0.149964  -0.001135   0.371649  -0.003054
   8   1   4.562549  -4.391179  -0.909121  -0.001487   0.371649  -0.004000
   9   1   2.636086  -1.006434  -3.740440  -0.000332   0.046456  -0.007156
  10   1   4.614695  -4.317689   1.008700  -0.001065   0.278737  -0.003820
  11   1   1.609810  -5.126074   0.583168  -0.000446   0.139368  -0.003203
  12   1   2.072048  -0.877371   3.723075  -0.000316   0.046456  -0.006812
  13   2  -1.003454   3.837839  -0.355953   0.000178   0.371649   0.000479
  14   2   0.007604  -0.491298  -3.713540  -0.000470   0.092912  -0.005062
  15   2  -0.803617   3.860452   0.568585  -0.000356   0.278737  -0.001276
  16   2  -0.303386  -0.378074   3.720836  -0.000632   0.139368  -0.004536
  17   2   1.142584   3.805638  -0.246220  -0.000068   0.232280  -0.000292
  18   2   0.244516   3.977846  -0.196944   0.000334   0.371649   0.000899
  19   2  -0.301598  -0.244125  -3.739757  -0.000203   0.046456  -0.004365
  20   2   0.855756   3.847143   0.577686  -0.000091   0.139368  -0.000653
  21   2   0.257991  -0.379877   3.723973  -0.000245   0.046456  -0.005282
  22   3  -3.548343  -5.032830   0.349199  -0.000762   0.418105  -0.001822
  23   3  -2.319115  -0.769199   3.714586  -0.000558   0.092912  -0.006009
  24   3  -3.268819  -5.086356  -0.574076  -0.000639   0.278737  -0.002292
  25   3  -2.633231  -0.861250  -3.719951  -0.000871   0.139368  -0.006252
  26   3  -1.321897  -5.094999   0.240804  -0.000693   0.232280  -0.002984
  27   3  -2.225008  -5.238341   0.191273  -0.000541   0.371649  -0.001455
  28   3  -4.620573  -4.482686  -0.149935  -0.001135   0.371649  -0.003055
  29   3  -4.562585  -4.391140   0.909148  -0.001487   0.371649  -0.004001
  30   3  -2.636060  -1.006402   3.740433  -0.000332   0.046456  -0.007154
  31   3  -4.614747  -4.317660  -1.008672  -0.001065   0.278737  -0.003820
  32   3  -1.609868  -5.126077  -0.583162  -0.000446   0.139368  -0.003204
  33   3  -2.072084  -0.877386  -3.723087  -0.000316   0.046456  -0.006812
  34   4  -4.570168   1.579147  -3.474689   0.000493   0.232280   0.002124
  35   4  -7.078992  -1.570128  -2.359303   0.000719   0.185824   0.003869
  36   4  -7.212560  -1.942787   1.875597   0.000860   0.325193   0.002646
  37   4  -4.727642  -0.504322   3.730781  -0.001122   0.325193  -0.003449
  38   4  -5.128155   0.529493   3.722404   0.000777   0.418105   0.001859
  39   4  -4.273604   1.639227   3.429601   0.000372   0.371649   0.001001
  40   4  -3.435369   3.536481   0.990995   0.000401   0.092912   0.004312
  41   4  -3.942772   2.222728  -3.044068   0.000484   0.278737   0.001735
  42   4  -4.857488   0.677556  -3.727769   0.000288   0.325193   0.000887
  43   4  -4.336466  -0.204331  -3.755411  -0.001354   0.325193  -0.004162
  44   4  -5.312653  -1.286727  -3.453328  -0.001130   0.371649  -0.003040
  45   4  -6.393450  -1.376224  -3.008017   0.000298   0.371649   0.000803
  46   4  -7.081288  -2.238455  -1.698286   0.000264   0.325193   0.000813
  47   4  -6.446214  -3.038021  -1.101179  -0.001873   0.464561  -0.004032
  48   4  -6.498039  -3.158594   0.502916  -0.000997   0.464561  -0.002147
  49   4  -7.264768  -2.428239   1.016553   0.000431   0.371649   0.001159
  50   4  -6.618193  -1.679001   2.688430   0.000406   0.418105   0.000972
  51   4  -5.673520  -1.701653   3.161007  -0.001161   0.325193  -0.003571
  52   4  -3.982268   0.553139   3.693356  -0.001370   0.325193  -0.004212
  53   4  -3.878578   0.848416  -3.624255  -0.001046   0.278737  -0.003753
  54   4  -6.228702  -2.392186  -2.362069  -0.000998   0.371649  -0.002686
  55   4  -6.246854  -2.763588   1.880638  -0.001777   0.418105  -0.004249
  56   4  -3.852747   2.741491   2.579732   0.000615   0.185824   0.003311
  57   4  -3.651761   3.185121  -1.937064   0.000578   0.139368   0.004149
  58   4  -5.778567  -0.269247  -3.585513   0.000900   0.511017   0.001761
  59   4  -7.370781  -2.491090  -0.380261   0.001002   0.511017   0.001960
  60   4  -5.942011  -0.640656   3.471225   0.000740   0.511017   0.001449
  61   5  -9.108831   3.454639   0.096134   0.006927   0.427836   0.016191
  62   5  -5.799995   4.708803   0.697974   0.003882   0.388942   0.009980
  63   5  -7.394292   2.566117   3.072189   0.003853   0.388942   0.009906
  64   5  -9.289714   0.122886   1.337264   0.003891   0.388942   0.010004
  65   5  -8.938397   0.684100  -2.193122   0.003908   0.388942   0.010048
  66   5  -6.618447   3.525593  -2.688955   0.003407   0.350048   0.009733
  67   5  -8.157999   4.310834   0.194313   0.007021   0.466730   0.015042
  68   5  -7.046206   4.710317   0.550580   0.004861   0.388942   0.012499
  69   5  -8.758925   3.476215   1.313249   0.007014   0.466730   0.015029
  70   5  -8.123336   3.208003   2.331943   0.004875   0.388942   0.012534
  71   5  -9.601750   2.382260   0.613753   0.007039   0.466730   0.015081
  72   5  -9.705352   1.156285   0.823744   0.005363   0.427836   0.012534
  73   5  -9.477529   2.624297  -0.786371   0.006604   0.427836   0.015435
  74   5  -9.375777   1.763163  -1.633150   0.005006   0.388942   0.012871
  75   5  -8.648399   3.701330  -1.115324   0.008352   0.544519   0.015338
  76   5  -7.754304   3.782716  -2.040101   0.005876   0.466730   0.012590
  77   5  -6.354851   4.362235   1.728981   0.003984   0.388942   0.010244
  78   5  -6.903130   3.620157   2.565427   0.004427   0.427836   0.010348
  79   5  -8.299022   1.929295   2.803137   0.004593   0.427836   0.010736
  80   5  -8.989058   0.877797   2.184604   0.004853   0.466730   0.010397
  81   5  -9.537349   0.018365   0.039700   0.004805   0.466730   0.010296
  82   5  -9.415323   0.291438  -1.194096   0.004894   0.466730   0.010485
  83   5  -8.428065   1.562866  -2.759764   0.004443   0.427836   0.010385
  84   5  -7.570837   2.686266  -2.955846   0.004833   0.466730   0.010355
  85   5  -6.407081   4.272307  -1.875370   0.005226   0.505625   0.010336
  86   5  -6.247801   4.776247  -0.571759   0.004607   0.427836   0.010769
  87   5  -5.198945   4.223399   1.571345   0.002890   0.311154   0.009287
  88   5  -4.825971   3.721311   2.021106   0.001364   0.155577   0.008768
  89   5  -5.341135   3.069403   2.835032   0.001562   0.194471   0.008031
  90   5  -6.199257   2.581685   3.234294   0.003591   0.388942   0.009233
  91   5  -6.900499   1.568359   3.408717   0.003392   0.388942   0.008722
  92   5  -7.206803   0.547840   3.249505   0.001973   0.233365   0.008456
  93   5  -8.033785  -0.173554   2.600207   0.002117   0.233365   0.009070
  94   5  -8.527092  -0.434067   1.997266   0.002932   0.311154   0.009421
  95   5  -8.939939  -0.803584   0.745618   0.002879   0.311154   0.009252
  96   5  -8.682290  -1.188490   0.055932   0.001895   0.194471   0.009745
  97   5  -8.476378  -0.535048  -1.957785   0.004353   0.466730   0.009328
  98   5  -7.951101   0.217216  -2.843163   0.003429   0.388942   0.008816
  99   5  -7.220422   0.789713  -3.297523   0.002426   0.272259   0.008912
 100   5  -6.466555   1.815509  -3.427150   0.002150   0.233365   0.009215
 101   5  -6.156477   2.653358  -3.204112   0.003486   0.388942   0.008963
 102   5  -5.452482   3.471062  -2.592617   0.003193   0.350048   0.009121
 103   5  -4.754231   3.843454  -1.808466   0.001651   0.233365   0.007075
 104   5  -4.520659   4.240402  -0.587885   0.002191   0.233365   0.009387
 105   5  -5.244757   4.634969  -0.228889   0.002835   0.311154   0.009110
 106   5  -7.648263   4.189933   1.521479   0.006127   0.466730   0.013127
 107   5  -9.169367   2.200708   1.826051   0.007265   0.544519   0.013342
 108   5  -9.776731   1.353091  -0.489108   0.006172   0.466730   0.013224
 109   5  -8.698830   2.686454  -2.171977   0.006575   0.505625   0.013003
 110   5  -7.380216   4.549437  -0.882311   0.006128   0.466730   0.013130
 111   5  -5.738201   3.665461   2.509808   0.002782   0.311154   0.008941
 112   5  -8.017431   0.812131   2.980226   0.003124   0.350048   0.008923
 113   5  -8.817440  -0.909988  -0.837460   0.003476   0.427836   0.008125
 114   5  -7.365275   1.634847  -3.295976   0.002385   0.272259   0.008761
 115   5  -5.300248   4.353384  -1.390432   0.002720   0.311154   0.008741
 116   5  -8.373727  -1.041049   1.441218   0.001209   0.194471   0.006216
 117   5  -4.661995   4.307982   0.671411   0.002033   0.272259   0.007469
 118   6   4.570138   1.579160   3.474677   0.000566   0.232280   0.002439
 119   6   7.078964  -1.570129   2.359335   0.000403   0.185824   0.002167
 120   6   7.212560  -1.942825  -1.875561   0.000499   0.325193   0.001533
 121   6   4.727657  -0.504371  -3.730774  -0.001063   0.325193  -0.003268
 122   6   5.128172   0.529444  -3.722403   0.000715   0.418105   0.001709
 123   6   4.273621   1.639182  -3.429615   0.000572   0.371649   0.001539
 124   6   3.435373   3.536458  -0.991031   0.000258   0.092912   0.002775
 125   6   3.942747   2.222739   3.044046   0.000484   0.278737   0.001737
 126   6   4.857455   0.677570   3.727767   0.000386   0.325193   0.001188
 127   6   4.336432  -0.204315   3.755413  -0.001367   0.325193  -0.004203
 128   6   5.312618  -1.286716   3.453345  -0.001115   0.371649  -0.003000
 129   6   6.393418  -1.376218   3.008042   0.000403   0.371649   0.001085
 130   6   7.081263  -2.238462   1.698324   0.000614   0.325193   0.001889
 131   6   6.446191  -3.038032   1.101219  -0.001887   0.464561  -0.004063
 132   6   6.498027  -3.158618  -0.502875  -0.000963   0.464561  -0.002072
 133   6   7.264761  -2.428269  -1.016512   0.000645   0.371649   0.001737
 134   6   6.618199  -1.679044  -2.688401   0.000727   0.418105   0.001740
 135   6   5.673529  -1.701698  -3.160984  -0.001176   0.325193  -0.003617
 136   6   3.982285   0.553092  -3.693363  -0.001413   0.325193  -0.004345
 137   6   3.878546   0.848432   3.624245  -0.001067   0.278737  -0.003826
 138   6   6.228672  -2.392185   2.362102  -0.001039   0.371649  -0.002796
 139   6   6.246852  -2.763624  -1.880601  -0.001785   0.418105  -0.004270
 140   6   3.852760   2.741454  -2.579758   0.000490   0.185824   0.002635
 141   6   3.651744   3.185123   1.937033   0.000334   0.139368   0.002400
 142   6   5.778533  -0.269235   3.585525   0.000812   0.511017   0.001590
 143   6   7.370765  -2.491108   0.380303   0.000686   0.511017   0.001343
 144   6   5.942024  -0.640704  -3.471208   0.000546   0.511017   0.001068
 145   7   9.108861   3.454637  -0.096131   0.006927   0.427836   0.016192
 146   7   5.800031   4.708802  -0.698004   0.003853   0.388942   0.009906
 147   7   7.394340   2.566093  -3.072190   0.003856   0.388942   0.009914
 148   7   9.289746   0.122873  -1.337231   0.003951   0.388942   0.010159
 149   7   8.938406   0.684118   2.193147   0.003932   0.388942   0.010110
 150   7   6.618458   3.525619   2.688940   0.003434   0.350048   0.009811
 151   7   8.158031   4.310833  -0.194324   0.007021   0.466730   0.015042
 152   7   7.046241   4.710314  -0.550602   0.004863   0.388942   0.012503
 153   7   8.758963   3.476203  -1.313249   0.007015   0.466730   0.015029
 154   7   8.123380   3.207984  -2.331944   0.004877   0.388942   0.012539
 155   7   9.601781   2.382253  -0.613737   0.007039   0.466730   0.015082
 156   7   9.705382   1.156276  -0.823718   0.005357   0.427836   0.012522
 157   7   9.477551   2.624302   0.786383   0.006603   0.427836   0.015434
 158   7   9.375791   1.763175   1.633169   0.005007   0.388942   0.012874
 159   7   8.648421   3.701339   1.115322   0.008352   0.544519   0.015339
 160   7   7.754320   3.782735   2.040092   0.005875   0.466730   0.012587
 161   7   6.354893   4.362225  -1.729004   0.004012   0.388942   0.010316
 162   7   6.903177   3.620138  -2.565440   0.004410   0.427836   0.010307
 163   7   8.299067   1.929271  -2.803126   0.004572   0.427836   0.010685
 164   7   8.989097   0.877778  -2.184580   0.004876   0.466730   0.010446
 165   7   9.537371   0.018362  -0.039665   0.004805   0.466730   0.010294
 166   7   9.415338   0.291447   1.194128   0.004838   0.466730   0.010366
 167   7   8.428072   1.562890   2.759779   0.004409   0.427836   0.010306
 168   7   7.570845   2.686293   2.955845   0.004823   0.466730   0.010334
 169   7   6.407099   4.272327   1.875348   0.005223   0.505625   0.010331
 170   7   6.247828   4.776256   0.571731   0.004610   0.427836   0.010775
 171   7   5.198986   4.223391  -1.571375   0.002620   0.311154   0.008419
 172   7   4.826014   3.721300  -2.021134   0.001361   0.155577   0.008749
 173   7   5.341183   3.069385  -2.835052   0.001474   0.194471   0.007581
 174   7   6.199306   2.581661  -3.234303   0.003598   0.388942   0.009251
 175   7   6.900547   1.568333  -3.408713   0.003438   0.388942   0.008839
 176   7   7.206848   0.547815  -3.249491   0.001950   0.233365   0.008357
 177   7   8.033825  -0.173575  -2.600180   0.002079   0.233365   0.008907
 178   7   8.527127  -0.434084  -1.997234   0.002697   0.311154   0.008667
 179   7   8.939965  -0.803591  -0.745580   0.002662   0.311154   0.008556
 180   7   8.682310  -1.188491  -0.055892   0.001648   0.194471   0.008473
 181   7   8.476387  -0.535031   1.957818   0.004188   0.466730   0.008972
 182   7   7.951105   0.217242   2.843186   0.003439   0.388942   0.008841
 183   7   7.220424   0.789744   3.297536   0.002547   0.272259   0.009355
 184   7   6.466558   1.815542   3.427149   0.001679   0.233365   0.007193
 185   7   6.156482   2.653389   3.204102   0.003767   0.388942   0.009685
 186   7   5.452494   3.471090   2.592595   0.002879   0.350048   0.008225
 187   7   4.754248   3.843476   1.808436   0.002130   0.233365   0.009126
 188   7   4.520685   4.240414   0.587850   0.001687   0.233365   0.007230
 189   7   5.244786   4.634977   0.228856   0.002824   0.311154   0.009075
 190   7   7.648303   4.189922  -1.521493   0.006126   0.466730   0.013124
 191   7   9.169406   2.200691  -1.826037   0.007265   0.544519   0.013343
 192   7   9.776753   1.353093   0.489133   0.006175   0.466730   0.013231
 193   7   8.698843   2.686472   2.171984   0.006578   0.505625   0.013010
 194   7   7.380241   4.549446   0.882293   0.006128   0.466730   0.013130
 195   7   5.738248   3.665444  -2.509830   0.002821   0.311154   0.009067
 196   7   8.017475   0.812106  -2.980208   0.003212   0.350048   0.009177
 197   7   8.817455  -0.909981   0.837498   0.003889   0.427836   0.009090
 198   7   7.365278   1.634877   3.295982   0.002525   0.272259   0.009275
 199   7   5.300269   4.353402   1.390401   0.002737   0.311154   0.008796
 200   7   8.373757  -1.041061  -1.441182   0.001780   0.194471   0.009152
 201   7   4.662030   4.307983  -0.671445   0.002560   0.272259   0.009402
 202   8   2.691272  -4.265499   3.498052  -0.004959   0.471065  -0.010528
 203   8   2.865868  -2.302510   4.038986  -0.003406   0.392554  -0.008677
 204   8   4.081814  -3.910402   2.929475  -0.003268   0.353299  -0.009249
 205   8   2.682409  -5.070777   2.071637  -0.002656   0.372926  -0.007121
 206   8   1.854574  -2.754286   4.053800  -0.005440   0.529948  -0.010266
 207   8   3.451585  -3.309031   3.776326  -0.004171   0.471065  -0.008855
 208   8   3.545870  -4.663479   2.498912  -0.003293   0.412182  -0.007989
 209   8   1.768483  -4.914217   2.434318  -0.004448   0.451437  -0.009852
 210   8   1.647913  -3.999236   3.584515  -0.004529   0.392554  -0.011537
 211   9   2.697124  -4.036890  -3.673156  -0.004692   0.451437  -0.010394
 212   9   3.502950  -2.897696  -3.833883  -0.002630   0.314043  -0.008375
 213   9   1.836877  -2.292839  -4.021840  -0.002793   0.294415  -0.009485
 214   9   2.043861  -5.080217  -1.966854  -0.002989   0.372926  -0.008016
 215   9   3.972655  -4.393481  -2.394428  -0.002805   0.353299  -0.007938
 216   9   2.727298  -2.493629  -4.084014  -0.003305   0.372926  -0.008861
 217   9   1.725481  -3.483323  -3.877849  -0.004608   0.412182  -0.011179
 218   9   1.801218  -4.634612  -3.006978  -0.004600   0.412182  -0.011161
 219   9   3.036389  -4.895282  -2.464136  -0.003626   0.451437  -0.008032
 220   9   3.805155  -3.827973  -3.293893  -0.003957   0.412182  -0.009599
 221  10  -0.003950   3.109118   3.436141  -0.003034   0.372926  -0.008135
 222  10   0.785758   1.302711   3.980560  -0.002763   0.372926  -0.007410
 223  10  -0.471601   1.015373   4.033062  -0.002463   0.372926  -0.006604
 224  10  -0.684686   3.724302   2.145546  -0.001946   0.333671  -0.005833
 225  10   0.952430   3.414375   2.721726  -0.002583   0.333671  -0.007742
 226  10   0.018727   2.012787   4.038808  -0.002564   0.333671  -0.007684
 227  10  -0.975773   2.166643   3.781744  -0.003021   0.372926  -0.008100
 228  10  -0.941373   3.218257   3.034917  -0.002615   0.333671  -0.007837
 229  10   0.365199   3.806469   2.091060  -0.002174   0.392554  -0.005537
 230  10   0.989937   2.580646   3.579232  -0.002847   0.372926  -0.007635
 231  11   0.003928   3.109072  -3.436179  -0.003034   0.372926  -0.008137
 232  11  -0.785768   1.302653  -3.980577  -0.002764   0.372926  -0.007412
 233  11   0.471593   1.015324  -4.033076  -0.002468   0.372926  -0.006617
 234  11   0.684660   3.724276  -2.145592  -0.001951   0.333671  -0.005847
 235  11  -0.952454   3.414331  -2.721768  -0.002586   0.333671  -0.007749
 236  11  -0.018741   2.012734  -4.038834  -0.002565   0.333671  -0.007687
 237  11   0.975758   2.166600  -3.781772  -0.003022   0.372926  -0.008104
 238  11   0.941350   3.218222  -3.034957  -0.002617   0.333671  -0.007843
 239  11  -0.365226   3.806437  -2.091106  -0.002183   0.392554  -0.005562
 240  11  -0.989955   2.580592  -3.579265  -0.002848   0.372926  -0.007637
 241  12  -2.691344  -4.265493  -3.498023  -0.004960   0.471065  -0.010528
 242  12  -2.865922  -2.302504  -4.038967  -0.003406   0.392554  -0.008677
 243  12  -4.081877  -3.910377  -2.929437  -0.003268   0.353299  -0.009249
 244  12  -2.682478  -5.070763  -2.071604  -0.002656   0.372926  -0.007121
 245  12  -1.854633  -2.754292  -4.053787  -0.005441   0.529948  -0.010267
 246  12  -3.451649  -3.309017  -3.776296  -0.004171   0.471065  -0.008855
 247  12  -3.545938  -4.663458  -2.498874  -0.003293   0.412182  -0.007988
 248  12  -1.768553  -4.914216  -2.434294  -0.004448   0.451437  -0.009853
 249  12  -1.647982  -3.999242  -3.584497  -0.004529   0.392554  -0.011537
 250  13  -2.697134  -4.036873   3.673154  -0.004692   0.451437  -0.010394
 251  13  -3.502945  -2.897670   3.833886  -0.002631   0.314043  -0.008376
 252  13  -1.836864  -2.292832   4.021829  -0.002792   0.294415  -0.009484
 253  13  -2.043896  -5.080210   1.966847  -0.002989   0.372926  -0.008016
 254  13  -3.972679  -4.393451   2.394437  -0.002805   0.353299  -0.007939
 255  13  -2.727286  -2.493611   4.084011  -0.003305   0.372926  -0.008861
 256  13  -1.725483  -3.483318   3.877838  -0.004608   0.412182  -0.011179
 257  13  -1.801240  -4.634607   3.006969  -0.004600   0.412182  -0.011161
 258  13  -3.036418  -4.895262   2.464138  -0.003626   0.451437  -0.008032
 259  13  -3.805165  -3.827944   3.293900  -0.003957   0.412182  -0.009599
 260   1   1.360983  -1.186331   3.644666  -0.000382   0.025793  -0.014819
 261   2   0.958184  -0.896761   3.601466  -0.000347   0.025793  -0.013435
 262   8   1.438702  -1.472803   3.697299  -0.000335   0.025793  -0.013000
 263   1   1.360806  -1.186621  -3.644650  -0.000348   0.025787  -0.013501
 264   2   0.958010  -0.897048  -3.601445  -0.000316   0.025787  -0.012260
 265   9   1.438588  -1.473098  -3.697279  -0.000412   0.025787  -0.015970
 266   1   1.379128  -0.379443   3.604011  -0.000345   0.026970  -0.012794
 267   2   0.976011  -0.090173   3.646630  -0.000318   0.026970  -0.011780
 268  10   0.908283   0.198970   3.699351  -0.000273   0.026970  -0.010125
 269   1   1.379173  -0.379353  -3.604013  -0.000310   0.026965  -0.011498
 270   2   0.976057  -0.090081  -3.646635  -0.000291   0.026965  -0.010800
 271  11   0.908283   0.199048  -3.699355  -0.000342   0.026965  -0.012675
 272   2   0.846985  -0.471615   3.673249  -0.000524   0.081752  -0.006415
 273   1   1.485002  -0.806532   3.673640  -0.000620   0.081752  -0.007586
 274   2   0.903995  -0.391770  -3.673637  -0.000507   0.081832  -0.006200
 275   1   1.427851  -0.886572  -3.673242  -0.000603   0.081832  -0.007367
 276   1   0.668368  -4.694499  -1.147842  -0.000781   0.064305  -0.012141
 277   3  -0.147019  -4.615295  -1.127660  -0.000906   0.064305  -0.014091
 278   9   0.789770  -4.675146  -1.424809  -0.000831   0.064305  -0.012925
 279   1   0.146998  -4.615295   1.127653  -0.000906   0.064305  -0.014091
 280   3  -0.668390  -4.694496   1.147835  -0.000781   0.064305  -0.012141
 281  13  -0.789790  -4.675142   1.424803  -0.000831   0.064305  -0.012925
 282   3  -0.584911  -4.816248  -0.206937  -0.003957   0.569235  -0.006951
 283   1   0.584888  -4.816250   0.206930  -0.003957   0.569235  -0.006951
 284   1   3.250158  -1.128811   3.663169  -0.000380   0.028173  -0.013498
 285   6   3.644096  -0.860783   3.624530  -0.000491   0.028173  -0.017433
 286   8   3.197801  -1.420850   3.717306  -0.000365   0.028173  -0.012952
 287   1   4.899282  -3.551135   1.868639  -0.000486   0.028173  -0.017233
 288   6   5.273739  -3.254492   1.851199  -0.000516   0.028173  -0.018305
 289   8   4.700577  -3.628210   2.082028  -0.000384   0.028173  -0.013620
 290   1   4.899488  -3.551423  -1.868054  -0.000454   0.028180  -0.016122
 291   6   5.273945  -3.254779  -1.850622  -0.000526   0.028180  -0.018671
 292   9   4.700812  -3.628502  -2.081496  -0.000392   0.028180  -0.013925
 293   1   3.250167  -1.128812  -3.663182  -0.000491   0.028180  -0.017426
 294   6   3.644106  -0.860784  -3.624546  -0.000502   0.028180  -0.017818
 295   9   3.197856  -1.420880  -3.717320  -0.000391   0.028180  -0.013864
 296   1   2.387769   0.179837   3.451137  -0.001210   0.101123  -0.011962
 297   6   2.786966   0.445606   3.417223  -0.001339   0.101123  -0.013242
 298  10   1.851688   0.707827   3.476984  -0.001224   0.101123  -0.012103
 299   1   2.387707   0.179889  -3.451125  -0.001243   0.101125  -0.012296
 300   6   2.786904   0.445657  -3.417208  -0.001366   0.101125  -0.013509
 301  11   1.851587   0.707867  -3.476969  -0.001198   0.101125  -0.011849
 302   6   3.465995  -0.035171   3.604128  -0.001514   0.183794  -0.008235
 303   1   3.027471  -0.608864   3.631804  -0.001630   0.183794  -0.008871
 304   6   5.685648  -3.295520   1.322605  -0.001601   0.198931  -0.008047
 305   6   5.731973  -3.363567  -0.591831  -0.004074   0.404154  -0.010081
 306   1   5.165389  -3.749158   0.592498  -0.004088   0.404154  -0.010115
 307   1   5.119274  -3.681423  -1.321954  -0.001757   0.198931  -0.008831
 308   6   3.593964  -0.223145  -3.631810  -0.001523   0.183804  -0.008286
 309   1   2.899443  -0.420817  -3.604130  -0.001729   0.183804  -0.009406
 310   1   0.618487  -4.651081   1.283477  -0.000916   0.086707  -0.010559
 311   8   0.736426  -4.643146   1.564155  -0.001060   0.086707  -0.012223
 312  13  -0.322269  -4.558593   1.556948  -0.001158   0.086707  -0.013356
 313   8   1.468786  -4.932395   1.505245  -0.000894   0.078488  -0.011395
 314   8   2.721594  -5.011098   1.419212  -0.001846   0.180084  -0.010249
 315   8   4.026577  -4.381661   1.845437  -0.002005   0.180084  -0.011136
 316   1   1.891720  -5.001291   1.034287  -0.001667   0.166856  -0.009992
 317   1   3.566491  -4.775141   1.159544  -0.001619   0.166856  -0.009701
 318   1   4.576526  -3.993257   1.703126  -0.000985   0.095891  -0.010274
 319   8   2.741148  -1.641141   3.862278  -0.000594   0.066574  -0.008919
 320   8   1.903270  -1.678472   3.854583  -0.000690   0.066574  -0.010368
 321   1   2.305934  -1.268336   3.731434  -0.001617   0.146737  -0.011022
 322   9   4.349446  -4.077064  -2.058528  -0.000765   0.078493  -0.009743
 323   9   3.446242  -4.796049  -1.558140  -0.001797   0.180090  -0.009980
 324   9   1.953650  -4.997500  -1.446748  -0.002039   0.180090  -0.011323
 325   1   4.217833  -4.310596  -1.480962  -0.001812   0.166869  -0.010858
 326   1   2.753417  -5.016743  -1.002928  -0.001542   0.166869  -0.009243
 327   1   1.369594  -4.945867  -1.086490  -0.001005   0.095896  -0.010480
 328   9   1.903200  -1.678718  -3.854585  -0.000640   0.066588  -0.009608
 329   9   2.741182  -1.641226  -3.862295  -0.000697   0.066588  -0.010463
 330   1   2.305844  -1.268481  -3.731439  -0.001645   0.146764  -0.011211
 331  10   1.080255   0.556186   3.745956  -0.001229   0.161288  -0.007623
 332   1   1.942307  -0.165199   3.642911  -0.001296   0.227331  -0.005701
 333  11   1.199173   0.666219  -3.723324  -0.001279   0.161273  -0.007933
 334   1   1.833921  -0.265298  -3.663527  -0.001301   0.227309  -0.005723
 335   2  -0.976074  -0.090049   3.646622  -0.000267   0.026965  -0.009919
 336   3  -1.379192  -0.379319   3.604001  -0.000310   0.026965  -0.011486
 337  10  -0.908301   0.199083   3.699340  -0.000326   0.026965  -0.012077
 338   2  -0.975991  -0.090216  -3.646645  -0.000316   0.026971  -0.011709
 339   3  -1.379111  -0.379485  -3.604025  -0.000345   0.026971  -0.012790
 340  11  -0.908268   0.198925  -3.699367  -0.000271   0.026971  -0.010057
 341   2  -0.958150  -0.896828  -3.601467  -0.000346   0.025791  -0.013434
 342   3  -1.360950  -1.186397  -3.644667  -0.000382   0.025791  -0.014822
 343  12  -1.438679  -1.472862  -3.697295  -0.000335   0.025791  -0.013002
 344   2  -0.958013  -0.897040   3.601435  -0.000316   0.025787  -0.012263
 345   3  -1.360811  -1.186611   3.644641  -0.000348   0.025787  -0.013493
 346  13  -1.438593  -1.473087   3.697271  -0.000412   0.025787  -0.015963
 347   3  -1.427862  -0.886552   3.673233  -0.000602   0.081837  -0.007356
 348   2  -0.904006  -0.391748   3.673626  -0.000442   0.081837  -0.005398
 349   3  -1.484975  -0.806586  -3.673648  -0.000620   0.081758  -0.007586
 350   2  -0.846952  -0.471676  -3.673256  -0.000519   0.081758  -0.006349
 351   2  -1.743415   3.412910   1.128810  -0.000501   0.063817  -0.007846
 352   4  -2.546622   3.315546   1.109774  -0.000501   0.063817  -0.007848
 353  10  -1.624906   3.396782   1.407328  -0.000465   0.063817  -0.007292
 354   2  -1.743442   3.412951  -1.128680  -0.000463   0.063821  -0.007252
 355   4  -2.546651   3.315591  -1.109644  -0.000481   0.063821  -0.007544
 356  11  -1.624975   3.396820  -1.407213  -0.000467   0.063821  -0.007318
 357   4  -2.982623   3.501160   0.202921  -0.000860   0.550885  -0.001562
 358   2  -1.827716   3.530421  -0.202775  -0.002226   0.550885  -0.004041
 359   2   1.743446   3.412960   1.128634  -0.000455   0.063821  -0.007122
 360   6   2.546652   3.315597   1.109601  -0.000471   0.063821  -0.007381
 361  10   1.624975   3.396833   1.407168  -0.000463   0.063821  -0.007260
 362   2   1.743423   3.412883  -1.128882  -0.000515   0.063816  -0.008077
 363   6   2.546628   3.315516  -1.109842  -0.000502   0.063816  -0.007859
 364  11   1.624911   3.396752  -1.407395  -0.000471   0.063816  -0.007377
 365   6   2.982629   3.501143  -0.202983  -0.000925   0.550891  -0.001680
 366   2   1.827723   3.530415   0.202715  -0.002165   0.550891  -0.003930
 367   2  -0.000086  -1.485281   3.467456  -0.001772   0.168858  -0.010494
 368   8   0.532940  -2.026779   3.505008  -0.002179   0.168858  -0.012902
 369  13  -0.533149  -2.026805   3.505003  -0.002175   0.168858  -0.012883
 370   8   1.311277  -1.792261   3.756085  -0.001354   0.131985  -0.010255
 371   2   0.463338  -1.048750   3.660525  -0.000924   0.186023  -0.004969
 372   2   0.000059  -1.485305  -3.467455  -0.001778   0.168858  -0.010527
 373   9   0.533122  -2.026828  -3.505001  -0.002176   0.168858  -0.012886
 374  12  -0.532973  -2.026797  -3.505000  -0.002179   0.168858  -0.012906
 375   9   1.214389  -1.882312  -3.739620  -0.001429   0.131917  -0.010830
 376   2   0.551619  -0.967057  -3.675515  -0.000936   0.185928  -0.005036
 377  10  -0.435261   0.414173   3.855250  -0.000485   0.069186  -0.007011
 378  10   0.435253   0.414104   3.855254  -0.000523   0.069186  -0.007560
 379   2  -0.000034   0.024226   3.727134  -0.001274   0.151352  -0.008416
 380  10   0.932036   3.669302   1.486213  -0.000600   0.084431  -0.007101
 381  10  -0.409662   3.734183   1.439066  -0.001537   0.197907  -0.007766
 382   2   0.459347   3.734358   1.027010  -0.001152   0.176202  -0.006541
 383   2  -1.021703   3.681207   1.065770  -0.000558   0.103151  -0.005406
 384  11   0.435250   0.414135  -3.855264  -0.000503   0.069184  -0.007270
 385  11  -0.435244   0.414059  -3.855269  -0.000518   0.069184  -0.007484
 386   2   0.000036   0.024188  -3.727147  -0.001297   0.151348  -0.008569
 387  11  -0.932034   3.669285  -1.486264  -0.000608   0.084431  -0.007203
 388  11   0.409668   3.734158  -1.439130  -0.001573   0.197906  -0.007947
 389   2  -0.459338   3.734345  -1.027069  -0.001214   0.176200  -0.006888
 390   2   1.021713   3.681184  -1.065843  -0.000615   0.103150  -0.005958
 391  12  -1.311280  -1.792303  -3.756077  -0.001354   0.131970  -0.010258
 392   2  -0.463340  -1.048794  -3.660525  -0.000914   0.186003  -0.004913
 393  13  -1.214407  -1.882291   3.739616  -0.001428   0.131911  -0.010826
 394   2  -0.551631  -0.967041   3.675508  -0.000900   0.185919  -0.004842
 395   3  -2.387703   0.179900   3.451118  -0.001243   0.101125  -0.012289
 396   4  -2.786900   0.445670   3.417202  -0.001366   0.101125  -0.013506
 397  10  -1.851585   0.707882   3.476959  -0.001197   0.101125  -0.011838
 398   3  -2.387793   0.179839  -3.451147  -0.001210   0.101123  -0.011963
 399   4  -2.786989   0.445609  -3.417230  -0.001339   0.101123  -0.013246
 400  11  -1.851710   0.707821  -3.476997  -0.001224   0.101123  -0.012106
 401   3  -3.250212  -1.128839  -3.663169  -0.000380   0.028173  -0.013499
 402   4  -3.644149  -0.860809  -3.624529  -0.000491   0.028173  -0.017437
 403  12  -3.197857  -1.420874  -3.717302  -0.000365   0.028173  -0.012953
 404   3  -4.899313  -3.551126  -1.868620  -0.000485   0.028173  -0.017231
 405   4  -5.273770  -3.254482  -1.851178  -0.000516   0.028173  -0.018301
 406  12  -4.700613  -3.628200  -2.082006  -0.000384   0.028173  -0.013619
 407   3  -4.899499  -3.551407   1.868054  -0.000454   0.028180  -0.016123
 408   4  -5.273956  -3.254762   1.850623  -0.000526   0.028180  -0.018672
 409  13  -4.700823  -3.628486   2.081496  -0.000392   0.028180  -0.013926
 410   3  -3.250162  -1.128796   3.663178  -0.000491   0.028180  -0.017424
 411   4  -3.644100  -0.860767   3.624543  -0.000502   0.028180  -0.017808
 412  13  -3.197852  -1.420864   3.717316  -0.000391   0.028180  -0.013863
 413   4  -5.685673  -3.295507  -1.322586  -0.001601   0.198930  -0.008047
 414   4  -5.731989  -3.363549   0.591840  -0.004069   0.404152  -0.010069
 415   3  -5.165411  -3.749144  -0.592484  -0.004089   0.404152  -0.010118
 416   3  -5.119287  -3.681407   1.321957  -0.001757   0.198930  -0.008831
 417   4  -3.593958  -0.223130   3.631807  -0.001526   0.183803  -0.008302
 418   3  -2.899438  -0.420805   3.604125  -0.001728   0.183803  -0.009403
 419   4  -3.466030  -0.035178  -3.604131  -0.001516   0.183802  -0.008246
 420   3  -3.027512  -0.608881  -3.631808  -0.001631   0.183802  -0.008871
 421   3  -0.618519  -4.651073  -1.283508  -0.000916   0.086705  -0.010559
 422   9   0.322239  -4.558588  -1.556975  -0.001158   0.086705  -0.013356
 423  12  -0.736463  -4.643136  -1.564179  -0.001060   0.086705  -0.012223
 424  10  -1.199178   0.666243   3.723311  -0.001274   0.161267  -0.007898
 425   3  -1.833931  -0.265273   3.663517  -0.001298   0.227300  -0.005709
 426  11  -1.080255   0.556154  -3.745971  -0.001229   0.161298  -0.007618
 427   3  -1.942314  -0.165216  -3.642921  -0.001296   0.227345  -0.005701
 428  12  -1.468824  -4.932384  -1.505263  -0.000894   0.078487  -0.011395
 429  12  -2.721628  -5.011086  -1.419209  -0.001846   0.180081  -0.010249
 430  12  -4.026613  -4.381650  -1.845417  -0.002005   0.180081  -0.011135
 431   3  -1.891750  -5.001281  -1.034306  -0.001667   0.166852  -0.009993
 432   3  -3.566519  -4.775130  -1.159537  -0.001619   0.166852  -0.009701
 433   3  -4.576556  -3.993247  -1.703107  -0.000985   0.095889  -0.010273
 434  12  -2.741190  -1.641168  -3.862274  -0.000594   0.066577  -0.008919
 435  12  -1.903264  -1.678519  -3.854579  -0.000690   0.066577  -0.010368
 436   3  -2.305944  -1.268383  -3.731435  -0.001618   0.146740  -0.011023
 437  13  -4.349458  -4.077049   2.058528  -0.000765   0.078493  -0.009743
 438  13  -3.446259  -4.796036   1.558140  -0.001797   0.180090  -0.009980
 439  13  -1.953671  -4.997492   1.446744  -0.002039   0.180090  -0.011322
 440   3  -4.217847  -4.310582   1.480963  -0.001812   0.166869  -0.010858
 441   3  -2.753437  -5.016732   1.002927  -0.001542   0.166869  -0.009243
 442   3  -1.369616  -4.945862   1.086484  -0.001005   0.095896  -0.010479
 443  13  -1.903203  -1.678706   3.854578  -0.000640   0.066587  -0.009605
 444  13  -2.741179  -1.641212   3.862289  -0.000697   0.066587  -0.010463
 445   3  -2.305843  -1.268468   3.731432  -0.001645   0.146763  -0.011209
 446   5  -4.597959   3.317070   2.236154   0.001135   0.134280   0.008453
 447   5  -4.202762   3.848828   0.678533   0.002220   0.279722   0.007936
 448   5  -4.337898   3.666991  -1.375778   0.002075   0.279722   0.007417
 449   5  -5.167489   2.550728  -2.904586   0.002417   0.279722   0.008639
 450   5  -6.374660   0.926412  -3.323938   0.002391   0.279722   0.008549
 451   5  -7.498313  -0.585523  -2.473656   0.002370   0.279722   0.008472
 452   5  -8.109249  -1.407569  -0.678519   0.002308   0.279722   0.008253
 453   5  -7.974113  -1.225732   1.375792   0.002375   0.279722   0.008490
 454   5  -7.144522  -0.109469   2.904600   0.002356   0.279722   0.008422
 455   5  -5.937351   1.514847   3.323952   0.002433   0.279722   0.008699
 456   5  -4.975098   2.809611   2.811327   0.000993   0.134280   0.007392
 457   4  -3.957217   3.290510   1.696177   0.001502   0.278779   0.005389
 458   4  -3.701193   3.635002  -0.375182   0.001536   0.278779   0.005510
 459   4  -4.220305   2.936504  -2.303231   0.001598   0.278779   0.005731
 460   4  -5.316272   1.461819  -3.351521   0.001733   0.278779   0.006215
 461   4  -6.570470  -0.225773  -3.119641   0.001804   0.278779   0.006471
 462   4  -7.503839  -1.481670  -1.696161   0.001841   0.278779   0.006605
 463   4  -7.759864  -1.826162   0.375197   0.001865   0.278779   0.006689
 464   4  -7.240751  -1.127664   2.303246   0.001797   0.278779   0.006446
 465   4  -6.144785   0.347021   3.351536   0.001800   0.278779   0.006458
 466   4  -4.890587   2.034613   3.119657   0.001742   0.278779   0.006248
 467  10  -1.632779   3.379004   1.894897  -0.001528   0.242883  -0.006291
 468  10  -1.777764   2.536663   2.974031  -0.004461   0.491245  -0.009081
 469  10  -1.658057   1.321286   3.609342  -0.001738   0.242883  -0.007155
 470   4  -3.099615   3.023173   2.036544  -0.001469   0.676832  -0.002170
 471   4  -3.117761   1.546057   3.267245  -0.003487   0.676832  -0.005153
 472  11  -1.658206   1.321241  -3.609368  -0.001826   0.242889  -0.007519
 473  11  -1.777909   2.536681  -2.974016  -0.004363   0.491260  -0.008881
 474  11  -1.632882   3.379038  -1.894804  -0.001431   0.242889  -0.005892
 475   4  -3.117859   1.546047  -3.267245  -0.003454   0.676847  -0.005103
 476   4  -3.099680   3.023217  -2.036461  -0.001506   0.676847  -0.002225
 477  12  -4.577424  -3.532459  -2.472911  -0.001828   0.165039  -0.011074
 478  12  -4.156745  -2.687068  -3.309730  -0.004252   0.336091  -0.012652
 479  12  -3.392148  -1.791464  -3.762727  -0.001719   0.165039  -0.010417
 480   4  -5.302892  -2.624717  -2.587475  -0.003550   0.455166  -0.007799
 481   4  -4.455059  -1.379375  -3.510085  -0.003349   0.455166  -0.007358
 482  13  -3.392229  -1.791500   3.762741  -0.001736   0.165075  -0.010519
 483  13  -4.157001  -2.687245   3.309600  -0.004244   0.336167  -0.012624
 484  13  -4.577683  -3.532741   2.472503  -0.001830   0.165075  -0.011086
 485   4  -4.455173  -1.379432   3.510041  -0.003396   0.455260  -0.007459
 486   4  -5.303131  -2.624946   2.587131  -0.003493   0.455260  -0.007671
 487   7   7.376524  -0.421649  -2.763377   0.001233   0.134282   0.009180
 488   7   6.421830   0.862951  -3.314277   0.002360   0.279727   0.008436
 489   7   5.209046   2.494823  -2.943242   0.002299   0.279727   0.008218
 490   7   4.357971   3.639993  -1.447991   0.002247   0.279727   0.008033
 491   7   4.193685   3.861044   0.600341   0.002248   0.279727   0.008037
 492   7   4.778941   3.073543   2.419362   0.002330   0.279727   0.008331
 493   7   5.890191   1.578287   3.314266   0.002343   0.279727   0.008377
 494   7   7.102975  -0.053585   2.943232   0.002425   0.279727   0.008669
 495   7   7.954050  -1.198755   1.447981   0.002430   0.279727   0.008688
 496   7   8.118336  -1.419806  -0.600352   0.002404   0.279727   0.008596
 497   7   7.745382  -0.917971  -2.173309   0.001033   0.134282   0.007690
 498   6   6.614550  -0.285098  -3.085233   0.001796   0.278784   0.006444
 499   6   5.364005   1.397585  -3.367124   0.001816   0.278784   0.006513
 500   6   4.253459   2.891891  -2.362889   0.001624   0.278784   0.005825
 501   6   3.707101   3.627044  -0.456114   0.001551   0.278784   0.005565
 502   6   3.933622   3.322241   1.624879   0.001485   0.278784   0.005328
 503   6   4.846499   2.093907   3.085221   0.001729   0.278784   0.006201
 504   6   6.097044   0.411223   3.367112   0.001807   0.278784   0.006481
 505   6   7.207591  -1.083082   2.362878   0.001800   0.278784   0.006456
 506   6   7.753948  -1.818235   0.456102   0.001859   0.278784   0.006669
 507   6   7.527427  -1.513432  -1.624891   0.001708   0.278784   0.006126
 508   8   4.577385  -3.532467   2.472937  -0.001828   0.165042  -0.011075
 509   8   4.156700  -2.687061   3.309754  -0.004253   0.336097  -0.012653
 510   8   3.392093  -1.791443   3.762739  -0.001719   0.165042  -0.010417
 511   6   5.302858  -2.624718   2.587498  -0.003550   0.455173  -0.007798
 512   6   4.455013  -1.379357   3.510099  -0.003350   0.455173  -0.007360
 513   9   3.392231  -1.791517  -3.762743  -0.001736   0.165074  -0.010518
 514   9   4.156997  -2.687261  -3.309600  -0.004243   0.336167  -0.012621
 515   9   4.577673  -3.532757  -2.472503  -0.001830   0.165074  -0.011085
 516   6   4.455174  -1.379450  -3.510040  -0.003392   0.455259  -0.007450
 517   6   5.303124  -2.624965  -2.587128  -0.003496   0.455259  -0.007679
 518  10   1.658188   1.321252   3.609355  -0.001826   0.242892  -0.007516
 519  10   1.777903   2.536700   2.973992  -0.004357   0.491265  -0.008869
 520  10   1.632882   3.379057   1.894763  -0.001427   0.242892  -0.005874
 521   6   3.117846   1.546050   3.267234  -0.003460   0.676855  -0.005113
 522   6   3.099680   3.023226   2.036430  -0.001444   0.676855  -0.002134
 523  11   1.632781   3.378966  -1.894956  -0.001535   0.242878  -0.006319
 524  11   1.777761   2.536624  -2.974061  -0.004471   0.491236  -0.009101
 525  11   1.658057   1.321264  -3.609354  -0.001739   0.242878  -0.007161
 526   6   3.099616   3.023134  -2.036591  -0.001352   0.676821  -0.001998
 527   6   3.117761   1.546029  -3.267258  -0.003521   0.676821  -0.005202
 528  13  -0.759132  -4.764097   2.008695  -0.001585   0.251730  -0.006297
 529  13  -0.759144  -4.213512   3.009531  -0.004229   0.503383  -0.008401
 530  13  -0.759173  -2.996120   3.684767  -0.004012   0.503383  -0.007971
 531   8   0.759016  -4.580270   2.405601  -0.003917   0.503383  -0.007781
 532   8   0.758995  -3.663729   3.453427  -0.004150   0.503383  -0.008245
 533   8   0.758969  -2.569365   3.780818  -0.001554   0.251730  -0.006173
 534  12  -0.759008  -2.569379  -3.780807  -0.001554   0.251727  -0.006174
 535  12  -0.759038  -3.663724  -3.453416  -0.004151   0.503377  -0.008245
 536  12  -0.759058  -4.580257  -2.405610  -0.003917   0.503377  -0.007781
 537   9   0.759141  -2.996134  -3.684763  -0.004013   0.503377  -0.007972
 538   9   0.759110  -4.213508  -3.009536  -0.004229   0.503377  -0.008402
 539   9   0.759101  -4.764092  -2.008719  -0.001585   0.251727  -0.006297
 =====================================================


   1 warning(s) detected.
     A line exceeding 80 characters begins with "http://cactus.nci.ni".
 There may be a problem in your input file.

              2467543  WORDS OF DYNAMIC MEMORY USED
 EXECUTION OF GAMESS TERMINATED NORMALLY Sun Nov 27 16:48:41 2016
 DDI: 263640 bytes (0.3 MB / 0 MWords) used by master data server.

 ----------------------------------------
 CPU timing information for all processes
 ========================================
 0: 408.804 + 0.212 = 409.16
 ----------------------------------------
 ddikick.x: exited gracefully.
