----- GAMESS execution script -----

          ******************************************************
          *         GAMESS VERSION =  5 DEC 2014 (R1)          *
          *             FROM IOWA STATE UNIVERSITY             *
          * M.W.SCHMIDT, K.K.BALDRIDGE, J.A.BOATZ, S.T.ELBERT, *
          *   M.S.GORDON, J.H.JENSEN, S.KOSEKI, N.MATSUNAGA,   *
          *          K.A.NGUYEN, S.J.SU, T.L.WINDUS,           *
          *       TOGETHER WITH M.DUPUIS, J.A.MONTGOMERY       *
          *         J.COMPUT.CHEM.  14, 1347-1363(1993)        *
          **************** 64 BIT LINUX VERSION ****************

 EXECUTION OF GAMESS BEGUN Sun Nov 27 16:48:44 2016

            ECHO OF THE FIRST FEW INPUT CARDS -
 INPUT CARD>! SELECT RESTRICTED HARTREE-FOCK AS DEFAULT                                     
 INPUT CARD>$contrl scftyp=rhf $end                                                         
 INPUT CARD>                                                                                
 INPUT CARD>! THEORY: HF OR DFT                                                             
 INPUT CARD> $contrl mplevl=0 $end                                                          
 INPUT CARD>                                                                                
 INPUT CARD> $system timlim=10000 mwords=20 $end                                            
 INPUT CARD> $SCF DIRSCF=.TRUE. $end                                                        
 INPUT CARD>                                                                                
 INPUT CARD>                                                                                
 INPUT CARD>! BASIS SETS                                                                    
 INPUT CARD>! 6-311G(d,p)                                                                   
 INPUT CARD> $BASIS GBASIS=N311 NGAUSS=6 NDFUNC=1 NPFUNC=1 $END                             
 INPUT CARD>                                                                                
 INPUT CARD>! One of the following                                                          
 INPUT CARD> $guess guess=HUCKEL $end                                                       
 INPUT CARD>                                                                                
 INPUT CARD> $statpt projct=.FALSE. $end                                                    
 INPUT CARD> $STATPT IFREEZ(1)=1,2,3 $END                                                   
 INPUT CARD>                                                                                
 INPUT CARD>! Optimize the geometry with COSMO effects                                      
 INPUT CARD> $statpt opttol=0.0005 nstep=50 $end                                            
 INPUT CARD> $contrl nzvar=1 $end                                                           
 INPUT CARD> $zmat dlc=.t. auto=.t. $end                                                    
 INPUT CARD> $contrl runtyp=OPTIMIZE maxit=200 $end                                         
 INPUT CARD>                                                                                
 INPUT CARD>! Run COSMO on perfect conductor                                                
 INPUT CARD> $COSGMS PRFCND=.TRUE. $end                                                     
 INPUT CARD>                                                                                
 INPUT CARD>! Specifying RSOLV                                                              
 INPUT CARD> $COSGMS COSRAD = 1.4 $end                                                      
 INPUT CARD>                                                                                
 INPUT CARD>! available memory                                                              
 INPUT CARD> $SYSTEM MWORDS=40 $END                                                         
 INPUT CARD>                                                                                
 INPUT CARD> $DATA                                                                          
 INPUT CARD>Pentanal, ID: C110623                                                           
 INPUT CARD>C1                                                                              
 INPUT CARD>C      6.0      1.8430000000    1.1054000000    4.4714000000                    
 INPUT CARD>C      6.0      1.9548000000    1.7583000000    3.1066000000                    
 INPUT CARD>C      6.0      1.0505000000    1.0743000000    2.0933000000                    
 INPUT CARD>C      6.0      2.7065000000    1.7213000000    5.5404000000                    
 INPUT CARD>C      6.0      1.1556000000    1.7275000000    0.7336000000                    
 INPUT CARD>O      8.0      3.4425000000    2.6662000000    5.3758000000                    
 INPUT CARD>H      1.0      0.7923000000    1.1357000000    4.8258000000                    
 INPUT CARD>H      1.0      2.1037000000    0.0294000000    4.4033000000                    
 INPUT CARD>H      1.0      1.6990000000    2.8343000000    3.1785000000                    
 INPUT CARD>H      1.0      3.0065000000    1.7280000000    2.7573000000                    
 INPUT CARD>H      1.0      1.3125000000    0.0000000000    2.0179000000                    
 INPUT CARD>H      1.0      0.0000000000    1.0998000000    2.4457000000                    
   40000000 WORDS OF MEMORY AVAILABLE

     BASIS OPTIONS
     -------------
     GBASIS=N311         IGAUSS=       6      POLAR=POPN311 
     NDFUNC=       1     NFFUNC=       0     DIFFSP=       F
     NPFUNC=       1      DIFFS=       F     BASNAM=        


     RUN TITLE
     ---------
 Pentanal, ID: C110623                                                           

 THE POINT GROUP OF THE MOLECULE IS C1      
 THE ORDER OF THE PRINCIPAL AXIS IS     0

 ATOM      ATOMIC                      COORDINATES (BOHR)
           CHARGE         X                   Y                   Z
 C           6.0     3.4827649954        2.0889031068        8.4497207815
 C           6.0     3.6940363608        3.3227052042        5.8706227535
 C           6.0     1.9851571501        2.0301326286        3.9557634101
 C           6.0     5.1145433858        3.2527853427       10.4698378624
 C           6.0     2.1837673514        3.2645016438        1.3863029846
 O           8.0     6.5053817127        5.0383874285       10.1587889648
 H           1.0     1.4972299001        2.1461618043        9.1194396715
 H           1.0     3.9754165604        0.0555579440        8.3210304417
 H           1.0     3.2106444531        5.3560503670        6.0064940520
 H           1.0     5.6814611821        3.2654465068        5.2105414659
 H           1.0     2.4802653589        0.0000000000        3.8132780706
 H           1.0     0.0000000000        2.0783206413        4.6217028482
 H           1.0     4.9871758542        2.3655589914       12.3525718639
 H           1.0     1.6159046921        5.2594853690        1.4499867504
 H           1.0     4.1248938860        3.2008178780        0.6553569725
 H           1.0     0.9665948427        2.3168040609        0.0000000000

          INTERNUCLEAR DISTANCES (ANGS.)




     $CONTRL OPTIONS
     ---------------
 SCFTYP=RHF          RUNTYP=OPTIMIZE     EXETYP=RUN     
 MPLEVL=       0     CITYP =NONE         CCTYP =NONE         VBTYP =NONE    
 DFTTYP=NONE         TDDFT =NONE    
 MULT  =       1     ICHARG=       0     NZVAR =       1     COORD =UNIQUE  
 PP    =NONE         RELWFN=NONE         LOCAL =NONE         NUMGRD=       F
 ISPHER=      -1     NOSYM =       0     MAXIT =     200     UNITS =ANGS    
 PLTORB=       F     MOLPLT=       F     AIMPAC=       F     FRIEND=        
 NPRINT=       7     IREST =       0     GEOM  =INPUT   
 NORMF =       0     NORMP =       0     ITOL  =      20     ICUT  =       9
 INTTYP=BEST         GRDTYP=BEST         QMTTOL= 1.0E-06

     $SYSTEM OPTIONS
     ---------------
  REPLICATED MEMORY=    40000000 WORDS (ON EVERY NODE).
 DISTRIBUTED MEMDDI=           0 MILLION WORDS IN AGGREGATE,
 MEMDDI DISTRIBUTED OVER   1 PROCESSORS IS           0 WORDS/PROCESSOR.
 TOTAL MEMORY REQUESTED ON EACH PROCESSOR=    40000000 WORDS.
 TIMLIM=       10000.00 MINUTES, OR       6.9 DAYS.
 PARALL= F  BALTYP=  DLB     KDIAG=    0  COREFL= F
 MXSEQ2=     300 MXSEQ3=     150  mem10=         0

     $COSGMS OPTIONS
     ---------------
     EPSI  =   INFTY     NSPA  =      92     COSRAD=    1.40
     DISEX =   10.00     OUTCHG=DBLCAV       COSBUG=       F
     COSWRT=       F     DCOSMO=       F

     SYMMETRY COORDINATES WILL NOT BE USED FOR 
     THE COSMO CALCULATION, EVEN IF SPECIFIED:
         -- SWITCHING TO C1 POINT GROUP --


     DEFINITION OF CAVITY
     ---------------------------
     ATOM         COORDINATES           RADIUS 
     1    3.4828    2.0889    8.4497    2.0000
     2    3.6940    3.3227    5.8706    2.0000
     3    1.9852    2.0301    3.9558    2.0000
     4    5.1145    3.2528   10.4698    2.0000
     5    2.1838    3.2645    1.3863    2.0000
     6    6.5054    5.0384   10.1588    1.7200
     7    1.4972    2.1462    9.1194    1.3000
     8    3.9754    0.0556    8.3210    1.3000
     9    3.2106    5.3561    6.0065    1.3000
    10    5.6815    3.2654    5.2105    1.3000
    11    2.4803    0.0000    3.8133    1.3000
    12    0.0000    2.0783    4.6217    1.3000
    13    4.9872    2.3656   12.3526    1.3000
    14    1.6159    5.2595    1.4500    1.3000
    15    4.1249    3.2008    0.6554    1.3000
    16    0.9666    2.3168    0.0000    1.3000

          ----------------
          PROPERTIES INPUT
          ----------------

     MOMENTS            FIELD           POTENTIAL          DENSITY
 IEMOM =       1   IEFLD =       0   IEPOT =       0   IEDEN =       0
 WHERE =COMASS     WHERE =NUCLEI     WHERE =NUCLEI     WHERE =NUCLEI  
 OUTPUT=BOTH       OUTPUT=BOTH       OUTPUT=BOTH       OUTPUT=BOTH    
 IEMINT=       0   IEFINT=       0                     IEDINT=       0
                                                       MORB  =       0
          EXTRAPOLATION IN EFFECT
          SOSCF IN EFFECT
 ORBITAL PRINTING OPTION: NPREO=     1   174     2     1

     -------------------------------
     INTEGRAL TRANSFORMATION OPTIONS
     -------------------------------
     NWORD  =            0
     CUTOFF = 1.0E-09     MPTRAN =       0
     DIRTRF =       T     AOINTS =DUP     

          ----------------------
          INTEGRAL INPUT OPTIONS
          ----------------------
 NOPK  =       1 NORDER=       0 SCHWRZ=       T


 -----------------------------------------------
  STATISTICS ON AUTOMATIC COORDINATE GENERATION 
 -----------------------------------------------
  NUMBER OF USER SPECIFIED BONDS                             0
  NUMBER OF BONDS                                           15
  NUMBER OF ANGLES                                          27
  NUMBER OF TORSIONS                                        33
  NUMBER OF EXTRA COORD.                                     0
  NUMBER OF EXTRA COORD. FOR CONSTRAINTS                     0
  NUMBER OF CONSTRAINED COORD.                               0

  TOTAL NUMBER OF PRIMITIVES                                75
 -----------------------------------------------

   --- ENCODED Z MATRIX ---
 COORD  TYPE   I   J   K   L   M   N
    1      1    1   8
    2      1    1   4
    3      1    1   7
    4      1    1   2
    5      1    2   3
    6      1    2   9
    7      1    2  10
    8      1    3  11
    9      1    3   5
   10      1    3  12
   11      1    4  13
   12      1    4   6
   13      1    5  16
   14      1    5  15
   15      1    5  14
   16      2    1   2  10
   17      2    1   4  13
   18      2    1   2   3
   19      2    1   2   9
   20      2    1   4   6
   21      2    2   3  11
   22      2    2   1   4
   23      2    2   3  12
   24      2    2   1   8
   25      2    2   1   7
   26      2    2   3   5
   27      2    3   2  10
   28      2    3   2   9
   29      2    3   5  15
   30      2    3   5  16
   31      2    3   5  14
   32      2    4   1   8
   33      2    4   1   7
   34      2    5   3  12
   35      2    5   3  11
   36      2    6   4  13
   37      2    7   1   8
   38      2    9   2  10
   39      2   11   3  12
   40      2   14   5  15
   41      2   14   5  16
   42      2   15   5  16
   43      3    1   2   3  12
   44      3    1   2   3   5
   45      3    1   2   3  11
   46      3    2   1   4  13
   47      3    2   3   5  14
   48      3    2   3   5  15
   49      3    2   3   5  16
   50      3    2   1   4   6
   51      3    3   2   1   8
   52      3    3   2   1   7
   53      3    3   2   1   4
   54      3    4   1   2   9
   55      3    4   1   2  10
   56      3    5   3   2  10
   57      3    5   3   2   9
   58      3    6   4   1   7
   59      3    6   4   1   8
   60      3    7   1   2   9
   61      3    7   1   2  10
   62      3    7   1   4  13
   63      3    8   1   2   9
   64      3    8   1   2  10
   65      3    8   1   4  13
   66      3    9   2   3  12
   67      3    9   2   3  11
   68      3   10   2   3  12
   69      3   10   2   3  11
   70      3   11   3   5  14
   71      3   11   3   5  16
   72      3   11   3   5  15
   73      3   12   3   5  14
   74      3   12   3   5  16
   75      3   12   3   5  15

          INDEP./SYM. INTERNAL COORDINATES
          --------------------------------
 CRD  1=   0.1581 ( 16) -0.1164 ( 17) -0.5120 ( 18)  0.1585 ( 19)  0.1300 ( 20)
          -0.1474 ( 21)  0.4407 ( 22) -0.1480 ( 23) -0.1389 ( 24) -0.1390 ( 25)
           0.4307 ( 26)  0.1599 ( 27)  0.1608 ( 28) -0.1294 ( 32) -0.1291 ( 33)
          -0.1180 ( 34) -0.1179 ( 35)
 CRD  2=   0.2097 (  2)  0.3695 (  4)  0.3732 (  5)  0.3055 (  9) -0.1543 ( 16)
           0.4510 ( 18) -0.1536 ( 19)  0.1216 ( 22)  0.3339 ( 26) -0.1279 ( 27)
          -0.1271 ( 28)  0.1043 ( 29)  0.1045 ( 31) -0.1407 ( 34) -0.1414 ( 35)
 CRD  3=  -0.1612 (  2)  0.1703 ( 17) -0.1133 ( 18) -0.2570 ( 20) -0.1685 ( 21)
          -0.5428 ( 22) -0.1685 ( 23)  0.1523 ( 24)  0.1522 ( 25)  0.4611 ( 26)
          -0.1365 ( 30)  0.1878 ( 32)  0.1881 ( 33) -0.1262 ( 34) -0.1260 ( 35)
          -0.1042 ( 37)  0.1037 ( 39)
 CRD  4=   0.1588 ( 16) -0.1593 ( 19)  0.1336 ( 24) -0.1332 ( 25)  0.2604 ( 29)
          -0.2626 ( 31) -0.1545 ( 34)  0.1534 ( 35) -0.2315 ( 43) -0.4455 ( 44)
          -0.2315 ( 45) -0.2329 ( 46)  0.1862 ( 49) -0.1216 ( 50)  0.1286 ( 51)
           0.1284 ( 52)  0.2820 ( 53)  0.1141 ( 54)  0.1139 ( 55) -0.2121 ( 56)
          -0.2121 ( 57)
 CRD  5=  -0.1582 ( 16)  0.1588 ( 19)  0.2140 ( 21) -0.2139 ( 23) -0.1466 ( 24)
           0.1467 ( 25)  0.2473 ( 27) -0.2467 ( 28)  0.1799 ( 32) -0.1801 ( 33)
           0.1338 ( 34) -0.1338 ( 35)  0.1161 ( 44)  0.2015 ( 47)  0.2019 ( 48)
           0.1722 ( 49)  0.1612 ( 50)  0.2537 ( 51)  0.2537 ( 52)  0.3772 ( 53)
           0.1732 ( 54)  0.1731 ( 55)  0.1081 ( 58)  0.1083 ( 59)
 CRD  6=  -0.1643 (  2) -0.1318 (  5)  0.6212 (  9) -0.1268 ( 18) -0.1050 ( 21)
          -0.1044 ( 23) -0.1106 ( 26)  0.4142 ( 30)  0.1918 ( 34)  0.1917 ( 35)
          -0.1077 ( 40) -0.2300 ( 41) -0.2280 ( 42) -0.1059 ( 66)  0.1057 ( 69)
           0.1053 ( 70) -0.1049 ( 75)
 CRD  7=   0.1175 (  2) -0.4353 (  4)  0.5068 (  5)  0.1166 ( 13) -0.1302 ( 16)
          -0.1298 ( 19)  0.1735 ( 27)  0.1730 ( 28) -0.1504 ( 29)  0.3483 ( 30)
          -0.1437 ( 31)  0.1106 ( 32)  0.1108 ( 33)  0.1267 ( 40)  0.1181 ( 60)
          -0.1181 ( 64)
 CRD  8=  -0.5073 (  2) -0.2557 (  4) -0.2280 ( 11) -0.1165 ( 16) -0.5220 ( 17)
           0.1785 ( 18) -0.1133 ( 19)  0.2659 ( 20) -0.1207 ( 30) -0.1243 ( 32)
          -0.1262 ( 33)  0.2561 ( 36)
 CRD  9=   0.1005 ( 14) -0.1016 ( 15) -0.1397 ( 16)  0.1414 ( 19) -0.1001 ( 21)
          -0.2716 ( 24)  0.2693 ( 25)  0.4447 ( 29) -0.4506 ( 31)  0.1453 ( 32)
          -0.1421 ( 33) -0.1370 ( 34)  0.1387 ( 35)  0.1767 ( 41) -0.1801 ( 42)
           0.1601 ( 43)  0.1609 ( 45)  0.2499 ( 46)  0.2265 ( 50) -0.1072 ( 56)
          -0.1076 ( 57)
 CRD 10=  -0.3709 (  2)  0.3722 (  4)  0.2700 (  5)  0.1316 (  6)  0.1300 (  7)
          -0.2202 (  9) -0.1590 ( 12)  0.1018 ( 13) -0.2593 ( 20)  0.1307 ( 24)
           0.1330 ( 25) -0.2347 ( 29)  0.2664 ( 30) -0.2320 ( 31) -0.1231 ( 32)
          -0.1243 ( 33)  0.2162 ( 36)  0.2222 ( 40)
 CRD 11=   0.1186 (  6) -0.1187 (  7)  0.1188 ( 14) -0.1206 ( 15)  0.2653 ( 21)
          -0.2657 ( 23)  0.2028 ( 24) -0.2014 ( 25)  0.2636 ( 29) -0.2685 ( 31)
          -0.2577 ( 32)  0.2595 ( 33)  0.2091 ( 34) -0.2088 ( 35)  0.1330 ( 41)
          -0.1349 ( 42)  0.1054 ( 44)  0.1970 ( 47)  0.1967 ( 48)  0.2070 ( 49)
          -0.1436 ( 50) -0.1454 ( 53) -0.2039 ( 54) -0.2037 ( 55)
 CRD 12=  -0.3033 ( 16)  0.3036 ( 19) -0.1983 ( 21)  0.2014 ( 23)  0.1968 ( 24)
          -0.1983 ( 25)  0.3060 ( 27) -0.3050 ( 28) -0.2072 ( 32)  0.2061 ( 33)
          -0.2202 ( 34)  0.2199 ( 35)  0.1775 ( 43)  0.1770 ( 45) -0.1083 ( 47)
          -0.1082 ( 48) -0.1201 ( 50)  0.1848 ( 51)  0.1844 ( 52) -0.1126 ( 54)
          -0.1133 ( 55) -0.1384 ( 56) -0.1384 ( 57)
 CRD 13=   0.1279 (  1)  0.1973 (  2)  0.1256 (  3)  0.1235 (  4) -0.2933 (  5)
          -0.1545 (  8) -0.1367 (  9) -0.1545 ( 10) -0.1768 ( 11)  0.1920 ( 12)
           0.1155 ( 13) -0.2339 ( 17)  0.3768 ( 20) -0.1332 ( 21) -0.1644 ( 22)
          -0.1282 ( 23)  0.1958 ( 26) -0.2339 ( 29)  0.3160 ( 30) -0.2221 ( 31)
          -0.1430 ( 36) -0.1130 ( 37)  0.1211 ( 39)  0.2216 ( 40)
 CRD 14=  -0.1671 (  1) -0.1060 (  2) -0.1695 (  3) -0.2776 (  4) -0.2768 (  5)
          -0.1943 (  6) -0.1952 (  7) -0.1427 (  8) -0.1408 ( 10)  0.1723 ( 11)
          -0.1589 ( 12)  0.1958 ( 17)  0.2499 ( 18) -0.2852 ( 20) -0.1159 ( 21)
           0.2524 ( 22) -0.1170 ( 23) -0.1498 ( 24) -0.1530 ( 25)  0.2006 ( 26)
          -0.1062 ( 27) -0.1061 ( 28) -0.1230 ( 29)  0.1753 ( 30) -0.1222 ( 31)
           0.1587 ( 37)  0.1480 ( 38)  0.1121 ( 39)  0.1265 ( 40)
 CRD 15=  -0.3067 (  1)  0.3047 (  3)  0.3113 (  8) -0.3120 ( 10) -0.1392 ( 14)
           0.1410 ( 15) -0.1323 ( 24)  0.1307 ( 25) -0.1752 ( 29)  0.1771 ( 31)
          -0.1203 ( 41)  0.1219 ( 42) -0.1830 ( 44)  0.2598 ( 46)  0.1411 ( 47)
           0.1407 ( 48)  0.1755 ( 49)  0.1200 ( 50) -0.1204 ( 53) -0.1917 ( 54)
          -0.1916 ( 55) -0.1962 ( 56) -0.1957 ( 57)
 CRD 16=   0.1530 (  2)  0.5117 ( 11)  0.6076 ( 12) -0.2677 ( 17) -0.1983 ( 20)
           0.4660 ( 36)
 CRD 17=  -0.1739 (  9) -0.4804 ( 13) -0.5030 ( 14) -0.5029 ( 15)  0.1766 ( 29)
           0.1941 ( 30)  0.1768 ( 31) -0.1874 ( 40) -0.1999 ( 41) -0.1997 ( 42)
 CRD 18=   0.2873 (  1) -0.2869 (  3)  0.4269 (  6) -0.4280 (  7)  0.3329 (  8)
          -0.3319 ( 10)  0.1323 ( 43)  0.1325 ( 45) -0.1547 ( 46)  0.1145 ( 49)
          -0.1386 ( 51) -0.1386 ( 52)
 CRD 19=   0.1240 (  8) -0.1240 ( 10)  0.1494 ( 16) -0.1494 ( 19) -0.1040 ( 21)
           0.1041 ( 23)  0.1247 ( 24) -0.1247 ( 25) -0.1630 ( 27)  0.1630 ( 28)
          -0.1554 ( 32)  0.1553 ( 33) -0.1506 ( 34)  0.1506 ( 35)  0.1196 ( 43)
           0.1197 ( 45)  0.1660 ( 46)  0.1406 ( 50)  0.1099 ( 51)  0.1098 ( 52)
           0.1056 ( 54)  0.1057 ( 55)  0.1840 ( 58)  0.1839 ( 59)  0.2135 ( 60)
           0.2136 ( 61)  0.2094 ( 62)  0.2136 ( 63)  0.2137 ( 64)  0.2093 ( 65)
           0.1969 ( 66)  0.1970 ( 67)  0.1969 ( 68)  0.1970 ( 69)  0.1010 ( 70)
           0.1015 ( 71)  0.1011 ( 72)  0.1010 ( 73)  0.1015 ( 74)  0.1010 ( 75)
 CRD 20=   0.1698 (  8)  0.1700 ( 10) -0.6343 ( 13)  0.2980 ( 14)  0.2911 ( 15)
           0.3278 ( 40) -0.1604 ( 41) -0.1568 ( 42) -0.1722 ( 47)  0.1708 ( 48)
          -0.1565 ( 70)  0.1865 ( 72) -0.1878 ( 73)  0.1552 ( 75)
 CRD 21=   0.5473 ( 14) -0.5516 ( 15) -0.2925 ( 41)  0.2948 ( 42)  0.2308 ( 49)
           0.2230 ( 71)  0.2229 ( 74)
 CRD 22=  -0.6015 (  1) -0.6017 (  3)  0.1091 ( 24)  0.1092 ( 25) -0.2772 ( 37)
          -0.1044 ( 51)  0.1044 ( 52) -0.1364 ( 58)  0.1362 ( 59)  0.1007 ( 60)
           0.1081 ( 61) -0.1364 ( 62) -0.1081 ( 63) -0.1007 ( 64)  0.1362 ( 65)
 CRD 23=  -0.4578 (  6) -0.4562 (  7)  0.4104 (  8)  0.4113 ( 10)  0.1105 ( 13)
          -0.1025 ( 14) -0.1697 ( 38)  0.1471 ( 39) -0.1507 ( 67)  0.1515 ( 68)
           0.1010 ( 70)
 CRD 24=   0.1200 (  5) -0.4032 (  6) -0.4023 (  7) -0.4208 (  8) -0.4206 ( 10)
          -0.1874 ( 38) -0.1920 ( 39) -0.1350 ( 66)  0.1362 ( 69) -0.1191 ( 70)
           0.1197 ( 75)
 CRD 25=   0.1879 (  6) -0.1919 (  7)  0.1022 ( 21) -0.1019 ( 23)  0.1090 ( 34)
          -0.1088 ( 35)  0.2087 ( 46) -0.1272 ( 47) -0.1276 ( 48)  0.1935 ( 50)
          -0.1233 ( 56) -0.1241 ( 57)  0.2687 ( 58)  0.2690 ( 59)  0.2838 ( 62)
           0.2841 ( 65) -0.1919 ( 66) -0.1918 ( 67) -0.1911 ( 68) -0.1910 ( 69)
          -0.1817 ( 70) -0.1528 ( 71) -0.1821 ( 72) -0.1814 ( 73) -0.1525 ( 74)
          -0.1818 ( 75)
 CRD 26=  -0.3599 (  1)  0.3599 (  3)  0.3448 (  6) -0.3456 (  7) -0.1649 (  8)
           0.1648 ( 10) -0.1586 ( 46)  0.1274 ( 51)  0.1274 ( 52)  0.1183 ( 54)
           0.1184 ( 55) -0.1376 ( 58) -0.1375 ( 59)  0.1942 ( 60)  0.1943 ( 61)
          -0.2300 ( 62)  0.1942 ( 63)  0.1943 ( 64) -0.2299 ( 65)
 CRD 27=   0.1264 (  6) -0.1264 (  7) -0.3351 (  8)  0.3346 ( 10) -0.1094 ( 43)
          -0.1093 ( 45)  0.1179 ( 46)  0.1671 ( 47)  0.1670 ( 48)  0.1790 ( 49)
           0.1012 ( 58)  0.1012 ( 59)  0.1406 ( 62)  0.1407 ( 65) -0.1256 ( 66)
          -0.1254 ( 67) -0.1260 ( 68) -0.1258 ( 69)  0.2514 ( 70)  0.2633 ( 71)
           0.2513 ( 72)  0.2513 ( 73)  0.2632 ( 74)  0.2512 ( 75)
 CRD 28=  -0.4827 ( 11)  0.1402 ( 13)  0.1578 ( 16) -0.1144 ( 17)  0.1578 ( 19)
          -0.1651 ( 20)  0.1039 ( 21)  0.1040 ( 23) -0.1846 ( 24) -0.1846 ( 25)
          -0.1619 ( 27) -0.1620 ( 28)  0.1890 ( 32)  0.1891 ( 33) -0.1350 ( 34)
          -0.1352 ( 35)  0.2796 ( 36) -0.1021 ( 41) -0.1015 ( 42) -0.1040 ( 51)
           0.1038 ( 52)  0.1932 ( 61) -0.1935 ( 63) -0.1747 ( 67)  0.1744 ( 68)
 CRD 29=  -0.1448 (  2) -0.1928 (  4) -0.1227 (  5) -0.1372 (  9)  0.3678 ( 11)
           0.2788 ( 13)  0.1726 ( 14)  0.1740 ( 15)  0.1734 ( 20)  0.1483 ( 21)
           0.1485 ( 23)  0.1845 ( 29)  0.2163 ( 30)  0.1849 ( 31) -0.1718 ( 34)
          -0.1718 ( 35) -0.2453 ( 36) -0.1538 ( 40) -0.2376 ( 41) -0.2367 ( 42)
           0.1188 ( 43) -0.1191 ( 45) -0.1561 ( 67)  0.1563 ( 68)
 CRD 30=  -0.1012 (  1) -0.2870 (  2) -0.2746 ( 11)  0.7040 ( 12)  0.3426 ( 17)
          -0.2985 ( 36)  0.1699 ( 37)
 CRD 31=   0.2804 (  1) -0.1271 (  2) -0.2675 (  3)  0.1788 (  9)  0.1508 ( 11)
          -0.1434 ( 14)  0.1164 ( 16) -0.1265 ( 24) -0.1402 ( 27)  0.1070 ( 40)
           0.1093 ( 42)  0.2761 ( 46) -0.1965 ( 50)  0.1295 ( 52) -0.3488 ( 58)
          -0.3826 ( 59)  0.1351 ( 60)  0.2250 ( 61)  0.1238 ( 62)  0.1031 ( 63)
           0.1930 ( 64)
 CRD 32=   0.1284 (  1)  0.2403 (  2) -0.1576 (  3)  0.1186 (  4) -0.3440 (  9)
          -0.2856 ( 11)  0.1526 ( 14)  0.2045 ( 15) -0.1104 ( 16) -0.1587 ( 19)
          -0.1745 ( 20)  0.1104 ( 27)  0.1785 ( 28)  0.1515 ( 29)  0.1408 ( 30)
           0.1460 ( 31) -0.1074 ( 32)  0.1576 ( 36) -0.2072 ( 40) -0.1519 ( 41)
          -0.1107 ( 42)  0.1444 ( 46) -0.1028 ( 50)  0.1036 ( 54) -0.1049 ( 56)
          -0.2213 ( 58) -0.1611 ( 59)  0.1404 ( 60)  0.2036 ( 63) -0.1070 ( 75)
 CRD 33=   0.2396 (  2) -0.1240 (  4) -0.2533 (  5) -0.1140 (  7)  0.1887 (  9)
           0.2182 ( 10) -0.1858 ( 11)  0.1681 ( 13) -0.2554 ( 14) -0.1622 ( 20)
           0.1886 ( 21)  0.1076 ( 23)  0.1079 ( 24)  0.1412 ( 25) -0.1199 ( 32)
          -0.1656 ( 33) -0.1113 ( 34) -0.1374 ( 39)  0.2050 ( 40) -0.1123 ( 41)
          -0.1309 ( 47) -0.1080 ( 58) -0.1108 ( 60)  0.1403 ( 65)  0.1530 ( 66)
           0.1480 ( 67) -0.3341 ( 70) -0.1212 ( 71) -0.1215 ( 72)  0.1291 ( 74)
           0.1288 ( 75)
 CRD 34=  -0.1284 (  2)  0.1343 (  5)  0.1831 (  6) -0.1584 (  7) -0.2949 (  8)
          -0.1002 (  9)  0.2047 ( 10) -0.1174 ( 14)  0.2773 ( 15) -0.1544 ( 23)
           0.1202 ( 32)  0.1111 ( 35) -0.1115 ( 40) -0.1296 ( 41)  0.1657 ( 42)
          -0.1028 ( 48)  0.1497 ( 49)  0.1306 ( 62) -0.1263 ( 63) -0.1370 ( 64)
           0.1690 ( 66)  0.1714 ( 67)  0.2185 ( 68)  0.2209 ( 69) -0.1818 ( 72)
          -0.1986 ( 73) -0.3152 ( 75)
 CRD 35=   0.2755 (  2) -0.2178 (  4)  0.1688 (  6)  0.1643 (  7) -0.1332 (  8)
           0.2961 (  9) -0.1345 ( 10) -0.1687 ( 13) -0.1011 ( 33) -0.1112 ( 34)
          -0.1108 ( 35)  0.1369 ( 37) -0.2589 ( 38)  0.2087 ( 39)  0.1022 ( 41)
           0.1297 ( 43) -0.1317 ( 45)  0.1105 ( 51) -0.1093 ( 52)  0.1045 ( 54)
          -0.1050 ( 55)  0.1349 ( 56) -0.1334 ( 57) -0.2157 ( 61)  0.2136 ( 63)
          -0.2642 ( 67)  0.2654 ( 68)  0.1296 ( 70) -0.1274 ( 75)
 CRD 36=  -0.1701 (  1) -0.1676 (  3)  0.3360 (  4) -0.2708 (  5)  0.1205 ( 11)
          -0.1076 ( 12)  0.2034 ( 13) -0.1613 ( 17)  0.1666 ( 20) -0.1539 ( 24)
          -0.1542 ( 25)  0.1132 ( 27)  0.1112 ( 28)  0.1030 ( 32)  0.1010 ( 33)
           0.2418 ( 37) -0.1364 ( 38)  0.1457 ( 40) -0.1181 ( 47)  0.1169 ( 48)
           0.1245 ( 54) -0.1238 ( 55)  0.1903 ( 58) -0.1897 ( 59) -0.1816 ( 61)
           0.1909 ( 62)  0.1794 ( 63) -0.1890 ( 65) -0.1502 ( 70)  0.1506 ( 75)
 CRD 37=   0.1021 (  1) -0.1059 (  3) -0.2108 (  6)  0.2149 (  7) -0.2390 ( 14)
           0.2413 ( 15) -0.1124 ( 27)  0.1134 ( 28)  0.1038 ( 29) -0.1052 ( 31)
          -0.1120 ( 32)  0.1124 ( 33) -0.1790 ( 41)  0.1814 ( 42)  0.1244 ( 44)
          -0.1816 ( 46)  0.2637 ( 49)  0.2072 ( 50) -0.2017 ( 53)  0.1468 ( 58)
           0.1433 ( 59)  0.1242 ( 60)  0.1211 ( 61) -0.2420 ( 62)  0.1267 ( 63)
           0.1236 ( 64) -0.2455 ( 65)  0.2144 ( 71)  0.2141 ( 74)
 CRD 38=  -0.2027 (  2)  0.2729 (  4) -0.2777 (  5)  0.2823 (  9) -0.1766 ( 13)
          -0.1641 ( 16) -0.1641 ( 19)  0.1525 ( 21)  0.1529 ( 23)  0.1558 ( 27)
           0.1571 ( 28) -0.1619 ( 34) -0.1618 ( 35)  0.1359 ( 43) -0.1357 ( 45)
           0.1023 ( 47) -0.1011 ( 48) -0.1055 ( 51)  0.1050 ( 52) -0.1317 ( 56)
           0.1312 ( 57)  0.1599 ( 60) -0.1591 ( 64)  0.2670 ( 66) -0.2676 ( 69)
          -0.1472 ( 72)  0.1486 ( 73)
 CRD 39=  -0.1400 (  1)  0.1868 (  2) -0.1395 (  3)  0.1098 (  4)  0.1152 (  8)
           0.1159 ( 10) -0.2005 ( 13)  0.1098 ( 14)  0.1048 ( 15) -0.1041 ( 18)
          -0.1710 ( 22)  0.1294 ( 26)  0.1651 ( 30)  0.2043 ( 37)  0.1345 ( 38)
          -0.1753 ( 39) -0.1588 ( 40)  0.1540 ( 47) -0.1512 ( 48)  0.1466 ( 51)
          -0.1472 ( 52) -0.1069 ( 54)  0.1074 ( 55) -0.2542 ( 60)  0.2540 ( 64)
           0.1154 ( 67) -0.1153 ( 68) -0.1415 ( 71) -0.2905 ( 72)  0.2927 ( 73)
           0.1365 ( 74)
 CRD 40=  -0.1757 (  1)  0.1762 (  3)  0.1614 (  8) -0.1605 ( 10) -0.1606 ( 14)
           0.1631 ( 15)  0.1342 ( 29) -0.1364 ( 31)  0.1277 ( 32) -0.1277 ( 33)
           0.1348 ( 34) -0.1352 ( 35) -0.1181 ( 41)  0.1200 ( 42)  0.2143 ( 44)
          -0.1798 ( 47) -0.1837 ( 48) -0.3150 ( 50)  0.1899 ( 53)  0.1893 ( 54)
           0.1888 ( 55)  0.1506 ( 56)  0.1510 ( 57)  0.2323 ( 62)  0.2327 ( 65)
           0.2484 ( 71)  0.2495 ( 74)
 CRD 41=   0.1580 (  4)  0.2422 (  5) -0.1450 (  6) -0.1442 (  7) -0.1398 (  8)
           0.1297 (  9) -0.1407 ( 10) -0.2156 ( 18) -0.1376 ( 22) -0.2095 ( 26)
          -0.1238 ( 30)  0.1177 ( 37)  0.2137 ( 38)  0.2078 ( 39)  0.1310 ( 43)
          -0.1307 ( 45) -0.1316 ( 54)  0.1323 ( 55) -0.1341 ( 56)  0.1346 ( 57)
          -0.2271 ( 60)  0.2269 ( 64)  0.2649 ( 66) -0.2654 ( 69)  0.1294 ( 71)
           0.2155 ( 72) -0.2168 ( 73) -0.1261 ( 74)
 CRD 42=  -0.1232 (  1)  0.1233 (  3) -0.1700 (  6)  0.1708 (  7) -0.1385 (  8)
           0.1379 ( 10) -0.1313 ( 16)  0.1314 ( 19)  0.1308 ( 21) -0.1305 ( 23)
           0.1217 ( 24) -0.1217 ( 25) -0.1366 ( 27)  0.1364 ( 28)  0.2486 ( 43)
           0.2478 ( 45)  0.2007 ( 47)  0.2024 ( 48) -0.2501 ( 50) -0.2444 ( 51)
          -0.2443 ( 52)  0.2188 ( 54)  0.2180 ( 55) -0.2213 ( 56) -0.2223 ( 57)
           0.1281 ( 62)  0.1282 ( 65) -0.1438 ( 71) -0.1443 ( 74)

 THE DETERMINANT OF THE G MATRIX IS 10**(   -15)


                     --------------------
                     INTERNAL COORDINATES
                     --------------------

                 - - ATOMS - -         COORDINATE      COORDINATE
 NO.   TYPE    I  J  K  L  M  N        (BOHR,RAD)       (ANG,DEG)
 ----------------------------------------------------------------
   1 STRETCH   1  8                     2.0961296       1.1092241
   2 STRETCH   1  4                     2.8457329       1.5058971
   3 STRETCH   1  7                     2.0962232       1.1092736
   4 STRETCH   1  2                     2.8668188       1.5170553
   5 STRETCH   2  3                     2.8736211       1.5206549
   6 STRETCH   2  9                     2.0944262       1.1083227
   7 STRETCH   2 10                     2.0949566       1.1086034
   8 STRETCH   3 11                     2.0944863       1.1083545
   9 STRETCH   3  5                     2.8574884       1.5121178
  10 STRETCH   3 12                     2.0944322       1.1083259
  11 STRETCH   4 13                     2.0852051       1.1034431
  12 STRETCH   4  6                     2.2846351       1.2089769
  13 STRETCH   5 16                     2.0739999       1.0975136
  14 STRETCH   5 15                     2.0751650       1.0981301
  15 STRETCH   5 14                     2.0752069       1.0981523
  16 BEND      1  2 10                  1.9194244     109.9749155
  17 BEND      1  4 13                  2.0173971     115.5883413
  18 BEND      1  2  3                  1.9412848     111.2274259
  19 BEND      1  2  9                  1.9203209     110.0262815
  20 BEND      1  4  6                  2.1798471     124.8960362
  21 BEND      2  3 11                  1.9185039     109.9221754
  22 BEND      2  1  4                  2.0046317     114.8569344
  23 BEND      2  3 12                  1.9192333     109.9639680
  24 BEND      2  1  8                  1.9229598     110.1774804
  25 BEND      2  1  7                  1.9235381     110.2106140
  26 BEND      2  3  5                  1.9428735     111.3184543
  27 BEND      3  2 10                  1.9197377     109.9928667
  28 BEND      3  2  9                  1.9205490     110.0393537
  29 BEND      3  5 15                  1.9481801     111.6224997
  30 BEND      3  5 16                  1.9421379     111.2763021
  31 BEND      3  5 14                  1.9483671     111.6332124
  32 BEND      4  1  8                  1.8813180     107.7915824
  33 BEND      4  1  7                  1.8809084     107.7681135
  34 BEND      5  3 12                  1.9196787     109.9894882
  35 BEND      5  3 11                  1.9188859     109.9440643
  36 BEND      6  4 13                  2.0859411     119.5156224
  37 BEND      7  1  8                  1.8428712     105.5887406
  38 BEND      9  2 10                  1.8399621     105.4220619
  39 BEND     11  3 12                  1.8420964     105.5443505
  40 BEND     14  5 15                  1.8715897     107.2341893
  41 BEND     14  5 16                  1.8746478     107.4094053
  42 BEND     15  5 16                  1.8749660     107.4276385
  43 TORSION   1  2  3 12               1.0050942      57.5876571
  44 TORSION   1  2  3  5               3.1370658     179.7406285
  45 TORSION   1  2  3 11              -1.0156547     -58.1927291
  46 TORSION   2  1  4 13              -3.1354691    -179.6491470
  47 TORSION   2  3  5 14              -1.0589087     -60.6709989
  48 TORSION   2  3  5 15               1.0355546      59.3329080
  49 TORSION   2  3  5 16               3.1300545     179.3389150
  50 TORSION   2  1  4  6               0.0061669       0.3533353
  51 TORSION   3  2  1  8               1.0140195      58.0990366
  52 TORSION   3  2  1  7              -1.0127877     -58.0284580
  53 TORSION   3  2  1  4              -3.1409310    -179.9620910
  54 TORSION   4  1  2  9              -1.0081791     -57.7644080
  55 TORSION   4  1  2 10               1.0111467      57.9344404
  56 TORSION   5  3  2 10              -1.0151936     -58.1663100
  57 TORSION   5  3  2  9               1.0044460      57.5505162
  58 TORSION   6  4  1  7              -2.1449253    -122.8951647
  59 TORSION   6  4  1  8               2.1568209     123.5767360
  60 TORSION   7  1  2  9               1.1199643      64.1692250
  61 TORSION   7  1  2 10               3.1392901     179.8680734
  62 TORSION   7  1  4 13               0.9966241      57.1023531
  63 TORSION   8  1  2  9              -3.1364139    -179.7032805
  64 TORSION   8  1  2 10              -1.1170881     -64.0044321
  65 TORSION   8  1  4 13              -0.9848151     -56.4257462
  66 TORSION   9  2  3 12              -1.1275255     -64.6024552
  67 TORSION   9  2  3 11               3.1349108     179.6171586
  68 TORSION  10  2  3 12               3.1360201     179.6807186
  69 TORSION  10  2  3 11               1.1152712      63.9003324
  70 TORSION  11  3  5 14               3.0940330     177.2750324
  71 TORSION  11  3  5 16               0.9998109      57.2849464
  72 TORSION  11  3  5 15              -1.0946890     -62.7210607
  73 TORSION  12  3  5 14               1.0728052      61.4672101
  74 TORSION  12  3  5 16              -1.0214169     -58.5228760
  75 TORSION  12  3  5 15              -3.1159168    -178.5288830

     ------------------------------------------
     THE POINT GROUP IS C1 , NAXIS= 1, ORDER= 1
     ------------------------------------------

     DIMENSIONS OF THE SYMMETRY SUBSPACES ARE
 A   =  174

 ..... DONE SETTING UP THE RUN .....
 STEP CPU TIME =     0.02 TOTAL CPU TIME =        0.0 (    0.0 MIN)
 TOTAL WALL CLOCK TIME=        0.0 SECONDS, CPU UTILIZATION IS 100.00%


          -----------------------------
          STATIONARY POINT LOCATION RUN
          -----------------------------

 OBTAINING INITIAL HESSIAN, HESS=GUESS   
 DIAGONAL GUESS HESSIAN IN INTERNAL COORDS IS
     1  0.3337     2  0.3848     3  0.3336     4  0.3765     5  0.3739
     6  0.3342     7  0.3341     8  0.3342     9  0.3802    10  0.3342
    11  0.3374    12  0.5534    13  0.3413    14  0.3409    15  0.3409
    16  0.2237    17  0.2247    18  0.2501    19  0.2238    20  0.2605
    21  0.2235    22  0.2511    23  0.2235    24  0.2237    25  0.2237
    26  0.2504    27  0.2235    28  0.2235    29  0.2247    30  0.2247
    31  0.2247    32  0.2244    33  0.2244    34  0.2241    35  0.2240
    36  0.2318    37  0.2015    38  0.2016    39  0.2016    40  0.2026
    41  0.2026    42  0.2026    43  0.2500    44  0.2500    45  0.2500
    46  0.2500    47  0.2500    48  0.2500    49  0.2500    50  0.2500
    51  0.2500    52  0.2500    53  0.2500    54  0.2500    55  0.2500
    56  0.2500    57  0.2500    58  0.2500    59  0.2500    60  0.2500
    61  0.2500    62  0.2500    63  0.2500    64  0.2500    65  0.2500
    66  0.2500    67  0.2500    68  0.2500    69  0.2500    70  0.2500
    71  0.2500    72  0.2500    73  0.2500    74  0.2500    75  0.2500
 TRANSFORMING HESSIAN TO SYMMETRY COORDINATES

          PARAMETERS CONTROLLING GEOMETRY SEARCH ARE
          METHOD =QA                  UPHESS =BFGS    
          NNEG   =         0          NFRZ   =         3
          NSTEP  =        50          IFOLOW =         1
          HESS   =GUESS               RESTAR =         F
          IHREP  =         0          HSSEND =         F
          NPRT   =         0          NPUN   =         0
          OPTTOL = 5.000E-04          RMIN   = 1.500E-03
          RMAX   = 1.000E-01          RLIM   = 7.000E-02
          DXMAX  = 3.000E-01          PURIFY =         F
          MOVIE  =         F          TRUPD  =         T
          TRMAX  = 5.000E-01          TRMIN  = 5.000E-02
          ITBMAT =         5          STPT   =         F
          STSTEP = 1.000E-02          PROJCT=          F
          FROZEN COORD(S)=   1   2   3


      ***** EQUILIBRIUM GEOMETRY LOCATED *****
            (SUBJECT TO   3 CONSTRAINT(S))
 COORDINATES OF ALL ATOMS ARE (ANGS)
   ATOM   CHARGE       X              Y              Z
 ------------------------------------------------------------
 C           6.0   1.8494712810   1.1108468489   4.4759427918
 C           6.0   1.9596059242   1.7616618538   3.1091922055
 C           6.0   1.0526219240   1.0752166464   2.0958231193
 C           6.0   2.7071418172   1.7243002052   5.5371029297
 C           6.0   1.1505776309   1.7264576963   0.7232054513
 O           8.0   3.4330987732   2.6557415957   5.3739841256
 H           1.0   0.8235617024   1.1412255682   4.8411372813
 H           1.0   2.1108649324   0.0544392205   4.4278251079
 H           1.0   1.6990906047   2.8150983146   3.1800609742
 H           1.0   2.9901811006   1.7230814454   2.7641090179
 H           1.0   1.3204243975   0.0220506748   2.0305469012
 H           1.0   0.0250313757   1.1094978830   2.4536224116
 H           1.0   2.6326353290   1.2538401031   6.5209176150
 H           1.0   0.8564122327   2.7713290294   0.7796537726
 H           1.0   2.1740228504   1.6869543154   0.3591559940
 H           1.0   0.5120970693   1.2313554007  -0.0008836160


                     --------------------
                     INTERNAL COORDINATES
                     --------------------

                 - - ATOMS - -         COORDINATE      COORDINATE
 NO.   TYPE    I  J  K  L  M  N        (BOHR,RAD)       (ANG,DEG)
 ----------------------------------------------------------------
   1 STRETCH   1  8                     2.0585345       1.0893296
   2 STRETCH   1  4                     2.8270103       1.4959895
   3 STRETCH   1  7                     2.0586571       1.0893945
   4 STRETCH   1  2                     2.8682137       1.5177935
   5 STRETCH   2  3                     2.8788063       1.5233988
   6 STRETCH   2  9                     2.0550446       1.0874829
   7 STRETCH   2 10                     2.0550768       1.0874999
   8 STRETCH   3 11                     2.0572319       1.0886403
   9 STRETCH   3  5                     2.8769733       1.5224288
  10 STRETCH   3 12                     2.0572320       1.0886404
  11 STRETCH   4 13                     2.0655796       1.0930578
  12 STRETCH   4  6                     2.2528231       1.1921427
  13 STRETCH   5 16                     2.0502340       1.0849372
  14 STRETCH   5 15                     2.0541005       1.0869833
  15 STRETCH   5 14                     2.0540511       1.0869571
  16 BEND      1  2 10                  1.9169608     109.8337637
  17 BEND      1  4 13                  2.0074060     115.0158891
  18 BEND      1  2  3                  1.9418424     111.2593763
  19 BEND      1  2  9                  1.9169694     109.8342569
  20 BEND      1  4  6                  2.1802914     124.9214970
  21 BEND      2  3 11                  1.9064063     109.2290373
  22 BEND      2  1  4                  2.0056903     114.9175871
  23 BEND      2  3 12                  1.9062123     109.2179196
  24 BEND      2  1  8                  1.9376103     111.0168942
  25 BEND      2  1  7                  1.9371822     110.9923653
  26 BEND      2  3  5                  1.9483922     111.6346493
  27 BEND      3  2 10                  1.9146716     109.7026023
  28 BEND      3  2  9                  1.9147568     109.7074856
  29 BEND      3  5 15                  1.9251618     110.3036442
  30 BEND      3  5 16                  1.9483591     111.6327521
  31 BEND      3  5 14                  1.9251315     110.3019084
  32 BEND      4  1  8                  1.8665215     106.9438052
  33 BEND      4  1  7                  1.8657330     106.8986290
  34 BEND      5  3 12                  1.9215309     110.0956121
  35 BEND      5  3 11                  1.9219025     110.1168993
  36 BEND      6  4 13                  2.0954878     120.0626087
  37 BEND      7  1  8                  1.8419315     105.5349003
  38 BEND      9  2 10                  1.8567400     106.3833678
  39 BEND     11  3 12                  1.8570632     106.4018836
  40 BEND     14  5 15                  1.8829834     107.8870035
  41 BEND     14  5 16                  1.8902700     108.3044947
  42 BEND     15  5 16                  1.8901857     108.2996642
  43 TORSION   1  2  3 12               1.0069704      57.6951537
  44 TORSION   1  2  3  5               3.1360132     179.6803208
  45 TORSION   1  2  3 11              -1.0175275     -58.3000336
  46 TORSION   2  1  4 13              -3.1367585    -179.7230228
  47 TORSION   2  3  5 14              -1.0490608     -60.1067545
  48 TORSION   2  3  5 15               1.0293064      58.9749109
  49 TORSION   2  3  5 16               3.1316725     179.4316149
  50 TORSION   2  1  4  6               0.0052933       0.3032858
  51 TORSION   3  2  1  8               1.0223715      58.5775732
  52 TORSION   3  2  1  7              -1.0204956     -58.4700934
  53 TORSION   3  2  1  4              -3.1399655    -179.9067686
  54 TORSION   4  1  2  9              -1.0164580     -58.2387548
  55 TORSION   4  1  2 10               1.0198258      58.4317142
  56 TORSION   5  3  2 10              -1.0224459     -58.5818369
  57 TORSION   5  3  2  9               1.0112183      57.9385407
  58 TORSION   6  4  1  7              -2.1526294    -123.3365799
  59 TORSION   6  4  1  8               2.1643695     124.0092391
  60 TORSION   7  1  2  9               1.1030118      63.1979204
  61 TORSION   7  1  2 10               3.1392956     179.8683894
  62 TORSION   7  1  4 13               0.9885041      56.6371115
  63 TORSION   8  1  2  9              -3.1373064    -179.7544131
  64 TORSION   8  1  2 10              -1.1010225     -63.0839440
  65 TORSION   8  1  4 13              -0.9776823     -56.0170695
  66 TORSION   9  2  3 12              -1.1178245     -64.0466263
  67 TORSION   9  2  3 11               3.1408629     179.9581863
  68 TORSION  10  2  3 12               3.1316966     179.4329960
  69 TORSION  10  2  3 11               1.1071986      63.4378087
  70 TORSION  11  3  5 14               3.1134283     178.3862989
  71 TORSION  11  3  5 16               1.0109762      57.9246684
  72 TORSION  11  3  5 15              -1.0913899     -62.5320357
  73 TORSION  12  3  5 14               1.0711332      61.3714130
  74 TORSION  12  3  5 16              -1.0313189     -59.0902175
  75 TORSION  12  3  5 15              -3.1336849    -179.5469215

          INTERNUCLEAR DISTANCES (ANGS.)


 =====================================================
   GAMESS/COSab RESULTS
 =====================================================

   Dielectric Constant                  = INFTY
   Basic Grid Size                      =                 1082
   Number of Segments                   =                   92
   Number of Segments located on spheres=                  239
   Number of Segments of the cavity     =                  603
   Solvent Radius (rsolv)               = 1.40
   Outlying Charge Error Method         = double cavity

 =====================================================

  Total solvated Energy (a.u.)          =  -270.1020417316
  Total Energy corrected (a.u.)         =  -270.1016779660

  Outlying charge effect (a.u.)         =     0.0003637656
  Outlying charge effect (kcal/mol)     =     0.2282665643

  Dielectric Energy (a.u.)              =    -0.0130946071
  Dielectric energy corr. (a.u.)        =    -0.0127308414

  Sum of polarization charges           =     0.0227391511
  Sum of polarization charges(cor.)     =    -0.0227391511

  Total surface area of cavity (A**2)   =  139.59
  Total volume of cavity (A**3)         =  128.87

 =====================================================
 NPS=                   603
NR.  ATOM  (X, Y, Z)(a.u.)                  CHARGE(e)  AREA(A**2) SIGMA(e/A**2)
   1   1   2.184162  -0.880540  10.378496   0.000383   0.371649   0.001030
   2   1   6.688822   0.388616   7.382333  -0.000153   0.092912  -0.001647
   3   1   6.316737   0.036857   7.019950  -0.000107   0.046456  -0.002294
   4   1   1.273318  -0.489577  10.085154   0.000351   0.232280   0.001510
   5   1   0.411403  -0.051061   8.068288  -0.000079   0.046456  -0.001705
   6   1   1.178507   4.881483   9.543176  -0.000278   0.185824  -0.001493
   7   1   1.267858  -0.940696   8.169875   0.000437   0.232280   0.001880
   8   1   1.425165  -0.970462   9.218083   0.000939   0.371649   0.002526
   9   1   2.294928  -0.285498  11.133618   0.000317   0.325193   0.000973
  10   1   3.379289  -0.696794  10.998639  -0.000501   0.185824  -0.002697
  11   1   6.673027   0.189518   7.725112  -0.000132   0.046456  -0.002839
  12   1   1.648808   0.308334  11.227532  -0.000404   0.232280  -0.001740
  13   1   0.719696  -0.459172   8.649944   0.000216   0.139368   0.001553
  14   1   0.934431   4.829280   8.982085  -0.000075   0.046456  -0.001607
  15   2   5.775601   5.929293   4.078906   0.001174   0.325193   0.003610
  16   2   6.007230   0.420732   5.156470   0.000048   0.092912   0.000512
  17   2   6.418344   0.724109   5.520408  -0.000008   0.046456  -0.000181
  18   2   5.222672   6.490623   4.468510   0.000975   0.278737   0.003497
  19   2   0.523274   5.242065   6.591901   0.000159   0.139368   0.001141
  20   2   6.162887   6.071294   5.030595   0.000991   0.185824   0.005333
  21   2   6.076640   0.589833   4.804370   0.000049   0.046456   0.001059
  22   2   5.801239   6.455611   5.548770   0.000451   0.139368   0.003235
  23   2   0.698375   5.251036   7.125208   0.000027   0.046456   0.000585
  24   3  -0.723324  -0.596028   3.815945   0.001648   0.371649   0.004434
  25   3  -0.322554   4.929462   4.698178   0.000135   0.092912   0.001454
  26   3  -0.419361   4.644249   5.248436   0.000031   0.046456   0.000661
  27   3  -0.018806  -1.169414   3.895776   0.001248   0.278737   0.004476
  28   3   4.974179   0.121032   2.648031   0.000220   0.139368   0.001575
  29   3   0.055868  -0.561354   5.915503   0.000880   0.232280   0.003788
  30   3  -0.266337  -0.804232   5.034591   0.001677   0.325193   0.005156
  31   3  -0.391800  -0.568746   2.599599   0.001271   0.418105   0.003041
  32   3   0.137727  -0.708417   2.130959   0.000294   0.139368   0.002111
  33   3  -1.129653   0.242216   2.796728   0.000898   0.325193   0.002761
  34   3  -0.590114   4.747221   4.468859   0.000079   0.046456   0.001696
  35   3   0.652718  -0.969133   2.091782   0.000377   0.185824   0.002031
  36   3   0.542563  -1.122997   5.456702   0.000529   0.139368   0.003796
  37   3   5.162538   0.134612   3.176702   0.000075   0.046456   0.001609
  38   4   8.137974   1.944441   8.613276  -0.000443   0.139368  -0.003177
  39   4   8.392689   2.285271  12.075701  -0.000273   0.278737  -0.000979
  40   4   5.751285   4.957070  13.779497  -0.000213   0.185824  -0.001147
  41   4   2.406753   4.609584  12.726374  -0.002441   0.371649  -0.006568
  42   4   2.744921   3.829878  13.350990  -0.001651   0.325193  -0.005078
  43   4   5.836633   4.397547  13.994489  -0.000489   0.185824  -0.002634
  44   4   7.762633   2.061439  12.881343  -0.001372   0.418105  -0.003282
  45   4   5.566551  -0.274198  11.729077  -0.001578   0.232280  -0.006793
  46   4   3.013392   6.398707  10.520064  -0.000896   0.325193  -0.002756
  47   4   6.890422   0.009443  11.224341  -0.002900   0.418105  -0.006935
  48   4   7.973300   1.177037  11.800156  -0.001852   0.418105  -0.004429
  49   4   8.031955   3.011570  12.855067   0.000186   0.185824   0.000999
  50   4   6.730970   4.187675  13.751757   0.000055   0.185824   0.000298
  51   4   4.767389   5.266389  13.646558  -0.000373   0.418105  -0.000893
  52   4   3.427747   4.955952  13.388241  -0.002038   0.464561  -0.004387
  53   4   2.071850   3.306484  12.703404  -0.002004   0.325193  -0.006162
  54   4   7.381793   0.244670  10.205967  -0.002401   0.325193  -0.007384
  55   4   7.789595   0.965795   9.093035  -0.002663   0.371649  -0.007165
  56   4   8.424860   1.728795   9.466541  -0.001136   0.371649  -0.003057
  57   4   8.597201   1.844582  10.869436  -0.001034   0.464561  -0.002226
  58   4   3.174713   6.274006  11.656557  -0.000879   0.371649  -0.002366
  59   4   2.703327   5.562119  12.240589  -0.002503   0.418105  -0.005986
  60   4   1.893040   4.730954  11.778977  -0.002427   0.325193  -0.007462
  61   4   4.113871   4.502615  13.888901  -0.000949   0.232280  -0.004087
  62   4   7.433317   3.462644  13.442112  -0.000457   0.278737  -0.001640
  63   4   7.150819   0.511313  12.074809  -0.001947   0.371649  -0.005238
  64   4   2.300404   2.187423  12.746377  -0.001232   0.185824  -0.006629
  65   4   2.257434   5.685837  10.934925  -0.002565   0.371649  -0.006901
  66   4   8.064477   0.894303  10.458792  -0.002593   0.418105  -0.006202
  67   4   3.839594   5.940158  12.801173  -0.000607   0.371649  -0.001633
  68   5   3.319224   2.269431  -2.095574   0.002155   0.418105   0.005154
  69   5  -1.543110   3.909567   1.582684   0.000786   0.278737   0.002819
  70   5   4.129359   5.826706  -0.604877   0.001867   0.418105   0.004464
  71   5   0.500017   4.663600  -1.718488   0.001448   0.371649   0.003896
  72   5   2.028265  -0.305770   0.129695   0.000662   0.278737   0.002374
  73   5   4.399328   0.353894   0.432228   0.000673   0.232280   0.002895
  74   5   3.435908   0.003863  -0.073322   0.000991   0.325193   0.003046
  75   5   3.304813   0.699896  -1.170854   0.001446   0.325193   0.004445
  76   5   0.318606   5.507026  -1.042288   0.001535   0.371649   0.004130
  77   5   3.558029   6.444901  -0.130693   0.001172   0.278737   0.004203
  78   5   3.897147   6.525990   2.182676   0.000110   0.046456   0.002375
  79   5  -1.220743   4.922594   1.414962   0.000958   0.278737   0.003436
  80   5   3.863422   1.388841  -1.447638   0.001041   0.232280   0.004480
  81   5   2.852798   1.305699  -1.794766   0.001229   0.278737   0.004410
  82   5   4.792033   5.984407   1.518486   0.001087   0.232280   0.004679
  83   5   4.551269   6.110689   0.644017   0.001980   0.371649   0.005328
  84   5   2.962141   5.840479  -1.282444   0.001492   0.464561   0.003211
  85   5   1.592842   5.257681  -1.790174   0.001337   0.464561   0.002879
  86   5  -0.569469   4.734992  -0.775303   0.001909   0.371649   0.005138
  87   5  -1.397256   4.291312   0.681061   0.000880   0.232280   0.003790
  88   5  -1.590306   3.117457   1.064772   0.000995   0.325193   0.003059
  89   5   3.811416   4.903022  -1.618778   0.001250   0.418105   0.002989
  90   5   3.465622   3.605896  -2.168701   0.001461   0.418105   0.003494
  91   5   2.436030   3.128710  -2.401339   0.001630   0.464561   0.003508
  92   5   1.424101   4.090447  -2.243888   0.000931   0.325193   0.002861
  93   5   4.100272   0.548522  -0.424675   0.000798   0.232280   0.003435
  94   5   2.601143   0.103287  -0.663400   0.000987   0.278737   0.003540
  95   5   1.871874   6.006933  -1.214254   0.000770   0.278737   0.002763
  96   5   4.101626   6.512897   1.435723   0.000573   0.139368   0.004111
  97   5  -1.100775   4.914281   2.277739   0.000602   0.232280   0.002593
  98   5  -0.904101   5.124539   0.208723   0.001454   0.325193   0.004470
  99   5  -1.441195   2.162457   1.317179   0.000145   0.092912   0.001557
 100   5   2.655008   4.641153  -2.119394   0.001110   0.464561   0.002389
 101   5  -1.270796   4.036272   0.018669   0.001001   0.232280   0.004307
 102   6   8.452108   7.551500   9.616833   0.004981   0.377948   0.013180
 103   6   5.473083   7.954945   9.199641   0.003306   0.206154   0.016037
 104   6   9.575745   4.411695   9.343074   0.003830   0.343589   0.011148
 105   6   8.770927   5.635216  12.384920   0.005935   0.343589   0.017273
 106   6   5.918447   7.598545  12.048677   0.003991   0.309230   0.012907
 107   6   7.390300   8.017193   9.284479   0.005421   0.412307   0.013148
 108   6   6.323954   7.981873   8.829821   0.005121   0.343589   0.014905
 109   6   8.279303   7.232055   8.588419   0.004776   0.343589   0.013901
 110   6   7.895277   6.670599   7.735815   0.005928   0.343589   0.017253
 111   6   9.216703   6.629980   9.434021   0.005304   0.412307   0.012864
 112   6   9.639241   5.542597   9.557511   0.004535   0.377948   0.011998
 113   6   8.906219   7.136202  10.635886   0.005293   0.377948   0.014005
 114   6   8.948101   6.559269  11.617237   0.005426   0.343589   0.015791
 115   6   7.856357   7.927032  10.637417   0.006442   0.481025   0.013393
 116   6   6.940040   7.974870  11.428370   0.005501   0.412307   0.013342
 117   6   8.593855   5.810346   7.809796   0.004409   0.274871   0.016039
 118   6   9.212044   4.901486   8.386603   0.004653   0.343589   0.013542
 119   6   9.697332   4.692467  10.550365   0.005196   0.412307   0.012602
 120   6   9.397374   5.187157  11.593957   0.006254   0.412307   0.015168
 121   6   8.034573   6.395254  12.660640   0.006536   0.377948   0.017292
 122   6   6.960815   7.187602  12.529432   0.006369   0.412307   0.015447
 123   6   5.620237   7.999635  11.117567   0.005157   0.446666   0.011546
 124   6   5.436947   8.089548   9.981701   0.003171   0.274871   0.011538
 125   6   9.107402   3.527458   8.939691   0.002804   0.274871   0.010201
 126   6   9.409369   3.594623  10.171629   0.003661   0.377948   0.009685
 127   6   8.757316   4.449528  12.411289   0.004717   0.343589   0.013729
 128   6   7.855455   5.253960  13.094446   0.005802   0.377948   0.015350
 129   6   5.793574   6.807051  12.779175   0.004565   0.377948   0.012078
 130   6   4.930063   7.280018  11.894528   0.002736   0.274871   0.009955
 131   6   4.511149   7.560125   9.709292   0.002712   0.240512   0.011278
 132   6   7.092429   7.463023   8.100165   0.007598   0.412307   0.018429
 133   6   9.050488   6.112724   8.482230   0.005036   0.377948   0.013325
 134   6   9.524807   6.041557  10.697363   0.005701   0.412307   0.013826
 135   6   8.053289   7.306690  11.851845   0.007021   0.446666   0.015718
 136   6   6.524171   8.268683  10.176237   0.005062   0.412307   0.012278
 137   6   8.959513   3.970124   8.323668   0.002012   0.171795   0.011712
 138   6   9.263391   3.954001  11.469248   0.004455   0.343589   0.012965
 139   6   6.903538   6.171487  13.165758   0.006177   0.377948   0.016342
 140   6   4.527812   7.559066  10.674898   0.003856   0.377948   0.010203
 141   7  -0.682652   2.551764  10.079008  -0.002442   0.333671  -0.007319
 142   7   0.091272   3.877616  10.111149  -0.002294   0.412182  -0.005564
 143   7   0.266053   2.002436  11.233264  -0.002174   0.333671  -0.006517
 144   7  -0.012930   0.478682  10.018591  -0.001505   0.353299  -0.004260
 145   7  -0.443996   3.581141   9.215846  -0.003254   0.471065  -0.006908
 146   7   0.004721   2.969776  10.870746  -0.002222   0.392554  -0.005660
 147   7  -0.495456   1.528714  10.344716  -0.002646   0.372926  -0.007096
 148   7  -0.487079   0.793051   9.168749  -0.002516   0.412182  -0.006104
 149   7  -0.900143   2.161505   9.178737  -0.003214   0.392554  -0.008186
 150   7   0.399982   1.007155  10.986026  -0.001392   0.333671  -0.004172
 151   8   4.693282  -2.247306   8.492566  -0.003217   0.431809  -0.007450
 152   8   5.789714  -1.456572   8.967775  -0.001734   0.314043  -0.005522
 153   8   5.800074  -1.119547   7.244620  -0.001809   0.314043  -0.005761
 154   8   2.661429  -1.959319   8.509374  -0.001757   0.392554  -0.004476
 155   8   4.003684  -1.650622  10.087891  -0.001743   0.333671  -0.005223
 156   8   5.928195  -1.384568   8.118525  -0.002172   0.372926  -0.005825
 157   8   4.903083  -1.961132   7.398191  -0.003241   0.412182  -0.007863
 158   8   3.559332  -2.270873   7.902779  -0.003287   0.431809  -0.007611
 159   8   3.456314  -2.100830   9.313479  -0.002395   0.451437  -0.005305
 160   8   4.927461  -1.816045   9.580664  -0.002518   0.412182  -0.006110
 161   9   2.672408   7.716661   5.997127  -0.001751   0.353299  -0.004957
 162   9   1.779168   6.746750   7.405591  -0.001429   0.333671  -0.004283
 163   9   1.077740   6.504717   6.294049  -0.001084   0.372926  -0.002907
 164   9   4.409060   7.358577   5.344167  -0.001071   0.372926  -0.002872
 165   9   1.758403   7.194469   6.650630  -0.001081   0.274788  -0.003934
 166   9   1.818162   7.312889   5.658575  -0.001728   0.314043  -0.005501
 167   9   3.346378   7.602073   5.110647  -0.001692   0.353299  -0.004789
 168   9   3.827697   7.690624   6.192823  -0.001457   0.333671  -0.004368
 169   9   2.844369   7.512180   7.055471  -0.001909   0.353299  -0.005404
 170  10   7.997347   2.956251   4.561513  -0.001690   0.353299  -0.004785
 171  10   7.367481   1.499337   5.189625  -0.001149   0.372926  -0.003080
 172  10   7.345588   4.966537   4.736779  -0.000888   0.353299  -0.002514
 173  10   7.268244   1.791269   4.095323  -0.001973   0.490692  -0.004021
 174  10   7.966052   2.467360   5.450871  -0.002007   0.392554  -0.005114
 175  10   8.003481   3.943460   5.059664  -0.001870   0.372926  -0.005014
 176  10   7.374724   4.431835   3.927108  -0.001614   0.412182  -0.003916
 177  10   7.605088   3.150908   3.738769  -0.002032   0.353299  -0.005752
 178  11   3.423738  -2.150616   3.231459  -0.001521   0.353299  -0.004304
 179  11   4.322748  -1.215057   2.780796  -0.000819   0.392554  -0.002085
 180  11   2.180922  -1.746739   2.182514  -0.000886   0.333671  -0.002656
 181  11   1.261918  -2.068190   4.087291  -0.000563   0.353299  -0.001594
 182  11   4.412433  -1.494145   3.864604  -0.001882   0.490692  -0.003836
 183  11   3.265661  -1.691826   2.276234  -0.001037   0.392554  -0.002642
 184  11   2.306503  -2.379302   3.465143  -0.001809   0.431809  -0.004190
 185  11   1.898362  -2.130357   4.817579  -0.001220   0.372926  -0.003271
 186  11   3.252534  -2.237898   4.352166  -0.002120   0.412182  -0.005143
 187  11   1.372376  -1.936335   2.908843  -0.000630   0.353299  -0.001784
 188  12  -2.343222   2.200924   5.193139  -0.001997   0.431809  -0.004626
 189  12  -2.086782   3.174862   4.072519  -0.000774   0.294415  -0.002628
 190  12  -1.327882   3.892569   5.595155  -0.000818   0.314043  -0.002606
 191  12  -1.454596   0.397502   5.581292  -0.000673   0.372926  -0.001805
 192  12  -2.018093   1.145804   3.706545  -0.000607   0.353299  -0.001719
 193  12  -1.886757   3.594761   4.860764  -0.001226   0.412182  -0.002975
 194  12  -1.864693   2.842261   5.987036  -0.001928   0.392554  -0.004912
 195  12  -1.866349   1.400573   6.010916  -0.001870   0.412182  -0.004538
 196  12  -2.043476   0.811059   4.741615  -0.001259   0.451437  -0.002788
 197  12  -2.307775   2.121899   3.938037  -0.001267   0.451437  -0.002806
 198  13   4.812039   1.106048  14.423322  -0.004360   0.490692  -0.008885
 199  13   5.110793   0.028115  13.054149  -0.002492   0.372926  -0.006682
 200  13   3.222994   1.034723  13.410983  -0.002715   0.353299  -0.007683
 201  13   3.619854   2.812443  14.323359  -0.002291   0.353299  -0.006484
 202  13   5.844748   2.902538  14.557545  -0.002399   0.353299  -0.006792
 203  13   6.612032   1.277055  13.793069  -0.002469   0.412182  -0.005991
 204  13   4.160910   0.387258  13.524179  -0.003915   0.490692  -0.007978
 205  13   3.364468   1.797412  14.087446  -0.003404   0.471065  -0.007227
 206  13   4.638635   2.205817  14.750744  -0.003841   0.451437  -0.008509
 207  13   6.153491   1.984369  14.443569  -0.003799   0.471065  -0.008065
 208  13   5.837918   0.508392  13.674407  -0.003553   0.471065  -0.007543
 209  13   4.736068   3.305133  14.581599  -0.001974   0.314043  -0.006286
 210  14   0.881066   7.557760   1.148162  -0.002855   0.549575  -0.005195
 211  14  -0.521357   6.427287   1.673196  -0.000928   0.412182  -0.002252
 212  14   0.648666   6.877887  -0.076625  -0.000958   0.412182  -0.002324
 213  14   2.574561   7.393560   0.787587  -0.000895   0.392554  -0.002279
 214  14   0.043772   6.797236   2.532349  -0.002255   0.529948  -0.004255
 215  14  -0.195687   6.686377   0.671035  -0.001242   0.451437  -0.002751
 216  14   1.754595   7.250898   0.073003  -0.001183   0.431809  -0.002739
 217  14   2.507322   7.508380   1.766448  -0.001749   0.471065  -0.003713
 218  14   1.188720   7.508804   2.303757  -0.002411   0.431809  -0.005582
 219  15   6.200202   3.115586  -0.607301  -0.002482   0.490692  -0.005059
 220  15   5.226837   1.891116  -1.082640  -0.000739   0.372926  -0.001983
 221  15   5.801681   1.408411   0.646817  -0.001036   0.333671  -0.003105
 222  15   5.950080   4.799998   0.468809  -0.000996   0.392554  -0.002537
 223  15   5.190311   3.889205  -1.412345  -0.000814   0.372926  -0.002182
 224  15   5.794067   1.696689  -0.305978  -0.001329   0.412182  -0.003223
 225  15   6.460963   2.492609   0.549605  -0.002412   0.451437  -0.005342
 226  15   6.467168   3.827942   0.431359  -0.002190   0.431809  -0.005071
 227  15   5.634272   4.585196  -0.645695  -0.001260   0.471065  -0.002675
 228  15   5.269339   2.863788  -1.461862  -0.000986   0.372926  -0.002645
 229  16  -0.422628   1.224272  -1.700548  -0.003494   0.608459  -0.005742
 230  16  -0.405300   0.313053  -0.308617  -0.001273   0.353299  -0.003604
 231  16   1.287479   0.337893  -1.407603  -0.000670   0.333671  -0.002007
 232  16   1.060738   2.042729  -2.440056  -0.000766   0.353299  -0.002167
 233  16  -0.661745   3.138070  -1.651510  -0.000741   0.372926  -0.001987
 234  16  -1.473595   2.067635  -0.089921  -0.000706   0.353299  -0.001998
 235  16   0.409184   0.089960  -0.849689  -0.001701   0.490692  -0.003466
 236  16   1.007748   1.047269  -2.098340  -0.001699   0.490692  -0.003463
 237  16   0.074648   2.523685  -2.281763  -0.001816   0.510320  -0.003559
 238  16  -1.212301   2.409093  -1.131192  -0.001793   0.490692  -0.003653
 239  16  -1.118561   1.076345  -0.345960  -0.001868   0.490692  -0.003807
 240   1   0.581090   4.512413   8.307516  -0.000144   0.026015  -0.005551
 241   2   0.650313   4.698543   7.854315  -0.000095   0.026015  -0.003642
 242   7   0.400124   4.319112   8.457520  -0.000154   0.026015  -0.005911
 243   1   5.978974  -0.047135   6.571419  -0.000131   0.025975  -0.005025
 244   2   5.984600   0.192719   6.138679  -0.000092   0.025975  -0.003524
 245   8   5.870786  -0.301658   6.698332  -0.000183   0.025975  -0.007042
 246   1   1.163675   5.195391   8.177002  -0.000077   0.027368  -0.002804
 247   2   1.169256   5.434182   7.743624  -0.000061   0.027368  -0.002223
 248   9   1.281607   5.691589   7.628666  -0.000068   0.027368  -0.002476
 249   1   6.506104   0.676605   6.455755  -0.000072   0.027370  -0.002631
 250   2   6.574093   0.862608   6.002270  -0.000060   0.027370  -0.002200
 251  10   6.761574   1.056479   5.863112  -0.000089   0.027370  -0.003269
 252   2   0.837921   5.102814   7.687979  -0.000040   0.100467  -0.000400
 253   1   0.866469   4.878373   8.371157  -0.000171   0.100467  -0.001700
 254   2   6.362558   0.579743   5.979374  -0.000034   0.099638  -0.000339
 255   1   6.229909   0.198046   6.574680  -0.000147   0.099638  -0.001473
 256   1   1.684541  -1.052865   6.773075  -0.000066   0.066891  -0.000994
 257   3   1.389083  -1.137645   6.004463   0.000040   0.066891   0.000605
 258  11   1.574055  -1.306063   5.828799  -0.000090   0.066891  -0.001340
 259   1   0.167922   0.214833   7.263112  -0.000052   0.067126  -0.000778
 260   3  -0.152911   0.151694   6.502616   0.000042   0.067126   0.000622
 261  12  -0.391677   0.339038   6.465957  -0.000122   0.067126  -0.001816
 262   3   0.707677  -0.701546   6.308896   0.000669   0.506740   0.001321
 263   1   0.810027  -0.456885   7.517083   0.000015   0.506740   0.000029
 264   1   1.234785   4.595230  10.194363  -0.000297   0.030462  -0.009760
 265   4   1.542646   4.770287  10.529764  -0.000474   0.030462  -0.015545
 266   7   1.005000   4.396430  10.214751  -0.000251   0.030462  -0.008232
 267   1   1.675679   1.372662  11.700972  -0.000298   0.030462  -0.009782
 268   4   1.978262   1.586302  12.018335  -0.000402   0.030462  -0.013186
 269   7   1.406774   1.459800  11.587679  -0.000270   0.030462  -0.008850
 270   1   4.152492  -0.716220  10.906499  -0.000280   0.030412  -0.009196
 271   4   4.432317  -0.483367  11.231142  -0.000410   0.030412  -0.013476
 272   8   4.220522  -0.913705  10.684941  -0.000268   0.030412  -0.008826
 273   1   6.658956   0.015466   8.457733  -0.000339   0.030412  -0.011134
 274   4   6.908748   0.239551   8.811718  -0.000456   0.030412  -0.015001
 275   8   6.504564  -0.246948   8.453478  -0.000259   0.030412  -0.008527
 276   1   1.990642   5.566468   9.007460  -0.000563   0.100483  -0.005602
 277   4   2.298228   5.736789   9.349063  -0.000775   0.100483  -0.007708
 278   9   2.105906   5.971803   8.387468  -0.000356   0.100483  -0.003539
 279   1   7.066867   1.284707   7.379210  -0.000550   0.100430  -0.005475
 280   4   7.314387   1.505652   7.740073  -0.000745   0.100430  -0.007417
 281  10   7.212147   1.663350   6.748742  -0.000368   0.100430  -0.003660
 282   1   2.239161   1.147378  12.013651  -0.000310   0.019809  -0.015670
 283   4   2.490881   1.329277  12.389383  -0.000286   0.019809  -0.014431
 284  13   2.682559   1.290052  12.624494  -0.000273   0.019809  -0.013804
 285   1   4.025738  -0.347686  11.433987  -0.000311   0.019809  -0.015680
 286   4   4.302278  -0.186558  11.801666  -0.000280   0.019809  -0.014124
 287  13   4.329775  -0.088390  12.090047  -0.000283   0.019809  -0.014274
 288   4   2.048517   5.456187  10.172221  -0.001580   0.209640  -0.007536
 289   1   1.535598   5.021496   9.852463  -0.001184   0.209640  -0.005646
 290   4   2.252306   1.491903  12.299246  -0.000385   0.054926  -0.007012
 291   1   1.888571   1.149015  11.805845  -0.000354   0.054926  -0.006440
 292   4   4.379003  -0.319013  11.627283  -0.000402   0.048898  -0.008222
 293   1   4.027309  -0.624664  11.102622  -0.000274   0.048898  -0.005603
 294   4   7.305365   0.777045   8.628504  -0.001641   0.210542  -0.007796
 295   1   6.968813   0.679761   7.971150  -0.001193   0.210542  -0.005664
 296   1   0.153015   0.320415   7.782779  -0.000227   0.087332  -0.002594
 297   7  -0.019935   0.500200   7.962471  -0.000387   0.087332  -0.004433
 298  12  -0.301321   0.549422   6.943672  -0.000082   0.087332  -0.000941
 299   7   0.086805   0.248612   8.684405  -0.000369   0.075096  -0.004918
 300   7   0.483169   0.125443   9.808114  -0.000887   0.169532  -0.005232
 301   7   0.929820   0.791347  11.007455  -0.001125   0.169532  -0.006635
 302   1   0.530507  -0.095293   8.953205  -0.000556   0.162093  -0.003431
 303   1   1.074721   0.108216  10.465080  -0.000697   0.162093  -0.004297
 304   1   1.437287   0.954976  11.413166  -0.000551   0.091746  -0.006004
 305   7   0.616560   4.318702   9.834043  -0.000380   0.071593  -0.005310
 306   7   0.316552   4.270235   8.995296  -0.000394   0.071593  -0.005504
 307   1   0.786137   4.523699   9.287114  -0.000966   0.156139  -0.006189
 308   1   1.944836  -1.186344   7.196552  -0.000231   0.087498  -0.002642
 309   8   2.192949  -1.362071   7.242000  -0.000426   0.087498  -0.004865
 310  11   1.908125  -1.306812   6.221348  -0.000063   0.087498  -0.000722
 311   8   6.024876  -0.550356   7.161176  -0.000369   0.071930  -0.005128
 312   8   6.337302  -0.511267   8.000349  -0.000441   0.071930  -0.006129
 313   1   6.316423  -0.146435   7.512473  -0.000973   0.156713  -0.006210
 314   8   3.846799  -1.237503  10.416144  -0.000435   0.075328  -0.005769
 315   8   2.851959  -1.454615   9.778445  -0.000912   0.170193  -0.005359
 316   8   2.257993  -1.541637   8.462174  -0.000998   0.170193  -0.005865
 317   1   3.257364  -1.036950  10.446566  -0.000998   0.162473  -0.006141
 318   1   2.135398  -1.262072   9.294038  -0.000595   0.162473  -0.003663
 319   1   1.854098  -1.272676   7.998504  -0.000300   0.092030  -0.003259
 320   9   1.535462   6.010167   7.731789  -0.000408   0.172632  -0.002362
 321   1   1.480813   5.413193   8.684893  -0.000332   0.243343  -0.001364
 322  10   7.161908   1.446573   6.052593  -0.000503   0.174726  -0.002877
 323   1   6.776574   0.767031   6.863828  -0.000259   0.246288  -0.001053
 324   1   1.722072  -1.247631   7.169968   0.000049   0.007222   0.006837
 325  12  -0.611713   0.369955   6.471162   0.000012   0.011946   0.001018
 326   1   0.114609   0.102128   7.695424   0.000087   0.016941   0.005110
 327  13   3.008087   0.912960  12.722426  -0.002260   0.240159  -0.009409
 328  13   3.980369   0.099323  12.406964  -0.002250   0.240159  -0.009370
 329   1   2.939957   0.200420  11.644897  -0.004770   0.652971  -0.007305
 330   2   0.535605   5.404843   5.849750  -0.000029   0.027581  -0.001053
 331   3   0.271841   5.154381   5.511516  -0.000007   0.027581  -0.000242
 332   9   0.692125   5.664292   5.866695  -0.000064   0.027581  -0.002327
 333   2   5.939185   0.834330   4.109405  -0.000017   0.027588  -0.000603
 334   3   5.612736   0.636890   3.791359   0.000005   0.027588   0.000192
 335  10   6.170881   1.030204   4.102081  -0.000045   0.027588  -0.001620
 336   2   5.436262   0.229579   4.297288   0.000000   0.028247   0.000009
 337   3   5.172415  -0.020383   3.958721  -0.000012   0.028247  -0.000410
 338  11   5.017892  -0.281965   3.946641  -0.000038   0.028247  -0.001353
 339   2   0.080664   4.725553   6.045218  -0.000011   0.028260  -0.000377
 340   3  -0.245553   4.527951   5.727004  -0.000021   0.028260  -0.000757
 341  12  -0.476249   4.330310   5.739913  -0.000056   0.028260  -0.001965
 342   3  -0.104658   4.791160   5.594125   0.000085   0.087015   0.000974
 343   2   0.351708   5.178516   5.993612   0.000057   0.087015   0.000661
 344   3   5.379579   0.260268   3.754775   0.000096   0.080605   0.001185
 345   2   5.773843   0.519077   4.296922   0.000077   0.080605   0.000957
 346   2   4.292012   6.496921   3.826063   0.000069   0.066699   0.001032
 347   5   3.992208   6.411248   3.055788   0.000142   0.066699   0.002128
 348   9   4.110787   6.665085   4.004852  -0.000116   0.066699  -0.001735
 349   2   5.860533   5.164797   3.315077   0.000061   0.066445   0.000919
 350   5   5.533635   5.101704   2.553714   0.000150   0.066445   0.002265
 351  10   6.098187   4.978737   3.359550  -0.000099   0.066445  -0.001497
 352   5   4.602911   6.026863   2.390221   0.001193   0.523967   0.002278
 353   2   5.262427   5.806610   3.422423   0.000859   0.523967   0.001640
 354   2   5.525029   6.688274   6.269675   0.000521   0.085984   0.006055
 355   6   5.972547   6.835378   7.131410   0.002151   0.085984   0.025012
 356   9   5.269713   6.853636   6.306036   0.000183   0.085984   0.002123
 357   2   6.784207   5.623179   5.869343   0.000684   0.085828   0.007964
 358   6   7.176153   5.816670   6.748774   0.001916   0.085828   0.022323
 359  10   6.975760   5.409950   5.761252   0.000177   0.085828   0.002064
 360   6   7.035621   6.547460   7.204306   0.007351   0.428156   0.017168
 361   2   6.164137   6.384323   6.074041   0.003191   0.477599   0.006681
 362   2   0.135679   4.174159   7.080035  -0.000336   0.166626  -0.002019
 363   7  -0.037063   3.783694   7.708326  -0.000800   0.166626  -0.004804
 364  12  -0.374623   3.771030   6.701519  -0.000384   0.166626  -0.002304
 365   7   0.141635   4.114017   8.433554  -0.000605   0.119386  -0.005070
 366   2   0.379027   4.624628   7.454664  -0.000021   0.168292  -0.000128
 367   2   5.276654  -0.165345   5.426526  -0.000335   0.166702  -0.002012
 368   8   5.153137  -0.597253   6.039218  -0.000765   0.166702  -0.004588
 369  11   4.820511  -0.611528   5.027631  -0.000413   0.166702  -0.002480
 370   8   5.610395  -0.633678   6.586144  -0.000644   0.119068  -0.005413
 371   2   5.882501   0.094673   5.766979  -0.000000   0.167845  -0.000003
 372   9   0.853981   5.933898   6.317585  -0.000151   0.071501  -0.002112
 373   9   1.137576   5.947030   7.164865  -0.000158   0.071501  -0.002216
 374   2   0.857346   5.555950   6.793519  -0.000405   0.155772  -0.002602
 375   9   4.936428   6.993735   5.570652  -0.000012   0.085350  -0.000137
 376   9   4.433541   6.932044   4.639061  -0.000142   0.085350  -0.001661
 377   2   4.953337   6.691025   4.977999  -0.000081   0.178258  -0.000453
 378  10   6.541803   5.145758   3.956361  -0.000103   0.085874  -0.001196
 379  10   6.881126   5.348920   4.947020  -0.000047   0.085874  -0.000543
 380   2   6.387055   5.476149   4.515884  -0.000115   0.179064  -0.000643
 381  10   6.849177   1.116039   5.324794  -0.000151   0.071476  -0.002119
 382  10   6.565150   1.103271   4.477990  -0.000144   0.071476  -0.002009
 383   2   6.381891   0.883141   5.013907  -0.000376   0.155730  -0.002417
 384  11   4.906740  -0.578315   4.148250  -0.000250   0.144017  -0.001735
 385   2   5.535433   0.059548   4.823496   0.000154   0.203074   0.000758
 386  12  -0.676859   4.026057   6.071637  -0.000292   0.137536  -0.002121
 387   2   0.112144   4.710261   6.478779   0.000161   0.193947   0.000829
 388   3   4.514301  -0.067166   2.074048   0.000011   0.027145   0.000419
 389   5   4.515637   0.171986   1.639100   0.000042   0.027145   0.001565
 390  11   4.405415  -0.324810   2.193148  -0.000015   0.027145  -0.000565
 391   3   1.471848  -0.805640   1.506545   0.000027   0.027145   0.000980
 392   5   1.512950  -0.556835   1.079014   0.000079   0.027145   0.002905
 393  11   1.635808  -0.997058   1.676538  -0.000006   0.027145  -0.000231
 394   3  -1.471965   1.664410   2.468306   0.000022   0.027172   0.000802
 395   5  -1.399984   1.887292   2.030678   0.000048   0.027172   0.001774
 396  12  -1.605179   1.722559   2.735317  -0.000005   0.027172  -0.000178
 397   3  -0.898893   4.478655   3.844446   0.000028   0.027172   0.001034
 398   5  -0.834400   4.664767   3.388838   0.000073   0.027172   0.002673
 399  12  -1.083498   4.284437   3.988052  -0.000006   0.027172  -0.000215
 400   3  -0.412871   5.072981   3.659707   0.000027   0.026780   0.001001
 401   5  -0.412257   5.311590   3.224468   0.000004   0.026780   0.000141
 402  14  -0.309247   5.570090   3.104096  -0.000032   0.026780  -0.001201
 403   3   4.992911   0.624033   1.934646   0.000011   0.026780   0.000429
 404   5   5.057456   0.810026   1.479006  -0.000006   0.026780  -0.000239
 405  15   5.240649   1.002547   1.333032  -0.000045   0.026780  -0.001680
 406   3   0.986831  -0.445424   1.136123   0.000069   0.024810   0.002770
 407   5   1.007846  -0.271728   0.671684   0.000020   0.024810   0.000794
 408  16   0.834506  -0.178739   0.442329  -0.000014   0.024810  -0.000572
 409   3  -1.191321   1.347019   1.831116   0.000039   0.024810   0.001575
 410   5  -1.199837   1.545016   1.376100   0.000013   0.024810   0.000505
 411  16  -1.174548   1.474549   1.083367  -0.000018   0.024810  -0.000712
 412   5   1.288129  -0.417729   0.758183   0.000136   0.060528   0.002251
 413   3   1.171532  -0.704847   1.402835   0.000140   0.060528   0.002307
 414   5  -1.321575   1.707148   1.580105   0.000134   0.072673   0.001843
 415   3  -1.397616   1.477839   2.255079   0.000148   0.072673   0.002031
 416   5  -0.683460   5.033813   3.204009   0.000161   0.077172   0.002092
 417   3  -0.668064   4.790917   3.879062   0.000136   0.077172   0.001767
 418   5   4.866334   0.541531   1.468675   0.000147   0.089819   0.001636
 419   3   4.748371   0.166446   2.071492   0.000126   0.089819   0.001407
 420   3   0.404203   5.514568   4.445644  -0.000052   0.166650  -0.000310
 421   9   0.865414   5.960452   4.842885  -0.000221   0.166650  -0.001327
 422  14   0.510045   5.941765   3.829695  -0.000265   0.166650  -0.001587
 423   9   0.831577   6.006998   5.576216  -0.000279   0.130024  -0.002145
 424   3   0.130841   5.252395   5.127819   0.000239   0.183338   0.001303
 425   3   5.556269   1.194785   2.754650  -0.000051   0.166636  -0.000306
 426  10   6.065831   1.596416   3.139817  -0.000264   0.166636  -0.001587
 427  15   5.721139   1.581423   2.124996  -0.000223   0.166636  -0.001337
 428  10   6.362652   1.253580   3.885350  -0.000254   0.139185  -0.001827
 429   3   5.592339   0.732767   3.253830   0.000239   0.196240   0.001219
 430  11   4.556641  -0.577484   2.656180  -0.000104   0.071544  -0.001460
 431  11   4.852588  -0.554400   3.497911  -0.000120   0.071544  -0.001681
 432   3   4.839355  -0.179983   3.019087  -0.000280   0.155972  -0.001797
 433  11   1.294504  -1.568021   5.254234  -0.000049   0.067690  -0.000725
 434  11   0.818855  -1.628401   4.276974  -0.000159   0.149430  -0.001067
 435  11   0.892810  -1.528295   2.965265  -0.000256   0.149430  -0.001710
 436  11   1.474160  -1.324838   2.067734  -0.000095   0.067690  -0.001403
 437   3   0.789936  -1.335433   5.047917   0.000115   0.149221   0.000772
 438   3   0.419310  -1.340842   3.614634   0.000078   0.149221   0.000524
 439   3   0.947731  -1.121841   2.249165  -0.000111   0.149221  -0.000743
 440  12  -1.751017   1.381949   3.121256  -0.000079   0.067579  -0.001175
 441  12  -1.555768   0.527457   3.763897  -0.000238   0.149136  -0.001597
 442  12  -1.168622   0.039048   4.922576  -0.000129   0.149136  -0.000866
 443  12  -0.810294   0.195165   5.936723  -0.000117   0.067579  -0.001727
 444   3  -1.442756   0.884646   3.029603  -0.000145   0.149023  -0.000974
 445   3  -1.099013  -0.066293   4.107959   0.000112   0.149023   0.000752
 446   3  -0.616562  -0.157653   5.502301   0.000075   0.149023   0.000503
 447  12  -0.873118   4.252312   5.367473  -0.000123   0.071383  -0.001717
 448  12  -1.166583   4.227980   4.526983  -0.000103   0.071383  -0.001441
 449   3  -0.697015   4.468402   4.827899  -0.000264   0.155694  -0.001693
 450  14  -0.103816   5.876355   3.183473  -0.000262   0.147852  -0.001769
 451   3  -0.168471   5.268390   4.131910   0.000263   0.208408   0.001264
 452  15   5.588947   1.308313   1.449880  -0.000273   0.133985  -0.002038
 453   3   5.226357   0.648623   2.288687   0.000270   0.188884   0.001431
 454  16   0.404559  -0.074381   0.378850  -0.000250   0.194625  -0.001284
 455  16  -0.686490   0.733834   0.720302  -0.001092   0.397630  -0.002746
 456   3   0.054788  -0.189843   1.558530   0.000596   0.533856   0.001117
 457   3  -1.099203   0.841452   1.932821   0.000570   0.274102   0.002081
 458   4   3.413950   6.565427   9.439093   0.000233   0.117526   0.001979
 459   6   3.731562   6.801093   9.394418   0.000979   0.117526   0.008332
 460   9   3.180309   6.687657   8.466635   0.000169   0.117526   0.001436
 461   4   8.007952   2.724225   7.967652   0.000221   0.117615   0.001881
 462   6   8.175278   3.085336   7.971147   0.000991   0.117615   0.008425
 463  10   7.799749   2.819124   6.985818   0.000187   0.117615   0.001586
 464   6   3.929135   7.019602  10.241981   0.001026   0.136284   0.007531
 465   6   4.481848   6.854904  11.761301   0.002455   0.287429   0.008543
 466   6   5.771793   6.074259  13.044529   0.003069   0.287429   0.010677
 467   6   7.341526   4.876739  13.192594   0.003616   0.287429   0.012580
 468   6   8.574107   3.732996  12.147304   0.002864   0.287429   0.009963
 469   6   8.985107   3.092545  10.319480   0.002287   0.287429   0.007958
 470   6   8.658847   3.068046   8.727655   0.001008   0.136284   0.007395
 471   4   3.684567   6.629221  10.940166   0.000923   0.283467   0.003254
 472   4   4.665113   6.171188  12.688556   0.001309   0.283467   0.004618
 473   4   6.228888   5.089456  13.471238   0.001842   0.283467   0.006499
 474   4   7.761295   3.809168  12.980603   0.001868   0.283467   0.006591
 475   4   8.660064   2.833506  11.409481   0.001346   0.283467   0.004749
 476   4   8.571960   2.545926   9.375356   0.000952   0.283467   0.003360
 477   7   1.122441   1.795284  11.573705  -0.001290   0.174736  -0.007385
 478   7   0.844902   3.052043  11.271931  -0.003332   0.356561  -0.009346
 479   7   0.804908   4.116185  10.488641  -0.001178   0.174736  -0.006744
 480   4   1.785664   2.573107  12.168036  -0.003485   0.480774  -0.007249
 481   4   1.558631   4.232525  11.392228  -0.003894   0.480774  -0.008100
 482   8   6.360928  -0.574636   8.708528  -0.001166   0.174509  -0.006681
 483   8   5.644503  -0.999145   9.732671  -0.003260   0.356064  -0.009155
 484   8   4.555851  -1.101573  10.472052  -0.001208   0.174509  -0.006923
 485   4   6.711679  -0.117665   9.741109  -0.004037   0.480180  -0.008408
 486   4   5.421049  -0.494425  11.002028  -0.003628   0.480180  -0.007557
 487   9   2.323467   6.530022   8.098903  -0.000561   0.259629  -0.002161
 488   4   2.805968   6.347412   9.502491  -0.000375   0.368818  -0.001016
 489  10   7.700821   2.260899   6.412222  -0.000567   0.267222  -0.002124
 490   4   7.804092   1.914829   7.864820  -0.000566   0.379609  -0.001490
 491  13   4.729411  -0.072731  12.432429  -0.000636   0.069963  -0.009090
 492  13   5.810536   0.135011  12.613637  -0.001484   0.155064  -0.009571
 493  13   6.768706   0.961483  13.081415  -0.001402   0.155064  -0.009042
 494  13   6.954581   2.161401  13.669298  -0.001388   0.155064  -0.008952
 495  13   6.291530   3.240069  14.134914  -0.001385   0.155064  -0.008931
 496  13   5.052913   3.752777  14.286303  -0.001411   0.155064  -0.009098
 497  13   3.749382   3.488148  14.061049  -0.001479   0.155064  -0.009541
 498  13   2.918352   2.555282  13.552020  -0.001486   0.155064  -0.009586
 499  13   2.777087   1.561035  13.065869  -0.000614   0.069963  -0.008778
 500   4   5.212050  -0.107760  12.074423  -0.001650   0.153680  -0.010734
 501   4   6.572372   0.449014  12.443682  -0.001511   0.153680  -0.009833
 502   4   7.250897   1.650853  13.069787  -0.001326   0.153680  -0.008625
 503   4   6.967887   3.002269  13.694611  -0.001219   0.153680  -0.007930
 504   4   5.840020   3.946104  14.060553  -0.001237   0.153680  -0.008047
 505   4   4.332288   4.093238  14.016744  -0.001313   0.153680  -0.008544
 506   4   3.066293   3.383011  13.581245  -0.001504   0.153680  -0.009786
 507   4   2.563976   2.108232  12.933603  -0.001574   0.153680  -0.010244
 508   5   3.631972   6.588577   2.632608   0.000021   0.087629   0.000239
 509   9   3.687291   6.701307   3.613561   0.000060   0.087629   0.000680
 510  14   3.378113   6.754707   2.590606  -0.000071   0.087629  -0.000805
 511   9   4.034147   6.878294   4.090083   0.000017   0.031837   0.000545
 512   5   3.891314   6.639718   2.656996   0.000179   0.045183   0.003971
 513   5   5.533797   5.009779   2.042958   0.000076   0.087979   0.000868
 514  10   5.991108   4.780161   2.891621   0.000081   0.087979   0.000925
 515  15   5.704009   4.828476   1.864084  -0.000150   0.087979  -0.001701
 516  10   6.318942   4.950362   3.357885   0.000016   0.006570   0.002364
 517   5   5.579467   5.226342   2.126547   0.000070   0.009326   0.007493
 518  11   2.089329  -1.156129   1.696677  -0.000217   0.210455  -0.001031
 519  11   3.558165  -0.851872   1.902520  -0.001195   0.432355  -0.002764
 520   5   2.619089  -0.448403   0.818548   0.000815   0.574947   0.001418
 521   5   4.242479  -0.006764   1.183419   0.000661   0.296458   0.002229
 522  12  -1.415258   3.955636   3.871361  -0.000227   0.210638  -0.001077
 523  12  -1.756341   2.649003   3.183639  -0.001175   0.432764  -0.002716
 524   5  -1.316571   3.960534   2.629144   0.000797   0.575418   0.001385
 525   5  -1.563680   2.411508   1.916126   0.000655   0.296717   0.002209
 526  14   3.353906   6.932697   1.869042  -0.000060   0.066424  -0.000908
 527  14   3.185410   6.942454   0.810398  -0.000136   0.146243  -0.000927
 528  14   2.397854   6.775771  -0.208399  -0.000222   0.146243  -0.001520
 529  14   1.190033   6.454757  -0.560670  -0.000267   0.146243  -0.001825
 530  14   0.023804   6.102165  -0.111713  -0.000148   0.146243  -0.001011
 531  14  -0.654883   5.852822   0.966798  -0.000187   0.146243  -0.001278
 532  14  -0.586507   5.802072   2.262454  -0.000353   0.146243  -0.002412
 533   5   3.657895   6.693152   1.426974   0.000127   0.146800   0.000862
 534   5   3.153530   6.625033   0.059541   0.000100   0.146800   0.000678
 535   5   1.974660   6.336901  -0.750487  -0.000024   0.146800  -0.000166
 536   5   0.572070   5.938934  -0.693365   0.000044   0.146800   0.000299
 537   5  -0.517908   5.583311   0.209064   0.000108   0.146800   0.000736
 538   5  -0.878480   5.406016   1.611724  -0.000140   0.146800  -0.000954
 539   5  -0.600981   5.422001   2.761914  -0.000005   0.081152  -0.000056
 540  15   5.327366   1.057249   0.811465  -0.000097   0.066580  -0.001463
 541  15   4.969934   1.117244  -0.199888  -0.000236   0.146651  -0.001611
 542  15   4.628146   1.824065  -1.237449  -0.000186   0.146651  -0.001272
 543  15   4.513706   3.038236  -1.690926  -0.000203   0.146651  -0.001383
 544  15   4.670568   4.293405  -1.386143  -0.000251   0.146651  -0.001710
 545  15   5.038485   5.107474  -0.440164  -0.000162   0.146651  -0.001103
 546  15   5.476142   5.167769   0.783670  -0.000276   0.146651  -0.001879
 547   5   4.867279   0.803225   0.547404  -0.000178   0.147083  -0.001207
 548   5   4.406562   1.178354  -0.788505   0.000063   0.147083   0.000430
 549   5   4.136963   2.313527  -1.669605   0.000080   0.147083   0.000544
 550   5   4.162032   3.772735  -1.757473  -0.000013   0.147083  -0.000087
 551   5   4.472140   4.995511  -1.018359  -0.000007   0.147083  -0.000044
 552   5   4.948178   5.512200   0.263849   0.000112   0.147083   0.000764
 553   5   5.335526   5.340490   1.371426   0.000100   0.081343   0.001233
 554  16  -1.329734   1.747234   0.644100  -0.000110   0.069630  -0.001574
 555  16  -1.403400   2.702073   0.056174  -0.000313   0.154979  -0.002018
 556  16  -0.911856   3.502454  -0.924517  -0.000172   0.154979  -0.001110
 557  16   0.079459   3.576975  -1.849569  -0.000295   0.154979  -0.001903
 558  16   1.151361   2.894125  -2.327818  -0.000318   0.154979  -0.002049
 559  16   1.850590   1.742651  -2.157033  -0.000225   0.154979  -0.001453
 560  16   1.881472   0.609461  -1.409432  -0.000270   0.154979  -0.001741
 561  16   1.230948  -0.026268  -0.401142  -0.000361   0.154979  -0.002331
 562   5  -1.392825   2.321129   0.807770  -0.000172   0.152262  -0.001128
 563   5  -1.229223   3.501930  -0.143873  -0.000043   0.152262  -0.000282
 564   5  -0.348535   4.021545  -1.275717   0.000098   0.152262   0.000646
 565   5   0.876835   3.660251  -2.109154  -0.000064   0.152262  -0.000423
 566   5   1.928731   2.570823  -2.291761  -0.000058   0.152262  -0.000383
 567   5   2.362352   1.213934  -1.746320   0.000043   0.152262   0.000281
 568   5   1.994340   0.163352  -0.703475  -0.000118   0.152262  -0.000776
 569   5   1.250451  -0.217555   0.212903  -0.000035   0.085069  -0.000410
 570   9   3.123112   7.150471   7.914458  -0.000095   0.252024  -0.000377
 571   9   4.064702   7.447249   7.191807   0.000162   0.506240   0.000319
 572   9   4.999562   7.218820   6.436326   0.000668   0.252024   0.002652
 573   6   4.382533   7.418744   8.918341   0.006118   0.627518   0.009749
 574   6   5.669028   7.465604   7.904934   0.008900   0.627518   0.014183
 575  10   7.386393   5.200679   5.672677   0.000657   0.249359   0.002633
 576  10   7.956121   4.168969   5.944680   0.000176   0.500794   0.000351
 577  10   8.038261   3.028246   6.338388  -0.000072   0.249359  -0.000288
 578   6   8.060271   5.448732   7.141200   0.008246   0.621137   0.013276
 579   6   8.507274   3.959038   7.597696   0.006245   0.621137   0.010055
 580  12  -0.900997   0.658750   6.684220   0.000058   0.254508   0.000227
 581  12  -1.346872   1.718146   6.819275  -0.000817   0.508968  -0.001604
 582  12  -1.146444   3.110565   6.733741  -0.000845   0.508968  -0.001660
 583   7  -0.618736   1.070219   8.179057  -0.001486   0.508968  -0.002919
 584   7  -0.883940   2.452622   8.249392  -0.001899   0.508968  -0.003732
 585   7  -0.487950   3.530128   8.102633  -0.000596   0.254508  -0.002341
 586  11   4.628165  -1.208140   4.864019  -0.000109   0.254500  -0.000429
 587  11   3.719132  -1.849861   5.172419  -0.000937   0.508941  -0.001842
 588  11   2.383984  -1.879937   5.613054  -0.000510   0.508941  -0.001002
 589   8   4.772075  -1.459679   6.417060  -0.001750   0.508941  -0.003438
 590   8   3.529463  -1.969617   6.833667  -0.001842   0.508941  -0.003620
 591   8   2.453137  -1.743808   7.185505  -0.000311   0.254500  -0.001220
 592  14   0.544723   6.527343   3.564292  -0.000056   0.250048  -0.000226
 593  14   1.419742   7.164916   3.245482  -0.000736   0.499986  -0.001472
 594  14   2.716706   7.226829   2.789044  -0.000264   0.499986  -0.000527
 595   9   1.369528   6.821482   4.890881  -0.000603   0.499986  -0.001206
 596   9   2.569137   7.340906   4.460276  -0.000655   0.499986  -0.001310
 597   9   3.620068   7.151798   4.094788   0.000128   0.250048   0.000512
 598  15   6.102915   4.652143   1.708129   0.000190   0.253114   0.000751
 599  15   6.537937   3.603420   1.576247  -0.000689   0.506139  -0.001362
 600  15   6.341845   2.227209   1.663465  -0.000627   0.506139  -0.001239
 601  10   6.786039   4.285294   3.094296  -0.000357   0.506139  -0.000706
 602  10   7.044664   2.918324   3.027058  -0.000749   0.506139  -0.001480
 603  10   6.657836   1.852900   3.174338  -0.000036   0.253114  -0.000144
 =====================================================

              2746069  WORDS OF DYNAMIC MEMORY USED
 EXECUTION OF GAMESS TERMINATED NORMALLY Sun Nov 27 16:56:29 2016
 DDI: 263640 bytes (0.3 MB / 0 MWords) used by master data server.

 ----------------------------------------
 CPU timing information for all processes
 ========================================
 0: 464.224 + 0.220 = 464.444
 ----------------------------------------
 ddikick.x: exited gracefully.
