----- GAMESS execution script -----

          ******************************************************
          *         GAMESS VERSION =  5 DEC 2014 (R1)          *
          *             FROM IOWA STATE UNIVERSITY             *
          * M.W.SCHMIDT, K.K.BALDRIDGE, J.A.BOATZ, S.T.ELBERT, *
          *   M.S.GORDON, J.H.JENSEN, S.KOSEKI, N.MATSUNAGA,   *
          *          K.A.NGUYEN, S.J.SU, T.L.WINDUS,           *
          *       TOGETHER WITH M.DUPUIS, J.A.MONTGOMERY       *
          *         J.COMPUT.CHEM.  14, 1347-1363(1993)        *
          **************** 64 BIT LINUX VERSION ****************

 EXECUTION OF GAMESS BEGUN Sun Nov 27 16:56:32 2016

            ECHO OF THE FIRST FEW INPUT CARDS -
 INPUT CARD>! SELECT RESTRICTED HARTREE-FOCK AS DEFAULT                                     
 INPUT CARD>$contrl scftyp=rhf $end                                                         
 INPUT CARD>                                                                                
 INPUT CARD>! THEORY: HF OR DFT                                                             
 INPUT CARD> $contrl mplevl=0 $end                                                          
 INPUT CARD>                                                                                
 INPUT CARD> $system timlim=10000 mwords=20 $end                                            
 INPUT CARD> $SCF DIRSCF=.TRUE. $end                                                        
 INPUT CARD>                                                                                
 INPUT CARD>                                                                                
 INPUT CARD>! BASIS SETS                                                                    
 INPUT CARD>! 6-311G(d,p)                                                                   
 INPUT CARD> $BASIS GBASIS=N311 NGAUSS=6 NDFUNC=1 NPFUNC=1 $END                             
 INPUT CARD>                                                                                
 INPUT CARD>! One of the following                                                          
 INPUT CARD> $guess guess=HUCKEL $end                                                       
 INPUT CARD>                                                                                
 INPUT CARD> $statpt projct=.FALSE. $end                                                    
 INPUT CARD> $STATPT IFREEZ(1)=1,2,3 $END                                                   
 INPUT CARD>                                                                                
 INPUT CARD>! Optimize the geometry with COSMO effects                                      
 INPUT CARD> $statpt opttol=0.0005 nstep=50 $end                                            
 INPUT CARD> $contrl nzvar=1 $end                                                           
 INPUT CARD> $zmat dlc=.t. auto=.t. $end                                                    
 INPUT CARD> $contrl runtyp=OPTIMIZE maxit=200 $end                                         
 INPUT CARD>                                                                                
 INPUT CARD>! Run COSMO on perfect conductor                                                
 INPUT CARD> $COSGMS PRFCND=.TRUE. $end                                                     
 INPUT CARD>                                                                                
 INPUT CARD>! Specifying RSOLV                                                              
 INPUT CARD> $COSGMS COSRAD = 1.4 $end                                                      
 INPUT CARD>                                                                                
 INPUT CARD>! available memory                                                              
 INPUT CARD> $SYSTEM MWORDS=40 $END                                                         
 INPUT CARD>                                                                                
 INPUT CARD> $DATA                                                                          
 INPUT CARD>WATER.gout                                                                      
 INPUT CARD>C1                                                                              
 INPUT CARD>O      8.0     -0.2308000000   -0.3260000000    0.0000000000                    
 INPUT CARD>H      1.0      0.7373000000   -0.2766000000    0.0000000000                    
 INPUT CARD>H      1.0     -0.5064000000    0.6026000000    0.0000000000                    
 INPUT CARD> $END                                                                           
 INPUT CARD>                                                                                
 INPUT CARD>                                                                                
   40000000 WORDS OF MEMORY AVAILABLE

     BASIS OPTIONS
     -------------
     GBASIS=N311         IGAUSS=       6      POLAR=POPN311 
     NDFUNC=       1     NFFUNC=       0     DIFFSP=       F
     NPFUNC=       1      DIFFS=       F     BASNAM=        


     RUN TITLE
     ---------
 WATER.gout                                                                      

 THE POINT GROUP OF THE MOLECULE IS C1      
 THE ORDER OF THE PRINCIPAL AXIS IS     0

 ATOM      ATOMIC                      COORDINATES (BOHR)
           CHARGE         X                   Y                   Z
 O           8.0    -0.4361487580       -0.6160506720        0.0000000000
 H           1.0     1.3932949707       -0.5226982082        0.0000000000
 H           1.0    -0.9569572402        1.1387488802        0.0000000000

          INTERNUCLEAR DISTANCES (ANGS.)




     $CONTRL OPTIONS
     ---------------
 SCFTYP=RHF          RUNTYP=OPTIMIZE     EXETYP=RUN     
 MPLEVL=       0     CITYP =NONE         CCTYP =NONE         VBTYP =NONE    
 DFTTYP=NONE         TDDFT =NONE    
 MULT  =       1     ICHARG=       0     NZVAR =       1     COORD =UNIQUE  
 PP    =NONE         RELWFN=NONE         LOCAL =NONE         NUMGRD=       F
 ISPHER=      -1     NOSYM =       0     MAXIT =     200     UNITS =ANGS    
 PLTORB=       F     MOLPLT=       F     AIMPAC=       F     FRIEND=        
 NPRINT=       7     IREST =       0     GEOM  =INPUT   
 NORMF =       0     NORMP =       0     ITOL  =      20     ICUT  =       9
 INTTYP=BEST         GRDTYP=BEST         QMTTOL= 1.0E-06

     $SYSTEM OPTIONS
     ---------------
  REPLICATED MEMORY=    40000000 WORDS (ON EVERY NODE).
 DISTRIBUTED MEMDDI=           0 MILLION WORDS IN AGGREGATE,
 MEMDDI DISTRIBUTED OVER   1 PROCESSORS IS           0 WORDS/PROCESSOR.
 TOTAL MEMORY REQUESTED ON EACH PROCESSOR=    40000000 WORDS.
 TIMLIM=       10000.00 MINUTES, OR       6.9 DAYS.
 PARALL= F  BALTYP=  DLB     KDIAG=    0  COREFL= F
 MXSEQ2=     300 MXSEQ3=     150  mem10=         0

     $COSGMS OPTIONS
     ---------------
     EPSI  =   INFTY     NSPA  =      92     COSRAD=    1.40
     DISEX =   10.00     OUTCHG=DBLCAV       COSBUG=       F
     COSWRT=       F     DCOSMO=       F

     SYMMETRY COORDINATES WILL NOT BE USED FOR 
     THE COSMO CALCULATION, EVEN IF SPECIFIED:
         -- SWITCHING TO C1 POINT GROUP --


     DEFINITION OF CAVITY
     ---------------------------
     ATOM         COORDINATES           RADIUS 
     1   -0.4361   -0.6161    0.0000    1.7200
     2    1.3933   -0.5227    0.0000    1.3000
     3   -0.9570    1.1387    0.0000    1.3000

          ----------------
          PROPERTIES INPUT
          ----------------

     MOMENTS            FIELD           POTENTIAL          DENSITY
 IEMOM =       1   IEFLD =       0   IEPOT =       0   IEDEN =       0
 WHERE =COMASS     WHERE =NUCLEI     WHERE =NUCLEI     WHERE =NUCLEI  
 OUTPUT=BOTH       OUTPUT=BOTH       OUTPUT=BOTH       OUTPUT=BOTH    
 IEMINT=       0   IEFINT=       0                     IEDINT=       0
                                                       MORB  =       0
          EXTRAPOLATION IN EFFECT
          SOSCF IN EFFECT
 ORBITAL PRINTING OPTION: NPREO=     1    31     2     1

     -------------------------------
     INTEGRAL TRANSFORMATION OPTIONS
     -------------------------------
     NWORD  =            0
     CUTOFF = 1.0E-09     MPTRAN =       0
     DIRTRF =       T     AOINTS =DUP     

          ----------------------
          INTEGRAL INPUT OPTIONS
          ----------------------
 NOPK  =       1 NORDER=       0 SCHWRZ=       T


 -----------------------------------------------
  STATISTICS ON AUTOMATIC COORDINATE GENERATION 
 -----------------------------------------------
  NUMBER OF USER SPECIFIED BONDS                             0
  NUMBER OF BONDS                                            2
  NUMBER OF ANGLES                                           1
  NUMBER OF TORSIONS                                         0
  NUMBER OF EXTRA COORD.                                     0
  NUMBER OF EXTRA COORD. FOR CONSTRAINTS                     0
  NUMBER OF CONSTRAINED COORD.                               0

  TOTAL NUMBER OF PRIMITIVES                                 3
 -----------------------------------------------

   --- ENCODED Z MATRIX ---
 COORD  TYPE   I   J   K   L   M   N
    1      1    1   3
    2      1    1   2
    3      2    2   1   3

          INDEP./SYM. INTERNAL COORDINATES
          --------------------------------
 CRD  1=   0.4253 (  1)  0.4255 (  2)  0.7988 (  3)
 CRD  2=   0.7082 (  1) -0.7060 (  2)
 CRD  3=  -0.5636 (  1) -0.5661 (  2)  0.6016 (  3)

 THE DETERMINANT OF THE G MATRIX IS 10**(    -1)


                     --------------------
                     INTERNAL COORDINATES
                     --------------------

                 - - ATOMS - -         COORDINATE      COORDINATE
 NO.   TYPE    I  J  K  L  M  N        (BOHR,RAD)       (ANG,DEG)
 ----------------------------------------------------------------
   1 STRETCH   1  3                     1.8304543       0.9686348
   2 STRETCH   1  2                     1.8318240       0.9693596
   3 BEND      2  1  3                  1.8083228     103.6092646

     ------------------------------------------
     THE POINT GROUP IS C1 , NAXIS= 1, ORDER= 1
     ------------------------------------------

     DIMENSIONS OF THE SYMMETRY SUBSPACES ARE
 A   =   31

 ..... DONE SETTING UP THE RUN .....
 STEP CPU TIME =     0.00 TOTAL CPU TIME =        0.0 (    0.0 MIN)
 TOTAL WALL CLOCK TIME=        0.0 SECONDS, CPU UTILIZATION IS   0.00%


          -----------------------------
          STATIONARY POINT LOCATION RUN
          -----------------------------

 OBTAINING INITIAL HESSIAN, HESS=GUESS   
 DIAGONAL GUESS HESSIAN IN INTERNAL COORDS IS
     1  0.3541     2  0.3536     3  0.1945
 TRANSFORMING HESSIAN TO SYMMETRY COORDINATES

          PARAMETERS CONTROLLING GEOMETRY SEARCH ARE
          METHOD =QA                  UPHESS =BFGS    
          NNEG   =         0          NFRZ   =         3
          NSTEP  =        50          IFOLOW =         1
          HESS   =GUESS               RESTAR =         F
          IHREP  =         0          HSSEND =         F
          NPRT   =         0          NPUN   =         0
          OPTTOL = 5.000E-04          RMIN   = 1.500E-03
          RMAX   = 1.000E-01          RLIM   = 7.000E-02
          DXMAX  = 3.000E-01          PURIFY =         F
          MOVIE  =         F          TRUPD  =         T
          TRMAX  = 5.000E-01          TRMIN  = 5.000E-02
          ITBMAT =         5          STPT   =         F
          STSTEP = 1.000E-02          PROJCT=          F
          FROZEN COORD(S)=   1   2   3


      ***** EQUILIBRIUM GEOMETRY LOCATED *****
            (SUBJECT TO   3 CONSTRAINT(S))
 COORDINATES OF ALL ATOMS ARE (ANGS)
   ATOM   CHARGE       X              Y              Z
 ------------------------------------------------------------
 O           8.0  -0.2308000000  -0.3260000000   0.0000000000
 H           1.0   0.7373000000  -0.2766000000   0.0000000000
 H           1.0  -0.5064000000   0.6026000000   0.0000000000


                     --------------------
                     INTERNAL COORDINATES
                     --------------------

                 - - ATOMS - -         COORDINATE      COORDINATE
 NO.   TYPE    I  J  K  L  M  N        (BOHR,RAD)       (ANG,DEG)
 ----------------------------------------------------------------
   1 STRETCH   1  3                     1.8304543       0.9686348
   2 STRETCH   1  2                     1.8318240       0.9693596
   3 BEND      2  1  3                  1.8083228     103.6092646

          INTERNUCLEAR DISTANCES (ANGS.)


 =====================================================
   GAMESS/COSab RESULTS
 =====================================================

   Dielectric Constant                  = INFTY
   Basic Grid Size                      =                 1082
   Number of Segments                   =                   92
   Number of Segments located on spheres=                   92
   Number of Segments of the cavity     =                  136
   Solvent Radius (rsolv)               = 1.40
   Outlying Charge Error Method         = double cavity

 =====================================================

  Total solvated Energy (a.u.)          =   -76.0273185444
  Total Energy corrected (a.u.)         =   -76.0273532730

  Outlying charge effect (a.u.)         =    -0.0000347286
  Outlying charge effect (kcal/mol)     =    -0.0217925722

  Dielectric Energy (a.u.)              =    -0.0117526909
  Dielectric energy corr. (a.u.)        =    -0.0117874195

  Sum of polarization charges           =     0.0063817756
  Sum of polarization charges(cor.)     =    -0.0063817756

  Total surface area of cavity (A**2)   =   42.93
  Total volume of cavity (A**3)         =   25.52

 =====================================================
 NPS=                   136
NR.  ATOM  (X, Y, Z)(a.u.)                  CHARGE(e)  AREA(A**2) SIGMA(e/A**2)
   1   1  -3.666680  -0.968868   0.061522   0.002355   0.309230   0.007614
   2   1  -1.793436  -2.587251   2.199260   0.006147   0.343589   0.017891
   3   1  -1.753823  -3.391215  -1.061543   0.005511   0.343589   0.016038
   4   1  -1.956339  -0.601227  -2.872885   0.005150   0.343589   0.014989
   5   1  -1.917285   0.580171   2.634358   0.002017   0.240512   0.008387
   6   1   1.047438  -3.388085   0.824299   0.001134   0.274871   0.004124
   7   1   1.087893  -2.038799  -2.493552   0.003063   0.343589   0.008914
   8   1   0.820512   1.171065  -2.406594   0.000805   0.206154   0.003903
   9   1   0.929252  -0.594495   2.949545   0.003186   0.309230   0.010304
  10   1  -3.406969  -1.493373   0.984441   0.004680   0.412307   0.011350
  11   1  -2.719063  -2.178753   1.706124   0.006013   0.377948   0.015910
  12   1  -3.367912  -1.972238  -0.360756   0.005154   0.412307   0.012500
  13   1  -2.692058  -2.857888  -0.670586   0.005413   0.343589   0.015755
  14   1  -3.450828  -0.788539  -1.202739   0.003554   0.412307   0.008620
  15   1  -2.800587  -0.548166  -2.229231   0.003598   0.309230   0.011636
  16   1  -3.623590  -0.104373  -0.378157   0.000673   0.274871   0.002447
  17   1  -3.511900  -0.156282   0.944955   0.001788   0.412307   0.004337
  18   1  -2.863139   0.175770   2.011790   0.001967   0.309230   0.006360
  19   1  -1.931811  -3.210461   1.263589   0.006282   0.377948   0.016621
  20   1  -1.970017  -3.479671   0.107585   0.005983   0.377948   0.015831
  21   1  -2.020261  -2.743244  -1.878913   0.007895   0.446666   0.017675
  22   1  -2.099077  -1.658426  -2.590907   0.007195   0.412307   0.017450
  23   1  -2.148681   0.443054  -2.551505   0.002635   0.309230   0.008522
  24   1  -1.983463  -0.326718   2.843706   0.004757   0.343589   0.013845
  25   1  -2.087911  -1.486480   2.660566   0.007786   0.446666   0.017431
  26   1   1.197153  -3.406919  -0.328753   0.000326   0.240512   0.001355
  27   1   1.179516  -2.969491  -1.554239   0.001241   0.274871   0.004516
  28   1   1.031150  -1.059181  -2.866249   0.002630   0.274871   0.009570
  29   1   0.982138   0.326160  -2.768645   0.001884   0.274871   0.006853
  30   1   1.136540   1.604637  -1.777599  -0.000311   0.068718  -0.004527
  31   1   0.937773   1.407683   2.140428   0.000230   0.206154   0.001113
  32   1   1.004210   0.524985   2.681044   0.001465   0.240512   0.006091
  33   1   1.102137  -1.879560   2.569406   0.002485   0.274871   0.009041
  34   1   1.155192  -2.762467   1.850724   0.001660   0.309230   0.005368
  35   1  -0.863602  -3.231719   1.881540   0.005862   0.377948   0.015510
  36   1   0.211294  -3.418469   1.513909   0.003880   0.377948   0.010266
  37   1   0.217570  -3.796325   0.152283   0.003956   0.481025   0.008224
  38   1  -0.829510  -3.808198  -0.469189   0.004925   0.377948   0.013031
  39   1  -0.725667  -3.390671  -1.668040   0.005986   0.412307   0.014517
  40   1   0.189139  -2.838990  -2.287415   0.005817   0.446666   0.013022
  41   1   0.050997  -1.721968  -3.017341   0.005861   0.377948   0.015507
  42   1  -0.926348  -1.121351  -3.173180   0.007215   0.412307   0.017499
  43   1  -1.045592   0.113873  -3.108129   0.005103   0.377948   0.013501
  44   1   0.038870   0.896972  -2.837216   0.002592   0.309230   0.008383
  45   1  -0.923372   0.489847   3.017311   0.004298   0.377948   0.011372
  46   1   0.009026  -0.089898   3.176407   0.004908   0.377948   0.012985
  47   1   0.171705  -1.445760   3.083293   0.006762   0.446666   0.015139
  48   1  -0.848403  -2.163818   2.828261   0.008041   0.446666   0.018002
  49   1  -2.894376  -2.663152   0.575423   0.006320   0.412307   0.015327
  50   1  -2.969538  -1.822685  -1.640312   0.006993   0.481025   0.014537
  51   1  -3.150533   0.110250  -1.633777   0.001144   0.240512   0.004758
  52   1  -2.985594  -0.862746   2.001011   0.004874   0.412307   0.011820
  53   1  -0.944106  -3.735026   0.760676   0.005142   0.377948   0.013604
  54   1  -1.007891  -2.391707  -2.661739   0.008057   0.446666   0.018037
  55   1  -0.834163   0.825673  -2.885773   0.001481   0.171795   0.008619
  56   1  -1.015362  -0.856475   3.189245   0.007049   0.412307   0.017097
  57   1   0.403159  -3.543682  -1.135447   0.003455   0.412307   0.008380
  58   1   0.195913  -0.379901  -3.179533   0.006040   0.446666   0.013523
  59   1   0.094063   1.025161   2.754972   0.002195   0.309230   0.007098
  60   1   0.191778  -2.680762   2.430494   0.005022   0.377948   0.013286
  61   2   3.846137  -0.391062  -0.036626  -0.007698   0.451437  -0.017052
  62   2   2.768018  -1.805731  -1.580856  -0.005837   0.471065  -0.012390
  63   2   2.805114  -2.342102   0.855374  -0.006505   0.490692  -0.013258
  64   2   2.652400  -0.376931   2.104397  -0.005270   0.471065  -0.011188
  65   2   2.690003   1.484732   0.569064  -0.005980   0.471065  -0.012694
  66   2   2.731636   0.587925  -1.735067  -0.005470   0.451437  -0.012117
  67   2   3.540863  -1.666253  -0.339651  -0.008757   0.529948  -0.016525
  68   2   3.533559  -1.088725   1.064890  -0.008273   0.510320  -0.016212
  69   2   3.451213   0.321135   1.043073  -0.007796   0.490692  -0.015888
  70   2   3.449082   0.759089  -0.407242  -0.008199   0.510320  -0.016066
  71   2   3.494650  -0.542941  -1.272406  -0.007813   0.490692  -0.015922
  72   2   2.679530  -2.563685  -0.463810  -0.005528   0.451437  -0.012245
  73   2   2.652549  -1.593683   1.817244  -0.004404   0.392554  -0.011219
  74   2   2.543196   0.873921   1.662000  -0.004857   0.431809  -0.011248
  75   2   2.563849   1.449373  -0.880803  -0.005731   0.431809  -0.013271
  76   2   2.596361  -0.576480  -2.141229  -0.004542   0.431809  -0.010519
  77   3  -1.649664   3.495417   0.036650  -0.007695   0.451437  -0.017045
  78   3  -2.624571   2.007709   1.580852  -0.005831   0.471065  -0.012379
  79   3  -3.142658   1.864100  -0.855384  -0.006501   0.490692  -0.013249
  80   3  -1.238788   2.374550  -2.104383  -0.005269   0.471065  -0.011186
  81   3   0.504078   3.029947  -0.569025  -0.005971   0.471065  -0.012676
  82   3  -0.355427   2.770524   1.735094  -0.005467   0.451437  -0.012111
  83   3  -2.750412   2.782906   0.339656  -0.008754   0.529948  -0.016520
  84   3  -2.203402   2.968362  -1.064878  -0.008270   0.510320  -0.016206
  85   3  -0.846593   3.360220  -1.043042  -0.007794   0.490692  -0.015884
  86   3  -0.432939   3.504037   0.407277  -0.008197   0.510320  -0.016062
  87   3  -1.675835   3.113397   1.272425  -0.007810   0.490692  -0.015915
  88   3  -3.309784   1.671876   0.463795  -0.005529   0.451437  -0.012247
  89   3  -2.386142   1.969491  -1.817247  -0.004399   0.392554  -0.011206
  90   3  -0.022970   2.688125  -1.661971  -0.004851   0.431809  -0.011233
  91   3   0.512735   2.899200   0.880839  -0.005730   0.431809  -0.013269
  92   3  -1.408325   2.255201   2.141240  -0.004538   0.431809  -0.010508
  93   1   1.287798   1.821525  -1.293520  -0.000316   0.018560  -0.017035
  94   2   1.583478   1.695417  -1.208083  -0.000285   0.018560  -0.015353
  95   3   1.070559   2.058030  -1.208091  -0.000358   0.018560  -0.019279
  96   1   1.287793   1.821503   1.293549  -0.000341   0.018560  -0.018368
  97   2   1.583473   1.695397   1.208112  -0.000366   0.018560  -0.019735
  98   3   1.070555   2.058010   1.208123  -0.000295   0.018560  -0.015906
  99   2   1.858997   1.384356   1.475924  -0.000874   0.085138  -0.010262
 100   2   1.910835   0.368414   2.155918  -0.001466   0.183579  -0.007986
 101   2   1.986366  -1.111837   2.238553  -0.001115   0.183579  -0.006072
 102   2   2.049020  -2.339688   1.406607  -0.001554   0.183579  -0.008465
 103   2   2.073200  -2.813489  -0.000022  -0.002008   0.183579  -0.010940
 104   2   2.049026  -2.339664  -1.406644  -0.001717   0.183579  -0.009355
 105   2   1.986375  -1.111800  -2.238570  -0.001262   0.183579  -0.006873
 106   2   1.910843   0.368450  -2.155910  -0.001524   0.183579  -0.008301
 107   2   1.859003   1.384381  -1.475899  -0.000729   0.085138  -0.008557
 108   1   1.440541   1.112685   1.911667  -0.001196   0.183278  -0.006523
 109   1   1.516520  -0.376360   2.508905   0.000035   0.183278   0.000189
 110   1   1.595413  -1.922478   2.081106  -0.000429   0.183278  -0.002341
 111   1   1.644989  -2.893990   0.803051  -0.001173   0.183278  -0.006400
 112   1   1.644992  -2.893977  -0.803099  -0.001168   0.183278  -0.006374
 113   1   1.595422  -1.922443  -2.081138  -0.000513   0.183278  -0.002799
 114   1   1.516530  -0.376318  -2.508911  -0.000027   0.183278  -0.000149
 115   1   1.440549   1.112717  -1.911649  -0.001178   0.183278  -0.006425
 116   3   0.685403   2.214126  -1.475835  -0.000858   0.085044  -0.010086
 117   3  -0.289677   1.924729  -2.155641  -0.001482   0.183395  -0.008078
 118   3  -1.710337   1.503080  -2.238196  -0.001112   0.183395  -0.006061
 119   3  -2.888735   1.153327  -1.406375  -0.001534   0.183395  -0.008364
 120   3  -3.343460   1.018355  -0.000001  -0.002017   0.183395  -0.010996
 121   3  -2.888741   1.153303   1.406376  -0.001740   0.183395  -0.009487
 122   3  -1.710346   1.503043   2.238208  -0.001248   0.183395  -0.006806
 123   3  -0.289686   1.924693   2.155666  -0.001512   0.183395  -0.008245
 124   3   0.685397   2.214102   1.475869  -0.000744   0.085044  -0.008754
 125   1   0.568477   1.729546  -1.911492  -0.001133   0.183057  -0.006187
 126   1  -0.860651   1.305388  -2.508539  -0.000044   0.183057  -0.000241
 127   1  -2.344509   0.864978  -2.080767  -0.000364   0.183057  -0.001987
 128   1  -3.276893   0.588237  -0.802934  -0.001123   0.183057  -0.006132
 129   1  -3.276896   0.588224   0.802925  -0.001178   0.183057  -0.006436
 130   1  -2.344517   0.864943   2.080766  -0.000312   0.183057  -0.001703
 131   1  -0.860661   1.305346   2.508551  -0.000126   0.183057  -0.000689
 132   1   0.568469   1.729514   1.911517  -0.001202   0.183057  -0.006566
 133   3   1.087019   2.314792   0.892125  -0.001716   0.175990  -0.009748
 134   3   1.120982   2.362842  -0.398771  -0.004711   0.353542  -0.013324
 135   2   1.854152   1.844541   0.398807  -0.004718   0.353542  -0.013345
 136   2   1.820195   1.796512  -0.892090  -0.001709   0.175990  -0.009709
 =====================================================

              1048624  WORDS OF DYNAMIC MEMORY USED
 EXECUTION OF GAMESS TERMINATED NORMALLY Sun Nov 27 16:56:32 2016
 DDI: 263640 bytes (0.3 MB / 0 MWords) used by master data server.

 ----------------------------------------
 CPU timing information for all processes
 ========================================
 0: 0.732 + 0.20 = 0.752
 ----------------------------------------
 ddikick.x: exited gracefully.
